Written by MDAnalysis
38571
    1CHTO  H203    1   5.928   6.374   3.207  1.6867  0.8243  2.2287
    1CHTO   O82    2   5.893   6.304   3.258  0.0813  0.1786  0.3413
    1CHTO  C123    3   5.994   6.206   3.239 -0.3009  0.1665  1.0776
    1CHTO  H227    4   6.089   6.242   3.282 -0.3357  0.0256  1.2740
    1CHTO   O77    5   5.943   6.099   3.320  0.4583  0.1062 -0.2701
    1CHTO  C118    6   6.027   5.986   3.346 -0.3865 -0.4053 -0.4307
    1CHTO  H222    7   6.123   6.031   3.379 -0.2696  0.2572 -1.6320
    1CHTO  C125    8   5.970   5.894   3.453 -0.2261 -0.1890 -0.0005
    1CHTO   O84    9   5.979   5.952   3.587 -0.7135 -0.8108  0.4563
    1CHTO  H205   10   6.011   5.888   3.647  0.1413 -0.0365  0.8347
    1CHTO  C114   11   6.058   5.913   3.218  0.2450 -0.2765 -0.2767
    1CHTO  H218   12   5.969   5.859   3.184  1.5314 -0.7370 -3.0281
    1CHTO  C116   13   6.102   6.008   3.101  0.2007 -0.3215 -1.1299
    1CHTO  H220   14   6.209   6.027   3.122  0.3529 -0.8972 -1.3668
    1CHTO   O79   15   6.105   5.939   2.977 -0.3837 -0.2301  0.0863
    1CHTO  H201   16   6.107   5.989   2.898 -1.5967 -0.3030 -0.0080
    1CHTO  C120   17   6.023   6.143   3.095  1.1844 -0.4408  0.6386
    1CHTO  H224   18   5.931   6.107   3.044  1.3642 -0.6377  0.4513
    1CHTO   N21   19   6.085   6.249   3.005 -0.1368  0.5784  0.1429
    1CHTO  H211   20   6.171   6.300   3.045  1.3243 -0.5353 -1.5259
    1CHTO  H212   21   6.014   6.323   2.971 -0.8249 -0.1820 -0.0764
    1CHTO   O75   22   6.156   5.820   3.260  0.1868  0.2894 -0.4819
    1CHTO  C112   23   6.193   5.696   3.161 -0.5312 -1.0437  0.1100
    1CHTO  H216   24   6.168   5.721   3.057  0.2701 -1.5147 -0.2063
    1CHTO   O73   25   6.115   5.587   3.205 -0.3713  0.2019 -0.5080
    1CHTO  C113   26   6.122   5.465   3.119  0.3886 -0.5684 -0.5992
    1CHTO  H217   27   6.079   5.493   3.021  0.4890 -0.0681 -0.4992
    1CHTO  C124   28   6.028   5.357   3.185  0.2362 -0.4767 -0.5481
    1CHTO   O83   29   6.026   5.345   3.326 -0.3816 -0.3685 -0.9014
    1CHTO  H204   30   5.957   5.284   3.344 -0.5436 -0.2693 -1.1921
    1CHTO  C109   31   6.273   5.416   3.102  0.6306  0.1955 -0.5347
    1CHTO  H213   32   6.305   5.369   3.196 -0.4946 -2.0949 -1.2732
    1CHTO  C110   33   6.364   5.527   3.073 -0.3224 -0.3082  0.0479
    1CHTO  H214   34   6.360   5.554   2.968  3.1454 -3.4298 -0.9616
    1CHTO   O78   35   6.492   5.471   3.093 -0.8361 -0.0030 -0.3253
    1CHTO  H200   36   6.521   5.446   3.007 -0.0856 -0.5887  0.0931
    1CHTO  C111   37   6.342   5.655   3.165 -0.1717 -0.8301 -0.6229
    1CHTO  H215   38   6.360   5.622   3.268  0.6277 -2.0813 -1.1580
    1CHTO   N19   39   6.435   5.765   3.136 -0.2788  0.3465 -1.0154
    1CHTO  H207   40   6.501   5.759   3.051 -0.7899  1.6982 -1.5146
    1CHTO  H208   41   6.391   5.863   3.129 -1.1404  0.1064  0.7426
    1CHTO   O74   42   6.281   5.315   2.996 -0.5317  0.1148  0.7645
    1CHTO  C115   43   6.374   5.175   3.046  0.1594 -0.2557 -0.1988
    1CHTO  H219   44   6.417   5.192   3.145  0.0425 -0.8370 -0.0492
    1CHTO   O76   45   6.291   5.067   3.062 -0.0800 -0.2647  0.0728
    1CHTO  C122   46   6.230   5.024   2.940  0.3152 -0.9144 -0.2044
    1CHTO  H226   47   6.183   5.112   2.895  2.8549  2.0189  2.5732
    1CHTO  C126   48   6.119   4.917   2.962 -0.0252 -0.8016 -0.6120
    1CHTO   O85   49   6.143   4.811   3.050  0.2969  0.3551  0.1804
    1CHTO  H206   50   6.145   4.855   3.133  1.5573 -3.5605  2.3436
    1CHTO  C121   51   6.335   4.952   2.838  0.2848 -0.6093 -0.2272
    1CHTO  H225   52   6.320   4.843   2.848 -0.9299 -0.3111  1.6093
    1CHTO   O81   53   6.300   5.001   2.700 -0.2378  0.6357 -0.5844
    1CHTO  H202   54   6.228   4.948   2.672 -0.3945  0.8828 -0.6571
    1CHTO  C119   55   6.477   4.986   2.887 -0.1126 -0.6086 -0.5779
    1CHTO  H223   56   6.500   4.917   2.969  2.1122 -0.2250 -0.8456
    1CHTO  C117   57   6.482   5.133   2.938 -0.0181 -0.2579 -0.0211
    1CHTO  H221   58   6.469   5.206   2.858  2.0436 -0.6800 -0.7640
    1CHTO   N20   59   6.619   5.164   2.985 -0.1006 -0.3921  0.6286
    1CHTO  H209   60   6.629   5.246   3.055  1.9403  0.8662 -1.0610
    1CHTO  H210   61   6.652   5.082   3.047  1.0998 -0.4710 -0.0826
    1CHTO   O80   62   6.594   4.944   2.777  0.0010 -0.0328  0.4817
    1CHTO  C103   63   6.615   4.796   2.747 -0.6141 -0.5194 -0.0342
    1CHTO  H190   64   6.580   4.737   2.833 -1.4392  0.5276  0.3668
    1CHTO  C101   65   6.549   4.738   2.613  0.6947 -0.0348 -0.2985
    1CHTO  H188   66   6.578   4.798   2.527 -0.0202  1.5133  0.4995
    1CHTO   O68   67   6.386   4.723   2.637  0.0008  0.5228  0.7098
    1CHTO  H168   68   6.336   4.781   2.583 -0.4499  1.2192  1.8609
    1CHTO   C99   69   6.606   4.586   2.583 -0.3678 -0.6358 -0.7960
    1CHTO  H186   70   6.584   4.522   2.671 -2.5192 -0.6365 -1.2966
    1CHTO   N17   71   6.551   4.528   2.457  0.4222  0.4901  0.2819
    1CHTO  H174   72   6.600   4.574   2.373  2.1664 -0.3397  0.8021
    1CHTO  H175   73   6.571   4.421   2.459 -0.2870  0.3595  0.3177
    1CHTO   C97   74   6.762   4.601   2.578  0.0898  0.4000 -0.1273
    1CHTO  H184   75   6.787   4.672   2.497 -0.3594  1.6750  0.8507
    1CHTO   O64   76   6.807   4.641   2.708  0.2708 -0.2363  0.1511
    1CHTO  C104   77   6.779   4.779   2.736  0.4652  0.0718  0.4157
    1CHTO  H191   78   6.813   4.845   2.656  0.3159  0.6741  0.8440
    1CHTO  C108   79   6.854   4.829   2.858  0.0508 -0.2164 -0.3802
    1CHTO   O71   80   6.994   4.806   2.849 -0.2760  0.3472 -0.0534
    1CHTO  H171   81   7.041   4.866   2.904  1.8032  0.2913 -1.7131
    1CHTO   O62   82   6.829   4.473   2.564 -0.2111  0.7051  0.1136
    1CHTO   C91   83   6.964   4.485   2.515 -0.2005 -0.5388 -0.0614
    1CHTO  H178   84   7.011   4.576   2.552  1.0025 -1.5151  0.8478
    1CHTO   C92   85   6.963   4.490   2.361 -0.2477 -1.2472 -0.2508
    1CHTO  H179   86   6.877   4.544   2.319  0.4142  1.7222  1.9484
    1CHTO   O66   87   7.059   4.590   2.325 -0.0520  0.0721 -0.6223
    1CHTO  H166   88   7.050   4.666   2.380 -0.0539  0.2438 -0.8583
    1CHTO   C93   89   6.985   4.359   2.284  0.0655 -0.3714  0.3501
    1CHTO  H180   90   7.007   4.388   2.180 -0.3290  3.3254  1.2259
    1CHTO   N16   91   6.856   4.287   2.261 -0.0648  0.7208 -0.6834
    1CHTO  H172   92   6.866   4.206   2.191  1.3820  0.6301 -0.3823
    1CHTO  H173   93   6.819   4.246   2.354 -1.7134  2.0141 -0.7334
    1CHTO   C94   94   7.103   4.279   2.349 -0.4366  0.2260 -0.0182
    1CHTO  H181   95   7.077   4.176   2.373 -0.6052  0.2263 -0.2011
    1CHTO   O61   96   7.158   4.333   2.470  0.0822  0.0397  0.2024
    1CHTO   C95   97   7.067   4.378   2.571 -0.1302 -1.1644  0.5186
    1CHTO  H182   98   7.016   4.289   2.608 -2.7615 -0.3524 -0.9768
    1CHTO  C106   99   7.164   4.430   2.686 -0.5058 -0.2328  0.0030
    1CHTO   O69  100   7.238   4.316   2.734  0.4747  0.0684 -0.3440
    1CHTO  H169  101   7.281   4.286   2.656  2.0958  0.2906  0.4375
    1CHTO   O63  102   7.206   4.277   2.245 -0.2320  0.0888  0.5994
    1CHTO   C96  103   7.318   4.169   2.246  0.0313  0.2087  0.3370
    1CHTO  H183  104   7.268   4.072   2.252  0.2195  0.1324  0.6777
    1CHTO   C98  105   7.418   4.177   2.366  0.1882  0.0653  0.5448
    1CHTO  H185  106   7.361   4.210   2.454  1.8315  0.9899  1.2881
    1CHTO   O67  107   7.464   4.041   2.394  0.5160  0.4987  0.1685
    1CHTO  H167  108   7.390   3.987   2.416  0.2150  0.1049 -1.6811
    1CHTO  C102  109   7.542   4.266   2.341 -0.2762  0.1077 -0.1257
    1CHTO  H189  110   7.605   4.255   2.430 -0.6247 -0.0348  0.1044
    1CHTO   N18  111   7.519   4.410   2.338  0.6655 -0.4244  0.4653
    1CHTO  H176  112   7.489   4.455   2.431  0.8568  0.3723  0.1473
    1CHTO  H177  113   7.446   4.424   2.259  0.6924  0.7100  0.6446
    1CHTO  C105  114   7.615   4.217   2.212 -0.1398 -0.5299 -0.4896
    1CHTO  H192  115   7.687   4.294   2.184 -1.7563  1.0946 -0.2996
    1CHTO   O65  116   7.533   4.187   2.097  0.2279 -0.4133 -0.5987
    1CHTO  C100  117   7.395   4.161   2.107  0.4074 -0.5273 -0.0156
    1CHTO  H187  118   7.341   4.235   2.046  0.1626 -1.1632 -0.5768
    1CHTO  C107  119   7.362   4.022   2.041  0.1104  0.0842 -0.8394
    1CHTO   O70  120   7.397   4.031   1.904 -0.3921 -0.3709 -0.2993
    1CHTO  H170  121   7.317   4.020   1.856  0.8599 -1.8863 -2.1179
    1CHTO   O57  122   7.680   4.099   2.255  0.2921  0.4228  0.1301
    1CHTO   C85  123   7.822   4.083   2.267  0.1164 -0.1731  0.3151
    1CHTO  H157  124   7.868   4.116   2.171  0.7942 -0.4255  0.5489
    1CHTO   C83  125   7.833   3.923   2.256  0.4334 -0.2915 -0.6647
    1CHTO  H155  126   7.803   3.891   2.156 -0.4667 -0.4257 -0.3483
    1CHTO   O56  127   7.749   3.852   2.351 -0.4261 -0.2842  0.4336
    1CHTO  H135  128   7.665   3.894   2.359 -0.7275 -0.8899  0.4932
    1CHTO   C81  129   7.977   3.876   2.273  0.1662 -0.6150  0.2197
    1CHTO  H153  130   8.036   3.921   2.194 -0.7977  0.9614  0.3844
    1CHTO   N14  131   8.001   3.732   2.245  0.0764  0.8316 -0.1075
    1CHTO  H141  132   8.080   3.696   2.308  1.6118  1.2471 -1.7406
    1CHTO  H142  133   7.912   3.678   2.269  0.7660 -0.5401 -0.5727
    1CHTO   C79  134   8.040   3.922   2.417  0.0211 -0.1628 -0.0154
    1CHTO  H151  135   8.145   3.891   2.415  0.6157  1.7907 -0.3236
    1CHTO   O52  136   8.031   4.063   2.431 -0.2010  0.2905  0.1678
    1CHTO   C86  137   7.899   4.132   2.394 -0.1581  0.5841  0.9539
    1CHTO  H158  138   7.838   4.127   2.487 -1.7411  1.5352  0.0014
    1CHTO   C90  139   7.928   4.279   2.369  0.1512  0.5785  0.2175
    1CHTO   O60  140   7.951   4.354   2.482  0.6896 -0.0051  0.5580
    1CHTO  H138  141   7.986   4.437   2.453 -0.2871 -0.0258 -0.7650
    1CHTO   O50  142   7.982   3.858   2.536 -0.1551  0.6100 -0.2190
    1CHTO   C73  143   7.969   3.841   2.680 -0.8987  0.2866 -0.2191
    1CHTO  H145  144   8.030   3.757   2.715 -1.1162 -0.7173 -2.2038
    1CHTO   C74  145   7.821   3.806   2.713  0.2535 -0.4821 -0.3108
    1CHTO  H146  146   7.787   3.719   2.655 -0.6307  0.6424 -1.4880
    1CHTO   O54  147   7.819   3.777   2.855 -0.5097  0.8308 -0.2403
    1CHTO  H133  148   7.839   3.852   2.908  0.6592  0.3786 -0.0127
    1CHTO   C75  149   7.740   3.936   2.678 -0.1701 -0.8824  0.2573
    1CHTO  H147  150   7.746   3.960   2.571  1.3392 -0.7230  0.3586
    1CHTO   N13  151   7.593   3.914   2.694 -0.2908 -0.0243 -0.5210
    1CHTO  H139  152   7.568   3.816   2.656 -1.5082  0.0520  0.0550
    1CHTO  H140  153   7.570   3.931   2.798 -0.0385  1.8581 -0.7598
    1CHTO   C76  154   7.785   4.065   2.766  0.2539 -0.0210  0.2286
    1CHTO  H148  155   7.779   4.040   2.872 -0.2541  0.4163  0.3110
    1CHTO   O49  156   7.932   4.084   2.733  0.5978 -0.2852  0.6420
    1CHTO   C77  157   8.016   3.970   2.759  0.4289 -0.4998  0.1423
    1CHTO  H149  158   8.007   3.950   2.866 -0.9806 -0.0853  0.1201
    1CHTO   C88  159   8.158   4.014   2.718 -0.2925 -0.1818 -0.2130
    1CHTO   O58  160   8.258   3.901   2.763 -0.3908 -0.1707  0.1678
    1CHTO  H136  161   8.244   3.822   2.715  1.4167 -1.5873  1.9344
    1CHTO   O51  162   7.698   4.199   2.733 -0.5054  0.3143 -0.3786
    1CHTO   C78  163   7.700   4.310   2.858 -0.0839 -0.7176  0.1126
    1CHTO  H150  164   7.794   4.370   2.856 -0.2002 -0.5757 -1.5514
    1CHTO   C80  165   7.692   4.256   3.006 -0.5071 -0.3741  0.1614
    1CHTO  H152  166   7.613   4.178   3.008  0.5412 -1.4880 -0.5941
    1CHTO   O55  167   7.814   4.189   3.042  0.4062 -0.5547 -0.1172
    1CHTO  H134  168   7.846   4.124   2.983  1.0295 -0.3742  0.0255
    1CHTO   C84  169   7.665   4.369   3.113  0.3686 -0.0382 -0.7556
    1CHTO  H156  170   7.755   4.429   3.122  0.9047 -1.1343  1.7775
    1CHTO   N15  171   7.646   4.312   3.248  0.4694 -0.0405 -0.4370
    1CHTO  H143  172   7.587   4.223   3.251  0.3906  0.0415  1.0001
    1CHTO  H144  173   7.600   4.377   3.320 -2.0791 -1.9876 -0.2313
    1CHTO   C87  174   7.547   4.458   3.074  0.7460 -0.4760 -0.0643
    1CHTO  H159  175   7.461   4.391   3.064  1.2928 -1.4047  1.2248
    1CHTO   O53  176   7.577   4.516   2.936 -0.2597  0.4618 -0.6866
    1CHTO   C82  177   7.585   4.415   2.834  0.2421  0.1238  0.6076
    1CHTO  H154  178   7.488   4.366   2.823 -0.1333  0.9123  0.3602
    1CHTO   C89  179   7.618   4.492   2.702 -0.6350  0.0148 -0.5896
    1CHTO   O59  180   7.526   4.592   2.668 -0.5020  0.4534  0.3156
    1CHTO  H137  181   7.522   4.659   2.734 -2.1883 -0.2127  0.9322
    1CHTO   O45  182   7.529   4.583   3.189 -0.0739  0.1778 -0.1766
    1CHTO   C67  183   7.401   4.657   3.172 -0.4932  0.2663  0.8203
    1CHTO  H124  184   7.320   4.592   3.139 -1.6785  1.0396  2.1786
    1CHTO   C65  185   7.366   4.724   3.308  0.1922 -0.4065 -0.6708
    1CHTO  H122  186   7.391   4.662   3.394 -0.9071  0.9365  0.6361
    1CHTO   O44  187   7.227   4.760   3.302  0.0525  0.6810  0.0196
    1CHTO  H102  188   7.184   4.680   3.326 -1.5007  1.3870 -0.3890
    1CHTO   C63  189   7.458   4.845   3.343  0.5632  0.5589  0.8223
    1CHTO  H120  190   7.559   4.805   3.327 -0.5183 -1.8355 -0.3498
    1CHTO   N11  191   7.449   4.903   3.487 -0.2064  0.8392 -0.0643
    1CHTO  H108  192   7.345   4.910   3.510 -0.0140 -0.8300  1.4573
    1CHTO  H109  193   7.491   5.001   3.494  0.0650  0.6329  1.4890
    1CHTO   C61  194   7.437   4.953   3.233  0.4750  0.1510 -0.0438
    1CHTO  H118  195   7.521   5.023   3.247  0.0975  0.6859 -0.4303
    1CHTO   O40  196   7.440   4.907   3.100  0.1893  0.4486 -0.1177
    1CHTO   C68  197   7.417   4.767   3.058  0.7417 -0.4000  0.2942
    1CHTO  H125  198   7.508   4.738   3.002  0.9273  0.4891  0.1327
    1CHTO   C72  199   7.299   4.766   2.949 -0.4834 -0.1255  0.0484
    1CHTO   O48  200   7.277   4.635   2.894 -0.3477 -0.0105 -0.0510
    1CHTO  H105  201   7.185   4.615   2.899 -0.0156 -1.3214  1.5155
    1CHTO   O38  202   7.308   5.024   3.243  0.3837 -0.2896 -0.1883
    1CHTO   C55  203   7.304   5.162   3.222  0.0301  0.1964  0.1750
    1CHTO  H112  204   7.390   5.191   3.161 -1.1297  3.7689  0.1448
    1CHTO   C56  205   7.291   5.246   3.358 -0.2112 -0.2626  0.1948
    1CHTO  H113  206   7.209   5.200   3.416  0.6240 -0.9314  0.8681
    1CHTO   O42  207   7.402   5.215   3.441 -0.0463  0.0516 -0.0797
    1CHTO  H100  208   7.481   5.257   3.414 -0.3627  1.0820  0.5527
    1CHTO   C57  209   7.270   5.401   3.341  0.2246  0.5256  0.4792
    1CHTO  H114  210   7.366   5.440   3.309 -0.8043  0.3569 -3.0186
    1CHTO   N10  211   7.245   5.471   3.469 -0.1135  0.0135  0.3151
    1CHTO  H106  212   7.272   5.576   3.471 -0.2487  0.0255  2.2236
    1CHTO  H107  213   7.142   5.465   3.502  0.1512  1.2264  1.4134
    1CHTO   C58  214   7.165   5.429   3.227 -0.3493 -0.1514 -0.5996
    1CHTO  H115  215   7.066   5.400   3.268  0.8571 -0.8067  1.8922
    1CHTO   O37  216   7.184   5.348   3.111  0.1608  0.0534 -0.3181
    1CHTO   C59  217   7.183   5.205   3.134 -0.1667  0.3653 -0.5539
    1CHTO  H116  218   7.094   5.177   3.189  3.0455 -2.1267  3.6186
    1CHTO   C70  219   7.174   5.135   3.003 -0.0530 -0.4577 -0.3400
    1CHTO   O46  220   7.054   5.119   2.933 -0.0126  0.2763  0.3737
    1CHTO  H103  221   7.085   5.127   2.844 -0.5834 -1.0248  0.0367
    1CHTO   O39  222   7.169   5.573   3.183 -0.0163  0.6274  0.3296
    1CHTO   C60  223   7.044   5.632   3.157  0.3613 -0.0194  0.1402
    1CHTO  H117  224   6.974   5.554   3.125 -0.3049 -0.3386  2.2349
    1CHTO   C62  225   6.971   5.707   3.277  0.2723 -0.4174 -0.2240
    1CHTO  H119  226   6.941   5.634   3.355 -0.4772  0.4765  0.3395
    1CHTO   O43  227   7.052   5.808   3.335  0.2259 -0.3235  0.6957
    1CHTO  H101  228   7.035   5.811   3.427  1.2588 -3.5884  1.0675
    1CHTO   C66  229   6.837   5.775   3.221 -0.3425  0.1061  0.1775
    1CHTO  H123  230   6.774   5.694   3.185  0.8416  0.0737 -1.8915
    1CHTO   N12  231   6.756   5.841   3.325 -0.9841 -0.1159  0.5875
    1CHTO  H110  232   6.711   5.763   3.384  2.0670 -3.0019 -0.7571
    1CHTO  H111  233   6.687   5.920   3.297  0.7594  0.7937 -1.2875
    1CHTO   C69  234   6.870   5.868   3.105  0.0506 -0.5989 -0.4232
    1CHTO  H126  235   6.947   5.940   3.139  0.1677 -1.6138  1.5873
    1CHTO   O41  236   6.936   5.797   2.985 -0.0040  0.3072  1.1315
    1CHTO   C64  237   7.073   5.734   3.041  0.5386 -0.1672 -0.1583
    1CHTO  H121  238   7.133   5.823   3.069 -1.3492  1.4297 -1.1186
    1CHTO   C71  239   7.147   5.661   2.928 -0.1625  0.7520 -0.0089
    1CHTO   O47  240   7.193   5.746   2.823  0.2737 -0.1966  0.1709
    1CHTO  H104  241   7.258   5.796   2.869 -0.5121 -1.3011  2.5436
    1CHTO   O34  242   6.739   5.959   3.057 -0.0112  0.2063  0.0498
    1CHTO   C49  243   6.717   6.103   2.982  0.0643  0.2089 -0.0757
    1CHTO   H91  244   6.752   6.181   3.049 -0.5253  0.3257  0.0930
    1CHTO   C47  245   6.571   6.129   2.945  0.3193  0.6217 -0.2919
    1CHTO   H89  246   6.559   6.235   2.915  0.1242  1.0270  1.1641
    1CHTO   O33  247   6.488   6.104   3.065  0.3043  0.2031  0.0328
    1CHTO   H70  248   6.497   6.168   3.132 -1.3536 -0.0145  0.4980
    1CHTO   C45  249   6.515   6.016   2.835 -0.1843 -0.0276 -0.4117
    1CHTO   H87  250   6.520   5.918   2.885 -1.0424 -0.0540 -0.3782
    1CHTO    N8  251   6.380   6.046   2.800 -0.4208 -0.4249 -0.2363
    1CHTO   H75  252   6.310   6.032   2.882 -0.4004  0.5114 -0.0538
    1CHTO   H76  253   6.358   6.142   2.755  0.5809  1.0262  2.2546
    1CHTO   C43  254   6.619   6.016   2.711  1.0966 -0.5258  0.8637
    1CHTO   H85  255   6.592   5.925   2.657 -1.2354  1.2279 -1.0110
    1CHTO   O29  256   6.756   6.013   2.758  0.8187 -0.0338 -0.3377
    1CHTO   C50  257   6.804   6.107   2.857 -0.1181  0.9317  0.2519
    1CHTO   H92  258   6.904   6.078   2.890  0.6948 -2.1450 -4.3990
    1CHTO   C54  259   6.823   6.247   2.799 -0.0242  0.0155  0.8773
    1CHTO   O36  260   6.893   6.340   2.887  0.0110  0.0146  0.0346
    1CHTO   H72  261   6.851   6.373   2.963  3.2277  0.9999  1.4397
    1CHTO   O27  262   6.593   6.126   2.618  0.0043 -0.1080 -0.0520
    1CHTO   C37  263   6.597   6.147   2.479  0.4739 -0.9359 -0.1106
    1CHTO   H79  264   6.515   6.092   2.431 -2.7800  2.4228  1.3270
    1CHTO   C38  265   6.564   6.303   2.459  0.5737 -0.0152  0.1588
    1CHTO   H80  266   6.612   6.360   2.540  0.1555  1.9939 -0.9693
    1CHTO   O31  267   6.423   6.321   2.460  0.0684  0.1716 -0.2264
    1CHTO   H68  268   6.380   6.273   2.392 -0.1833 -0.1337  0.1501
    1CHTO   C39  269   6.635   6.369   2.329  0.1140 -0.4492 -0.5114
    1CHTO   H81  270   6.577   6.335   2.243 -0.9119 -1.5152  0.5746
    1CHTO    N7  271   6.620   6.521   2.330  0.9608  0.4612 -0.4412
    1CHTO   H73  272   6.596   6.562   2.233  2.1498  2.1146 -0.0541
    1CHTO   H74  273   6.537   6.549   2.394 -0.3669 -0.9409 -1.4994
    1CHTO   C40  274   6.787   6.323   2.321  0.9149 -0.3201  0.3401
    1CHTO   H82  275   6.850   6.353   2.405  3.3522  0.4385 -1.7127
    1CHTO   O26  276   6.788   6.179   2.307 -0.1156  0.8527 -0.0809
    1CHTO   C41  277   6.735   6.103   2.423  0.6613  0.4010  0.3159
    1CHTO   H83  278   6.812   6.102   2.502  0.3680  1.9917  0.6553
    1CHTO   C52  279   6.724   5.949   2.375  0.2153  0.6165  0.0908
    1CHTO   O35  280   6.723   5.869   2.470 -0.2319  0.0033 -0.5078
    1CHTO   H71  281   6.724   5.782   2.437 -0.6780 -0.9407  1.8592
    1CHTO   O28  282   6.858   6.360   2.200 -0.9685  0.1583  0.6504
    1CHTO   C42  283   7.007   6.344   2.174 -0.2471 -0.2431 -0.1903
    1CHTO   H84  284   7.035   6.250   2.223  0.5998  0.6599  1.0697
    1CHTO   C44  285   7.108   6.450   2.229 -0.9217  0.3965 -0.2375
    1CHTO   H86  286   7.077   6.548   2.194  0.7667  0.9077 -0.3174
    1CHTO   O32  287   7.102   6.438   2.372  0.0318  0.6659 -0.7335
    1CHTO   H69  288   7.041   6.503   2.402 -1.9160 -1.2834 -0.3500
    1CHTO   C48  289   7.254   6.424   2.183 -0.8889  0.2351 -0.4329
    1CHTO   H90  290   7.299   6.329   2.213  0.6372  0.6530 -1.3243
    1CHTO    N9  291   7.345   6.543   2.227  0.1231  0.5283  0.3957
    1CHTO   H77  292   7.432   6.500   2.274  0.3404  1.1222  0.5346
    1CHTO   H78  293   7.371   6.602   2.141  1.4677 -0.0032  0.4189
    1CHTO   C51  294   7.257   6.414   2.027 -0.7840 -0.0450  0.8037
    1CHTO   H93  295   7.214   6.507   1.987  0.4185  0.2478  0.1792
    1CHTO   O30  296   7.180   6.296   1.994 -0.8110  0.1905 -1.0745
    1CHTO   C46  297   7.033   6.322   2.023 -0.9252 -0.1359  0.1594
    1CHTO   H88  298   7.009   6.407   1.961  2.3794 -1.3377 -2.9495
    1CHTO   C53  299   6.955   6.196   1.976 -0.8688  0.0296  0.0754
    1CHTO   O72  300   6.991   6.066   2.032 -0.1674 -0.3693  0.4565
    1CHTO  H199  301   6.948   6.057   2.115 -1.3602  0.0622 -0.1104
    1CHTO   O22  302   7.388   6.399   1.966  0.0285  0.0680  0.0195
    1CHTO   C31  303   7.416   6.463   1.849  0.0487 -0.7545  0.3356
    1CHTO   H59  304   7.318   6.472   1.797  0.6103 -0.1683 -0.6242
    1CHTO   C29  305   7.488   6.600   1.860 -0.5761 -0.1425  0.3474
    1CHTO   H57  306   7.583   6.598   1.914 -0.4194  2.5843  0.2655
    1CHTO   O21  307   7.407   6.689   1.944 -0.0631  0.0354 -0.0589
    1CHTO   H37  308   7.467   6.741   1.994  0.0937  0.6298 -0.8538
    1CHTO   C27  309   7.508   6.665   1.715 -0.0332  0.4321 -0.3414
    1CHTO   H55  310   7.411   6.708   1.686 -0.2404  0.2611  0.0803
    1CHTO    N5  311   7.606   6.774   1.711 -0.0294  0.0220 -0.0882
    1CHTO   H43  312   7.612   6.804   1.608  2.4283 -0.1616 -0.0324
    1CHTO   H44  313   7.690   6.754   1.777  0.9893  1.6899 -0.8649
    1CHTO   C25  314   7.542   6.566   1.599 -0.2291  0.0721 -0.0740
    1CHTO   H53  315   7.647   6.561   1.568 -0.3847 -2.6504 -0.3223
    1CHTO   O17  316   7.483   6.435   1.620  0.1625  0.3766  0.0360
    1CHTO   C32  317   7.498   6.378   1.750 -0.1097 -0.3935 -0.2569
    1CHTO   H60  318   7.603   6.380   1.782 -0.5845  0.8784  1.3124
    1CHTO   C36  319   7.443   6.232   1.744  0.3646 -0.3109  0.4604
    1CHTO   O25  320   7.525   6.150   1.661 -0.0439  0.0985  0.1087
    1CHTO   H40  321   7.478   6.070   1.646 -3.4779  1.2019  3.9094
    1CHTO   O15  322   7.470   6.625   1.455 -0.2491  0.0771 -0.0333
    1CHTO   C19  323   7.420   6.660   1.328  0.3026 -0.3947  0.4401
    1CHTO   H47  324   7.374   6.759   1.343  0.0622 -0.0521 -2.4065
    1CHTO   C20  325   7.529   6.670   1.216  0.2858 -0.2564 -0.3363
    1CHTO   H48  326   7.585   6.575   1.202 -2.2524 -1.7407 -0.6865
    1CHTO   O19  327   7.620   6.778   1.251  0.0998 -0.2781  0.2974
    1CHTO   H35  328   7.613   6.796   1.342 -2.1675 -0.5540  0.2032
    1CHTO   C21  329   7.453   6.706   1.080 -0.3865  0.1437 -0.8622
    1CHTO   H49  330   7.404   6.802   1.095  1.1541  0.7619  0.4094
    1CHTO    N4  331   7.546   6.714   0.961  0.1285  0.3255 -0.4152
    1CHTO   H41  332   7.507   6.769   0.877 -0.6143  2.9734  1.6115
    1CHTO   H42  333   7.647   6.742   0.985 -0.4499  0.7346  1.6606
    1CHTO   C22  334   7.351   6.593   1.057  0.7019 -0.2491  0.0917
    1CHTO   H50  335   7.400   6.496   1.052  0.8796 -0.3299  2.8849
    1CHTO   O14  336   7.260   6.595   1.167 -0.1392 -0.4416  0.1420
    1CHTO   C23  337   7.312   6.557   1.290  0.1900 -0.3294 -0.0514
    1CHTO   H51  338   7.354   6.456   1.286  0.7267 -0.0801 -0.8477
    1CHTO   C34  339   7.194   6.565   1.390 -0.3763 -0.3596 -1.2903
    1CHTO   O23  340   7.117   6.447   1.374 -0.7476  0.0557 -1.0038
    1CHTO   H38  341   7.087   6.413   1.456  2.7212  1.0544  0.7615
    1CHTO   O16  342   7.274   6.607   0.938  0.7093 -0.3392 -0.4283
    1CHTO   C24  343   7.237   6.455   0.867 -0.4938 -0.4726 -0.4106
    1CHTO   H52  344   7.296   6.375   0.911 -0.8758  0.6817  2.3072
    1CHTO   C26  345   7.280   6.462   0.725  0.8458 -0.4879  0.5466
    1CHTO   H54  346   7.227   6.545   0.674 -1.1831 -1.3318  1.2200
    1CHTO   O20  347   7.416   6.494   0.716 -0.6571 -0.0751 -0.6822
    1CHTO   H36  348   7.440   6.532   0.633  0.3334  1.4327  0.2852
    1CHTO   C30  349   7.243   6.336   0.642  0.3566 -0.0055 -0.7192
    1CHTO   H58  350   7.303   6.252   0.678 -0.7033 -0.6316 -0.3986
    1CHTO    N6  351   7.278   6.346   0.502 -0.5792 -0.1819 -0.2245
    1CHTO   H45  352   7.371   6.295   0.478  0.4964  1.3975  0.5285
    1CHTO   H46  353   7.280   6.448   0.467  0.2143 -0.1568 -0.1153
    1CHTO   C33  354   7.086   6.301   0.664 -0.6743 -0.6114  0.0919
    1CHTO   H61  355   7.026   6.385   0.627 -1.5651 -0.7287  1.2527
    1CHTO   O18  356   7.061   6.296   0.806 -1.3361  0.2946  0.1751
    1CHTO   C28  357   7.087   6.419   0.882 -0.4323  0.1653  0.0841
    1CHTO   H56  358   7.028   6.502   0.843 -0.6672  0.5303  1.2129
    1CHTO   C35  359   7.053   6.407   1.031 -0.1026  0.0885  0.0507
    1CHTO   O24  360   6.905   6.391   1.047 -0.4976 -0.3577  0.2691
    1CHTO   H39  361   6.859   6.465   1.015  2.2763  0.0716 -3.0234
    1CHTO    O9  362   7.047   6.181   0.592 -0.5932 -0.1365  0.2519
    1CHTO   C13  363   6.896   6.172   0.557  0.0902  0.6121  0.4189
    1CHTO   H26  364   6.864   6.271   0.518  2.1572  0.9386 -0.4658
    1CHTO   C11  365   6.824   6.133   0.689  0.0102  0.2442 -0.7099
    1CHTO   H24  366   6.843   6.216   0.758  2.6172  0.1969 -1.3102
    1CHTO    O8  367   6.880   6.017   0.748  0.1029 -0.8086  0.1043
    1CHTO    H3  368   6.925   6.038   0.827 -2.1453  1.9948  0.7119
    1CHTO    C9  369   6.670   6.121   0.662 -0.1302 -0.5912 -0.5263
    1CHTO   H22  370   6.643   6.208   0.600  0.9191 -0.1587 -0.4024
    1CHTO    N2  371   6.583   6.122   0.778 -0.0829  0.3306  0.1242
    1CHTO   H10  372   6.619   6.196   0.848  1.3337 -2.0331  1.9535
    1CHTO   H11  373   6.572   6.031   0.835 -0.7694  2.4927  3.5852
    1CHTO    C7  374   6.658   5.991   0.572  0.8067  0.1313  0.2559
    1CHTO   H20  375   6.562   6.013   0.519  0.3668 -0.8252  0.6425
    1CHTO    O4  376   6.771   5.965   0.477 -0.8342 -0.7684 -0.3697
    1CHTO   C14  377   6.860   6.071   0.444  0.0492  0.1244 -0.1836
    1CHTO   H27  378   6.802   6.125   0.367 -3.0918 -1.4170  1.0331
    1CHTO   C18  379   6.989   6.009   0.376  0.1065  0.0124  0.3728
    1CHTO   O13  380   7.074   6.103   0.316 -0.4447 -0.5382  0.7420
    1CHTO    H7  381   7.025   6.151   0.252  0.7903 -0.7797 -0.3977
    1CHTO    O2  382   6.621   5.852   0.646 -0.8515  0.3984 -0.3873
    1CHTO    C1  383   6.595   5.734   0.564 -0.0393 -1.1347 -0.4552
    1CHTO   H14  384   6.627   5.754   0.460  0.7083 -1.1159 -0.2233
    1CHTO    C2  385   6.444   5.694   0.565 -0.4057  0.2733  0.1011
    1CHTO   H15  386   6.423   5.692   0.673  0.1472  1.0134  0.2337
    1CHTO    O6  387   6.370   5.800   0.498  0.7766  0.3989 -0.1946
    1CHTO    H1  388   6.344   5.869   0.555 -0.7979 -0.8796  0.6468
    1CHTO    C3  389   6.409   5.554   0.499 -0.6610 -0.1619 -0.3777
    1CHTO   H16  390   6.435   5.576   0.394  0.5496 -0.0154 -0.0626
    1CHTO    N1  391   6.263   5.512   0.507 -0.2231  0.6062 -1.1477
    1CHTO    H8  392   6.212   5.543   0.597  0.2399 -0.0985 -0.6305
    1CHTO    H9  393   6.216   5.549   0.418 -0.8621  2.3646 -0.1025
    1CHTO    C4  394   6.518   5.448   0.545  0.1470 -0.0775  0.0566
    1CHTO   H17  395   6.498   5.414   0.647  2.1995  0.4636  0.6590
    1CHTO    O1  396   6.651   5.499   0.533  0.0016 -0.2103 -0.3267
    1CHTO    C5  397   6.676   5.613   0.617 -0.2049 -0.3648  0.2303
    1CHTO   H18  398   6.645   5.587   0.718 -0.7729  0.0651  0.1674
    1CHTO   C16  399   6.832   5.640   0.608 -0.1932  0.2094 -0.2500
    1CHTO   O11  400   6.876   5.728   0.706  0.3918 -0.3214  0.2587
    1CHTO    H5  401   6.969   5.730   0.708  0.3984 -0.7322  0.3848
    1CHTO    O3  402   6.496   5.329   0.460 -1.1025 -0.5959  0.1336
    1CHTO    C6  403   6.614   5.247   0.423 -0.2555 -0.3339  0.3267
    1CHTO   H19  404   6.708   5.302   0.420 -0.3102 -0.1489  1.9698
    1CHTO    C8  405   6.632   5.122   0.515 -0.4738  0.1415 -0.4392
    1CHTO   H21  406   6.541   5.063   0.511 -0.3060 -0.2376  0.9125
    1CHTO    O7  407   6.656   5.182   0.645  0.5930 -0.2088 -1.1081
    1CHTO    H2  408   6.686   5.119   0.708 -0.0595  3.3961  3.0452
    1CHTO   C12  409   6.760   5.045   0.468  0.1764  0.7832  0.1800
    1CHTO   H25  410   6.849   5.112   0.469  0.6906  0.0946  0.8491
    1CHTO    N3  411   6.783   4.919   0.554  0.0450  0.0545 -0.0785
    1CHTO   H12  412   6.691   4.865   0.564  0.5253 -0.7465  0.0466
    1CHTO   H13  413   6.812   4.957   0.651 -1.7898  1.1786  0.0431
    1CHTO   C15  414   6.741   5.002   0.316  0.2004  0.0952 -0.0349
    1CHTO   H28  415   6.665   4.925   0.303  0.6420  0.0735 -2.8142
    1CHTO   O10  416   6.886   4.945   0.251  0.3330 -0.2265  0.1760
    1CHTO    H4  417   6.959   4.995   0.282 -0.9168  0.3651  2.1650
    1CHTO    O5  418   6.706   5.119   0.240  0.3663 -0.5789  0.0050
    1CHTO   C10  419   6.594   5.198   0.278 -0.2150  0.4088 -0.8718
    1CHTO   H23  420   6.502   5.140   0.272 -0.8230  1.1443  0.9311
    1CHTO   C17  421   6.569   5.318   0.183 -0.7368 -0.0659 -1.0548
    1CHTO   O12  422   6.594   5.280   0.046 -0.0105  0.5670  0.9014
    1CHTO    H6  423   6.521   5.297  -0.010  0.4415 -0.1469  0.0923
    2CHTO  H203  424   5.963   3.333   4.859  0.6279 -1.2493 -0.3006
    2CHTO   O82  425   5.890   3.341   4.801  0.2278 -0.2932  0.3229
    2CHTO  C123  426   5.915   3.413   4.679 -0.7370  0.1658 -0.3523
    2CHTO  H227  427   6.014   3.384   4.642 -1.1406  0.0641 -1.3741
    2CHTO   O77  428   5.812   3.360   4.586  0.2240 -0.1829 -0.1764
    2CHTO  C118  429   5.839   3.409   4.454  0.2492 -0.3849  0.5683
    2CHTO  H222  430   5.944   3.402   4.425  0.1039  1.4727 -0.5075
    2CHTO  C125  431   5.755   3.322   4.351  0.0309  0.7070 -0.4027
    2CHTO   O84  432   5.611   3.349   4.359  0.3252 -0.1359 -0.1293
    2CHTO  H205  433   5.594   3.366   4.449  1.8415 -3.1229  0.7656
    2CHTO  C114  434   5.803   3.562   4.454  0.0908 -0.3644 -0.1732
    2CHTO  H218  435   5.702   3.570   4.493  0.7738 -1.0529  1.8015
    2CHTO  C116  436   5.891   3.647   4.550  0.3916 -0.6080  0.3815
    2CHTO  H220  437   5.995   3.657   4.514  0.2124  1.2695  0.3230
    2CHTO   O79  438   5.841   3.780   4.575 -0.1069  0.1716  0.0442
    2CHTO  H201  439   5.907   3.832   4.616  0.3773  1.3502 -2.1584
    2CHTO  C120  440   5.902   3.571   4.688 -0.0571 -0.4578 -0.2846
    2CHTO  H224  441   5.814   3.605   4.747  0.5999 -0.8985  0.9678
    2CHTO   N21  442   6.022   3.617   4.771  0.2388 -0.4566 -0.0333
    2CHTO  H211  443   6.105   3.638   4.707  2.0982 -1.9110  1.8286
    2CHTO  H212  444   5.997   3.709   4.823  2.3300 -0.0546  0.2832
    2CHTO   O75  445   5.820   3.595   4.313  0.4619 -0.0121  0.7014
    2CHTO  C112  446   5.743   3.700   4.263  0.5117  0.4752  0.2378
    2CHTO  H216  447   5.760   3.782   4.334  0.4271 -0.4629  1.3488
    2CHTO   O73  448   5.604   3.650   4.271  0.1445  0.1403 -0.4692
    2CHTO  C113  449   5.514   3.749   4.221 -0.6674 -0.7095  0.0860
    2CHTO  H217  450   5.529   3.836   4.288 -2.4689 -1.3527  1.3496
    2CHTO  C124  451   5.371   3.702   4.241 -0.1877 -0.2853 -0.2964
    2CHTO   O83  452   5.321   3.601   4.162 -0.0662 -0.7644  0.0618
    2CHTO  H204  453   5.275   3.648   4.096  0.7359  2.2864  1.6032
    2CHTO  C109  454   5.545   3.791   4.072  0.5190 -0.4520 -0.1028
    2CHTO  H213  455   5.522   3.704   4.008 -0.6167 -0.2088 -0.0385
    2CHTO  C110  456   5.691   3.839   4.046  0.1850  0.1612 -0.2027
    2CHTO  H214  457   5.707   3.939   4.088  0.4277  0.0326  0.0187
    2CHTO   O78  458   5.713   3.856   3.907  0.2486  0.4614  0.5737
    2CHTO  H200  459   5.803   3.860   3.881 -0.3811  0.1343 -1.7530
    2CHTO  C111  460   5.784   3.740   4.113 -0.3768  0.7942 -0.6770
    2CHTO  H215  461   5.781   3.650   4.050  0.4702  1.5626 -1.8409
    2CHTO   N19  462   5.926   3.786   4.110 -0.4066 -0.3364  0.3101
    2CHTO  H207  463   5.940   3.871   4.175 -1.3114 -0.1147  0.2305
    2CHTO  H208  464   5.999   3.708   4.118 -2.5519 -2.3011  1.3787
    2CHTO   O74  465   5.446   3.897   4.045  0.5142  0.2080 -0.3167
    2CHTO  C115  466   5.396   3.912   3.892  0.0498  0.2717 -0.2436
    2CHTO  H219  467   5.469   3.867   3.824 -2.3303 -0.5096 -2.3410
    2CHTO   O76  468   5.259   3.836   3.862 -0.9007  0.3331 -0.3103
    2CHTO  C122  469   5.151   3.893   3.939 -0.2785  0.0228  0.0126
    2CHTO  H226  470   5.173   3.877   4.045 -0.6591 -1.5817 -0.1457
    2CHTO  C126  471   5.024   3.807   3.912 -0.2713  0.5631  0.2081
    2CHTO   O85  472   5.035   3.676   3.958  0.0478 -0.3793 -0.2213
    2CHTO  H206  473   5.085   3.629   3.895  0.8444 -0.0739  0.1795
    2CHTO  C121  474   5.128   4.048   3.913 -0.0772 -0.4784  0.0086
    2CHTO  H225  475   5.030   4.075   3.869 -0.2454 -0.1996  0.5426
    2CHTO   O81  476   5.119   4.113   4.040 -0.3604  0.2869  0.2098
    2CHTO  H202  477   5.104   4.205   4.026  2.5451  0.8918  0.7243
    2CHTO  C119  478   5.235   4.101   3.817 -0.2441 -0.4442  0.1732
    2CHTO  H223  479   5.201   4.057   3.723 -0.3229  2.4393 -1.2048
    2CHTO  C117  480   5.384   4.060   3.851 -0.1246  0.5614 -0.2840
    2CHTO  H221  481   5.424   4.112   3.939 -0.8693  2.4408 -1.0300
    2CHTO   N20  482   5.476   4.098   3.741 -0.4381 -0.4308 -0.2946
    2CHTO  H209  483   5.421   4.137   3.656 -0.2287 -0.7792 -0.5930
    2CHTO  H210  484   5.559   4.162   3.767 -0.2878 -0.9693  0.5478
    2CHTO   O80  485   5.228   4.256   3.786  0.4871 -0.1460 -0.2407
    2CHTO  C103  486   5.123   4.324   3.680  0.6200 -0.3021  0.0327
    2CHTO  H190  487   5.172   4.406   3.628  0.7054 -0.4378 -0.1023
    2CHTO  C101  488   5.054   4.215   3.584  0.4282 -0.4552  0.3845
    2CHTO  H188  489   5.010   4.134   3.642  0.1917  0.4016  1.4051
    2CHTO   O68  490   5.168   4.159   3.489  1.1521 -0.2761  0.0241
    2CHTO  H168  491   5.243   4.154   3.545  0.4363 -2.4379  0.8536
    2CHTO   C99  492   4.933   4.279   3.507  0.8783 -0.0253 -0.6600
    2CHTO  H186  493   4.972   4.359   3.440 -0.2719  3.1852  2.3531
    2CHTO   N17  494   4.860   4.179   3.422  0.1857 -0.3141 -0.4799
    2CHTO  H174  495   4.921   4.116   3.359 -3.9100 -2.4455 -2.5093
    2CHTO  H175  496   4.778   4.227   3.370 -0.3791 -0.9725 -0.1933
    2CHTO   C97  497   4.840   4.355   3.608  0.5346  0.0698 -0.2108
    2CHTO  H184  498   4.797   4.275   3.669  1.1433 -0.3115 -0.2794
    2CHTO   O64  499   4.913   4.449   3.682  0.3472 -0.1192  0.1709
    2CHTO  C104  500   5.011   4.388   3.771  0.0937  0.0691  0.7048
    2CHTO  H191  501   4.967   4.314   3.837  1.8207  0.7082  2.6396
    2CHTO  C108  502   5.072   4.488   3.865 -0.2800  0.2197 -0.1093
    2CHTO   O71  503   4.972   4.528   3.959  0.0174  0.2302  0.5794
    2CHTO  H171  504   4.995   4.603   4.010  1.1500 -0.2709  0.8382
    2CHTO   O62  505   4.741   4.441   3.550  0.0454  0.0362  0.5226
    2CHTO   C91  506   4.617   4.462   3.625  0.0732  0.1322  0.4341
    2CHTO  H178  507   4.633   4.399   3.713 -1.2952 -2.0636 -0.8208
    2CHTO   C92  508   4.501   4.394   3.548  0.5986 -0.2775  0.2009
    2CHTO  H179  509   4.520   4.288   3.526  2.0555 -0.0045  0.1198
    2CHTO   O66  510   4.390   4.393   3.638  0.3133  0.1318  0.1096
    2CHTO  H166  511   4.382   4.307   3.674 -0.0298 -0.0187 -0.3228
    2CHTO   C93  512   4.443   4.483   3.425  0.5888 -0.4447  0.3759
    2CHTO  H180  513   4.337   4.454   3.413  0.4091 -0.8215  2.5286
    2CHTO   N16  514   4.507   4.449   3.300 -0.4480 -0.2597  0.7569
    2CHTO  H172  515   4.432   4.417   3.228 -1.6381 -0.5908  2.1135
    2CHTO  H173  516   4.563   4.534   3.264 -2.3587  0.0426 -1.7055
    2CHTO   C94  517   4.453   4.637   3.450 -0.5568  0.5653 -0.7011
    2CHTO  H181  518   4.541   4.678   3.401 -0.1006  2.8302  1.8978
    2CHTO   O61  519   4.468   4.661   3.587 -0.6004  0.1169 -0.3985
    2CHTO   C95  520   4.588   4.610   3.657 -0.0269 -0.5844 -0.5762
    2CHTO  H182  521   4.667   4.684   3.646 -0.6809  0.1856 -0.1258
    2CHTO  C106  522   4.545   4.624   3.809  0.2011 -0.3175 -0.2649
    2CHTO   O69  523   4.659   4.596   3.890  0.1665 -0.1231  0.0275
    2CHTO  H169  524   4.724   4.661   3.870  0.0992  0.4100  1.5090
    2CHTO   O63  525   4.312   4.727   3.400 -0.2740 -0.0132  0.0493
    2CHTO   C96  526   4.346   4.860   3.321  0.1728  0.1064 -0.0836
    2CHTO  H183  527   4.449   4.853   3.286  0.6196  1.3561  0.9363
    2CHTO   C98  528   4.348   4.981   3.419 -0.3681 -0.4777 -0.1978
    2CHTO  H185  529   4.268   4.982   3.493 -1.8031  1.0183 -1.7223
    2CHTO   O67  530   4.468   4.966   3.494  0.0137  0.0629 -0.1327
    2CHTO  H167  531   4.534   4.911   3.456  1.2800  0.5168  1.3503
    2CHTO  C102  532   4.347   5.120   3.352 -1.0138 -0.6998 -0.0701
    2CHTO  H189  533   4.443   5.131   3.300  1.0773 -1.3637  3.4965
    2CHTO   N18  534   4.339   5.240   3.444 -0.3804  0.1637 -0.1744
    2CHTO  H176  535   4.302   5.333   3.402  0.1112  1.5196  2.2808
    2CHTO  H177  536   4.434   5.248   3.494 -0.0091  0.0563 -0.8614
    2CHTO  C105  537   4.243   5.138   3.241 -0.6847 -0.4433  0.3992
    2CHTO  H192  538   4.143   5.141   3.284 -1.3996  0.2989 -1.2613
    2CHTO   O65  539   4.257   5.019   3.151  0.4760 -0.2420  0.0693
    2CHTO  C100  540   4.247   4.890   3.210 -0.1291  0.1603 -0.7888
    2CHTO  H187  541   4.149   4.876   3.259  0.8578 -1.0808  0.8653
    2CHTO  C107  542   4.262   4.789   3.094  0.0269 -0.1528 -0.4063
    2CHTO   O70  543   4.257   4.655   3.145  0.6116 -0.1297  0.6441
    2CHTO  H170  544   4.318   4.606   3.093  0.6759 -1.9913  2.4194
    2CHTO   O57  545   4.272   5.243   3.164 -0.8391  0.5320  0.5186
    2CHTO   C85  546   4.179   5.280   3.062  0.3098 -0.6548  0.0937
    2CHTO  H157  547   4.093   5.210   3.062 -0.1040 -0.1489  0.5118
    2CHTO   C83  548   4.259   5.270   2.926 -0.2665 -0.2426 -0.7533
    2CHTO  H155  549   4.281   5.163   2.915  0.3897 -0.1666 -0.2023
    2CHTO   O56  550   4.381   5.347   2.940 -0.3869 -0.5757 -0.6829
    2CHTO  H135  551   4.376   5.411   3.008  0.2627  0.0857 -1.2478
    2CHTO   C81  552   4.165   5.315   2.808 -0.5661 -0.3330 -0.4320
    2CHTO  H153  553   4.075   5.254   2.810 -0.7261 -0.2145 -2.7874
    2CHTO   N14  554   4.230   5.285   2.678 -0.4192  0.3434  0.0852
    2CHTO  H141  555   4.173   5.318   2.594 -2.3456  0.1443  1.2855
    2CHTO  H142  556   4.333   5.312   2.668  0.0496 -0.8632  1.4381
    2CHTO   C79  557   4.115   5.464   2.828 -0.0001 -0.1155 -0.0886
    2CHTO  H151  558   4.036   5.486   2.757 -0.2730  1.4383  0.6725
    2CHTO   O52  559   4.051   5.478   2.961  0.1722  0.7962  0.1568
    2CHTO   C86  560   4.133   5.433   3.079  0.0296  0.6535  0.1011
    2CHTO  H158  561   4.219   5.503   3.080 -0.7751  1.6554 -0.2156
    2CHTO   C90  562   4.056   5.458   3.207 -0.1485 -0.0338  0.3043
    2CHTO   O60  563   4.143   5.465   3.319 -0.4678 -0.1218 -0.0142
    2CHTO  H138  564   4.098   5.516   3.383  0.9541 -2.4516  2.9693
    2CHTO   O50  565   4.217   5.562   2.802  0.5830 -0.0453 -0.3599
    2CHTO   C73  566   4.266   5.696   2.775 -1.1681  0.1514  0.1415
    2CHTO  H145  567   4.182   5.753   2.732 -0.5066  1.2922  0.3613
    2CHTO   C74  568   4.378   5.690   2.670 -0.0604 -0.0530 -0.0528
    2CHTO  H146  569   4.330   5.633   2.590  1.9306 -0.9063 -0.6719
    2CHTO   O54  570   4.399   5.818   2.616  0.3248 -0.5551  0.0702
    2CHTO  H133  571   4.478   5.826   2.567 -0.7710  3.5370 -1.2068
    2CHTO   C75  572   4.500   5.611   2.729 -0.2083 -0.1043  0.6623
    2CHTO  H147  573   4.474   5.508   2.759 -1.3199 -0.6433 -2.0511
    2CHTO   N13  574   4.615   5.601   2.633 -0.3428 -0.1834 -0.5574
    2CHTO  H139  575   4.620   5.689   2.570 -0.3098 -0.2185 -0.6038
    2CHTO  H140  576   4.703   5.611   2.694 -1.1805  1.2959  0.4570
    2CHTO   C76  577   4.543   5.668   2.880 -0.1594  0.2875 -0.2740
    2CHTO  H148  578   4.617   5.747   2.869 -0.1444  0.4974  1.2645
    2CHTO   O49  579   4.433   5.712   2.961  0.3979  0.1977 -0.0041
    2CHTO   C77  580   4.320   5.775   2.899  0.7162  0.0484 -0.0507
    2CHTO  H149  581   4.350   5.875   2.867  1.9675 -0.2470  0.1641
    2CHTO   C88  582   4.217   5.792   3.008 -0.0852  0.2157  0.7067
    2CHTO   O58  583   4.250   5.888   3.084  0.3412 -0.1984  0.3227
    2CHTO  H136  584   4.193   5.962   3.090  0.6440  0.2070 -1.5283
    2CHTO   O51  585   4.591   5.550   2.967 -0.8445  0.0310 -0.3681
    2CHTO   C78  586   4.706   5.576   3.064  0.0319 -0.1245 -0.0368
    2CHTO  H150  587   4.699   5.678   3.108 -0.3183  0.5544 -1.6501
    2CHTO   C80  588   4.843   5.556   3.002  0.0638 -0.2301  0.4794
    2CHTO  H152  589   4.850   5.454   2.961  0.0150  0.1527 -0.4806
    2CHTO   O55  590   4.850   5.651   2.898 -0.4261 -0.3112  0.6474
    2CHTO  H134  591   4.890   5.621   2.818 -2.0716  0.2372 -0.4280
    2CHTO   C84  592   4.949   5.582   3.118  0.0871 -0.1242  0.1738
    2CHTO  H156  593   4.949   5.689   3.140 -1.5227  0.1879 -1.2394
    2CHTO   N15  594   5.092   5.558   3.063  0.2097  0.3910 -0.2129
    2CHTO  H143  595   5.154   5.619   3.126 -3.5647  3.6691  0.5179
    2CHTO  H144  596   5.091   5.597   2.964 -3.5404 -0.4534 -0.5958
    2CHTO   C87  597   4.924   5.482   3.231 -0.0583 -0.1464  0.6565
    2CHTO  H159  598   4.931   5.378   3.202  1.0319 -0.4233  1.8442
    2CHTO   O53  599   4.792   5.498   3.280  0.4670 -0.1637 -0.1831
    2CHTO   C82  600   4.690   5.477   3.179  0.4600  0.1204 -0.2241
    2CHTO  H154  601   4.707   5.375   3.143 -2.0979 -0.5716  0.4830
    2CHTO   C89  602   4.539   5.481   3.243  0.2215  0.1788  0.3350
    2CHTO   O59  603   4.517   5.586   3.334  0.0935 -0.2829 -0.1363
    2CHTO  H137  604   4.478   5.560   3.415 -1.6014  2.8158  0.1229
    2CHTO   O45  605   5.033   5.501   3.368 -0.5647 -0.3585 -0.1084
    2CHTO   C67  606   4.992   5.421   3.479  0.6593 -0.1329 -0.0857
    2CHTO  H124  607   4.894   5.378   3.458  1.0089  0.1014 -2.2975
    2CHTO   C65  608   5.096   5.307   3.495  0.1986  1.6723  0.1225
    2CHTO  H122  609   5.182   5.332   3.433  0.3232 -0.1663 -0.4615
    2CHTO   O44  610   5.030   5.183   3.459  0.0937 -0.6965  0.6483
    2CHTO  H102  611   5.048   5.116   3.522 -0.0720 -0.5889  0.8099
    2CHTO   C63  612   5.163   5.309   3.643  0.7994 -0.1647 -0.7949
    2CHTO  H120  613   5.230   5.394   3.650 -0.5401  0.9437 -1.3445
    2CHTO   N11  614   5.257   5.203   3.675  0.1320 -0.2275  0.1105
    2CHTO  H108  615   5.260   5.138   3.590 -0.2406 -0.1727  0.0572
    2CHTO  H109  616   5.358   5.235   3.687  0.4959 -0.9943 -0.8762
    2CHTO   C61  617   5.047   5.323   3.748  0.2651  0.3794  0.7234
    2CHTO  H118  618   5.089   5.322   3.849  0.2679 -2.4849  0.7471
    2CHTO   O40  619   4.969   5.439   3.735  0.3316  0.3296 -0.1635
    2CHTO   C68  620   4.979   5.516   3.611  0.0169 -0.5406 -0.1338
    2CHTO  H125  621   5.072   5.576   3.614 -1.0143  1.0991 -0.5543
    2CHTO   C72  622   4.857   5.615   3.601  0.4953  0.2255  0.2664
    2CHTO   O48  623   4.729   5.558   3.571  0.2340  0.1638  0.8451
    2CHTO  H105  624   4.686   5.547   3.653  1.5348 -1.2010  1.3762
    2CHTO   O38  625   4.962   5.201   3.749  0.3234 -0.1093  0.0255
    2CHTO   C55  626   4.840   5.184   3.827  0.1305  0.5257  0.9874
    2CHTO  H112  627   4.786   5.278   3.841 -2.4895 -0.8112  0.3223
    2CHTO   C56  628   4.863   5.102   3.970 -0.4231  0.2995  0.2784
    2CHTO  H113  629   4.926   5.015   3.947  0.2660  1.4655 -2.4980
    2CHTO   O42  630   4.947   5.178   4.056 -0.1024  0.6497 -0.5196
    2CHTO  H100  631   5.035   5.176   4.021  0.8567  0.3495  1.8023
    2CHTO   C57  632   4.723   5.073   4.042 -0.0063 -0.6014  0.4076
    2CHTO  H114  633   4.687   5.163   4.092  3.4773  1.5516 -0.8070
    2CHTO   N10  634   4.743   4.971   4.153 -0.2091 -0.6221 -0.5198
    2CHTO  H106  635   4.655   4.908   4.158 -0.7542  0.2129  0.6271
    2CHTO  H107  636   4.834   4.915   4.140  1.2232  1.6746 -0.6090
    2CHTO   C58  637   4.618   5.022   3.936  0.2839  0.4125  0.0955
    2CHTO  H115  638   4.634   4.913   3.922 -1.2369  0.1482  0.3029
    2CHTO   O37  639   4.608   5.091   3.814  0.2126  0.3085  0.1027
    2CHTO   C59  640   4.737   5.099   3.753  0.1783 -0.4629  0.3510
    2CHTO  H116  641   4.775   4.997   3.745  1.1737  0.0059 -1.1254
    2CHTO   C70  642   4.716   5.139   3.607 -0.3847  0.1706  0.6469
    2CHTO   O46  643   4.652   5.268   3.593 -0.1472 -0.2776 -0.0772
    2CHTO  H103  644   4.643   5.289   3.503 -2.5554 -1.3553 -0.1163
    2CHTO   O39  645   4.463   5.041   3.994 -0.4822 -0.1186 -0.4006
    2CHTO   C60  646   4.391   5.162   3.969 -0.1785  0.1584 -0.0174
    2CHTO  H117  647   4.452   5.242   3.927 -1.2634  1.6530  1.1973
    2CHTO   C62  648   4.284   5.135   3.854  0.4482  0.2823  0.0734
    2CHTO  H119  649   4.339   5.110   3.761 -0.4230 -0.0983 -0.3454
    2CHTO   O43  650   4.207   5.019   3.895  0.1363 -0.1511  0.0161
    2CHTO  H101  651   4.229   4.950   3.836  0.8582 -0.4677  0.6488
    2CHTO   C66  652   4.201   5.265   3.823  0.5899 -0.6688 -0.1234
    2CHTO  H123  653   4.274   5.342   3.798 -1.2594  0.4368 -2.2691
    2CHTO   N12  654   4.104   5.263   3.710 -0.7499 -0.2068 -0.1273
    2CHTO  H110  655   4.120   5.351   3.650  3.1613  0.1050  1.2271
    2CHTO  H111  656   4.010   5.246   3.760 -0.9561 -0.9225 -0.7401
    2CHTO   C69  657   4.141   5.307   3.963  0.1213  0.1529  0.3039
    2CHTO  H126  658   4.075   5.227   4.001  1.6294 -2.5317 -2.4587
    2CHTO   O41  659   4.257   5.335   4.060  0.0939  0.4678 -0.1910
    2CHTO   C64  660   4.331   5.209   4.090  0.2260  0.0834  0.5096
    2CHTO  H121  661   4.266   5.128   4.131  0.5452 -0.1971  0.4668
    2CHTO   C71  662   4.437   5.241   4.197 -0.7530 -0.4116 -0.2922
    2CHTO   O47  663   4.369   5.284   4.315 -0.5969  0.0134 -0.6069
    2CHTO  H104  664   4.427   5.292   4.388  1.0256  1.8937 -2.0586
    2CHTO   O34  665   4.044   5.442   3.944 -0.7531  0.1560  0.8660
    2CHTO   C49  666   4.007   5.605   3.920 -0.4345 -0.0499  0.0322
    2CHTO   H91  667   3.903   5.595   3.887  0.2396 -0.8356 -1.9135
    2CHTO   C47  668   4.108   5.656   3.812 -0.4692  0.1521  0.6495
    2CHTO   H89  669   4.073   5.761   3.798  0.2275  0.2351 -0.5191
    2CHTO   O33  670   4.094   5.598   3.683  0.1740 -0.0986  0.0408
    2CHTO   H70  671   4.105   5.664   3.617  4.3986 -1.6577 -0.9718
    2CHTO   C45  672   4.261   5.656   3.873 -0.3978 -0.2370  0.1637
    2CHTO   H87  673   4.281   5.556   3.913  1.1339  0.2473  0.6469
    2CHTO    N8  674   4.371   5.681   3.784 -0.2880 -0.4580 -0.0214
    2CHTO   H75  675   4.390   5.596   3.719 -1.7040 -1.1674  0.4946
    2CHTO   H76  676   4.341   5.767   3.726 -1.5378 -0.8396  0.0435
    2CHTO   C43  677   4.259   5.751   3.997  0.0638  0.4093 -0.0968
    2CHTO   H85  678   4.358   5.733   4.040 -0.1848  4.1566  2.2143
    2CHTO   O29  679   4.158   5.711   4.090  0.3415  0.2143 -0.6354
    2CHTO   C50  680   4.025   5.689   4.043  0.0865 -0.4150  0.3794
    2CHTO   H92  681   3.987   5.632   4.130 -0.7944  2.3883  1.9143
    2CHTO   C54  682   3.943   5.823   4.048  0.0413 -0.2971  0.1821
    2CHTO   O36  683   3.810   5.801   4.009 -0.0853  0.1718  0.2007
    2CHTO   H72  684   3.765   5.725   4.041 -0.7257  0.2262 -0.5489
    2CHTO   O27  685   4.246   5.890   3.963  0.3203  0.8307 -0.1606
    2CHTO   C37  686   4.255   6.035   3.945 -0.3848 -1.0094  0.0608
    2CHTO   H79  687   4.355   6.058   3.905 -0.0660 -1.4069  0.6274
    2CHTO   C38  688   4.138   6.081   3.847 -0.3410  0.1634 -0.3486
    2CHTO   H80  689   4.049   6.018   3.864 -0.5187  0.5332  0.0893
    2CHTO   O31  690   4.194   6.053   3.717  0.1984 -0.1956  0.0104
    2CHTO   H68  691   4.217   5.963   3.702  1.3900 -0.2296  1.8712
    2CHTO   C39  692   4.091   6.234   3.861  0.1208  0.1129  0.3824
    2CHTO   H81  693   4.159   6.309   3.820  0.1282  0.8156  1.6278
    2CHTO    N7  694   3.955   6.259   3.801 -0.3346  0.2570  0.6731
    2CHTO   H73  695   3.956   6.351   3.745  1.5932  0.6001  1.2216
    2CHTO   H74  696   3.871   6.252   3.870  0.4824  0.1646  1.6782
    2CHTO   C40  697   4.099   6.287   4.005  0.2272  0.7429  0.5716
    2CHTO   H82  698   4.018   6.240   4.061 -0.1562  0.3862 -0.2700
    2CHTO   O26  699   4.228   6.254   4.053  0.3929 -0.1927  0.2484
    2CHTO   C41  700   4.246   6.109   4.073 -0.1720 -0.2779 -0.4365
    2CHTO   H83  701   4.149   6.087   4.119  0.4580  2.5336  2.4179
    2CHTO   C52  702   4.368   6.085   4.161  0.5860  0.2356  0.2429
    2CHTO   O35  703   4.347   6.112   4.311 -0.3587 -0.1542  0.0559
    2CHTO   H71  704   4.304   6.194   4.327  0.7797  0.1862  1.4408
    2CHTO   O28  705   4.082   6.426   4.009 -0.3367 -0.3057 -0.0220
    2CHTO   C42  706   4.046   6.504   4.125 -0.3905  0.3962 -0.3442
    2CHTO   H84  707   4.088   6.601   4.098  0.1652 -0.1015 -1.2949
    2CHTO   C44  708   4.105   6.461   4.267  0.5006  0.1620 -0.3442
    2CHTO   H86  709   4.092   6.353   4.274 -1.7025  0.5047  1.5127
    2CHTO   O32  710   4.251   6.479   4.261  0.0303  0.6747  0.3411
    2CHTO   H69  711   4.278   6.411   4.202 -3.4003 -1.0583  0.6215
    2CHTO   C48  712   4.055   6.533   4.399  0.6085 -0.0100 -0.5932
    2CHTO   H90  713   4.087   6.637   4.394 -1.2056  0.5765 -0.3975
    2CHTO    N9  714   4.101   6.476   4.529 -0.1404 -0.4581 -0.6038
    2CHTO   H77  715   4.190   6.420   4.504 -0.3535 -0.6433 -0.9532
    2CHTO   H78  716   4.025   6.421   4.582 -0.6405  1.3012  0.5372
    2CHTO   C51  717   3.902   6.555   4.387  0.4487  0.1470  0.0328
    2CHTO   H93  718   3.865   6.453   4.395 -1.4698  0.6264 -2.1142
    2CHTO   O30  719   3.883   6.616   4.259 -0.1294 -0.3608 -0.4581
    2CHTO   C46  720   3.895   6.526   4.137 -0.4930 -0.1697  0.3389
    2CHTO   H88  721   3.847   6.428   4.149 -0.6309  0.2096  3.2123
    2CHTO   C53  722   3.843   6.589   4.013 -0.4777  0.1091  0.2503
    2CHTO   O72  723   3.708   6.626   4.037 -0.2504  0.3975 -0.4377
    2CHTO  H199  724   3.659   6.618   3.958 -1.4275 -1.5817  0.4615
    2CHTO   O22  725   3.847   6.648   4.486 -0.0003  0.1724 -0.3892
    2CHTO   C31  726   3.712   6.648   4.536 -0.3789 -0.1382  0.6501
    2CHTO   H59  727   3.693   6.755   4.559  1.0411  1.1164 -3.4409
    2CHTO   C29  728   3.599   6.611   4.432  0.3100 -0.0272  0.0059
    2CHTO   H57  729   3.617   6.506   4.404  0.6970 -0.6184  2.3302
    2CHTO   O21  730   3.618   6.702   4.322 -0.1908 -0.3686 -0.1288
    2CHTO   H37  731   3.602   6.785   4.363  1.0841 -0.5346  0.7307
    2CHTO   C27  732   3.460   6.632   4.501 -0.9692  0.6376 -0.5295
    2CHTO   H55  733   3.453   6.738   4.528  0.5065  0.4858  0.5173
    2CHTO    N5  734   3.350   6.604   4.402  0.2293 -0.1792  0.2008
    2CHTO   H43  735   3.261   6.649   4.442  1.1283  0.9420  0.9636
    2CHTO   H44  736   3.377   6.638   4.303 -0.7100  2.4766  0.8292
    2CHTO   C25  737   3.456   6.540   4.637 -0.0435  0.3276 -0.1358
    2CHTO   H53  738   3.481   6.439   4.602 -0.5164  0.0304  0.3589
    2CHTO   O17  739   3.563   6.590   4.726 -0.1502  0.1213 -0.0480
    2CHTO   C32  740   3.696   6.567   4.678 -0.7372 -0.0958  0.1944
    2CHTO   H60  741   3.705   6.460   4.659 -1.8902 -0.4804  1.6996
    2CHTO   C36  742   3.793   6.601   4.795  0.1444 -0.1116  0.1974
    2CHTO   O25  743   3.779   6.508   4.902  0.0958  0.9410  0.1290
    2CHTO   H40  744   3.861   6.471   4.929 -0.8193 -1.1969  0.0929
    2CHTO   O15  745   3.331   6.526   4.710  0.0615  0.7425 -0.1762
    2CHTO   C19  746   3.319   6.424   4.808 -0.1257 -0.1609 -0.3456
    2CHTO   H47  747   3.211   6.412   4.824  0.1898 -0.9466  1.2336
    2CHTO   C20  748   3.376   6.283   4.776 -0.3535  0.1437 -0.3215
    2CHTO   H48  749   3.484   6.288   4.759 -0.5013  1.1097 -1.0254
    2CHTO   O19  750   3.317   6.242   4.650  0.6320  0.2469 -0.3066
    2CHTO   H35  751   3.363   6.278   4.577  1.6406  0.3209  0.3457
    2CHTO   C21  752   3.347   6.186   4.893 -0.3581 -0.5140  0.7923
    2CHTO   H49  753   3.239   6.180   4.900 -0.5361 -2.3119 -2.3064
    2CHTO    N4  754   3.396   6.048   4.863  0.0609 -0.2265  0.4713
    2CHTO   H41  755   3.396   6.032   4.756  1.0384  0.6606  0.3374
    2CHTO   H42  756   3.320   5.984   4.907 -1.1232 -0.4765 -1.8394
    2CHTO   C22  757   3.412   6.253   5.015 -0.1985 -0.3403 -0.2255
    2CHTO   H50  758   3.518   6.268   4.998  0.0397 -2.3209 -0.5096
    2CHTO   O14  759   3.352   6.380   5.045  0.1505  0.5771  0.2309
    2CHTO   C23  760   3.368   6.476   4.947  0.0676 -0.2277 -0.0269
    2CHTO   H51  761   3.474   6.507   4.944  0.5856 -1.8978  0.7362
    2CHTO   C34  762   3.295   6.606   4.987  0.1035 -0.2574  1.1832
    2CHTO   O23  763   3.323   6.637   5.116 -0.1958  0.1433 -0.1627
    2CHTO   H38  764   3.341   6.729   5.120 -0.2853  0.2873 -2.7225
    2CHTO   O16  765   3.385   6.175   5.138  0.8480 -0.1255  0.1365
    2CHTO   C24  766   3.517   6.192   5.237  0.4789  0.2298  0.0982
    2CHTO   H52  767   3.598   6.249   5.192  0.9035  0.2848  0.9153
    2CHTO   C26  768   3.572   6.051   5.263  0.2095 -0.3476 -0.3231
    2CHTO   H54  769   3.485   5.981   5.267  0.4168 -0.5385  1.8017
    2CHTO   O20  770   3.648   6.016   5.147 -0.1897  0.0529  0.4327
    2CHTO   H36  771   3.727   6.066   5.140  0.5781 -0.9739  1.4583
    2CHTO   C30  772   3.657   6.035   5.388 -0.2730  0.0067  0.2965
    2CHTO   H58  773   3.755   6.083   5.373 -0.8740  0.6535 -1.7355
    2CHTO    N6  774   3.691   5.891   5.419  0.1337 -0.1096 -0.6407
    2CHTO   H45  775   3.748   5.886   5.511 -0.6041  1.0186 -0.1136
    2CHTO   H46  776   3.738   5.824   5.348  1.5189 -0.3799  0.4949
    2CHTO   C33  777   3.599   6.111   5.507 -0.1430 -0.8422  0.6092
    2CHTO   H61  778   3.508   6.056   5.538 -0.5726 -0.0147  0.8460
    2CHTO   O18  779   3.566   6.246   5.477  0.2721 -0.9694 -0.0478
    2CHTO   C28  780   3.469   6.263   5.372  0.4525  0.5886 -0.1811
    2CHTO   H56  781   3.366   6.235   5.395 -0.2520  2.0050 -1.5129
    2CHTO   C35  782   3.452   6.417   5.350 -0.5919  0.5271  0.2908
    2CHTO   O24  783   3.425   6.503   5.466  0.3584  0.3892  0.0357
    2CHTO   H39  784   3.348   6.469   5.507  1.3282 -3.3922 -1.0549
    2CHTO    O9  785   3.692   6.109   5.615  0.8988  0.0961 -0.8701
    2CHTO   C13  786   3.644   6.166   5.754  0.2630  0.1370  0.2821
    2CHTO   H26  787   3.533   6.169   5.762  0.3077 -0.1738  1.0691
    2CHTO   C11  788   3.713   6.313   5.774  0.9910  0.3648  0.3295
    2CHTO   H24  789   3.674   6.379   5.695  2.5285 -1.4808 -2.0535
    2CHTO    O8  790   3.853   6.306   5.750  0.0891  0.0110 -0.3832
    2CHTO    H3  791   3.908   6.299   5.826 -0.4183 -0.1248 -0.0253
    2CHTO    C9  792   3.670   6.357   5.917  0.4016  0.9078 -0.4802
    2CHTO   H22  793   3.561   6.349   5.922  0.4730  0.8489  1.1847
    2CHTO    N2  794   3.692   6.501   5.952 -0.9041  0.1680  0.4867
    2CHTO   H10  795   3.784   6.535   5.906 -0.9799  1.1423  1.0344
    2CHTO   H11  796   3.702   6.510   6.059 -4.9094  1.9453  0.7818
    2CHTO    C7  797   3.731   6.258   6.018  0.3062 -0.5001  0.0656
    2CHTO   H20  798   3.683   6.288   6.114  0.5500 -0.4968  0.1886
    2CHTO    O4  799   3.686   6.124   6.006  0.3692 -0.8440 -1.1881
    2CHTO   C14  800   3.687   6.067   5.874  0.3675  0.1894  0.1872
    2CHTO   H27  801   3.609   5.989   5.887  1.3427 -0.6156  1.3598
    2CHTO   C18  802   3.819   5.999   5.846 -0.2479  0.1769 -0.3228
    2CHTO   O13  803   3.821   5.873   5.913 -0.6040 -0.3097  0.1417
    2CHTO    H7  804   3.908   5.869   5.949 -0.2963  1.1790 -0.3658
    2CHTO    O2  805   3.908   6.271   6.017  0.6247 -0.0592  0.3726
    2CHTO    C1  806   3.971   6.229   6.141 -0.3071 -0.0397  0.0884
    2CHTO   H14  807   3.911   6.147   6.186 -0.4727 -0.5295 -1.0004
    2CHTO    C2  808   3.981   6.351   6.246 -0.2664  0.2889 -0.6275
    2CHTO   H15  809   4.043   6.432   6.204  0.8620  0.2352  0.9036
    2CHTO    O6  810   3.849   6.401   6.267 -0.5224  0.1730  0.6089
    2CHTO    H1  811   3.827   6.440   6.185  0.0999 -2.6870 -0.9707
    2CHTO    C3  812   4.053   6.300   6.376  0.4890  0.6049 -0.1348
    2CHTO   H16  813   3.995   6.213   6.408 -2.0122  2.2837  0.0089
    2CHTO    N1  814   4.052   6.393   6.487  1.1087  0.1187  0.6580
    2CHTO    H8  815   3.998   6.355   6.573 -0.4860 -2.6570 -1.4948
    2CHTO    H9  816   4.015   6.482   6.438  1.2617  0.4683  1.1635
    2CHTO    C4  817   4.192   6.241   6.340  0.6660 -0.1328 -0.3979
    2CHTO   H17  818   4.250   6.321   6.294  0.0471 -0.3381 -1.5723
    2CHTO    O1  819   4.169   6.136   6.238 -0.1692 -0.2978  0.2936
    2CHTO    C5  820   4.121   6.190   6.116  0.4648 -0.9764  0.7930
    2CHTO   H18  821   4.179   6.279   6.094  2.2134 -2.2291  0.2626
    2CHTO   C16  822   4.131   6.091   6.002 -0.4675  1.1047 -0.0799
    2CHTO   O11  823   4.263   6.073   5.965  0.3765 -0.0191 -0.3044
    2CHTO    H5  824   4.284   6.138   5.900 -1.6127 -1.2084 -2.2239
    2CHTO    O3  825   4.254   6.179   6.450  0.2000  0.1091  0.5569
    2CHTO    C6  826   4.400   6.175   6.446 -0.0584 -0.2054 -0.1339
    2CHTO   H19  827   4.449   6.218   6.358 -0.7934 -1.0156 -0.9448
    2CHTO    C8  828   4.463   6.261   6.567  0.4350  0.2415 -0.5889
    2CHTO   H21  829   4.419   6.228   6.661 -2.3043  4.0905 -0.3804
    2CHTO    O7  830   4.428   6.395   6.544  0.0430  0.1461 -0.2491
    2CHTO    H2  831   4.492   6.457   6.573  1.0786 -1.1829  0.3532
    2CHTO   C12  832   4.614   6.237   6.574  0.1341 -0.4285 -0.8309
    2CHTO   H25  833   4.652   6.278   6.478  2.1177  0.3398  0.2487
    2CHTO    N3  834   4.689   6.303   6.678 -0.4714  0.2125  0.4350
    2CHTO   H12  835   4.772   6.363   6.643 -0.5103 -0.2228 -0.4122
    2CHTO   H13  836   4.620   6.356   6.742 -1.1541  0.6051 -0.6105
    2CHTO   C15  837   4.647   6.086   6.576 -0.3667 -0.2476 -0.4077
    2CHTO   H28  838   4.615   6.036   6.668 -1.8597 -2.2936 -1.9803
    2CHTO   O10  839   4.799   6.054   6.552 -0.1033  0.5797  0.4056
    2CHTO    H4  840   4.812   5.971   6.593  2.2208  0.5419 -0.3560
    2CHTO    O5  841   4.587   6.018   6.464 -0.4235 -0.2539 -0.1193
    2CHTO   C10  842   4.444   6.028   6.460  0.3535 -0.0461  0.2489
    2CHTO   H23  843   4.401   5.998   6.555 -1.8860 -2.0120 -1.3392
    2CHTO   C17  844   4.402   5.936   6.345 -0.0928 -0.4212 -0.1940
    2CHTO   O12  845   4.259   5.911   6.346  0.7779  0.3801 -0.0215
    2CHTO    H6  846   4.224   5.883   6.428  1.5062 -1.7137 -0.4040
    3CHTO  H203  847   5.961   2.339   1.878 -1.3594  0.6485 -0.9123
    3CHTO   O82  848   6.011   2.399   1.826  0.3358  0.0397 -0.0059
    3CHTO  C123  849   6.140   2.342   1.785 -0.1903  0.3075  0.2275
    3CHTO  H227  850   6.140   2.236   1.811 -0.3698  0.2726  0.0877
    3CHTO   O77  851   6.112   2.377   1.643 -0.0032  0.3114 -0.5142
    3CHTO  C118  852   6.224   2.382   1.553 -0.3505  0.2435 -0.1624
    3CHTO  H222  853   6.252   2.278   1.530 -0.2830  0.8767 -3.2215
    3CHTO  C125  854   6.182   2.455   1.420 -0.0732 -0.8065 -0.5689
    3CHTO   O84  855   6.127   2.585   1.435  0.0310  0.2663  0.1129
    3CHTO  H205  856   6.174   2.648   1.383  0.2967  0.8539  1.0576
    3CHTO  C114  857   6.344   2.454   1.619  0.3474  0.2614  0.0776
    3CHTO  H218  858   6.318   2.557   1.642 -1.5802 -0.4499  1.2318
    3CHTO  C116  859   6.379   2.394   1.758  0.6693 -0.2257  0.0777
    3CHTO  H220  860   6.386   2.283   1.765  2.1796 -0.0575  1.7604
    3CHTO   O79  861   6.504   2.455   1.802  0.0374  0.4178 -0.2566
    3CHTO  H201  862   6.493   2.547   1.813 -0.8716  0.6710 -2.9679
    3CHTO  C120  863   6.253   2.424   1.854  0.4296 -0.1848 -0.8228
    3CHTO  H224  864   6.227   2.531   1.860  2.4777  0.2031  2.4004
    3CHTO   N21  865   6.270   2.384   1.994 -0.2688 -0.2363 -0.0991
    3CHTO  H211  866   6.325   2.459   2.048  1.3176 -0.7908 -0.9074
    3CHTO  H212  867   6.171   2.372   2.035 -1.2804  0.1368 -2.3993
    3CHTO   O75  868   6.448   2.443   1.518 -0.1447  0.7678 -0.1563
    3CHTO  C112  869   6.520   2.295   1.502  0.4182  0.2474  0.0029
    3CHTO  H216  870   6.449   2.216   1.529  0.1599  1.4614  3.1001
    3CHTO   O73  871   6.627   2.293   1.591  0.0110 -0.0580  0.4633
    3CHTO  C113  872   6.675   2.162   1.611 -0.3842  0.6855 -0.5047
    3CHTO  H217  873   6.601   2.089   1.648 -0.5792  1.3127  0.3609
    3CHTO  C124  874   6.788   2.168   1.721  0.2056 -0.6407  0.1427
    3CHTO   O83  875   6.731   2.240   1.833 -0.6269 -0.1960 -0.2835
    3CHTO  H204  876   6.749   2.332   1.842  1.8711 -0.8471  1.7617
    3CHTO  C109  877   6.737   2.106   1.482  0.4859 -0.5480  0.0309
    3CHTO  H213  878   6.829   2.166   1.467 -0.4173  0.9027  0.1417
    3CHTO  C110  879   6.638   2.119   1.362 -0.4664  0.2832  0.6311
    3CHTO  H214  880   6.561   2.042   1.362 -0.4369  0.2530  0.1959
    3CHTO   O78  881   6.707   2.103   1.234  0.0180  0.4634  0.2796
    3CHTO  H200  882   6.765   2.030   1.247  2.4465  1.7091 -2.9313
    3CHTO  C111  883   6.569   2.255   1.356 -0.3669 -0.7304  0.0726
    3CHTO  H215  884   6.645   2.331   1.334 -0.9940  0.5432  2.1543
    3CHTO   N19  885   6.464   2.269   1.251 -0.2471 -0.1836 -0.1222
    3CHTO  H207  886   6.385   2.332   1.290 -0.8689  0.4682 -2.3679
    3CHTO  H208  887   6.426   2.178   1.208 -1.3183  0.2007 -0.0123
    3CHTO   O74  888   6.773   1.963   1.504  0.9059  0.1163  0.4007
    3CHTO  C115  889   6.887   1.903   1.417 -0.4054 -0.3665 -0.1098
    3CHTO  H219  890   6.907   1.966   1.331 -0.8491 -0.1360 -0.0473
    3CHTO   O76  891   7.019   1.903   1.495  0.1236  0.1890  0.1338
    3CHTO  C122  892   7.009   1.815   1.614 -0.3091 -0.2730 -0.4341
    3CHTO  H226  893   6.967   1.881   1.690 -0.7580 -1.4469  0.3543
    3CHTO  C126  894   7.161   1.788   1.651  0.6441 -0.0224  0.5443
    3CHTO   O85  895   7.228   1.886   1.739  0.1221  0.5852 -0.1104
    3CHTO  H206  896   7.281   1.840   1.801 -2.2438  0.6108  2.0038
    3CHTO  C121  897   6.917   1.680   1.602  0.1270  0.2905 -0.6459
    3CHTO  H225  898   6.970   1.599   1.655  1.0200  0.2888 -1.5237
    3CHTO   O81  899   6.792   1.702   1.669  0.4126 -0.4925  0.5375
    3CHTO  H202  900   6.738   1.627   1.653 -2.3364  0.9953  2.2548
    3CHTO  C119  901   6.898   1.641   1.450 -0.3242 -0.2372  0.0409
    3CHTO  H223  902   7.002   1.614   1.432  0.2847  0.7630  1.8783
    3CHTO  C117  903   6.854   1.759   1.356  0.1589 -0.9829 -0.4468
    3CHTO  H221  904   6.745   1.759   1.344  0.1728  1.7086 -0.7534
    3CHTO   N20  905   6.907   1.732   1.218  0.3556  0.5277  0.3016
    3CHTO  H209  906   6.911   1.827   1.166  1.3511  0.2773 -0.1042
    3CHTO  H210  907   6.852   1.653   1.169 -2.4761  1.5604  1.7251
    3CHTO   O80  908   6.829   1.508   1.433  0.7732 -0.0356  0.0596
    3CHTO  C103  909   6.878   1.382   1.517 -0.0824  0.5551  0.1069
    3CHTO  H190  910   6.972   1.394   1.572 -0.1824  1.4787  0.0833
    3CHTO  C101  911   6.764   1.322   1.615 -0.7573 -0.1519 -0.1445
    3CHTO  H188  912   6.672   1.317   1.555  0.0085  1.9845 -1.5412
    3CHTO   O68  913   6.736   1.414   1.736 -0.4098  0.3263  0.7265
    3CHTO  H168  914   6.710   1.362   1.809 -1.4155 -0.1613  0.0373
    3CHTO   C99  915   6.788   1.168   1.653  0.5626 -0.4109  0.6348
    3CHTO  H186  916   6.872   1.161   1.725 -0.1972 -0.7720  1.4844
    3CHTO   N17  917   6.664   1.107   1.726  0.5074 -0.2198  0.1708
    3CHTO  H174  918   6.686   1.011   1.770 -0.2702 -1.1372 -1.3992
    3CHTO  H175  919   6.578   1.100   1.662  0.9124  2.0007 -0.6779
    3CHTO   C97  920   6.829   1.086   1.522 -0.2329 -0.9085 -0.0584
    3CHTO  H184  921   6.736   1.080   1.464 -1.1832  1.1007  1.2344
    3CHTO   O64  922   6.938   1.139   1.443  0.0604 -0.5028 -0.0463
    3CHTO  C104  923   6.903   1.272   1.403 -0.5266  0.2173 -0.1743
    3CHTO  H191  924   6.813   1.266   1.341 -0.3520 -0.8410 -0.3296
    3CHTO  C108  925   7.023   1.306   1.309  1.1566  0.1776  0.1896
    3CHTO   O71  926   7.014   1.236   1.184  0.2155  0.1626  0.0123
    3CHTO  H171  927   7.077   1.168   1.168  0.2762  0.4744 -1.1204
    3CHTO   O62  928   6.882   0.957   1.560  0.3081 -0.0195  0.1278
    3CHTO   C91  929   6.808   0.850   1.503  0.9239  0.7904 -0.0803
    3CHTO  H178  930   6.708   0.892   1.487  0.2427 -0.6994  0.2029
    3CHTO   C92  931   6.787   0.751   1.623  0.0181 -0.3456  0.1675
    3CHTO  H179  932   6.890   0.711   1.630 -0.1552 -0.7616  0.3497
    3CHTO   O66  933   6.770   0.820   1.748  0.3676  0.1832  0.8636
    3CHTO  H166  934   6.687   0.864   1.747  0.2185 -0.1070  0.2426
    3CHTO   C93  935   6.677   0.640   1.595  0.0704 -0.3119 -0.2410
    3CHTO  H180  936   6.579   0.684   1.619  0.2488  0.5796 -1.1029
    3CHTO   N16  937   6.684   0.521   1.687  0.5014 -0.0342  0.3664
    3CHTO  H172  938   6.711   0.424   1.649  0.4116  0.2586 -0.4637
    3CHTO  H173  939   6.767   0.545   1.752  0.1173  0.7022  0.5923
    3CHTO   C94  940   6.681   0.603   1.444 -0.2448  0.3156 -0.1107
    3CHTO  H181  941   6.650   0.500   1.425 -0.0812  0.4864 -1.3593
    3CHTO   O61  942   6.804   0.627   1.375  0.0390 -0.3850  0.0761
    3CHTO   C95  943   6.852   0.768   1.377 -0.0602  0.1199  0.1092
    3CHTO  H182  944   6.961   0.767   1.381 -0.0268  2.2924  0.4186
    3CHTO  C106  945   6.805   0.840   1.238 -0.2082 -0.4010 -0.1335
    3CHTO   O69  946   6.879   0.964   1.220  0.0894  0.2547 -0.1833
    3CHTO  H169  947   6.856   1.000   1.136  2.0298 -2.1888 -1.8158
    3CHTO   O63  948   6.579   0.698   1.381  0.3620 -0.1261  0.3244
    3CHTO   C96  949   6.431   0.658   1.329  0.1230 -0.4394 -0.0785
    3CHTO  H183  950   6.383   0.612   1.416 -3.1053  0.3285 -1.3920
    3CHTO   C98  951   6.412   0.558   1.211 -0.4563  0.8276  0.5272
    3CHTO  H185  952   6.467   0.599   1.125 -2.1162  1.4231 -0.2537
    3CHTO   O67  953   6.481   0.431   1.238  0.3833  0.0169 -0.1085
    3CHTO  H167  954   6.536   0.424   1.313 -0.2143 -2.8952  0.1106
    3CHTO  C102  955   6.253   0.524   1.171 -0.1591 -1.0128  0.3720
    3CHTO  H189  956   6.215   0.459   1.251 -2.9657  0.6699  0.4905
    3CHTO   N18  957   6.234   0.453   1.040  0.6026 -0.6659  0.0945
    3CHTO  H176  958   6.184   0.358   1.053  2.5497 -2.0910 -2.4059
    3CHTO  H177  959   6.163   0.508   0.980  0.9595  1.0874  1.2424
    3CHTO  C105  960   6.174   0.658   1.158  0.4481 -0.2811 -0.2116
    3CHTO  H192  961   6.193   0.707   1.062  3.4280 -0.8683  0.0154
    3CHTO   O65  962   6.206   0.762   1.249  0.3018  0.1786 -0.1032
    3CHTO  C100  963   6.346   0.787   1.287 -0.1540 -0.2730  0.2512
    3CHTO  H187  964   6.400   0.833   1.203 -1.5346 -0.2050 -0.6169
    3CHTO  C107  965   6.345   0.887   1.400  0.6641  0.0968  0.1098
    3CHTO   O70  966   6.476   0.949   1.419  0.5052  0.2275  0.2044
    3CHTO  H170  967   6.538   0.878   1.424 -1.0131 -1.2255 -1.2920
    3CHTO   O57  968   6.017   0.623   1.178  0.3534 -0.2062  0.0748
    3CHTO   C85  969   5.915   0.673   1.092  0.7261 -0.4349 -0.5449
    3CHTO  H157  970   5.942   0.639   0.990  1.5529  0.5127 -0.6418
    3CHTO   C83  971   5.924   0.826   1.105 -0.5787 -0.6891 -0.3081
    3CHTO  H155  972   6.018   0.851   1.056 -1.0262  1.6345 -0.0408
    3CHTO   O56  973   5.932   0.857   1.245  0.0813 -0.2519 -0.7563
    3CHTO  H135  974   6.001   0.917   1.263  1.0682 -1.2889 -1.0547
    3CHTO   C81  975   5.809   0.898   1.031  0.4383  0.7340  0.1693
    3CHTO  H153  976   5.812   0.854   0.932  0.8459 -0.6756  0.7910
    3CHTO   N14  977   5.833   1.042   1.013  0.2637  0.4290  0.1307
    3CHTO  H141  978   5.840   1.076   1.114  1.7492 -2.0043  0.8899
    3CHTO  H142  979   5.925   1.064   0.963  1.4726 -1.3135  1.5299
    3CHTO   C79  980   5.677   0.859   1.093  0.1819 -0.4964  0.9602
    3CHTO  H151  981   5.601   0.901   1.027  1.7972  0.3414 -0.3924
    3CHTO   O52  982   5.660   0.714   1.094  0.0326 -0.4940  0.3226
    3CHTO   C86  983   5.774   0.628   1.137 -0.5672 -0.2291 -0.3640
    3CHTO  H158  984   5.776   0.619   1.248  0.4557 -0.0285 -0.3600
    3CHTO   C90  985   5.764   0.485   1.088  0.0172 -0.0924  0.0606
    3CHTO   O60  986   5.644   0.412   1.105  0.4127 -0.8762  0.7760
    3CHTO  H138  987   5.672   0.329   1.070  1.6247 -0.3344  0.3946
    3CHTO   O50  988   5.667   0.896   1.232 -0.3126 -0.2908  0.1440
    3CHTO   C73  989   5.546   0.901   1.306 -0.3224  0.0588  0.4574
    3CHTO  H145  990   5.501   0.801   1.297  2.3067 -1.2869  1.4105
    3CHTO   C74  991   5.453   1.015   1.259  0.2296  0.5160 -0.1692
    3CHTO  H146  992   5.445   0.984   1.154  0.9020  1.6807 -0.5750
    3CHTO   O54  993   5.329   1.003   1.338 -0.7624  0.7307 -0.3233
    3CHTO  H133  994   5.343   1.026   1.427  0.0924 -0.3135 -0.1841
    3CHTO   C75  995   5.522   1.152   1.270 -0.1497  0.5052 -0.3090
    3CHTO  H147  996   5.606   1.158   1.199 -1.3371  2.3922 -1.6284
    3CHTO   N13  997   5.435   1.269   1.230 -0.2100 -0.1869 -0.0541
    3CHTO  H139  998   5.338   1.251   1.273 -1.1465  0.3739 -1.8830
    3CHTO  H140  999   5.461   1.368   1.264  1.4751 -0.8764  0.7396
    3CHTO   C76 1000   5.580   1.168   1.426  0.7375  0.7032  0.5132
    3CHTO  H148 1001   5.489   1.160   1.486  0.8404 -0.0027  0.5796
    3CHTO   O49 1002   5.659   1.052   1.473 -0.6647  0.0320 -0.6150
    3CHTO   C77 1003   5.584   0.926   1.457 -0.3874  0.2742  0.1335
    3CHTO  H149 1004   5.493   0.928   1.517 -0.6462  0.7669 -0.2689
    3CHTO   C88 1005   5.663   0.806   1.516 -0.0191 -0.3868 -0.3899
    3CHTO   O58 1006   5.566   0.681   1.542 -0.3435  0.5701 -0.3410
    3CHTO  H136 1007   5.625   0.608   1.549 -2.9227 -1.5962 -0.4531
    3CHTO   O51 1008   5.680   1.311   1.438 -0.1774  0.4654  0.1075
    3CHTO   C78 1009   5.690   1.391   1.575 -0.0893 -0.6512 -0.4165
    3CHTO  H150 1010   5.774   1.463   1.571 -2.3416  2.0568  0.1498
    3CHTO   C80 1011   5.711   1.295   1.693  0.5421 -0.3411 -0.4050
    3CHTO  H152 1012   5.628   1.221   1.685  0.8811 -1.0123  2.1056
    3CHTO   O55 1013   5.835   1.230   1.683 -0.5900  0.2475  0.5697
    3CHTO  H134 1014   5.822   1.148   1.641  1.7329  0.0570  0.1635
    3CHTO   C84 1015   5.707   1.372   1.832  0.5692 -0.5532 -0.2342
    3CHTO  H156 1016   5.797   1.433   1.834  0.5308 -0.5149  1.2727
    3CHTO   N15 1017   5.706   1.277   1.948  0.2569  0.3890  0.1314
    3CHTO  H143 1018   5.618   1.218   1.938  0.9043 -0.3779 -1.2045
    3CHTO  H144 1019   5.794   1.216   1.943  1.2133  1.5158  2.4666
    3CHTO   C87 1020   5.596   1.472   1.836 -0.1811 -0.5340 -0.9223
    3CHTO  H159 1021   5.501   1.423   1.854 -2.1659  3.7160  0.7674
    3CHTO   O53 1022   5.576   1.544   1.721 -0.2538 -0.3136 -0.0305
    3CHTO   C82 1023   5.560   1.468   1.599  0.7134  0.0344 -1.0215
    3CHTO  H154 1024   5.478   1.397   1.602  0.7226  0.0199 -1.1022
    3CHTO   C89 1025   5.536   1.562   1.484 -0.1147 -0.0768  0.3566
    3CHTO   O59 1026   5.655   1.639   1.458 -0.0964 -0.0182 -0.1988
    3CHTO  H137 1027   5.660   1.725   1.495  1.2273 -0.4465  0.6630
    3CHTO   O45 1028   5.601   1.579   1.973 -0.4943 -0.6899  0.1291
    3CHTO   C67 1029   5.727   1.648   1.992 -0.0659  0.1513  0.4119
    3CHTO  H124 1030   5.806   1.579   1.961 -0.4461 -0.0291 -0.1829
    3CHTO   C65 1031   5.739   1.784   1.903 -0.9561  0.6250  0.3798
    3CHTO  H122 1032   5.639   1.812   1.870 -0.6316  2.0418  0.5757
    3CHTO   O44 1033   5.798   1.737   1.780 -0.4960  0.1521 -0.5883
    3CHTO  H102 1034   5.738   1.673   1.748 -0.0840  0.7301 -2.5619
    3CHTO   C63 1035   5.794   1.907   1.981 -0.4262  0.2962 -0.2924
    3CHTO  H120 1036   5.716   1.940   2.050  0.5576  0.1847  0.8739
    3CHTO   N11 1037   5.826   2.034   1.906 -0.2592  0.5701 -0.1178
    3CHTO  H108 1038   5.754   2.055   1.830 -1.6024 -1.5759  0.5142
    3CHTO  H109 1039   5.918   2.001   1.862 -0.9089 -1.2603 -0.1720
    3CHTO   C61 1040   5.912   1.861   2.080  0.7887 -0.1376  0.2258
    3CHTO  H118 1041   5.945   1.949   2.137  1.3999 -0.1095 -0.1601
    3CHTO   O40 1042   5.869   1.758   2.175  0.3076  0.4371  0.3970
    3CHTO   C68 1043   5.746   1.682   2.148  0.2422 -0.0614  0.6904
    3CHTO  H125 1044   5.658   1.743   2.174  0.4008 -0.1628  1.4694
    3CHTO   C72 1045   5.746   1.561   2.239 -0.6235 -0.0249 -0.2439
    3CHTO   O48 1046   5.715   1.580   2.380  0.4456  0.4353  0.2456
    3CHTO  H105 1047   5.623   1.566   2.389  0.6152 -0.4433  0.6637
    3CHTO   O38 1048   6.029   1.807   2.008 -0.0245  0.3560 -0.5860
    3CHTO   C55 1049   6.151   1.788   2.080 -0.3515  0.0135 -0.0298
    3CHTO  H112 1050   6.118   1.790   2.185  0.6129  2.6467  0.2575
    3CHTO   C56 1051   6.245   1.902   2.051  0.4135  0.1038  0.6709
    3CHTO  H113 1052   6.241   1.914   1.942  0.1494 -1.8517  0.4442
    3CHTO   O42 1053   6.188   2.019   2.109  0.6868  0.0603 -0.4227
    3CHTO  H100 1054   6.195   2.090   2.048 -1.7749  0.7230 -0.0111
    3CHTO   C57 1055   6.393   1.881   2.096 -0.1497 -0.2797 -0.6112
    3CHTO  H114 1056   6.398   1.902   2.202 -1.2434  0.1286 -0.6352
    3CHTO   N10 1057   6.498   1.950   2.018 -0.1237 -0.2128 -0.1823
    3CHTO  H106 1058   6.506   2.051   2.056 -0.0487  0.0254 -0.8360
    3CHTO  H107 1059   6.593   1.899   2.027 -0.2254 -0.3940 -0.1365
    3CHTO   C58 1060   6.427   1.729   2.079 -1.1027 -0.2767 -0.4273
    3CHTO  H115 1061   6.445   1.703   1.972  2.2274  2.7618 -0.6996
    3CHTO   O37 1062   6.328   1.639   2.126  0.3157 -0.2587 -0.0131
    3CHTO   C59 1063   6.208   1.642   2.047 -0.0232  0.6995 -0.6133
    3CHTO  H116 1064   6.235   1.630   1.942 -1.0186  0.3637 -0.8304
    3CHTO   C70 1065   6.134   1.528   2.108 -0.2570 -0.6034 -0.4778
    3CHTO   O46 1066   6.018   1.492   2.039  0.7491 -0.2635  0.0934
    3CHTO  H103 1067   5.937   1.530   2.066 -0.9746 -1.5996 -2.8772
    3CHTO   O39 1068   6.553   1.680   2.164  0.4655  0.7368 -0.1408
    3CHTO   C60 1069   6.661   1.619   2.095  0.5712  0.7291  1.0447
    3CHTO  H117 1070   6.644   1.613   1.987  0.6767  1.1297  1.0055
    3CHTO   C62 1071   6.787   1.704   2.127 -0.6339  0.3250  0.2366
    3CHTO  H119 1072   6.772   1.813   2.113  0.3824  0.4770  0.2677
    3CHTO   O43 1073   6.818   1.704   2.267 -0.4276  0.3588  0.2224
    3CHTO  H101 1074   6.896   1.751   2.289 -0.7388  0.3387  1.4288
    3CHTO   C66 1075   6.910   1.654   2.039  0.2205  0.2359 -0.6176
    3CHTO  H123 1076   6.881   1.664   1.935 -0.5751 -0.2699 -0.4517
    3CHTO   N12 1077   7.033   1.734   2.057 -0.1546 -0.5832  0.3061
    3CHTO  H110 1078   7.017   1.840   2.048  1.3088 -0.3225  0.5814
    3CHTO  H111 1079   7.069   1.708   2.155 -2.2149  1.4711  1.6390
    3CHTO   C69 1080   6.946   1.502   2.061  0.4803 -0.7256 -1.3952
    3CHTO  H126 1081   6.997   1.481   2.157 -0.8360  1.5560 -0.1720
    3CHTO   O41 1082   6.810   1.419   2.044  0.0459 -0.0304 -1.3486
    3CHTO   C64 1083   6.692   1.471   2.141  0.0883 -0.2170  0.2892
    3CHTO  H121 1084   6.737   1.460   2.242 -1.7706 -1.3248  1.0091
    3CHTO   C71 1085   6.574   1.372   2.129 -0.1370 -0.6487 -0.2823
    3CHTO   O47 1086   6.489   1.389   2.016  0.0406  0.1120 -0.3071
    3CHTO  H104 1087   6.499   1.473   1.974 -1.2688  0.5412  0.2018
    3CHTO   O34 1088   7.035   1.455   1.963 -0.0605 -0.1545 -0.7645
    3CHTO   C49 1089   7.134   1.349   1.962 -0.2391  0.3174 -0.7478
    3CHTO   H91 1090   7.148   1.316   2.065 -1.5402  1.0433 -0.3296
    3CHTO   C47 1091   7.272   1.397   1.911 -0.6514  0.2631 -0.6881
    3CHTO   H89 1092   7.344   1.319   1.943 -1.4773  0.5358  1.9235
    3CHTO   O33 1093   7.307   1.516   1.994  0.0339 -0.2860 -0.3986
    3CHTO   H70 1094   7.360   1.494   2.068  0.0837 -1.9692 -0.9117
    3CHTO   C45 1095   7.265   1.417   1.752  0.0530  0.1600  0.0341
    3CHTO   H87 1096   7.186   1.491   1.733  0.0545  1.1171  3.4380
    3CHTO    N8 1097   7.399   1.467   1.704  0.4960  0.6468  0.5466
    3CHTO   H75 1098   7.440   1.556   1.749  2.6236 -0.1475  0.2383
    3CHTO   H76 1099   7.474   1.390   1.691  0.2172  0.2861  1.0388
    3CHTO   C43 1100   7.209   1.283   1.673  0.1172  0.1075  0.0766
    3CHTO   H85 1101   7.196   1.309   1.568  2.2824 -1.4393 -0.6278
    3CHTO   O29 1102   7.095   1.220   1.740 -0.0750 -1.1746  0.2213
    3CHTO   C50 1103   7.092   1.216   1.887  0.0218 -0.1258  0.6997
    3CHTO   H92 1104   6.987   1.208   1.919  0.4768  1.7597  2.7406
    3CHTO   C54 1105   7.159   1.090   1.944  0.4826  0.8382 -0.6533
    3CHTO   O36 1106   7.082   0.979   1.902 -0.2462 -0.1387  0.2440
    3CHTO   H72 1107   7.102   0.959   1.813 -2.0571  0.8697 -0.4341
    3CHTO   O27 1108   7.312   1.180   1.668  0.4186  0.2168 -0.1831
    3CHTO   C37 1109   7.349   1.063   1.594  0.5877  0.0618  1.2661
    3CHTO   H79 1110   7.457   1.046   1.613  1.2875 -0.6779 -2.9039
    3CHTO   C38 1111   7.290   0.925   1.635  0.2167  0.3564  0.0587
    3CHTO   H80 1112   7.182   0.932   1.658  0.3948 -1.0531  1.4661
    3CHTO   O31 1113   7.359   0.891   1.759 -0.4314  0.4801 -0.4710
    3CHTO   H68 1114   7.344   0.965   1.815  1.1243 -0.9715  1.9403
    3CHTO   C39 1115   7.312   0.817   1.530  0.5359  0.0362  0.5402
    3CHTO   H81 1116   7.416   0.788   1.538  0.3067 -1.5775 -1.7530
    3CHTO    N7 1117   7.245   0.683   1.554  0.0652 -0.5731 -0.3445
    3CHTO   H73 1118   7.159   0.672   1.489 -0.7050  1.8856  0.2136
    3CHTO   H74 1119   7.209   0.672   1.655  0.0025 -2.5876 -0.5564
    3CHTO   C40 1120   7.276   0.874   1.386  0.2460 -0.0332 -0.6926
    3CHTO   H82 1121   7.170   0.899   1.378 -0.2825 -1.2913  1.7881
    3CHTO   O26 1122   7.366   0.985   1.353 -0.3025 -0.0940  0.0277
    3CHTO   C41 1123   7.333   1.092   1.439 -0.1933 -0.2927 -0.5387
    3CHTO   H83 1124   7.225   1.113   1.430  0.1153  1.8103  0.3342
    3CHTO   C52 1125   7.405   1.224   1.395  0.5288  0.1677  0.5383
    3CHTO   O35 1126   7.547   1.227   1.466 -0.2053  0.4897  0.4256
    3CHTO   H71 1127   7.604   1.283   1.416  0.1012 -1.0897 -1.0341
    3CHTO   O28 1128   7.313   0.780   1.282 -0.2681  0.2928 -0.0311
    3CHTO   C42 1129   7.276   0.798   1.142 -0.1888  0.6784  0.0658
    3CHTO   H84 1130   7.346   0.737   1.084  0.4126  0.2453  1.2402
    3CHTO   C44 1131   7.284   0.947   1.090 -0.4287  0.8788  0.0717
    3CHTO   H86 1132   7.217   1.004   1.155 -0.8183 -1.1595  1.5025
    3CHTO   O32 1133   7.422   0.983   1.095  0.5043  0.1395 -0.4109
    3CHTO   H69 1134   7.424   1.076   1.083 -4.1864  0.7175  1.9602
    3CHTO   C48 1135   7.232   0.952   0.944  0.5859 -0.8364 -0.0176
    3CHTO   H90 1136   7.316   0.903   0.894  1.4541  1.5806 -0.9942
    3CHTO    N9 1137   7.230   1.091   0.886 -0.7695  0.3989  0.2349
    3CHTO   H77 1138   7.160   1.096   0.804  1.2397 -1.1434 -1.6414
    3CHTO   H78 1139   7.204   1.170   0.954 -0.5096  1.1804 -0.5545
    3CHTO   C51 1140   7.090   0.885   0.922 -0.2304 -0.0560  1.1927
    3CHTO   H93 1141   7.023   0.948   0.980 -1.3045 -1.3404  1.3821
    3CHTO   O30 1142   7.100   0.750   0.972  0.1556 -0.4173 -0.3386
    3CHTO   C46 1143   7.132   0.734   1.112  0.0230  0.1896 -0.8092
    3CHTO   H88 1144   7.055   0.774   1.177  0.7644  1.3558 -0.6237
    3CHTO   C53 1145   7.118   0.580   1.137  0.2490 -0.3056  0.2668
    3CHTO   O72 1146   6.984   0.534   1.148  0.1631  0.0652  0.4422
    3CHTO  H199 1147   6.931   0.570   1.080  0.1149 -0.6166  0.1094
    3CHTO   O22 1148   7.055   0.870   0.789 -0.2324  0.4110  0.5481
    3CHTO   C31 1149   6.911   0.862   0.748  0.2514  0.0853  0.6139
    3CHTO   H59 1150   6.912   0.825   0.643  1.1382  1.1698  0.2233
    3CHTO   C29 1151   6.832   0.765   0.833  0.2056  0.2626 -0.1080
    3CHTO   H57 1152   6.844   0.786   0.940 -3.1633 -4.0958  1.2782
    3CHTO   O21 1153   6.884   0.632   0.816 -0.5192 -0.1543  0.1044
    3CHTO   H37 1154   6.816   0.569   0.832 -1.4165  0.6898 -0.3493
    3CHTO   C27 1155   6.680   0.781   0.787 -0.3486 -0.0093  0.1630
    3CHTO   H55 1156   6.662   0.734   0.689  0.5733  1.7190 -0.8512
    3CHTO    N5 1157   6.592   0.705   0.883 -0.9067  0.0403  0.1121
    3CHTO   H43 1158   6.528   0.772   0.939 -2.2535  1.4774 -2.9562
    3CHTO   H44 1159   6.539   0.628   0.829 -0.0936  0.9133 -1.9942
    3CHTO   C25 1160   6.629   0.928   0.794 -0.2468 -1.4255 -0.2122
    3CHTO   H53 1161   6.633   0.964   0.898  1.1510 -0.8322 -0.4620
    3CHTO   O17 1162   6.712   1.013   0.713  0.3159  0.2815 -0.5715
    3CHTO   C32 1163   6.851   1.011   0.748  0.4833 -0.4377 -0.2258
    3CHTO   H60 1164   6.867   1.053   0.848 -2.7856 -0.1997  0.2456
    3CHTO   C36 1165   6.934   1.099   0.658 -0.2895  0.3500  0.4690
    3CHTO   O25 1166   6.914   1.064   0.520 -0.1436 -0.3680 -0.0068
    3CHTO   H40 1167   6.977   1.101   0.461  1.7997 -0.4661  1.9445
    3CHTO   O15 1168   6.463   0.964   0.740 -0.4230  0.4117  0.1893
    3CHTO   C19 1169   6.378   1.073   0.739 -0.3041 -0.6809  0.2619
    3CHTO   H47 1170   6.305   1.047   0.661 -0.6758 -1.8850  1.0050
    3CHTO   C20 1171   6.317   1.092   0.883  0.0206  0.3794  0.9822
    3CHTO   H48 1172   6.393   1.096   0.962  0.9025  1.0575  0.1053
    3CHTO   O19 1173   6.243   0.969   0.904 -0.4255  0.2660 -0.0896
    3CHTO   H35 1174   6.186   0.975   0.978 -1.2330  2.0526 -0.8272
    3CHTO   C21 1175   6.220   1.210   0.879  0.1125 -0.1365 -0.3299
    3CHTO   H49 1176   6.133   1.177   0.821 -0.7256 -0.6834  1.2095
    3CHTO    N4 1177   6.157   1.237   1.013 -0.5205 -0.2922 -0.0449
    3CHTO   H41 1178   6.189   1.162   1.084 -0.9112  0.5565  1.0327
    3CHTO   H42 1179   6.049   1.230   1.005 -0.4846 -2.4104  0.8955
    3CHTO   C22 1180   6.276   1.340   0.811  0.4764 -0.1995 -0.3540
    3CHTO   H50 1181   6.356   1.391   0.866  0.2355  1.3465 -1.4052
    3CHTO   O14 1182   6.333   1.304   0.683  0.6065 -0.2209 -0.1096
    3CHTO   C23 1183   6.440   1.205   0.693  0.1494  0.4450 -0.9870
    3CHTO   H51 1184   6.514   1.244   0.763  1.0149  0.8193 -2.0965
    3CHTO   C34 1185   6.492   1.195   0.547 -0.2477  0.2340 -0.9778
    3CHTO   O23 1186   6.572   1.314   0.524  0.1961  0.3256 -0.0010
    3CHTO   H38 1187   6.527   1.383   0.569 -0.2134  0.1203 -0.0975
    3CHTO   O16 1188   6.171   1.436   0.787 -0.6289 -0.5304  0.1052
    3CHTO   C24 1189   6.226   1.588   0.768 -0.3459  0.3441  0.2202
    3CHTO   H52 1190   6.334   1.595   0.785 -0.1991  0.2619 -0.6736
    3CHTO   C26 1191   6.164   1.686   0.866 -1.0061  0.3060  0.0494
    3CHTO   H54 1192   6.056   1.681   0.842 -0.6327 -0.5132 -1.5304
    3CHTO   O20 1193   6.191   1.627   0.996  0.0630  0.4728 -0.2362
    3CHTO   H36 1194   6.274   1.584   1.004  0.2851  0.6618 -1.4488
    3CHTO   C30 1195   6.225   1.829   0.858 -0.1821  0.4074 -0.2019
    3CHTO   H58 1196   6.326   1.829   0.901  0.8021  1.2812 -2.4253
    3CHTO    N6 1197   6.157   1.929   0.945  0.4771 -0.1692  0.8524
    3CHTO   H45 1198   6.097   2.003   0.893  1.3258 -0.2181 -0.2097
    3CHTO   H46 1199   6.106   1.878   1.025 -0.9221 -2.2098 -1.2635
    3CHTO   C33 1200   6.228   1.878   0.711  0.4374  0.2288  0.1209
    3CHTO   H61 1201   6.137   1.932   0.681 -0.1268 -0.3719  0.7152
    3CHTO   O18 1202   6.244   1.771   0.614 -0.0059 -0.1722  0.6277
    3CHTO   C28 1203   6.188   1.637   0.624  0.6507 -0.2620 -0.6562
    3CHTO   H56 1204   6.079   1.636   0.614  0.5991 -0.1464 -0.1185
    3CHTO   C35 1205   6.253   1.551   0.515 -0.4834  0.4084 -0.1303
    3CHTO   O24 1206   6.238   1.593   0.374  0.0992 -0.4913  0.1426
    3CHTO   H39 1207   6.149   1.585   0.343  0.4277 -2.5187 -0.3986
    3CHTO    O9 1208   6.335   1.973   0.699 -0.2293 -0.9783 -0.0125
    3CHTO   C13 1209   6.309   2.071   0.599  0.6220  0.0012 -0.1595
    3CHTO   H26 1210   6.206   2.105   0.617  1.1451  1.0891  0.8106
    3CHTO   C11 1211   6.329   2.018   0.448 -0.2457 -0.1762  0.8879
    3CHTO   H24 1212   6.236   1.970   0.418  0.2801 -0.9943  0.5532
    3CHTO    O8 1213   6.440   1.913   0.443 -0.0281 -0.7984  0.3527
    3CHTO    H3 1214   6.429   1.833   0.490 -1.1573  0.1924  1.8260
    3CHTO    C9 1215   6.351   2.141   0.356 -0.5935  0.1188 -0.0100
    3CHTO   H22 1216   6.267   2.209   0.376  0.6016  1.9121 -0.9617
    3CHTO    N2 1217   6.337   2.115   0.209 -0.5260  0.1168 -0.1406
    3CHTO   H10 1218   6.409   2.040   0.179 -0.9406 -0.0467 -0.7357
    3CHTO   H11 1219   6.357   2.211   0.164  1.8681 -0.6164 -0.7236
    3CHTO    C7 1220   6.493   2.206   0.397 -0.5812  0.0171  0.1419
    3CHTO   H20 1221   6.476   2.314   0.375  0.8189  0.1595 -0.2676
    3CHTO    O4 1222   6.520   2.200   0.534 -0.1689  0.0163 -0.7643
    3CHTO   C14 1223   6.402   2.198   0.620 -0.8369  0.2255  0.2278
    3CHTO   H27 1224   6.339   2.288   0.601 -1.7391 -0.0361  1.8396
    3CHTO   C18 1225   6.452   2.214   0.767  0.2092  0.1230  0.2703
    3CHTO   O13 1226   6.339   2.226   0.856 -0.0890  0.2704  0.2840
    3CHTO    H7 1227   6.297   2.143   0.850  0.4241  0.1023 -1.1795
    3CHTO    O2 1228   6.610   2.147   0.322 -0.6425  0.3065 -0.0382
    3CHTO    C1 1229   6.710   2.240   0.289 -0.6058 -0.4003  0.1765
    3CHTO   H14 1230   6.692   2.333   0.346  0.9661  1.0303 -1.5895
    3CHTO    C2 1231   6.717   2.279   0.133  0.3159  0.4209 -0.4010
    3CHTO   H15 1232   6.727   2.188   0.072  0.4244 -0.2703  0.6396
    3CHTO    O6 1233   6.591   2.331   0.101 -0.2445 -0.2664  0.2668
    3CHTO    H1 1234   6.598   2.374   0.017 -1.8152  0.6993  0.6093
    3CHTO    C3 1235   6.838   2.373   0.101  0.5997  0.7476 -0.8627
    3CHTO   H16 1236   6.817   2.463   0.159 -1.8987 -0.0370 -0.4991
    3CHTO    N1 1237   6.855   2.415  -0.046 -0.4428  0.0184 -0.0686
    3CHTO    H8 1238   6.877   2.332  -0.111  0.9925 -0.7531  1.3776
    3CHTO    H9 1239   6.759   2.453  -0.079 -0.4645  1.5183  1.6684
    3CHTO    C4 1240   6.969   2.311   0.158 -0.4505  0.4540  0.8119
    3CHTO   H17 1241   7.005   2.224   0.102  1.2946  0.9134  1.1877
    3CHTO    O1 1242   6.948   2.280   0.298 -0.5152 -0.1819  0.1583
    3CHTO    C5 1243   6.845   2.181   0.325 -0.3107  0.2872  0.0528
    3CHTO   H18 1244   6.867   2.087   0.274  1.0696  1.5730 -1.7632
    3CHTO   C16 1245   6.848   2.150   0.473 -0.4031 -0.3210  0.0273
    3CHTO   O11 1246   6.842   2.012   0.507  0.7825 -0.2707 -0.1744
    3CHTO    H5 1247   6.871   2.002   0.596  1.0744 -2.1452 -0.4488
    3CHTO    O3 1248   7.082   2.407   0.153  0.4260 -0.1924 -0.7736
    3CHTO    C6 1249   7.212   2.335   0.174  0.2065 -0.2288  0.5355
    3CHTO   H19 1250   7.191   2.230   0.193 -1.4220 -0.3117 -1.5402
    3CHTO    C8 1251   7.298   2.360   0.044 -0.1361 -0.2517 -0.0016
    3CHTO   H21 1252   7.320   2.465   0.027 -1.6406 -0.1029 -1.1906
    3CHTO    O7 1253   7.225   2.304  -0.069  0.8903  0.0585  0.3084
    3CHTO    H2 1254   7.152   2.360  -0.090  0.7057 -0.5246 -0.6027
    3CHTO   C12 1255   7.437   2.298   0.063  0.1644 -0.6350 -0.2923
    3CHTO   H25 1256   7.420   2.188   0.060 -2.1950 -0.2700 -1.2645
    3CHTO    N3 1257   7.527   2.318  -0.055  0.1746 -0.2125  0.0044
    3CHTO   H12 1258   7.624   2.272  -0.039  0.0395  0.0336  1.6070
    3CHTO   H13 1259   7.544   2.425  -0.054  1.3446 -0.3894  0.4625
    3CHTO   C15 1260   7.495   2.338   0.205  0.0572  0.0303 -0.3288
    3CHTO   H28 1261   7.513   2.444   0.221 -1.1331  0.0001  1.3530
    3CHTO   O10 1262   7.610   2.251   0.256  0.0398 -0.5982  0.1627
    3CHTO    H4 1263   7.687   2.296   0.227 -0.5804  1.3155  1.3731
    3CHTO    O5 1264   7.395   2.309   0.308 -0.1619  0.0279 -0.2464
    3CHTO   C10 1265   7.279   2.395   0.296 -0.0545  0.8028  0.8206
    3CHTO   H23 1266   7.303   2.498   0.272 -0.0815  0.2266 -1.8443
    3CHTO   C17 1267   7.220   2.382   0.429 -0.6312  0.3121 -0.1877
    3CHTO   O12 1268   7.110   2.475   0.452  0.0722 -0.2387 -0.0084
    3CHTO    H6 1269   7.104   2.484   0.545 -0.2602  0.8761 -0.1295
    4CHTO  H203 1270   6.663   6.973   1.873  0.0645  1.0972 -0.1651
    4CHTO   O82 1271   6.738   6.943   1.825 -0.1937 -0.8153  0.5932
    4CHTO  C123 1272   6.843   7.044   1.823 -0.0529 -0.2369 -0.4712
    4CHTO  H227 1273   6.847   7.091   1.922  1.1903  1.3989 -1.2827
    4CHTO   O77 1274   6.975   6.977   1.792 -0.3080 -0.0359  0.6344
    4CHTO  C118 1275   7.081   7.075   1.794  0.5142 -0.3080  0.0313
    4CHTO  H222 1276   7.063   7.135   1.885 -1.8598  1.4188 -1.5167
    4CHTO  C125 1277   7.221   7.005   1.794 -0.3659 -0.2063  0.0109
    4CHTO   O84 1278   7.225   6.904   1.893 -0.0304 -0.0534  0.2769
    4CHTO  H205 1279   7.148   6.852   1.887 -1.6355  2.1346  1.0342
    4CHTO  C114 1280   7.068   7.167   1.677 -0.1798  0.0635  0.4666
    4CHTO  H218 1281   7.076   7.109   1.585 -0.0481 -0.3364  0.7291
    4CHTO  C116 1282   6.931   7.243   1.689  0.1468 -0.0504  0.0381
    4CHTO  H220 1283   6.935   7.309   1.778  0.3862  0.0785 -0.0647
    4CHTO   O79 1284   6.926   7.333   1.577  0.5532  0.2961  0.2882
    4CHTO  H201 1285   7.007   7.379   1.572 -0.2344  1.6601 -0.2460
    4CHTO  C120 1286   6.813   7.152   1.715 -0.0633 -0.1736 -0.4153
    4CHTO  H224 1287   6.802   7.098   1.619 -0.5271 -0.7325 -0.0511
    4CHTO   N21 1288   6.691   7.234   1.738 -0.9828  0.0652 -0.1606
    4CHTO  H211 1289   6.617   7.191   1.803  0.9787 -2.0322  0.7637
    4CHTO  H212 1290   6.640   7.259   1.645  0.0845  1.4169 -0.3931
    4CHTO   O75 1291   7.180   7.262   1.672  0.3492 -0.6286 -0.0176
    4CHTO  C112 1292   7.227   7.312   1.514  0.4275 -0.5243 -0.3454
    4CHTO  H216 1293   7.136   7.347   1.464 -0.7214 -1.4868  1.0163
    4CHTO   O73 1294   7.285   7.196   1.449 -0.3604  0.0432 -0.8688
    4CHTO  C113 1295   7.334   7.221   1.318 -0.3617 -0.2377  0.1543
    4CHTO  H217 1296   7.249   7.254   1.255  2.0100  1.7314 -2.1096
    4CHTO  C124 1297   7.389   7.089   1.263  0.0624  0.2832  0.5028
    4CHTO   O83 1298   7.282   7.013   1.211  0.1271  0.2336 -1.0560
    4CHTO  H204 1299   7.303   6.925   1.187 -0.0995  0.7538 -3.3174
    4CHTO  C109 1300   7.441   7.338   1.317  0.5901 -0.1654  0.0314
    4CHTO  H213 1301   7.520   7.306   1.385  2.9622 -1.9290 -3.4241
    4CHTO  C110 1302   7.378   7.472   1.389 -1.0763 -0.7739  0.3168
    4CHTO  H214 1303   7.298   7.499   1.321 -0.7312  0.9761  0.6016
    4CHTO   O78 1304   7.474   7.576   1.405  0.0012  0.0378  0.0263
    4CHTO  H200 1305   7.432   7.659   1.399 -0.6230 -0.3365 -0.7996
    4CHTO  C111 1306   7.319   7.435   1.525  0.9263  0.5161  0.0710
    4CHTO  H215 1307   7.402   7.411   1.594 -0.9054  1.0379  2.5113
    4CHTO   N19 1308   7.248   7.550   1.592 -0.0126 -0.1097  0.0960
    4CHTO  H207 1309   7.258   7.543   1.699 -0.3815 -0.5532  0.1009
    4CHTO  H208 1310   7.292   7.642   1.556 -1.7415  0.8728  0.4282
    4CHTO   O74 1311   7.504   7.349   1.185  0.6123  0.4718  0.3177
    4CHTO  C115 1312   7.636   7.427   1.182  0.4060  0.5992 -0.1722
    4CHTO  H219 1313   7.637   7.501   1.262 -4.1407  0.6032  0.0522
    4CHTO   O76 1314   7.763   7.330   1.191 -0.6284  0.2925  0.2301
    4CHTO  C122 1315   7.747   7.226   1.094 -0.0967 -0.4534  0.0092
    4CHTO  H226 1316   7.666   7.157   1.116  1.5941 -2.0391  1.4385
    4CHTO  C126 1317   7.877   7.135   1.103 -0.3326 -0.1726  0.7165
    4CHTO   O85 1318   7.882   7.026   1.011  0.1944 -0.5278 -0.4692
    4CHTO  H206 1319   7.898   7.062   0.925 -2.3129 -1.4119 -1.3655
    4CHTO  C121 1320   7.733   7.285   0.950  0.4933 -0.6879 -0.0657
    4CHTO  H225 1321   7.819   7.248   0.891 -0.4850 -0.8743 -1.4220
    4CHTO   O81 1322   7.606   7.242   0.902  0.1119 -0.2619  0.0718
    4CHTO  H202 1323   7.540   7.302   0.930 -0.2185  0.3303 -1.8915
    4CHTO  C119 1324   7.730   7.445   0.939 -0.1104  0.0543  0.4434
    4CHTO  H223 1325   7.834   7.471   0.960 -0.2604  0.2448  0.9686
    4CHTO  C117 1326   7.627   7.504   1.048  0.5288 -0.4558  0.6109
    4CHTO  H221 1327   7.526   7.512   1.007  0.7971  0.8691  0.1909
    4CHTO   N20 1328   7.663   7.654   1.069  0.5021  0.3418 -0.0945
    4CHTO  H209 1329   7.681   7.669   1.175 -1.0809  1.2294  0.0553
    4CHTO  H210 1330   7.740   7.701   1.010  0.2311  0.4995 -0.3248
    4CHTO   O80 1331   7.704   7.495   0.767 -0.0799 -0.4669  0.2179
    4CHTO  C103 1332   7.830   7.562   0.684  0.0666  0.3467 -0.0795
    4CHTO  H190 1333   7.876   7.630   0.755 -1.0406 -1.6158  2.5998
    4CHTO  C101 1334   7.938   7.453   0.637 -0.6442  0.1208  0.2133
    4CHTO  H188 1335   7.888   7.376   0.578 -1.3758 -0.6635  1.8466
    4CHTO   O68 1336   8.010   7.380   0.749  0.0750  0.9507  0.7978
    4CHTO  H168 1337   7.995   7.414   0.835  1.2477 -1.9059  2.2212
    4CHTO   C99 1338   8.035   7.509   0.525  0.3543  0.7558  0.4300
    4CHTO  H186 1339   8.097   7.583   0.579 -0.4923  2.0339 -0.3044
    4CHTO   N17 1340   8.143   7.413   0.457 -0.1448 -0.0023  0.0730
    4CHTO  H174 1341   8.143   7.316   0.506 -0.6699 -0.1795 -0.2754
    4CHTO  H175 1342   8.242   7.455   0.450 -1.1901  2.4648 -0.2837
    4CHTO   C97 1343   7.963   7.596   0.413 -0.2906  0.1812  0.2420
    4CHTO  H184 1344   7.911   7.532   0.341  0.5179  0.5648 -0.6983
    4CHTO   O64 1345   7.877   7.696   0.467  0.2250 -0.7779  0.0826
    4CHTO  C104 1346   7.774   7.646   0.559 -0.6203  0.5760  0.5227
    4CHTO  H191 1347   7.699   7.587   0.506  1.6517 -0.7134 -1.3651
    4CHTO  C108 1348   7.697   7.768   0.617  0.1186 -0.6262  0.4161
    4CHTO   O71 1349   7.572   7.720   0.668 -0.4710 -0.5761  0.1117
    4CHTO  H171 1350   7.557   7.742   0.758  3.2479  0.6511  0.5440
    4CHTO   O62 1351   8.061   7.680   0.342 -0.1977  0.1607  0.4429
    4CHTO   C91 1352   8.025   7.727   0.212  0.6552 -0.1480  0.2328
    4CHTO  H178 1353   7.916   7.727   0.207  0.7110 -0.3058 -1.3471
    4CHTO   C92 1354   8.073   7.621   0.104  0.0899 -0.2559  0.0788
    4CHTO  H179 1355   8.182   7.620   0.110  0.2264 -1.4297 -2.3825
    4CHTO   O66 1356   8.032   7.489   0.143 -0.0131  0.2389  0.4063
    4CHTO  H166 1357   7.941   7.470   0.128 -0.1958  0.8281  0.7572
    4CHTO   C93 1358   8.018   7.663  -0.039 -0.6157  0.3200  0.4796
    4CHTO  H180 1359   7.910   7.644  -0.044 -0.4975 -0.2673  0.0733
    4CHTO   N16 1360   8.071   7.568  -0.142  0.1223  0.1729 -0.6290
    4CHTO  H172 1361   8.121   7.480  -0.105  0.0566  0.7300  0.8081
    4CHTO  H173 1362   8.000   7.544  -0.220  0.1076  1.5559 -1.0652
    4CHTO   C94 1363   8.048   7.815  -0.069 -0.4582 -0.1044  0.0776
    4CHTO  H181 1364   8.148   7.825  -0.109  0.5441  0.2172  2.5323
    4CHTO   O61 1365   8.044   7.909   0.036  0.4912 -0.1903  0.1820
    4CHTO   C95 1366   8.085   7.867   0.167 -0.2472 -0.4595 -0.5459
    4CHTO  H182 1367   8.194   7.864   0.173 -0.1425 -1.6229 -2.7178
    4CHTO  C106 1368   8.040   7.985   0.269  0.4763 -0.5888 -0.7816
    4CHTO   O69 1369   8.131   8.098   0.258 -0.1459 -0.7147 -0.5238
    4CHTO  H169 1370   8.082   8.178   0.262  0.6975 -0.2467  0.8123
    4CHTO   O63 1371   7.937   7.858  -0.177 -0.1004  0.3057 -0.0513
    4CHTO   C96 1372   7.795   7.886  -0.146  0.4681 -0.3651  0.1784
    4CHTO  H183 1373   7.762   7.862  -0.045  0.3348  0.4276  0.3306
    4CHTO   C98 1374   7.697   7.794  -0.221  0.1073  0.6322 -0.1513
    4CHTO  H185 1375   7.712   7.795  -0.330 -3.0016 -0.4982 -0.6371
    4CHTO   O67 1376   7.730   7.664  -0.182 -0.1781  0.7276  0.1232
    4CHTO  H167 1377   7.807   7.626  -0.222  0.1341 -1.5768  2.7901
    4CHTO  C102 1378   7.542   7.830  -0.190 -0.3020  0.1054 -0.1795
    4CHTO  H189 1379   7.519   7.782  -0.094  0.1476 -1.1745 -0.7029
    4CHTO   N18 1380   7.442   7.766  -0.280 -0.2055 -0.3431  0.0406
    4CHTO  H176 1381   7.353   7.755  -0.219  0.7235 -2.4940  1.0648
    4CHTO  H177 1382   7.422   7.831  -0.364  0.5954 -0.6196 -0.3687
    4CHTO  C105 1383   7.514   7.987  -0.180  0.0074 -0.4641 -0.2804
    4CHTO  H192 1384   7.471   8.016  -0.276 -1.5860 -0.1620  0.5059
    4CHTO   O65 1385   7.619   8.075  -0.141 -0.6819  0.0688 -0.3878
    4CHTO  C100 1386   7.754   8.038  -0.171  0.3758  0.1016  0.7554
    4CHTO  H187 1387   7.770   8.045  -0.280  3.3669  0.3131  1.1629
    4CHTO  C107 1388   7.841   8.139  -0.091  0.5608 -0.1619  0.7233
    4CHTO   O70 1389   7.840   8.109   0.052  0.7259  0.2304 -0.0441
    4CHTO  H170 1390   7.782   8.176   0.082  0.4284  1.2738 -2.7732
    4CHTO   O57 1391   7.408   7.992  -0.066  0.3199 -0.4098  0.0216
    4CHTO   C85 1392   7.299   8.090  -0.058 -0.0712  0.1625  0.2444
    4CHTO  H157 1393   7.265   8.082  -0.164  0.7699  0.1347 -0.0253
    4CHTO   C83 1394   7.352   8.233  -0.018  0.5341 -0.2313 -0.3561
    4CHTO  H155 1395   7.406   8.277  -0.103  0.3789  0.9173  0.1282
    4CHTO   O56 1396   7.445   8.225   0.088 -0.1709  0.2421  0.1137
    4CHTO  H135 1397   7.476   8.307   0.121  1.9959 -0.6613  0.4571
    4CHTO   C81 1398   7.234   8.330   0.016  0.2671  0.7058  0.8607
    4CHTO  H153 1399   7.174   8.346  -0.074 -0.8642  0.6600  1.6142
    4CHTO   N14 1400   7.267   8.470   0.051 -0.5046  0.2381  0.3209
    4CHTO  H141 1401   7.341   8.470   0.129  1.2702  0.9691 -1.3495
    4CHTO  H142 1402   7.183   8.526   0.085  0.0939  2.0301 -1.1033
    4CHTO   C79 1403   7.139   8.267   0.125  0.1237  0.5004  0.2068
    4CHTO  H151 1404   7.059   8.338   0.145 -0.1087  0.6668 -1.2574
    4CHTO   O52 1405   7.089   8.146   0.063 -1.2945 -0.6760  0.2213
    4CHTO   C86 1406   7.188   8.046   0.041 -0.1157 -0.0062  0.3751
    4CHTO  H158 1407   7.236   8.025   0.139  0.1600  0.8199  0.4201
    4CHTO   C90 1408   7.114   7.923  -0.006  0.1321 -0.6365 -0.2919
    4CHTO   O60 1409   7.045   7.867   0.105  0.3741  0.5241 -0.1960
    4CHTO  H138 1410   6.956   7.848   0.081  0.7562 -1.5193 -0.0400
    4CHTO   O50 1411   7.197   8.246   0.247 -0.3558 -0.4914  0.4923
    4CHTO   C73 1412   7.203   8.235   0.389  0.0033  0.6140 -0.4223
    4CHTO  H145 1413   7.152   8.322   0.432  1.1258  1.1279 -0.0985
    4CHTO   C74 1414   7.357   8.235   0.437 -1.0765  0.2711  0.1782
    4CHTO  H146 1415   7.404   8.322   0.387 -2.0492  0.9883  0.5012
    4CHTO   O54 1416   7.357   8.265   0.579  0.0547 -0.1007 -0.1802
    4CHTO  H133 1417   7.322   8.193   0.626  1.2891  0.1452  1.1749
    4CHTO   C75 1418   7.428   8.095   0.397 -0.0746  0.1049  0.4413
    4CHTO  H147 1419   7.424   8.078   0.288  1.7663  0.6888  0.2681
    4CHTO   N13 1420   7.572   8.089   0.425 -0.1397  0.0979 -0.0738
    4CHTO  H139 1421   7.602   8.097   0.529  0.7001 -0.7114 -0.2509
    4CHTO  H140 1422   7.626   8.169   0.377  2.4979 -2.9176 -2.2125
    4CHTO   C76 1423   7.342   7.975   0.459  0.1265 -0.3154 -0.0421
    4CHTO  H148 1424   7.325   8.001   0.563  0.6507  1.1047 -0.2885
    4CHTO   O49 1425   7.205   7.986   0.397  0.9223 -0.7066  0.5135
    4CHTO   C77 1426   7.133   8.102   0.438 -0.6267 -0.0705 -0.1596
    4CHTO  H149 1427   7.126   8.098   0.547 -1.1923  1.2427 -0.1398
    4CHTO   C88 1428   6.990   8.075   0.390 -0.4255  0.3776 -1.0268
    4CHTO   O58 1429   6.923   7.923   0.441  0.6325  0.1466 -0.6660
    4CHTO  H136 1430   6.915   7.918   0.534  0.2372  1.2755 -0.6373
    4CHTO   O51 1431   7.414   7.828   0.427  0.4818  0.4340  0.1206
    4CHTO   C78 1432   7.384   7.754   0.272 -0.3592 -0.5498 -0.0472
    4CHTO  H150 1433   7.356   7.836   0.203  0.5144  2.2499  2.7540
    4CHTO   C80 1434   7.274   7.649   0.279 -0.6308  0.0167 -0.4158
    4CHTO  H152 1435   7.292   7.578   0.362 -0.8173 -0.6979 -0.9770
    4CHTO   O55 1436   7.153   7.717   0.315 -0.4403 -0.5869 -0.7937
    4CHTO  H134 1437   7.097   7.660   0.363 -1.7282  1.2855 -0.0247
    4CHTO   C84 1438   7.266   7.570   0.149 -0.4245  0.1714  0.2244
    4CHTO  H156 1439   7.246   7.637   0.065 -0.2546  1.5992  1.3050
    4CHTO   N15 1440   7.150   7.471   0.143 -0.8303  0.1895 -0.0538
    4CHTO  H143 1441   7.146   7.426   0.240  1.2271  0.7420  0.2945
    4CHTO  H144 1442   7.155   7.398   0.064  1.1762  0.9599 -0.6654
    4CHTO   C87 1443   7.404   7.500   0.131 -0.1377 -0.0043 -0.1008
    4CHTO  H159 1444   7.425   7.443   0.221  0.6702 -0.0654 -0.3194
    4CHTO   O53 1445   7.501   7.609   0.122  0.3662 -0.1713  0.5168
    4CHTO   C82 1446   7.521   7.690   0.235 -0.1034 -0.1624 -0.0902
    4CHTO  H154 1447   7.569   7.628   0.311  0.2933 -1.4316 -1.3570
    4CHTO   C89 1448   7.627   7.793   0.188 -0.8185 -0.2904  0.1031
    4CHTO   O59 1449   7.715   7.836   0.287 -0.4171  0.1477 -0.0282
    4CHTO  H137 1450   7.787   7.777   0.300 -0.1711  0.1837 -1.1452
    4CHTO   O45 1451   7.427   7.412  -0.026 -0.1241  0.1035  0.1356
    4CHTO   C67 1452   7.567   7.386  -0.049 -0.1136  0.3012  0.1235
    4CHTO  H124 1453   7.619   7.482  -0.059  0.7018 -0.0500  0.9398
    4CHTO   C65 1454   7.639   7.309   0.061  0.3165  0.1328 -0.9080
    4CHTO  H122 1455   7.611   7.359   0.154 -0.9575  0.5916 -1.5280
    4CHTO   O44 1456   7.783   7.316   0.033 -0.1632  0.6473 -0.1245
    4CHTO  H102 1457   7.809   7.307  -0.057 -1.1360 -0.8143 -0.2769
    4CHTO   C63 1458   7.574   7.167   0.075  0.6877  0.1076  0.4742
    4CHTO  H120 1459   7.469   7.182   0.103  1.2625 -0.2720  2.8601
    4CHTO   N11 1460   7.625   7.104   0.203 -0.3012  0.6206  0.4811
    4CHTO  H108 1461   7.551   7.108   0.280 -1.3047  1.4980 -0.5140
    4CHTO  H109 1462   7.617   7.002   0.172  0.4036  0.8283 -0.3979
    4CHTO   C61 1463   7.563   7.089  -0.061 -0.2496 -0.8683 -0.1742
    4CHTO  H118 1464   7.475   7.023  -0.051  0.2581 -1.7397 -1.4879
    4CHTO   O40 1465   7.537   7.175  -0.176  0.3302 -0.0969  0.0052
    4CHTO   C68 1466   7.575   7.311  -0.193  0.4839  0.0421 -0.0189
    4CHTO  H125 1467   7.506   7.374  -0.254 -0.0719 -1.1981 -0.6777
    4CHTO   C72 1468   7.713   7.331  -0.245  0.1099 -0.2266  0.5010
    4CHTO   O48 1469   7.750   7.249  -0.360  0.4134  0.1613  0.2830
    4CHTO  H105 1470   7.776   7.162  -0.338 -0.7805 -0.7791 -1.9177
    4CHTO   O38 1471   7.677   7.006  -0.089 -0.1835  0.6941  0.4049
    4CHTO   C55 1472   7.646   6.874  -0.143 -0.0398  0.9156  0.4428
    4CHTO  H112 1473   7.548   6.871  -0.193 -0.1213  0.1501  0.6449
    4CHTO   C56 1474   7.651   6.767  -0.024  0.2405 -0.4469  0.1556
    4CHTO  H113 1475   7.745   6.783   0.032 -0.7725  1.4532  1.3512
    4CHTO   O42 1476   7.547   6.791   0.071  0.5320  0.6003 -0.3273
    4CHTO  H100 1477   7.559   6.740   0.149  0.7596  1.7360  0.3866
    4CHTO   C57 1478   7.645   6.615  -0.083 -0.5885 -0.1763  0.7361
    4CHTO  H114 1479   7.551   6.592  -0.133  0.2400 -2.4690  0.2188
    4CHTO   N10 1480   7.669   6.516   0.020 -0.2070 -0.6150  0.2180
    4CHTO  H106 1481   7.639   6.550   0.118  0.3066  0.1732  0.1023
    4CHTO  H107 1482   7.772   6.485   0.022 -0.1183 -0.2840  0.7849
    4CHTO   C58 1483   7.758   6.606  -0.186  0.2563 -1.0130  0.2772
    4CHTO  H115 1484   7.853   6.632  -0.134  0.0429 -0.8433  0.5859
    4CHTO   O37 1485   7.748   6.700  -0.296  0.0079  0.1367 -0.1489
    4CHTO   C59 1486   7.753   6.836  -0.246  0.3726  0.1900  0.3494
    4CHTO  H116 1487   7.854   6.851  -0.210  1.2367 -0.3000 -1.8057
    4CHTO   C70 1488   7.758   6.936  -0.366  0.0151 -0.7375 -1.2032
    4CHTO   O46 1489   7.851   6.897  -0.466 -0.1984 -0.5803 -0.2003
    4CHTO  H103 1490   7.862   6.964  -0.530 -1.2963 -0.3644 -0.1740
    4CHTO   O39 1491   7.770   6.463  -0.264 -0.0720 -0.4333 -0.3680
    4CHTO   C60 1492   7.648   6.409  -0.328 -0.0918 -0.4640  1.1101
    4CHTO  H117 1493   7.569   6.407  -0.253 -0.1459  2.2747  1.2023
    4CHTO   C62 1494   7.620   6.500  -0.453  0.3868  1.2208  0.8444
    4CHTO  H119 1495   7.594   6.605  -0.430  0.7317  1.9082 -1.7216
    4CHTO   O43 1496   7.744   6.504  -0.532  0.4288 -0.3842 -0.3947
    4CHTO  H101 1497   7.773   6.592  -0.548  3.2704 -1.1008  0.6669
    4CHTO   C66 1498   7.491   6.443  -0.529  0.3294 -0.0699  0.9234
    4CHTO  H123 1499   7.409   6.456  -0.458 -0.4153 -3.1509  0.6850
    4CHTO   N12 1500   7.442   6.533  -0.641 -0.0286 -0.3885  0.2306
    4CHTO  H110 1501   7.395   6.496  -0.732 -0.1459 -1.8693  0.8752
    4CHTO  H111 1502   7.507   6.616  -0.664 -1.2027  1.1180  2.1719
    4CHTO   C69 1503   7.513   6.297  -0.569 -0.1050  0.4053  0.5349
    4CHTO  H126 1504   7.602   6.285  -0.633 -1.2425 -0.4465 -0.9188
    4CHTO   O41 1505   7.543   6.212  -0.438 -0.0281 -0.4114  0.5352
    4CHTO   C64 1506   7.678   6.263  -0.370 -0.1412  0.0409 -0.3918
    4CHTO  H121 1507   7.772   6.273  -0.428  0.2392 -0.9125  0.0605
    4CHTO   C71 1508   7.695   6.171  -0.244 -0.4633 -0.1492  0.2312
    4CHTO   O47 1509   7.721   6.033  -0.274  0.2830  0.3281 -0.2735
    4CHTO  H104 1510   7.807   6.031  -0.311  0.4528  0.0505  0.1321
    4CHTO   O34 1511   7.388   6.237  -0.650  0.1937  0.6362  0.1621
    4CHTO   C49 1512   7.431   6.161  -0.788 -0.7863  0.0796  0.4893
    4CHTO   H91 1513   7.502   6.219  -0.847 -2.5909  1.1627 -0.6392
    4CHTO   C47 1514   7.307   6.122  -0.878  0.1732 -0.6333  0.0369
    4CHTO   H89 1515   7.347   6.069  -0.967  1.0017 -0.9297  0.5896
    4CHTO   O33 1516   7.246   6.244  -0.925 -0.4385 -0.4659  0.3879
    4CHTO   H70 1517   7.301   6.320  -0.929 -3.9462  2.1963  0.0263
    4CHTO   C45 1518   7.205   6.034  -0.788  0.5918  0.0576  0.1393
    4CHTO   H87 1519   7.196   6.087  -0.692 -1.1882 -0.0512  0.0375
    4CHTO    N8 1520   7.071   6.018  -0.845 -0.0964  0.5102 -0.1158
    4CHTO   H75 1521   7.020   6.112  -0.831  1.9538  2.0023 -2.3277
    4CHTO   H76 1522   7.075   5.997  -0.951  0.1047 -1.1158  0.2022
    4CHTO   C43 1523   7.274   5.898  -0.748  0.7377 -0.1026  0.2176
    4CHTO   H85 1524   7.203   5.860  -0.675 -0.3647  0.8042 -0.3698
    4CHTO   O29 1525   7.401   5.928  -0.690  0.7434 -0.0597 -0.3846
    4CHTO   C50 1526   7.497   6.021  -0.744  0.7358 -0.2869 -0.5158
    4CHTO   H92 1527   7.567   6.050  -0.664  1.3660 -1.6611 -0.5529
    4CHTO   C54 1528   7.585   5.975  -0.858 -0.0849 -0.5880 -0.1972
    4CHTO   O36 1529   7.523   5.895  -0.959  0.4769 -0.0972  0.0971
    4CHTO   H72 1530   7.576   5.824  -0.988 -1.9041 -1.7336 -0.3908
    4CHTO   O27 1531   7.285   5.796  -0.851  0.1611 -0.5738 -0.1730
    4CHTO   C37 1532   7.282   5.653  -0.839 -0.3201  0.4067  0.5790
    4CHTO   H79 1533   7.286   5.613  -0.941 -0.8326 -0.8718  1.0583
    4CHTO   C38 1534   7.396   5.593  -0.751 -0.2882  0.7105  0.5163
    4CHTO   H80 1535   7.385   5.626  -0.646 -1.1563  0.7528  0.4132
    4CHTO   O31 1536   7.523   5.650  -0.798  0.3017  0.4510  0.0930
    4CHTO   H68 1537   7.597   5.630  -0.744  1.1031 -1.2575 -1.5467
    4CHTO   C39 1538   7.392   5.436  -0.758  0.1258  0.3630 -0.8278
    4CHTO   H81 1539   7.387   5.417  -0.865 -0.2844 -1.4939 -0.4998
    4CHTO    N7 1540   7.504   5.363  -0.693  0.0197  0.3917 -0.0405
    4CHTO   H73 1541   7.520   5.392  -0.590  1.3822  1.3165 -0.4938
    4CHTO   H74 1542   7.486   5.258  -0.706 -0.3562  0.5396 -0.7129
    4CHTO   C40 1543   7.250   5.398  -0.690  0.4141  0.0265  0.6087
    4CHTO   H82 1544   7.244   5.441  -0.591  0.5465 -2.2118  1.6303
    4CHTO   O26 1545   7.154   5.455  -0.780 -0.8217  0.1925 -0.6032
    4CHTO   C41 1546   7.155   5.601  -0.775  0.2523 -0.1742 -0.4928
    4CHTO   H83 1547   7.154   5.633  -0.670 -0.2615 -1.0162 -0.2345
    4CHTO   C52 1548   7.023   5.655  -0.846  0.0032 -0.7443 -0.1030
    4CHTO   O35 1549   6.947   5.727  -0.762 -0.2076  0.0489 -0.0135
    4CHTO   H71 1550   7.003   5.787  -0.716 -0.5523  0.8660 -0.6733
    4CHTO   O28 1551   7.217   5.264  -0.675 -0.5388  0.0725 -0.1313
    4CHTO   C42 1552   7.129   5.223  -0.560  0.0186 -0.1982 -0.2569
    4CHTO   H84 1553   7.083   5.129  -0.591  0.6762 -0.3465 -0.8224
    4CHTO   C44 1554   7.013   5.320  -0.536 -0.1251 -0.4846  0.0694
    4CHTO   H86 1555   7.053   5.420  -0.516  0.3525 -0.7765  0.5744
    4CHTO   O32 1556   6.932   5.320  -0.650 -0.0071  0.7225 -0.0069
    4CHTO   H69 1557   6.964   5.379  -0.715 -0.2951  1.6219  0.6500
    4CHTO   C48 1558   6.933   5.278  -0.408  0.4521 -0.1063  0.3288
    4CHTO   H90 1559   6.900   5.175  -0.401 -0.9403  0.3176  0.2557
    4CHTO    N9 1560   6.808   5.365  -0.388  0.2301 -0.0007 -0.5707
    4CHTO   H77 1561   6.835   5.470  -0.378 -2.3694  0.3491  4.4778
    4CHTO   H78 1562   6.734   5.349  -0.465 -0.7960 -1.8731  0.7679
    4CHTO   C51 1563   7.024   5.297  -0.285  0.2936 -0.4823 -0.1975
    4CHTO   H93 1564   7.072   5.394  -0.301  0.9785 -0.9037 -0.7682
    4CHTO   O30 1565   7.120   5.191  -0.289 -0.3478  0.2359  0.6468
    4CHTO   C46 1566   7.209   5.196  -0.424  0.6626 -0.0647 -0.6431
    4CHTO   H88 1567   7.279   5.280  -0.413 -0.1193  0.6636 -1.1628
    4CHTO   C53 1568   7.295   5.068  -0.440  0.5689  0.5560 -0.2913
    4CHTO   O72 1569   7.216   4.944  -0.439 -0.6025 -0.5073 -0.2243
    4CHTO  H199 1570   7.288   4.884  -0.442 -1.5500 -1.6251 -0.8854
    4CHTO   O22 1571   6.959   5.287  -0.157 -0.1162  0.6266  0.2638
    4CHTO   C31 1572   7.024   5.315  -0.029  0.6451  0.0127 -0.1647
    4CHTO   H59 1573   7.132   5.327  -0.050  0.8837  0.3473  1.2230
    4CHTO   C29 1574   6.977   5.446   0.038 -0.6725 -0.1383 -0.2641
    4CHTO   H57 1575   6.868   5.434   0.040 -0.8647  0.6081 -3.5805
    4CHTO   O21 1576   6.998   5.560  -0.054 -0.3820 -0.2435 -0.0885
    4CHTO   H37 1577   7.086   5.590  -0.043 -0.1963 -1.5745  2.6284
    4CHTO   C27 1578   7.027   5.467   0.186 -0.1193 -0.1988  0.5587
    4CHTO   H55 1579   7.136   5.486   0.182  0.0528 -1.0147  1.3145
    4CHTO    N5 1580   6.958   5.583   0.245  0.8145  0.9690 -0.2119
    4CHTO   H43 1581   6.956   5.660   0.169 -1.4067  0.4743 -0.6819
    4CHTO   H44 1582   7.010   5.607   0.336  1.6497  0.8863 -0.6658
    4CHTO   C25 1583   6.994   5.332   0.265  0.2220  0.4466  0.2568
    4CHTO   H53 1584   6.887   5.308   0.278  0.5867 -0.7815  1.1019
    4CHTO   O17 1585   7.058   5.223   0.198 -0.2534  0.2080 -0.1016
    4CHTO   C32 1586   7.010   5.200   0.062 -0.7439  1.2096  0.2586
    4CHTO   H60 1587   6.907   5.166   0.071 -0.1917 -1.2995 -2.3052
    4CHTO   C36 1588   7.079   5.071   0.010  0.5615 -0.6909  0.0321
    4CHTO   O25 1589   7.215   5.074   0.026 -0.0203 -0.8573  0.0632
    4CHTO   H40 1590   7.265   5.019  -0.031  0.9803  1.3537 -1.2713
    4CHTO   O15 1591   7.063   5.346   0.403  0.7666 -0.2958  0.8625
    4CHTO   C19 1592   7.181   5.329   0.481  0.0641 -0.3235 -0.5626
    4CHTO   H47 1593   7.191   5.219   0.484 -0.0370 -0.3486 -1.0832
    4CHTO   C20 1594   7.308   5.380   0.411  0.1204  0.2862  0.1510
    4CHTO   H48 1595   7.303   5.488   0.394  1.1857 -0.1522 -3.4087
    4CHTO   O19 1596   7.327   5.319   0.279 -0.2918  0.2125 -0.3309
    4CHTO   H35 1597   7.268   5.350   0.213 -0.2842  1.1298  0.0893
    4CHTO   C21 1598   7.424   5.361   0.508 -0.4029 -0.1411 -0.0772
    4CHTO   H49 1599   7.445   5.255   0.517  0.8941  0.0399 -0.7941
    4CHTO    N4 1600   7.557   5.415   0.453  0.0338 -0.6103 -0.2507
    4CHTO   H41 1601   7.529   5.460   0.359  1.1172 -0.3444 -0.4607
    4CHTO   H42 1602   7.620   5.328   0.437  1.2726  0.3527 -0.7048
    4CHTO   C22 1603   7.391   5.413   0.652 -0.4765  0.6875 -0.5118
    4CHTO   H50 1604   7.382   5.522   0.647  0.7143  0.8365  0.4533
    4CHTO   O14 1605   7.271   5.351   0.703 -0.0121 -0.5681 -0.2633
    4CHTO   C23 1606   7.157   5.382   0.626  0.4466 -0.3013 -0.1331
    4CHTO   H51 1607   7.157   5.492   0.631  1.5155 -0.2369 -1.3816
    4CHTO   C34 1608   7.032   5.324   0.694 -0.7938 -0.1187 -0.0154
    4CHTO   O23 1609   7.043   5.182   0.717 -0.0743  0.2937  0.0243
    4CHTO   H38 1610   7.001   5.160   0.798 -0.2797 -3.0956 -0.9216
    4CHTO   O16 1611   7.505   5.396   0.746  0.7166 -0.1439  0.0132
    4CHTO   C24 1612   7.500   5.454   0.882 -0.0389 -0.4755 -0.1206
    4CHTO   H52 1613   7.410   5.512   0.897  0.1515 -0.1666 -0.1666
    4CHTO   C26 1614   7.623   5.548   0.895 -0.4075  0.5573  0.4970
    4CHTO   H54 1615   7.714   5.484   0.888 -0.9990 -0.1630 -0.7144
    4CHTO   O20 1616   7.606   5.648   0.794  0.8358  0.0443  0.0897
    4CHTO   H36 1617   7.645   5.635   0.710 -1.8976  0.6380 -1.2955
    4CHTO   C30 1618   7.615   5.612   1.031 -0.2785  0.3801  0.2406
    4CHTO   H58 1619   7.531   5.682   1.039 -0.4576  0.0930  0.9814
    4CHTO    N6 1620   7.730   5.701   1.051 -0.5647 -0.3242  0.1237
    4CHTO   H45 1621   7.739   5.730   1.155 -1.2411  0.3895 -0.0116
    4CHTO   H46 1622   7.737   5.789   0.989 -0.2997 -1.4779 -1.5158
    4CHTO   C33 1623   7.597   5.512   1.153 -0.1919 -0.0937 -0.3749
    4CHTO   H61 1624   7.692   5.460   1.170  0.1494  0.9800  1.1480
    4CHTO   O18 1625   7.495   5.420   1.121 -0.5352 -0.5764 -0.2181
    4CHTO   C28 1626   7.508   5.348   1.000 -0.6519 -0.0423  0.9243
    4CHTO   H56 1627   7.606   5.300   1.002 -1.0083 -0.7527  2.0936
    4CHTO   C35 1628   7.407   5.227   1.000  0.3581 -0.3953 -0.4663
    4CHTO   O24 1629   7.393   5.165   0.875  1.0322  0.5867  0.1553
    4CHTO   H39 1630   7.305   5.148   0.847  1.5802 -0.9161 -0.7335
    4CHTO    O9 1631   7.573   5.590   1.269  0.1593  0.0421 -0.1500
    4CHTO   C13 1632   7.611   5.513   1.400  0.1713  0.6046 -0.2819
    4CHTO   H26 1633   7.712   5.468   1.393 -0.5104 -0.9145 -0.4668
    4CHTO   C11 1634   7.506   5.404   1.433  0.1039 -0.2358  0.1683
    4CHTO   H24 1635   7.521   5.316   1.369 -2.4470 -0.6049 -0.0090
    4CHTO    O8 1636   7.370   5.446   1.412  0.3786  0.2531 -0.1031
    4CHTO    H3 1637   7.349   5.453   1.320 -2.2255 -0.2423  0.4156
    4CHTO    C9 1638   7.535   5.367   1.575 -0.3805 -0.2002  0.1188
    4CHTO   H22 1639   7.639   5.334   1.576  0.4528  2.2202 -1.0654
    4CHTO    N2 1640   7.473   5.236   1.616  0.2592 -0.5195 -1.0579
    4CHTO   H10 1641   7.544   5.156   1.627  0.2137 -0.6529 -1.7376
    4CHTO   H11 1642   7.431   5.244   1.716  3.0586  0.7527  0.0738
    4CHTO    C7 1643   7.503   5.489   1.674  0.5878  0.2261 -1.0390
    4CHTO   H20 1644   7.560   5.478   1.768  0.9193  3.6973 -0.7626
    4CHTO    O4 1645   7.528   5.621   1.615 -0.4095 -0.1601  0.3654
    4CHTO   C14 1646   7.634   5.612   1.517 -0.0815  1.0686 -0.4126
    4CHTO   H27 1647   7.727   5.579   1.568 -0.6618  1.8532  1.1843
    4CHTO   C18 1648   7.662   5.757   1.463 -0.5089 -0.0294  0.1151
    4CHTO   O13 1649   7.694   5.850   1.570  0.5330  0.1173  0.0388
    4CHTO    H7 1650   7.664   5.934   1.542 -1.2619 -0.6449 -0.4611
    4CHTO    O2 1651   7.347   5.491   1.715  0.1749 -0.5174  0.3439
    4CHTO    C1 1652   7.295   5.495   1.851 -0.5566  0.3252 -0.7486
    4CHTO   H14 1653   7.364   5.560   1.909 -1.2481  0.2011  0.2246
    4CHTO    C2 1654   7.281   5.349   1.915  0.8007 -0.5847 -0.4584
    4CHTO   H15 1655   7.236   5.292   1.832 -0.5224  2.6155 -2.0665
    4CHTO    O6 1656   7.407   5.291   1.947  0.2036 -0.5891  0.0889
    4CHTO    H1 1657   7.396   5.199   1.958  0.7184 -0.7043 -0.2944
    4CHTO    C3 1658   7.171   5.344   2.032 -0.5784 -0.1787 -0.3486
    4CHTO   H16 1659   7.212   5.389   2.124  0.3786  2.4169 -1.9780
    4CHTO    N1 1660   7.138   5.200   2.063 -0.1231  0.6121 -0.0962
    4CHTO    H8 1661   7.071   5.178   2.145 -0.0482 -1.2082 -0.4833
    4CHTO    H9 1662   7.093   5.157   1.974  1.1832 -0.1834 -0.3936
    4CHTO    C4 1663   7.037   5.421   2.004 -0.2340  0.1308  0.3069
    4CHTO   H17 1664   6.988   5.378   1.916  2.2524  0.9203 -1.5152
    4CHTO    O1 1665   7.077   5.556   1.967  0.1608  0.0071  0.3107
    4CHTO    C5 1666   7.147   5.567   1.847 -0.0716 -0.0311  0.3440
    4CHTO   H18 1667   7.085   5.529   1.766 -0.6003 -0.0065  0.7365
    4CHTO   C16 1668   7.167   5.720   1.830 -0.1566  0.1029  0.3577
    4CHTO   O11 1669   7.200   5.751   1.697  0.2807  0.0090 -0.2028
    4CHTO    H5 1670   7.291   5.773   1.689  0.6061 -0.5562  1.6003
    4CHTO    O3 1671   6.959   5.435   2.125 -0.2299  0.3991  0.7233
    4CHTO    C6 1672   6.820   5.473   2.127  0.6737 -0.5861 -0.2379
    4CHTO   H19 1673   6.800   5.550   2.053  0.5512 -0.8713 -0.5019
    4CHTO    C8 1674   6.720   5.362   2.101 -0.2273 -0.4659 -0.3394
    4CHTO   H21 1675   6.736   5.280   2.171 -1.2772 -0.6459 -0.3041
    4CHTO    O7 1676   6.742   5.313   1.965 -0.0019  0.2730  0.3246
    4CHTO    H2 1677   6.667   5.283   1.917  0.8116  0.1297 -0.8712
    4CHTO   C12 1678   6.571   5.414   2.115 -0.5079 -0.0270  0.1612
    4CHTO   H25 1679   6.556   5.487   2.032  1.5980 -1.2285 -1.3301
    4CHTO    N3 1680   6.468   5.308   2.089 -0.1162  0.6945 -0.1493
    4CHTO   H12 1681   6.474   5.227   2.160  0.6472 -0.7726 -1.8336
    4CHTO   H13 1682   6.370   5.352   2.080 -1.5928 -2.2632  0.7577
    4CHTO   C15 1683   6.550   5.495   2.246  0.1541  0.4754 -0.0693
    4CHTO   H28 1684   6.551   5.431   2.334  0.7718  2.0544  1.1030
    4CHTO   O10 1685   6.419   5.577   2.253  0.2289  0.3388  0.2696
    4CHTO    H4 1686   6.424   5.636   2.181  2.4442 -1.4699 -1.0939
    4CHTO    O5 1687   6.651   5.587   2.266  0.1294  0.1521  0.0323
    4CHTO   C10 1688   6.787   5.530   2.261  0.2788 -0.5979 -1.1360
    4CHTO   H23 1689   6.806   5.456   2.338  1.1257 -0.4370 -1.1850
    4CHTO   C17 1690   6.887   5.638   2.309  0.5626 -0.2415  0.5045
    4CHTO   O12 1691   6.901   5.744   2.208  0.7703 -0.3288  0.5695
    4CHTO    H6 1692   6.823   5.795   2.200  0.9937 -0.3624 -2.5196
    5CHTO  H203 1693   7.524   2.769   2.209  0.6942 -0.1804  2.1379
    5CHTO   O82 1694   7.486   2.854   2.218  0.3803 -0.0430 -0.1299
    5CHTO  C123 1695   7.543   2.927   2.333 -0.0484  0.2185  0.2933
    5CHTO  H227 1696   7.625   2.991   2.296  0.6475 -0.4957  0.5938
    5CHTO   O77 1697   7.430   3.015   2.369 -0.7484 -0.3764 -0.4015
    5CHTO  C118 1698   7.464   3.098   2.477  0.3613  0.5553 -0.5886
    5CHTO  H222 1699   7.552   3.154   2.444  0.2478 -0.1812 -2.2261
    5CHTO  C125 1700   7.352   3.200   2.495 -0.3050 -0.4270 -0.2902
    5CHTO   O84 1701   7.222   3.139   2.505  0.0517  0.3615  0.2223
    5CHTO  H205 1702   7.217   3.048   2.482  1.6596 -0.2445  2.1233
    5CHTO  C114 1703   7.482   3.015   2.607  0.3248  0.2341 -0.2312
    5CHTO  H218 1704   7.389   2.964   2.632  0.9543 -1.6925 -1.6384
    5CHTO  C116 1705   7.603   2.915   2.585 -0.1634 -0.8731  0.1880
    5CHTO  H220 1706   7.696   2.975   2.583 -1.4062  1.1206  0.3708
    5CHTO   O79 1707   7.620   2.821   2.692 -0.2494  0.4851 -0.4655
    5CHTO  H201 1708   7.646   2.869   2.768  1.9534 -2.4080  0.7017
    5CHTO  C120 1709   7.584   2.834   2.451  0.4027  0.1065  0.0224
    5CHTO  H224 1710   7.502   2.763   2.474 -1.4627  1.7545 -1.3215
    5CHTO   N21 1711   7.703   2.754   2.416  0.2897 -0.1320  0.3000
    5CHTO  H211 1712   7.798   2.802   2.435 -0.8659  2.7854 -1.0136
    5CHTO  H212 1713   7.701   2.647   2.434  2.2080 -0.1887  0.3224
    5CHTO   O75 1714   7.501   3.098   2.719  0.2514  0.3497  0.1686
    5CHTO  C112 1715   7.390   3.055   2.842 -0.8180  0.3947 -0.0282
    5CHTO  H216 1716   7.392   2.945   2.845 -0.2252  0.4411  1.7123
    5CHTO   O73 1717   7.265   3.102   2.785 -0.1590  0.5294  0.3255
    5CHTO  C113 1718   7.151   3.104   2.869 -0.4782 -0.4718 -0.6957
    5CHTO  H217 1719   7.121   2.999   2.891 -1.7234 -0.1763 -0.9486
    5CHTO  C124 1720   7.035   3.162   2.786  0.6520 -0.2960  0.3793
    5CHTO   O83 1721   6.956   3.082   2.700 -0.5764  0.0355 -0.3661
    5CHTO  H204 1722   6.873   3.123   2.682 -1.3945 -1.8052 -0.8684
    5CHTO  C109 1723   7.175   3.179   3.005 -0.1590 -0.0131  0.8068
    5CHTO  H213 1724   7.199   3.283   2.978  0.5084 -0.3764 -0.0172
    5CHTO  C110 1725   7.293   3.110   3.076 -0.0044 -0.4874  0.5658
    5CHTO  H214 1726   7.274   3.004   3.094  2.3044 -0.5022  3.3739
    5CHTO   O78 1727   7.312   3.170   3.206 -0.9327  0.0421 -0.6839
    5CHTO  H200 1728   7.382   3.133   3.256 -1.1481  1.7767  0.9783
    5CHTO  C111 1729   7.425   3.118   2.983 -0.3293 -0.6601  0.1685
    5CHTO  H215 1730   7.456   3.223   2.976 -1.3515 -0.2369  1.8125
    5CHTO   N19 1731   7.546   3.045   3.032 -0.0836 -0.0340 -0.2794
    5CHTO  H207 1732   7.636   3.098   3.005  0.9913 -1.3519  0.6186
    5CHTO  H208 1733   7.529   3.033   3.138 -0.0143  1.2138 -0.1301
    5CHTO   O74 1734   7.053   3.179   3.087  0.3015 -0.4966 -0.2136
    5CHTO  C115 1735   6.986   3.318   3.171 -0.2431  0.0490  0.2656
    5CHTO  H219 1736   7.019   3.318   3.275  2.8689 -2.0873 -0.6511
    5CHTO   O76 1737   7.048   3.456   3.115 -0.0543  0.0900 -0.3371
    5CHTO  C122 1738   6.974   3.514   3.012 -0.2490  0.3480 -0.2700
    5CHTO  H226 1739   6.970   3.437   2.935 -0.7045 -1.2772  1.3524
    5CHTO  C126 1740   7.057   3.641   2.940 -0.0579 -0.4268 -0.4468
    5CHTO   O85 1741   6.970   3.708   2.846 -0.7349 -0.2746  0.2420
    5CHTO  H206 1742   6.975   3.801   2.839  2.0292 -0.4043  0.1070
    5CHTO  C121 1743   6.825   3.557   3.057  0.3512  0.1615  0.1946
    5CHTO  H225 1744   6.826   3.662   3.096  1.4720  0.4277 -0.5366
    5CHTO   O81 1745   6.744   3.556   2.938 -0.1537  0.1189 -0.3689
    5CHTO  H202 1746   6.717   3.641   2.909 -0.7064  0.6738  1.7124
    5CHTO  C119 1747   6.765   3.457   3.161  0.4168 -1.0884  0.1487
    5CHTO  H223 1748   6.810   3.490   3.255 -0.4608 -1.5683  0.7375
    5CHTO  C117 1749   6.824   3.311   3.161 -0.2923 -0.3687  0.0471
    5CHTO  H221 1750   6.803   3.250   3.073  1.5788 -1.2029  0.1600
    5CHTO   N20 1751   6.779   3.226   3.271  0.1884  0.5101  0.1962
    5CHTO  H209 1752   6.834   3.133   3.263 -0.1106  0.3712 -0.2546
    5CHTO  H210 1753   6.784   3.273   3.368 -0.1506  0.8448  0.0489
    5CHTO   O80 1754   6.611   3.487   3.193 -0.6308  0.3126  0.3437
    5CHTO  C103 1755   6.501   3.449   3.085  0.8352  0.4031 -0.0969
    5CHTO  H190 1756   6.526   3.508   2.998 -0.6298  0.1368 -0.7155
    5CHTO  C101 1757   6.484   3.299   3.042  0.1091  0.4220 -0.1384
    5CHTO  H188 1758   6.503   3.237   3.130 -0.2900  0.3025 -0.1360
    5CHTO   O68 1759   6.590   3.258   2.949 -0.5196 -0.0994  0.5181
    5CHTO  H168 1760   6.604   3.165   2.954 -1.6794 -0.3608 -0.8373
    5CHTO   C99 1761   6.339   3.263   2.979 -0.0890 -0.2704 -0.4628
    5CHTO  H186 1762   6.339   3.289   2.871 -0.2529  0.2154 -0.3467
    5CHTO   N17 1763   6.316   3.114   2.979 -0.4904  0.5483  0.1754
    5CHTO  H174 1764   6.276   3.077   3.073 -0.8433  1.9106  0.5775
    5CHTO  H175 1765   6.252   3.086   2.896 -1.3315 -1.1371  1.3577
    5CHTO   C97 1766   6.222   3.342   3.042  0.2022  0.3902 -0.0074
    5CHTO  H184 1767   6.198   3.297   3.140 -0.8834  0.2683 -0.3201
    5CHTO   O64 1768   6.258   3.478   3.052 -0.0366  0.0691  0.0242
    5CHTO  C104 1769   6.366   3.503   3.143  0.0891 -0.2461 -0.6385
    5CHTO  H191 1770   6.329   3.450   3.231  1.8987 -0.8196 -0.1956
    5CHTO  C108 1771   6.379   3.654   3.172  0.3337 -0.1486  0.0485
    5CHTO   O71 1772   6.383   3.732   3.053 -0.2424 -0.2469  0.3610
    5CHTO  H171 1773   6.363   3.823   3.067  0.2465 -0.0335 -0.3214
    5CHTO   O62 1774   6.105   3.345   2.965  0.5205 -0.2913 -0.1124
    5CHTO   C91 1775   5.987   3.327   3.042  0.0871  1.3394  0.5446
    5CHTO  H178 1776   6.001   3.354   3.147 -0.1444 -0.5807  1.0781
    5CHTO   C92 1777   5.950   3.174   3.031  0.1824 -0.1168  0.0415
    5CHTO  H179 1778   6.039   3.113   3.054 -1.8602 -4.0881 -2.0500
    5CHTO   O66 1779   5.857   3.147   3.142 -0.0334  0.2699 -0.9190
    5CHTO  H166 1780   5.804   3.074   3.118  1.6287 -2.0713  2.1883
    5CHTO   C93 1781   5.873   3.136   2.900  0.0159 -0.0136  0.0934
    5CHTO  H180 1782   5.828   3.036   2.916  1.7598 -0.9856 -0.8583
    5CHTO   N16 1783   5.975   3.123   2.793 -0.6047  0.0306  0.2201
    5CHTO  H172 1784   6.010   3.223   2.770 -0.1735 -0.5414 -1.7153
    5CHTO  H173 1785   5.937   3.071   2.706  0.7846 -2.1598  0.8777
    5CHTO   C94 1786   5.761   3.241   2.861 -0.5709 -0.0061  0.3784
    5CHTO  H181 1787   5.780   3.288   2.764  1.2611 -0.1988  0.6268
    5CHTO   O61 1788   5.748   3.349   2.946 -0.0572 -0.0464 -0.0491
    5CHTO   C95 1789   5.875   3.415   2.980 -0.0702 -0.4164 -0.5790
    5CHTO  H182 1790   5.916   3.461   2.890 -0.5214  0.2253 -0.4536
    5CHTO  C106 1791   5.839   3.534   3.083 -0.4713 -0.2353  0.2298
    5CHTO   O69 1792   5.746   3.628   3.036  0.1613 -0.3547  0.1869
    5CHTO  H169 1793   5.690   3.661   3.103  1.3686  0.4628  0.8027
    5CHTO   O63 1794   5.612   3.168   2.848  0.9951 -0.7586  0.4157
    5CHTO   C96 1795   5.589   3.075   2.737  0.7123 -0.1831  0.4908
    5CHTO  H183 1796   5.684   3.036   2.700 -1.2770 -1.7545 -3.1751
    5CHTO   C98 1797   5.519   3.134   2.606  0.1021 -0.3412  0.3320
    5CHTO  H185 1798   5.424   3.183   2.629  0.0217 -0.6640  0.6848
    5CHTO   O67 1799   5.601   3.241   2.562  0.4453 -0.0142  0.0575
    5CHTO  H167 1800   5.588   3.325   2.601  3.5664  1.1455 -1.1864
    5CHTO  C102 1801   5.515   3.027   2.485 -0.6265 -0.2754 -0.6455
    5CHTO  H189 1802   5.622   3.011   2.461 -0.4847  0.5103 -0.5306
    5CHTO   N18 1803   5.450   3.072   2.354  0.5030 -0.0707 -0.2598
    5CHTO  H176 1804   5.355   3.022   2.345  1.5223 -2.0871 -0.0821
    5CHTO  H177 1805   5.512   3.055   2.267  0.5150 -0.8271 -0.1022
    5CHTO  C105 1806   5.470   2.888   2.540  0.2828  0.8299 -0.4654
    5CHTO  H192 1807   5.363   2.885   2.562  1.2633 -1.1596  4.6529
    5CHTO   O65 1808   5.524   2.848   2.669  0.1655 -0.1671  0.0032
    5CHTO  C100 1809   5.509   2.937   2.774  0.0065  0.4265 -0.1767
    5CHTO  H187 1810   5.405   2.967   2.796 -0.1407  0.8373 -1.3384
    5CHTO  C107 1811   5.546   2.866   2.907  0.0188  0.6103  0.2986
    5CHTO   O70 1812   5.524   2.952   3.016 -0.1393 -0.1304 -0.1608
    5CHTO  H170 1813   5.450   3.006   2.999 -0.2200 -0.3709 -0.5784
    5CHTO   O57 1814   5.511   2.784   2.423 -0.3449 -0.3192  0.2703
    5CHTO   C85 1815   5.429   2.666   2.403 -0.3434  0.7328 -0.5844
    5CHTO  H157 1816   5.321   2.690   2.418 -0.1556  1.4538 -0.3550
    5CHTO   C83 1817   5.450   2.562   2.517 -0.1351  0.5230 -0.0110
    5CHTO  H155 1818   5.408   2.599   2.610  1.8292 -0.7182  1.4071
    5CHTO   O56 1819   5.595   2.558   2.545 -0.2228  0.1905 -0.2540
    5CHTO  H135 1820   5.627   2.630   2.596  0.7060 -0.5803  0.2686
    5CHTO   C81 1821   5.377   2.427   2.483  0.1971  0.4209  0.7250
    5CHTO  H153 1822   5.269   2.443   2.484  0.3173  1.3031  1.4723
    5CHTO   N14 1823   5.396   2.327   2.599  0.1859 -0.0352  0.1841
    5CHTO  H141 1824   5.500   2.301   2.607  0.3360  0.2572 -0.7536
    5CHTO  H142 1825   5.362   2.375   2.688 -1.1666  0.2969 -0.4943
    5CHTO   C79 1826   5.420   2.365   2.351  0.0011 -0.3402  0.0187
    5CHTO  H151 1827   5.350   2.283   2.335 -1.1924  0.7424 -0.4204
    5CHTO   O52 1828   5.390   2.464   2.247 -0.0311  0.5190  0.3560
    5CHTO   C86 1829   5.455   2.599   2.264  0.0671  0.2266 -0.3036
    5CHTO  H158 1830   5.565   2.589   2.255  0.2895  2.0613  0.2104
    5CHTO   C90 1831   5.411   2.693   2.142 -0.3731  0.5591  0.4580
    5CHTO   O60 1832   5.449   2.642   2.014  0.4644  0.1492 -0.3100
    5CHTO  H138 1833   5.517   2.578   2.020 -0.9451 -1.2928  0.7343
    5CHTO   O50 1834   5.550   2.316   2.330 -0.2020 -0.2282  0.5131
    5CHTO   C73 1835   5.624   2.207   2.278 -0.4211  0.2678  0.2076
    5CHTO  H145 1836   5.572   2.150   2.200  1.1780  0.2295 -0.8573
    5CHTO   C74 1837   5.652   2.106   2.398  0.0184 -0.2458  0.7579
    5CHTO  H146 1838   5.559   2.076   2.448 -0.4509 -1.0479 -0.5876
    5CHTO   O54 1839   5.701   1.986   2.337  0.0596  0.2456 -0.2144
    5CHTO  H133 1840   5.634   1.953   2.280 -0.3336  2.0219 -0.8315
    5CHTO   C75 1841   5.749   2.168   2.500  0.4324  0.1865  0.9320
    5CHTO  H147 1842   5.697   2.245   2.558  0.0117  0.6609 -0.0570
    5CHTO   N13 1843   5.792   2.071   2.605 -0.9773  0.1147 -0.1233
    5CHTO  H139 1844   5.813   2.120   2.699  2.4630  0.1780 -0.8776
    5CHTO  H140 1845   5.879   2.014   2.575  0.0166  0.2952  2.3197
    5CHTO   C76 1846   5.877   2.237   2.434  0.2490 -0.0753 -0.7677
    5CHTO  H148 1847   5.943   2.156   2.401 -0.2844 -1.2271  0.9081
    5CHTO   O49 1848   5.846   2.328   2.322 -0.2611  0.0981  0.1278
    5CHTO   C77 1849   5.765   2.260   2.220  0.6244 -0.1733 -0.3673
    5CHTO  H149 1850   5.817   2.173   2.180 -0.4944 -1.5856  1.1520
    5CHTO   C88 1851   5.744   2.363   2.107 -0.4133 -0.5296 -0.1320
    5CHTO   O58 1852   5.629   2.315   2.000 -0.0240  0.6337  0.4624
    5CHTO  H136 1853   5.547   2.358   2.019  0.8971  2.5479  0.1649
    5CHTO   O51 1854   5.937   2.338   2.556 -0.5759 -0.3492 -0.4004
    5CHTO   C78 1855   6.060   2.426   2.514 -0.1004  0.7910 -0.4902
    5CHTO  H150 1856   6.027   2.512   2.452 -1.3129  0.3205 -0.5044
    5CHTO   C80 1857   6.164   2.340   2.433  0.1898 -0.4940 -0.6816
    5CHTO  H152 1858   6.183   2.241   2.480 -0.7708 -0.5617 -0.4213
    5CHTO   O55 1859   6.123   2.318   2.297  0.0014  0.1101 -0.0960
    5CHTO  H134 1860   6.110   2.397   2.248 -2.2499  1.4693  2.6163
    5CHTO   C84 1861   6.305   2.421   2.435 -0.2913 -0.1480  0.0117
    5CHTO  H156 1862   6.293   2.508   2.371  0.9964  1.1948  1.5406
    5CHTO   N15 1863   6.412   2.334   2.380 -0.4765 -0.1242 -0.6572
    5CHTO  H143 1864   6.496   2.392   2.349 -0.9775  0.7164 -0.4625
    5CHTO  H144 1865   6.371   2.284   2.294  0.1908 -2.6039  0.4299
    5CHTO   C87 1866   6.339   2.480   2.572 -0.2210  0.0810  0.0712
    5CHTO  H159 1867   6.367   2.399   2.639  0.2688  1.0202  1.0075
    5CHTO   O53 1868   6.238   2.545   2.608  0.6508  0.0701 -0.0592
    5CHTO   C82 1869   6.118   2.478   2.643  0.0934  0.4307 -0.6739
    5CHTO  H154 1870   6.149   2.400   2.713 -1.4259  2.4918  2.4475
    5CHTO   C89 1871   6.028   2.581   2.725 -0.7078 -0.0151 -1.1712
    5CHTO   O59 1872   5.952   2.664   2.637 -0.1844 -0.5320 -0.5349
    5CHTO  H137 1873   6.011   2.736   2.627 -1.1208  0.4038  0.4795
    5CHTO   O45 1874   6.457   2.585   2.572  0.0619 -0.5317 -1.0758
    5CHTO   C67 1875   6.508   2.614   2.706  0.0769 -0.1556 -0.5305
    5CHTO  H124 1876   6.425   2.618   2.777 -0.4837  1.3055 -1.2475
    5CHTO   C65 1877   6.619   2.511   2.766 -0.2942 -0.6696 -0.1832
    5CHTO  H122 1878   6.662   2.463   2.678 -1.5562 -3.2090  0.5288
    5CHTO   O44 1879   6.555   2.413   2.840  0.4812 -1.1874  0.0718
    5CHTO  H102 1880   6.503   2.362   2.781  0.0318  1.5259 -1.9786
    5CHTO   C63 1881   6.739   2.602   2.833 -0.3406 -0.7187 -0.8149
    5CHTO  H120 1882   6.791   2.658   2.755  0.6887  1.2568  1.2226
    5CHTO   N11 1883   6.846   2.534   2.904  0.0767 -0.2102  0.3157
    5CHTO  H108 1884   6.884   2.450   2.851 -1.0557  0.8178 -2.1999
    5CHTO  H109 1885   6.812   2.508   3.003 -1.6984 -2.8986 -0.9550
    5CHTO   C61 1886   6.681   2.724   2.912  0.3453 -0.6354 -0.3370
    5CHTO  H118 1887   6.767   2.780   2.951 -1.2902  1.2098  0.6821
    5CHTO   O40 1888   6.607   2.812   2.828  0.7663  0.0758 -0.1111
    5CHTO   C68 1889   6.564   2.768   2.696 -0.3865  0.2730  0.0236
    5CHTO  H125 1890   6.652   2.773   2.629  0.3611  0.3257  1.0027
    5CHTO   C72 1891   6.459   2.864   2.641  1.1895 -0.4029  0.3105
    5CHTO   O48 1892   6.425   2.842   2.499  0.3294 -0.4085 -0.0422
    5CHTO  H105 1893   6.371   2.909   2.461  0.3588 -0.0549  0.5400
    5CHTO   O38 1894   6.601   2.687   3.028  0.7356  0.1145  0.2022
    5CHTO   C55 1895   6.542   2.792   3.103 -0.2453  0.1084 -0.1235
    5CHTO  H112 1896   6.554   2.890   3.054  0.3175  0.2469  0.2848
    5CHTO   C56 1897   6.608   2.789   3.247 -0.1251  0.1084  0.3385
    5CHTO  H113 1898   6.613   2.686   3.282  4.5241 -0.2915 -1.1342
    5CHTO   O42 1899   6.742   2.843   3.235  0.0924 -0.2876 -0.4355
    5CHTO  H100 1900   6.742   2.936   3.222 -0.2346 -0.1650  0.4129
    5CHTO   C57 1901   6.532   2.878   3.361 -0.1609 -0.0616  0.0562
    5CHTO  H114 1902   6.543   2.985   3.344  0.3726 -0.4771 -2.4288
    5CHTO   N10 1903   6.578   2.844   3.496 -0.6467 -0.4277  0.1805
    5CHTO  H106 1904   6.578   2.923   3.570  1.6116  1.1843 -1.4823
    5CHTO  H107 1905   6.537   2.754   3.541  2.3892 -0.3816  3.3126
    5CHTO   C58 1906   6.377   2.858   3.350  0.5715 -0.1798  0.4643
    5CHTO  H115 1907   6.355   2.753   3.380  1.2585  0.4646  3.3758
    5CHTO   O37 1908   6.351   2.875   3.210 -0.5943  0.1713  0.1369
    5CHTO   C59 1909   6.389   2.772   3.124  0.5363  0.1116 -0.0419
    5CHTO  H116 1910   6.373   2.673   3.167 -0.1633  0.1753 -0.1493
    5CHTO   C70 1911   6.301   2.751   2.995 -0.1204  0.2923 -0.3248
    5CHTO   O46 1912   6.165   2.692   3.007 -0.3928  0.4273 -0.0522
    5CHTO  H103 1913   6.140   2.727   3.090 -0.4300  0.4823 -0.0871
    5CHTO   O39 1914   6.287   2.953   3.442  0.2696 -0.1012  0.5399
    5CHTO   C60 1915   6.146   2.963   3.406 -0.4923 -0.0112  0.0253
    5CHTO  H117 1916   6.140   3.036   3.326 -3.8540  0.7263  0.8864
    5CHTO   C62 1917   6.081   2.823   3.362 -0.3845 -0.0927  0.6737
    5CHTO  H119 1918   6.146   2.782   3.283 -1.5856  0.6626 -0.7397
    5CHTO   O43 1919   6.086   2.727   3.465  0.2917 -0.9060 -0.5121
    5CHTO  H101 1920   6.165   2.746   3.512  0.8696  0.9777 -2.1615
    5CHTO   C66 1921   5.931   2.855   3.302 -0.1267 -0.2979 -0.1057
    5CHTO  H123 1922   5.939   2.934   3.228  0.7772  0.5346  0.8690
    5CHTO   N12 1923   5.866   2.742   3.226 -0.0223  0.6420 -0.1338
    5CHTO  H110 1924   5.898   2.751   3.123  3.1498 -2.2342  0.5127
    5CHTO  H111 1925   5.760   2.735   3.247 -0.0225  0.1773 -0.2801
    5CHTO   C69 1926   5.844   2.903   3.423 -0.0666  0.1037  0.0286
    5CHTO  H126 1927   5.862   2.828   3.502 -1.1793 -1.9271 -1.5806
    5CHTO   O41 1928   5.909   3.041   3.474 -0.1779  0.8595 -0.0098
    5CHTO   C64 1929   6.069   3.022   3.525  0.2743  0.1217 -0.1932
    5CHTO  H121 1930   6.076   2.963   3.619  0.6566 -0.8401 -0.8229
    5CHTO   C71 1931   6.119   3.163   3.556  0.4571 -0.2467 -0.6133
    5CHTO   O47 1932   6.055   3.208   3.671  0.1295  0.4720 -0.1196
    5CHTO  H104 1933   6.009   3.288   3.655 -1.1003 -0.4752 -1.4800
    5CHTO   O34 1934   5.692   2.915   3.391 -0.1806 -0.2550 -0.2442
    5CHTO   C49 1935   5.538   2.971   3.452  0.2151 -0.0767  0.2256
    5CHTO   H91 1936   5.484   2.879   3.476 -0.1206 -0.3054 -1.4004
    5CHTO   C47 1937   5.463   3.040   3.336  0.8949 -0.7134  0.5535
    5CHTO   H89 1938   5.407   2.967   3.275 -0.9946  0.3519  0.9747
    5CHTO   O33 1939   5.558   3.103   3.251  0.5252  0.2265 -0.4264
    5CHTO   H70 1940   5.641   3.100   3.295 -0.0313 -0.2268  0.5898
    5CHTO   C45 1941   5.364   3.152   3.398 -0.5037 -0.5531 -0.8137
    5CHTO   H87 1942   5.432   3.238   3.412 -0.6324 -0.5646 -0.1083
    5CHTO    N8 1943   5.265   3.188   3.293 -0.3544 -0.1737 -0.2143
    5CHTO   H75 1944   5.318   3.193   3.200  0.0113  1.2427  0.0731
    5CHTO   H76 1945   5.182   3.120   3.278 -0.8965  0.6440 -0.9350
    5CHTO   C43 1946   5.307   3.114   3.537  0.7543  0.8519  0.2632
    5CHTO   H85 1947   5.236   3.192   3.565  0.3895  0.3995  0.6180
    5CHTO   O29 1948   5.412   3.104   3.631  0.5196  0.1915 -0.1131
    5CHTO   C50 1949   5.541   3.054   3.583 -0.9233  0.3789  0.8156
    5CHTO   H92 1950   5.603   3.142   3.566  0.1823 -0.4389  0.5872
    5CHTO   C54 1951   5.597   2.974   3.703 -0.2979 -0.3373 -0.3045
    5CHTO   O36 1952   5.636   3.061   3.808 -0.3336 -0.1307  0.0502
    5CHTO   H72 1953   5.716   3.105   3.787 -0.1127 -0.2113  0.7213
    5CHTO   O27 1954   5.239   2.983   3.534 -0.1505 -0.2744  0.1676
    5CHTO   C37 1955   5.121   2.925   3.602 -0.3446  0.2652  0.1187
    5CHTO   H79 1956   5.075   2.993   3.675 -1.4013  0.2779 -0.5429
    5CHTO   C38 1957   5.014   2.896   3.498 -0.1420  0.6501  0.5504
    5CHTO   H80 1958   5.062   2.836   3.419  1.0439  0.7843  1.1520
    5CHTO   O31 1959   4.953   3.025   3.448 -0.3894 -0.0877 -0.1395
    5CHTO   H68 1960   4.864   3.010   3.423 -0.5142 -1.0891  0.8437
    5CHTO   C39 1961   4.907   2.795   3.559 -0.4878 -0.4838 -0.5101
    5CHTO   H81 1962   4.867   2.848   3.646  2.1486 -1.8595  1.5992
    5CHTO    N7 1963   4.794   2.756   3.469  0.4596 -0.0598 -0.2075
    5CHTO   H73 1964   4.736   2.843   3.443  0.5538 -0.5365 -2.1602
    5CHTO   H74 1965   4.832   2.709   3.379 -0.3996 -4.1113  1.4532
    5CHTO   C40 1966   4.976   2.677   3.631 -0.4656  0.1224 -0.2300
    5CHTO   H82 1967   5.027   2.609   3.562 -1.9508 -1.7441  0.4564
    5CHTO   O26 1968   5.061   2.727   3.729  0.2283 -0.2890  0.0641
    5CHTO   C41 1969   5.171   2.797   3.670 -0.2077  0.0203  0.0885
    5CHTO   H83 1970   5.208   2.727   3.594 -1.5975 -1.4000  0.6898
    5CHTO   C52 1971   5.277   2.835   3.779  0.3248  0.0209 -0.1031
    5CHTO   O35 1972   5.270   2.734   3.899  0.4438  0.3026 -0.1980
    5CHTO   H71 1973   5.260   2.646   3.868 -2.0738  0.3763  0.3415
    5CHTO   O28 1974   4.893   2.587   3.706 -0.1835 -0.0729 -0.0889
    5CHTO   C42 1975   4.871   2.573   3.847  0.0389  0.8960 -0.0327
    5CHTO   H84 1976   4.798   2.492   3.849  1.3092 -0.2535  1.0968
    5CHTO   C44 1977   4.806   2.697   3.922 -0.0164  0.2341  0.2188
    5CHTO   H86 1978   4.869   2.784   3.902 -0.4148  1.1101  2.4927
    5CHTO   O32 1979   4.670   2.729   3.878  0.4226  0.0512 -0.2663
    5CHTO   H69 1980   4.638   2.804   3.925 -0.1034  0.0732 -0.6500
    5CHTO   C48 1981   4.796   2.679   4.079  0.1970 -0.0955  0.4915
    5CHTO   H90 1982   4.718   2.606   4.100  0.5160 -0.4594  0.4119
    5CHTO    N9 1983   4.751   2.803   4.153  0.4026  0.4988 -0.8440
    5CHTO   H77 1984   4.666   2.840   4.099  0.9100  1.6803 -0.8580
    5CHTO   H78 1985   4.723   2.784   4.256 -3.1807 -0.4208 -1.9365
    5CHTO   C51 1986   4.928   2.622   4.144 -0.1549  0.4394  0.3489
    5CHTO   H93 1987   5.000   2.702   4.125 -0.0813 -0.1692 -2.0541
    5CHTO   O30 1988   4.956   2.506   4.069 -0.1399  0.0446  0.2118
    5CHTO   C46 1989   4.998   2.522   3.933  0.2804 -0.7448  0.5241
    5CHTO   H88 1990   5.070   2.604   3.934 -0.7166  0.1607 -0.6214
    5CHTO   C53 1991   5.056   2.396   3.870 -0.0724  0.1711  0.4965
    5CHTO   O72 1992   5.184   2.364   3.924  0.4171  0.0976 -0.1434
    5CHTO  H199 1993   5.217   2.299   3.864 -1.1798  0.7376 -1.7787
    5CHTO   O22 1994   4.916   2.583   4.282 -0.1081 -0.2407 -0.1646
    5CHTO   C31 1995   5.031   2.579   4.375  0.2470  0.1191 -0.0732
    5CHTO   H59 1996   4.992   2.562   4.478  0.9584 -3.2292 -0.3104
    5CHTO   C29 1997   5.129   2.460   4.340  0.3796  0.4656 -0.7333
    5CHTO   H57 1998   5.163   2.453   4.236 -1.9533 -0.0661 -1.5012
    5CHTO   O21 1999   5.067   2.330   4.352  0.2449  0.3699  0.4200
    5CHTO   H37 2000   5.035   2.311   4.267  0.6990  0.9779  0.1079
    5CHTO   C27 2001   5.255   2.480   4.436  1.5313 -0.3715  0.0947
    5CHTO   H55 2002   5.219   2.473   4.540 -0.1421  1.1510 -0.3569
    5CHTO    N5 2003   5.351   2.371   4.407 -0.4246 -0.3903  1.0275
    5CHTO   H43 2004   5.389   2.316   4.492  0.9644 -0.4786  0.3683
    5CHTO   H44 2005   5.429   2.404   4.340  0.2125  0.4968  2.1864
    5CHTO   C25 2006   5.315   2.619   4.411  0.0036 -0.1854  0.3338
    5CHTO   H53 2007   5.330   2.623   4.302 -1.6194 -0.7197  0.0810
    5CHTO   O17 2008   5.225   2.726   4.458 -0.3145  0.3949 -0.3837
    5CHTO   C32 2009   5.101   2.719   4.384 -0.0320 -0.1413  0.3506
    5CHTO   H60 2010   5.114   2.758   4.283 -0.1787 -0.7176  0.1071
    5CHTO   C36 2011   5.004   2.823   4.442  0.0828  0.3013 -0.1022
    5CHTO   O25 2012   4.965   2.787   4.575  0.4769 -0.4357  0.0947
    5CHTO   H40 2013   4.889   2.837   4.598  1.8294  1.7904 -0.0732
    5CHTO   O15 2014   5.441   2.646   4.498 -0.0303  0.1525  0.3359
    5CHTO   C19 2015   5.528   2.759   4.472 -1.1289 -0.0486  0.2462
    5CHTO   H47 2016   5.473   2.827   4.405 -0.3030  1.4811  1.0996
    5CHTO   C20 2017   5.564   2.842   4.602  0.2246 -0.1069  0.1623
    5CHTO   H48 2018   5.601   2.774   4.680 -0.4275 -2.6789 -1.6827
    5CHTO   O19 2019   5.435   2.897   4.646 -0.4076  0.0934 -0.2462
    5CHTO   H35 2020   5.392   2.948   4.580  0.6809  1.8703  0.3694
    5CHTO   C21 2021   5.663   2.959   4.571  0.5824 -0.4310 -0.1747
    5CHTO   H49 2022   5.614   3.025   4.499 -1.0485 -0.6838  0.6815
    5CHTO    N4 2023   5.694   3.041   4.692  0.4338  0.0735 -0.4008
    5CHTO   H41 2024   5.613   3.104   4.727  1.9309  0.6861  2.1383
    5CHTO   H42 2025   5.781   3.102   4.672  1.3268 -0.5412  1.4628
    5CHTO   C22 2026   5.787   2.905   4.494 -0.2793  0.2130 -0.7651
    5CHTO   H50 2027   5.840   2.833   4.556 -1.5295 -1.2158 -1.3062
    5CHTO   O14 2028   5.739   2.830   4.374 -0.1587 -0.1943 -0.0106
    5CHTO   C23 2029   5.661   2.714   4.394 -0.1133  0.2219  0.2743
    5CHTO   H51 2030   5.725   2.648   4.455  0.2040 -0.8155 -1.1500
    5CHTO   C34 2031   5.630   2.656   4.247 -0.1201  0.1030  0.1628
    5CHTO   O23 2032   5.606   2.513   4.272 -0.0285  0.1234  0.1460
    5CHTO   H38 2033   5.631   2.468   4.194  0.0290 -1.0177  0.8149
    5CHTO   O16 2034   5.885   3.009   4.450 -0.1550 -0.8857  0.0566
    5CHTO   C24 2035   6.037   2.958   4.402 -0.4469 -0.2569  0.6182
    5CHTO   H52 2036   6.040   2.851   4.383 -0.5413 -0.2437  0.5304
    5CHTO   C26 2037   6.148   2.989   4.506  0.4143 -1.0958  0.0021
    5CHTO   H54 2038   6.139   3.097   4.529 -0.3324 -0.5707 -2.6252
    5CHTO   O20 2039   6.116   2.920   4.631 -0.3173 -0.0653  0.3102
    5CHTO   H36 2040   6.169   2.943   4.706 -3.1510  1.7688  1.8411
    5CHTO   C30 2041   6.286   2.948   4.447  0.0084 -0.0004  0.0216
    5CHTO   H58 2042   6.293   2.840   4.426 -0.4348 -0.1800  0.7796
    5CHTO    N6 2043   6.399   2.979   4.531 -0.2628  0.0631  0.3968
    5CHTO   H45 2044   6.383   2.967   4.637  0.8673  0.7024  0.6530
    5CHTO   H46 2045   6.484   2.924   4.491  0.1326  1.3024 -0.5096
    5CHTO   C33 2046   6.301   3.021   4.307 -0.1994  0.3214 -1.0549
    5CHTO   H61 2047   6.297   3.131   4.313 -2.2199  0.2885 -1.3584
    5CHTO   O18 2048   6.190   2.985   4.233 -0.2200  0.1898  0.2465
    5CHTO   C28 2049   6.062   3.030   4.263  0.1979  0.0320 -0.3879
    5CHTO   H56 2050   6.078   3.137   4.277 -1.5176  0.4147 -1.2265
    5CHTO   C35 2051   5.965   2.990   4.142  0.3727  0.7488  0.9207
    5CHTO   O24 2052   5.968   2.850   4.122 -0.3872  0.4332  0.0739
    5CHTO   H39 2053   6.041   2.809   4.081 -0.7476 -0.9256  0.7799
    5CHTO    O9 2054   6.421   2.995   4.238 -0.5817  0.6827  0.1850
    5CHTO   C13 2055   6.447   2.843   4.184 -0.0383  0.0410 -0.1671
    5CHTO   H26 2056   6.359   2.782   4.213  0.6107 -0.8895 -0.1289
    5CHTO   C11 2057   6.586   2.786   4.248 -0.6213 -0.0036 -0.3292
    5CHTO   H24 2058   6.576   2.775   4.357 -0.2998  1.5668 -0.1288
    5CHTO    O8 2059   6.680   2.901   4.229 -0.0195 -0.6001  0.0943
    5CHTO    H3 2060   6.767   2.879   4.258  0.7709  2.1066 -0.0859
    5CHTO    C9 2061   6.625   2.650   4.176  0.7024 -0.1929 -0.7775
    5CHTO   H22 2062   6.531   2.593   4.182  1.4083 -1.3374 -0.5594
    5CHTO    N2 2063   6.735   2.589   4.255  0.1713 -0.0342  0.3466
    5CHTO   H10 2064   6.715   2.488   4.287 -1.6023  0.2075  0.0207
    5CHTO   H11 2065   6.831   2.598   4.206  1.4347 -2.2707  2.3203
    5CHTO    C7 2066   6.646   2.683   4.023 -0.0425 -0.5276 -0.3889
    5CHTO   H20 2067   6.583   2.605   3.975 -0.1958 -0.0601 -0.9584
    5CHTO    O4 2068   6.589   2.810   3.980  0.1117  0.1912  0.2053
    5CHTO   C14 2069   6.454   2.826   4.026 -0.7928  0.3798 -0.1703
    5CHTO   H27 2070   6.404   2.734   3.991  1.0821 -1.0365  0.7542
    5CHTO   C18 2071   6.392   2.943   3.945 -0.2394 -1.4231 -0.0920
    5CHTO   O13 2072   6.389   2.930   3.805 -0.1761 -0.8496  0.0037
    5CHTO    H7 2073   6.477   2.948   3.777  0.1645  2.3122  2.9010
    5CHTO    O2 2074   6.797   2.676   3.974 -0.0007 -0.2635  0.8444
    5CHTO    C1 2075   6.811   2.655   3.830 -0.5806  0.1877  0.1708
    5CHTO   H14 2076   6.716   2.679   3.779  0.2256  2.7855 -0.1891
    5CHTO    C2 2077   6.857   2.511   3.789 -0.1618  0.0585 -0.8082
    5CHTO   H15 2078   6.955   2.497   3.836  1.2811 -0.1188 -3.7802
    5CHTO    O6 2079   6.765   2.410   3.837  0.2016  0.3371  0.3676
    5CHTO    H1 2080   6.681   2.421   3.795 -0.4765 -2.3306  0.9105
    5CHTO    C3 2081   6.878   2.497   3.627  0.1888 -0.4173 -0.2505
    5CHTO   H16 2082   6.780   2.518   3.582  1.9214  0.2174 -3.8526
    5CHTO    N1 2083   6.920   2.355   3.595  0.2558 -0.0813 -0.7571
    5CHTO    H8 2084   6.921   2.343   3.488  1.5861 -2.8955 -0.4729
    5CHTO    H9 2085   7.021   2.345   3.632  0.2437 -1.1808 -1.0125
    5CHTO    C4 2086   6.971   2.612   3.577 -0.8976 -0.0038  0.7315
    5CHTO   H17 2087   7.071   2.592   3.614 -1.1821 -0.6638  1.1583
    5CHTO    O1 2088   6.920   2.737   3.634  0.0420 -0.4138  0.1082
    5CHTO    C5 2089   6.917   2.759   3.773  0.7032 -0.7796  0.5126
    5CHTO   H18 2090   7.017   2.744   3.815  0.7008 -3.5394 -0.3331
    5CHTO   C16 2091   6.877   2.906   3.789 -0.9172  0.2719  0.0379
    5CHTO   O11 2092   6.887   2.953   3.923  0.5028 -0.1971  0.1524
    5CHTO    H5 2093   6.846   3.037   3.927  1.0650  0.1505 -1.2058
    5CHTO    O3 2094   6.950   2.640   3.433 -0.2439 -0.4329 -0.9186
    5CHTO    C6 2095   7.071   2.652   3.352  0.0108  0.7528  0.3024
    5CHTO   H19 2096   7.153   2.643   3.423 -1.0280 -1.4543  1.2691
    5CHTO    C8 2097   7.081   2.539   3.235 -0.5559 -0.1474 -0.0669
    5CHTO   H21 2098   6.990   2.549   3.176  0.7332  0.6340 -1.9365
    5CHTO    O7 2099   7.091   2.407   3.287  0.4932 -0.0878  0.6232
    5CHTO    H2 2100   7.151   2.352   3.240 -1.2072 -1.3154 -0.1464
    5CHTO   C12 2101   7.194   2.570   3.130  0.5448 -0.7817 -0.4059
    5CHTO   H25 2102   7.291   2.570   3.185  0.6526  0.5204 -0.5934
    5CHTO    N3 2103   7.210   2.461   3.019  0.2556 -0.1935  0.5393
    5CHTO   H12 2104   7.282   2.384   3.043 -1.3297 -1.2657  1.9081
    5CHTO   H13 2105   7.113   2.428   2.987 -0.3021  0.3552  1.6453
    5CHTO   C15 2106   7.169   2.714   3.085 -0.2602  0.0568  0.4899
    5CHTO   H28 2107   7.071   2.739   3.045 -0.4547  0.2290  1.0720
    5CHTO   O10 2108   7.279   2.771   2.978 -0.9960  0.1414 -0.0316
    5CHTO    H4 2109   7.275   2.717   2.901 -3.6790  0.1393  0.0922
    5CHTO    O5 2110   7.186   2.807   3.189  0.4402  0.3358  0.7361
    5CHTO   C10 2111   7.078   2.792   3.282 -0.5870 -0.2309 -0.2647
    5CHTO   H23 2112   6.982   2.804   3.231 -0.8111  0.8026  0.3723
    5CHTO   C17 2113   7.086   2.908   3.381 -0.9039  0.1268  0.0249
    5CHTO   O12 2114   6.963   2.951   3.433  0.3972  0.4235 -0.1378
    5CHTO    H6 2115   6.906   2.980   3.365  0.0766  0.5659  0.1915
    6CHTO  H203 2116   6.857   3.895   0.344 -0.3293  1.1325  0.6671
    6CHTO   O82 2117   6.894   3.972   0.306  0.3739  0.5178  0.0816
    6CHTO  C123 2118   6.818   4.092   0.331  0.2724  0.1630  0.3010
    6CHTO  H227 2119   6.856   4.175   0.269 -2.8210  1.7134  0.3864
    6CHTO   O77 2120   6.689   4.051   0.269 -0.5140  0.9645 -0.0432
    6CHTO  C118 2121   6.584   4.144   0.272  0.3069 -0.8208  0.8884
    6CHTO  H222 2122   6.599   4.232   0.206  1.2299 -1.0386  0.8106
    6CHTO  C125 2123   6.471   4.064   0.217 -0.7988 -0.6910 -0.3536
    6CHTO   O84 2124   6.356   4.145   0.179  0.1598 -0.6167 -0.8814
    6CHTO  H205 2125   6.386   4.195   0.105  0.4111  1.2226  0.4369
    6CHTO  C114 2126   6.557   4.192   0.412  0.5278  0.0079 -0.9684
    6CHTO  H218 2127   6.517   4.111   0.472  0.9808  1.9393  2.1060
    6CHTO  C116 2128   6.681   4.237   0.488  0.2215  0.1874 -0.1658
    6CHTO  H220 2129   6.721   4.330   0.443  1.8244 -0.5674 -0.3560
    6CHTO   O79 2130   6.651   4.262   0.625 -0.0850  0.2187 -0.1038
    6CHTO  H201 2131   6.695   4.342   0.645 -1.2984  0.4967  1.4770
    6CHTO  C120 2132   6.792   4.121   0.482  0.0599 -0.1384 -0.0434
    6CHTO  H224 2133   6.755   4.031   0.536 -0.9846  0.5775  0.4439
    6CHTO   N21 2134   6.921   4.161   0.542  0.0545  0.1389  0.0517
    6CHTO  H211 2135   6.908   4.224   0.628  2.7554  0.2743  0.4028
    6CHTO  H212 2136   6.980   4.078   0.577  2.5808  0.9468 -2.1377
    6CHTO   O75 2137   6.448   4.287   0.400  0.3984 -0.1259  0.3199
    6CHTO  C112 2138   6.330   4.253   0.520  0.5091  0.2210  0.4877
    6CHTO  H216 2139   6.371   4.175   0.586  1.5581 -0.0711 -0.4973
    6CHTO   O73 2140   6.216   4.210   0.449 -0.4005 -0.4977  0.0053
    6CHTO  C113 2141   6.119   4.152   0.538 -0.3515 -0.4663  0.2019
    6CHTO  H217 2142   6.163   4.083   0.614  0.6565 -0.0433  0.0159
    6CHTO  C124 2143   6.015   4.080   0.462  0.1281 -0.5742  0.5266
    6CHTO   O83 2144   6.048   3.950   0.426  0.2991 -0.2949  0.6881
    6CHTO  H204 2145   5.985   3.885   0.452 -2.3770  2.0892  0.4807
    6CHTO  C109 2146   6.054   4.251   0.639 -0.2032  0.2280  0.2263
    6CHTO  H213 2147   5.999   4.323   0.575 -0.2248 -0.9534 -1.1192
    6CHTO  C110 2148   6.177   4.329   0.715  0.0406  0.3365 -0.3464
    6CHTO  H214 2149   6.216   4.263   0.793  0.9794 -0.6824 -1.6469
    6CHTO   O78 2150   6.120   4.439   0.786 -0.1389  0.1846 -0.4694
    6CHTO  H200 2151   6.093   4.411   0.871  3.6150 -3.3197 -0.2673
    6CHTO  C111 2152   6.288   4.374   0.611  0.4910 -0.2608 -0.4317
    6CHTO  H215 2153   6.247   4.453   0.547 -3.0995 -1.6012  0.0919
    6CHTO   N19 2154   6.405   4.433   0.677  0.0721 -0.1267  0.2117
    6CHTO  H207 2155   6.495   4.375   0.661  0.1753 -0.2659  1.2638
    6CHTO  H208 2156   6.389   4.448   0.783 -0.3466 -0.2177  0.1625
    6CHTO   O74 2157   5.957   4.188   0.729  0.5853  0.2912  0.6901
    6CHTO  C115 2158   5.864   4.277   0.828 -0.3542 -0.3025  0.4476
    6CHTO  H219 2159   5.922   4.321   0.909 -1.1058 -1.1390  1.4620
    6CHTO   O76 2160   5.789   4.406   0.753  0.6582 -0.2941 -0.6960
    6CHTO  C122 2161   5.710   4.484   0.836 -0.1695  0.3533 -0.1133
    6CHTO  H226 2162   5.647   4.542   0.769  1.4676  3.8136  1.2048
    6CHTO  C126 2163   5.790   4.593   0.919  0.1967 -0.1540 -0.4939
    6CHTO   O85 2164   5.870   4.538   1.020 -0.1633 -0.1136 -0.3771
    6CHTO  H206 2165   5.891   4.596   1.090  2.0131 -0.3177 -0.8040
    6CHTO  C121 2166   5.617   4.396   0.933  0.0659  0.1011  0.0487
    6CHTO  H225 2167   5.581   4.466   1.011  0.4069  1.2746 -0.8415
    6CHTO   O81 2168   5.503   4.353   0.860 -0.0016  0.1696  0.3928
    6CHTO  H202 2169   5.428   4.406   0.876 -2.2715 -2.8000 -0.0489
    6CHTO  C119 2170   5.685   4.278   0.999 -0.2456  0.8711 -0.2266
    6CHTO  H223 2171   5.773   4.306   1.057 -1.2035  0.8789  1.2528
    6CHTO  C117 2172   5.757   4.181   0.890  0.2393  0.3022 -0.2005
    6CHTO  H221 2173   5.692   4.139   0.813 -1.6346  0.0821  1.4510
    6CHTO   N20 2174   5.820   4.065   0.958 -0.0307 -0.3002 -0.3936
    6CHTO  H209 2175   5.839   3.992   0.881  1.6895  1.8996 -2.1247
    6CHTO  H210 2176   5.764   4.020   1.039  0.2218  1.7016  0.9189
    6CHTO   O80 2177   5.595   4.199   1.115 -0.1719  0.0411  0.2880
    6CHTO  C103 2178   5.572   4.262   1.258 -0.2686 -0.7809  0.0259
    6CHTO  H190 2179   5.662   4.248   1.318  0.6648 -0.8303 -1.3381
    6CHTO  C101 2180   5.530   4.407   1.267 -0.6322 -1.2528 -0.0773
    6CHTO  H188 2181   5.459   4.430   1.187 -1.0697  1.6511  1.0834
    6CHTO   O68 2182   5.662   4.513   1.248 -0.2359  0.2621 -0.1290
    6CHTO  H168 2183   5.651   4.562   1.168 -1.2005  1.4564  0.7185
    6CHTO   C99 2184   5.456   4.442   1.404  0.2924  0.3295  0.2971
    6CHTO  H186 2185   5.534   4.444   1.482  1.5196 -0.6902 -0.8881
    6CHTO   N17 2186   5.392   4.573   1.394 -0.6247  0.1299  0.1546
    6CHTO  H174 2187   5.352   4.602   1.491  1.5327  0.7205  0.9022
    6CHTO  H175 2188   5.463   4.650   1.367 -0.1929 -0.5624 -0.7077
    6CHTO   C97 2189   5.359   4.333   1.447  0.2148  0.3579  0.4679
    6CHTO  H184 2190   5.267   4.342   1.387  0.0407  1.4448  0.8747
    6CHTO   O64 2191   5.419   4.205   1.439  0.2314 -0.1947 -0.2682
    6CHTO  C104 2192   5.469   4.168   1.308  0.4122  0.2227 -0.8367
    6CHTO  H191 2193   5.388   4.172   1.236 -1.2641  1.5703  1.0589
    6CHTO  C108 2194   5.508   4.025   1.317  0.1654  0.3000 -0.9640
    6CHTO   O71 2195   5.404   3.926   1.324 -0.3812  0.1062 -0.7419
    6CHTO  H171 2196   5.386   3.899   1.412 -0.2948  1.1630 -0.3915
    6CHTO   O62 2197   5.336   4.332   1.584 -0.8808  0.1689  0.4336
    6CHTO   C91 2198   5.208   4.304   1.631  0.2106  0.4565  0.0868
    6CHTO  H178 2199   5.149   4.390   1.602  1.0772  1.4185  1.1050
    6CHTO   C92 2200   5.213   4.323   1.785  0.6404  0.6784  0.0043
    6CHTO  H179 2201   5.259   4.421   1.807 -0.5228  1.4394 -0.8961
    6CHTO   O66 2202   5.080   4.335   1.835  0.1913  0.2170 -0.2132
    6CHTO  H166 2203   5.081   4.336   1.929  1.4585 -0.3509 -0.2132
    6CHTO   C93 2204   5.288   4.199   1.852  0.0060 -0.6231  0.1560
    6CHTO  H180 2205   5.249   4.199   1.955 -1.4841 -0.6680 -0.3939
    6CHTO   N16 2206   5.435   4.214   1.863 -0.3720 -0.1023  0.3121
    6CHTO  H172 2207   5.475   4.289   1.796  0.3060  0.4910  1.3715
    6CHTO  H173 2208   5.493   4.123   1.855 -0.4225 -0.1273  0.2321
    6CHTO   C94 2209   5.250   4.066   1.783 -0.2272 -0.7239 -0.0489
    6CHTO  H181 2210   5.325   4.034   1.711  0.2200  0.8288 -0.2955
    6CHTO   O61 2211   5.131   4.070   1.703 -0.8050 -0.0035 -0.1955
    6CHTO   C95 2212   5.133   4.163   1.594  0.0028 -0.5429 -0.0408
    6CHTO  H182 2213   5.189   4.120   1.511 -1.9694  0.8936 -2.1527
    6CHTO  C106 2214   4.991   4.188   1.541 -0.3945  0.8449  0.8962
    6CHTO   O69 2215   4.930   4.065   1.501  0.1714  0.0045  0.9775
    6CHTO  H169 2216   4.971   4.025   1.426 -0.9466  1.3879 -0.4252
    6CHTO   O63 2217   5.227   3.972   1.889 -0.3229 -0.3109 -0.0867
    6CHTO   C96 2218   5.247   3.809   1.841  0.0298  0.2396  0.0065
    6CHTO  H183 2219   5.238   3.797   1.733 -0.0662 -1.4933  0.1953
    6CHTO   C98 2220   5.152   3.716   1.915  0.2757  1.1997  0.0107
    6CHTO  H185 2221   5.171   3.725   2.024 -3.1765 -1.5636  0.9175
    6CHTO   O67 2222   5.021   3.768   1.895  0.9406 -0.1381  0.1172
    6CHTO  H167 2223   5.010   3.834   1.960  2.1662  0.4382 -0.2500
    6CHTO  C102 2224   5.170   3.573   1.852  0.3114  0.3930 -0.4528
    6CHTO  H189 2225   5.132   3.583   1.749  0.1744 -1.0821 -0.5558
    6CHTO   N18 2226   5.096   3.457   1.913  0.3453 -0.1192  0.2112
    6CHTO  H176 2227   5.011   3.436   1.850  0.1863 -0.8115  0.6408
    6CHTO  H177 2228   5.154   3.367   1.927  1.0256 -0.2800 -3.2170
    6CHTO  C105 2229   5.321   3.540   1.835 -0.0929  0.7338 -0.4144
    6CHTO  H192 2230   5.346   3.448   1.887  0.3258  1.3608  0.5196
    6CHTO   O65 2231   5.420   3.628   1.891  0.1169 -0.0043 -0.0992
    6CHTO  C100 2232   5.391   3.768   1.886 -0.1585 -0.0913 -0.0234
    6CHTO  H187 2233   5.398   3.796   1.992 -0.3679 -0.5033  0.1036
    6CHTO  C107 2234   5.505   3.844   1.804  0.2953 -0.1726  0.1653
    6CHTO   O70 2235   5.495   3.818   1.661  0.0914 -0.4371 -0.4415
    6CHTO  H170 2236   5.412   3.844   1.625  0.5312 -0.5212 -1.5530
    6CHTO   O57 2237   5.350   3.534   1.702  0.0503  0.0032  0.4709
    6CHTO   C85 2238   5.411   3.423   1.630 -0.6379  0.0081  0.5673
    6CHTO  H157 2239   5.338   3.339   1.637 -3.1963  2.1353  0.3134
    6CHTO   C83 2240   5.545   3.370   1.696  0.5544  0.0578  0.1189
    6CHTO  H155 2241   5.510   3.317   1.785  3.5029  1.1944  2.0066
    6CHTO   O56 2242   5.628   3.481   1.738 -0.4903  0.5352 -0.0222
    6CHTO  H135 2243   5.672   3.460   1.818 -0.5012  2.5283  0.5483
    6CHTO   C81 2244   5.611   3.260   1.601  0.3510  1.0080 -0.2523
    6CHTO  H153 2245   5.538   3.179   1.595  0.6738  0.6891  0.1026
    6CHTO   N14 2246   5.724   3.194   1.657  0.4206 -0.0645 -0.4144
    6CHTO  H141 2247   5.750   3.113   1.593  0.1402 -1.1346  0.8189
    6CHTO  H142 2248   5.703   3.151   1.753  3.0423 -1.0156 -0.2187
    6CHTO   C79 2249   5.638   3.315   1.460  0.8184 -0.6599  0.1739
    6CHTO  H151 2250   5.661   3.230   1.396  1.1814 -0.4079 -0.0356
    6CHTO   O52 2251   5.510   3.363   1.407  0.0144 -0.5093  0.6159
    6CHTO   C86 2252   5.441   3.463   1.484  0.3743  0.4219 -0.1720
    6CHTO  H158 2253   5.513   3.547   1.479  0.7632  0.1446  0.7724
    6CHTO   C90 2254   5.311   3.509   1.406 -0.0565  0.6855  0.9262
    6CHTO   O60 2255   5.351   3.597   1.297  0.0821  0.5593 -0.7627
    6CHTO  H138 2256   5.427   3.566   1.250 -0.6184 -1.5032 -0.5896
    6CHTO   O50 2257   5.739   3.422   1.444 -0.0003  0.0984  0.0914
    6CHTO   C73 2258   5.882   3.433   1.474  0.1812  0.6501 -0.1590
    6CHTO  H145 2259   5.928   3.334   1.480  1.9420  1.2474 -3.0006
    6CHTO   C74 2260   5.902   3.513   1.604 -0.0618 -0.1783 -0.7433
    6CHTO  H146 2261   5.846   3.468   1.688 -0.0179  0.8922 -0.1406
    6CHTO   O54 2262   6.040   3.508   1.647 -0.3392 -0.4033  0.0777
    6CHTO  H133 2263   6.080   3.423   1.638 -0.5019 -0.2965 -1.9734
    6CHTO   C75 2264   5.847   3.658   1.572  0.4344  0.0823  0.3345
    6CHTO  H147 2265   5.744   3.646   1.536 -0.5559 -1.5792  3.5357
    6CHTO   N13 2266   5.835   3.746   1.691  0.4221 -0.4010  0.0975
    6CHTO  H139 2267   5.927   3.798   1.716 -1.2660  2.5155  0.4777
    6CHTO  H140 2268   5.753   3.816   1.690  0.8171  0.0650 -0.0438
    6CHTO   C76 2269   5.930   3.715   1.448 -0.0164  0.4256  0.2152
    6CHTO  H148 2270   6.038   3.718   1.464 -0.1332 -0.6996  1.3075
    6CHTO   O49 2271   5.901   3.635   1.334  0.7004 -0.0020  0.4298
    6CHTO   C77 2272   5.958   3.506   1.351 -0.1744  0.0184 -0.3478
    6CHTO  H149 2273   6.064   3.510   1.375  0.1455  1.1046 -1.8701
    6CHTO   C88 2274   5.935   3.423   1.228  0.8858  0.0781  0.0635
    6CHTO   O58 2275   5.787   3.421   1.185  0.5465  0.1393 -0.3541
    6CHTO  H136 2276   5.776   3.483   1.116  0.7511 -0.3971 -0.8709
    6CHTO   O51 2277   5.880   3.843   1.388  0.7640  0.2250  0.5741
    6CHTO   C78 2278   5.964   3.973   1.424 -0.6144  0.2214  0.1591
    6CHTO  H150 2279   6.032   3.953   1.510 -1.2835  1.7266  1.0529
    6CHTO   C80 2280   5.873   4.092   1.460  0.3704  0.7377  0.3017
    6CHTO  H152 2281   5.820   4.114   1.365  0.8750 -1.0438 -0.4232
    6CHTO   O55 2282   5.784   4.045   1.564  0.1063  0.0277 -0.7129
    6CHTO  H134 2283   5.845   4.025   1.633  0.7088 -0.9699 -1.5232
    6CHTO   C84 2284   5.952   4.218   1.507  0.5553  0.5220  0.0802
    6CHTO  H156 2285   5.997   4.196   1.604  0.8983  0.3559 -0.1140
    6CHTO   N15 2286   5.846   4.330   1.525 -0.0814  0.1777 -0.0093
    6CHTO  H143 2287   5.792   4.304   1.613  3.2099 -0.2759  1.9619
    6CHTO  H144 2288   5.775   4.352   1.449  0.0374  2.7504  0.5695
    6CHTO   C87 2289   6.064   4.251   1.404 -0.1606  1.2636  0.4608
    6CHTO  H159 2290   6.013   4.289   1.315  0.5088  0.4103 -0.2929
    6CHTO   O53 2291   6.144   4.112   1.373  0.2309 -0.0369  0.1129
    6CHTO   C82 2292   6.056   4.019   1.308 -0.6265  0.5078  0.7718
    6CHTO  H154 2293   6.002   4.070   1.227 -0.0984 -3.0762 -1.9747
    6CHTO   C89 2294   6.130   3.897   1.247 -0.2998  0.3484  0.3839
    6CHTO   O59 2295   6.204   3.919   1.128 -0.4235  0.6596 -0.7765
    6CHTO  H137 2296   6.160   3.960   1.057  1.0016 -0.4583 -2.3253
    6CHTO   O45 2297   6.156   4.374   1.468 -0.0948  0.3615  0.1429
    6CHTO   C67 2298   6.263   4.400   1.377  0.3719 -0.3057 -0.1923
    6CHTO  H124 2299   6.325   4.310   1.371 -0.8483 -1.2073  0.3901
    6CHTO   C65 2300   6.217   4.444   1.228 -0.8837 -0.1555 -0.3229
    6CHTO  H122 2301   6.110   4.458   1.239 -0.6630  1.3837 -0.0907
    6CHTO   O44 2302   6.229   4.334   1.142  0.2100  0.0692 -0.1817
    6CHTO  H102 2303   6.206   4.354   1.053  3.6507  1.5954 -0.8207
    6CHTO   C63 2304   6.277   4.586   1.185  0.1994 -0.6374 -0.2638
    6CHTO  H120 2305   6.236   4.665   1.249 -0.2025 -1.7225  0.8353
    6CHTO   N11 2306   6.240   4.633   1.050 -0.2224  0.0422 -0.5074
    6CHTO  H108 2307   6.290   4.572   0.978 -3.2115 -0.7327 -2.0062
    6CHTO  H109 2308   6.136   4.628   1.029 -0.4204  1.9650 -0.0515
    6CHTO   C61 2309   6.436   4.569   1.205 -0.1489  0.3045  0.1731
    6CHTO  H118 2310   6.470   4.669   1.175 -0.2580  0.3812  0.3037
    6CHTO   O40 2311   6.464   4.561   1.350  0.0706  0.2935  0.3221
    6CHTO   C68 2312   6.359   4.515   1.440 -0.1948  0.1376 -0.8002
    6CHTO  H125 2313   6.297   4.606   1.457 -1.1958 -0.7205  0.1648
    6CHTO   C72 2314   6.421   4.471   1.576 -0.3976  0.1334  0.2247
    6CHTO   O48 2315   6.493   4.571   1.649  0.0292  0.7053  0.5580
    6CHTO  H105 2316   6.537   4.634   1.595 -0.6213  2.4427  2.0062
    6CHTO   O38 2317   6.493   4.466   1.123 -0.1596 -0.2021 -0.2426
    6CHTO   C55 2318   6.638   4.490   1.105  0.6333 -0.7216  1.2081
    6CHTO  H112 2319   6.672   4.574   1.167  0.2306  0.9560 -0.7972
    6CHTO   C56 2320   6.671   4.512   0.948 -0.0990  0.5925 -0.5847
    6CHTO  H113 2321   6.636   4.427   0.888  1.7566  1.3127 -2.7526
    6CHTO   O42 2322   6.589   4.620   0.904 -0.2790  0.3645  0.6289
    6CHTO  H100 2323   6.598   4.686   0.971  0.0785  2.3894 -1.3479
    6CHTO   C57 2324   6.824   4.546   0.926  0.2093  0.5243  0.1576
    6CHTO  H114 2325   6.857   4.636   0.978  1.4913 -0.5680  1.2958
    6CHTO   N10 2326   6.858   4.566   0.789  0.3636  0.2692  0.4589
    6CHTO  H106 2327   6.963   4.545   0.779  0.4563  0.1406  1.6908
    6CHTO  H107 2328   6.837   4.662   0.744  0.3178 -0.8824 -2.0992
    6CHTO   C58 2329   6.898   4.422   0.987  0.9458  0.0522  0.0340
    6CHTO  H115 2330   6.868   4.333   0.929 -1.5279  2.5799 -2.6956
    6CHTO   O37 2331   6.860   4.401   1.129  0.3977 -0.5802  0.1423
    6CHTO   C59 2332   6.719   4.370   1.143 -0.9205  0.7147 -0.6515
    6CHTO  H116 2333   6.699   4.282   1.083  0.9791 -0.9260  1.0359
    6CHTO   C70 2334   6.682   4.315   1.283 -0.4275 -0.1269  0.0763
    6CHTO   O46 2335   6.728   4.388   1.397 -0.6735 -0.1918  0.1262
    6CHTO  H103 2336   6.819   4.366   1.408 -0.8494 -0.1956  1.6294
    6CHTO   O39 2337   7.051   4.444   0.967  0.4990 -0.8869  0.2155
    6CHTO   C60 2338   7.135   4.330   0.999  0.1234  0.1600  0.2751
    6CHTO  H117 2339   7.098   4.278   1.087  1.1821 -0.3148  0.4496
    6CHTO   C62 2340   7.131   4.227   0.886  0.3118 -0.1335 -0.0002
    6CHTO  H119 2341   7.024   4.196   0.884  0.7965 -1.8625 -0.5125
    6CHTO   O43 2342   7.176   4.286   0.761 -0.2831 -0.4862  0.1111
    6CHTO  H101 2343   7.173   4.224   0.690  2.7331 -1.0588  0.4253
    6CHTO   C66 2344   7.218   4.096   0.924  0.3369  0.5652  0.3099
    6CHTO  H123 2345   7.193   4.066   1.026 -1.1914  2.2910  0.4816
    6CHTO   N12 2346   7.174   3.988   0.827  0.1837  0.5735  0.0794
    6CHTO  H110 2347   7.067   3.983   0.815 -0.0706  0.1797  2.4079
    6CHTO  H111 2348   7.206   3.897   0.876 -1.2447 -0.4229 -0.8086
    6CHTO   C69 2349   7.367   4.141   0.942 -0.3113 -0.1360 -0.0323
    6CHTO  H126 2350   7.397   4.170   0.839  1.2664  0.8244  0.6856
    6CHTO   O41 2351   7.368   4.260   1.039 -0.3054 -0.3871  0.3009
    6CHTO   C64 2352   7.280   4.379   1.030 -0.2333 -0.9982  0.5210
    6CHTO  H121 2353   7.317   4.451   0.955 -1.1423 -2.2153 -1.1227
    6CHTO   C71 2354   7.285   4.449   1.165 -0.3625  0.3340  0.3875
    6CHTO   O47 2355   7.407   4.501   1.206 -0.1577 -0.0657 -0.3664
    6CHTO  H104 2356   7.391   4.531   1.294 -2.8609  0.7216 -1.0633
    6CHTO   O34 2357   7.461   4.039   0.993 -0.6869  0.2286  1.0136
    6CHTO   C49 2358   7.583   3.975   0.918 -0.0103 -0.8167 -0.7160
    6CHTO   H91 2359   7.552   3.925   0.826 -1.1902 -0.9413 -0.2686
    6CHTO   C47 2360   7.654   3.873   1.014  0.6444  0.3485  0.3976
    6CHTO   H89 2361   7.744   3.835   0.962 -0.0846 -0.8730  0.0070
    6CHTO   O33 2362   7.569   3.760   1.049 -0.2743  0.4771 -0.0399
    6CHTO   H70 2363   7.507   3.739   0.983  0.6514 -1.8421 -0.2387
    6CHTO   C45 2364   7.695   3.957   1.149 -0.0144  0.2767 -0.1014
    6CHTO   H87 2365   7.610   3.961   1.219  0.0431 -1.0717  0.0630
    6CHTO    N8 2366   7.807   3.887   1.218 -0.2719 -0.2371  0.0404
    6CHTO   H75 2367   7.884   3.955   1.248  0.4061 -1.0833  0.2453
    6CHTO   H76 2368   7.774   3.842   1.311  1.2036 -0.7671  0.3163
    6CHTO   C43 2369   7.720   4.113   1.125 -0.3387  0.1503  0.2531
    6CHTO   H85 2370   7.621   4.154   1.146 -1.6110 -2.6127 -0.0881
    6CHTO   O29 2371   7.762   4.144   0.990 -0.2224 -0.3879  0.1102
    6CHTO   C50 2372   7.681   4.092   0.885 -0.0825 -0.2595  0.1330
    6CHTO   H92 2373   7.621   4.176   0.847 -0.1480  0.6242  2.0962
    6CHTO   C54 2374   7.785   4.065   0.770 -0.0595 -0.4985 -0.2208
    6CHTO   O36 2375   7.861   4.186   0.736 -0.1945  0.4092 -0.1859
    6CHTO   H72 2376   7.932   4.208   0.793 -0.2651  1.7019 -0.5948
    6CHTO   O27 2377   7.810   4.175   1.218  0.0998  0.2124  0.2797
    6CHTO   C37 2378   7.871   4.308   1.251 -0.0183  0.0440  0.6019
    6CHTO   H79 2379   7.951   4.329   1.178 -0.7307  0.6458 -0.0150
    6CHTO   C38 2380   7.757   4.412   1.245 -0.4414 -0.2456 -0.4610
    6CHTO   H80 2381   7.677   4.367   1.306 -0.4223 -0.4690 -0.6017
    6CHTO   O31 2382   7.724   4.416   1.109 -0.2459  0.3414 -1.0378
    6CHTO   H68 2383   7.718   4.508   1.093 -1.5995  0.3876 -0.3688
    6CHTO   C39 2384   7.793   4.552   1.311 -0.3026 -0.0933  0.7736
    6CHTO   H81 2385   7.860   4.597   1.237 -0.8910  0.9554  0.8667
    6CHTO    N7 2386   7.675   4.644   1.320 -0.4890 -0.3648 -0.2572
    6CHTO   H73 2387   7.689   4.750   1.336 -2.5489 -0.0125 -0.6987
    6CHTO   H74 2388   7.576   4.606   1.299 -0.7555 -0.4924  1.1798
    6CHTO   C40 2389   7.857   4.526   1.452  0.1981  0.1166 -0.3962
    6CHTO   H82 2390   7.788   4.490   1.528  0.3560  0.3576 -0.1398
    6CHTO   O26 2391   7.967   4.437   1.439  0.0672 -0.1126 -0.5367
    6CHTO   C41 2392   7.934   4.302   1.397 -0.6741  0.3703 -0.1251
    6CHTO   H83 2393   7.858   4.262   1.467  0.7237  2.2435  2.5617
    6CHTO   C52 2394   8.052   4.201   1.399  0.8286 -0.5686 -0.4786
    6CHTO   O35 2395   8.076   4.149   1.536  0.2818  0.3161  0.0369
    6CHTO   H71 2396   8.099   4.058   1.534 -0.4418  0.1045  1.1423
    6CHTO   O28 2397   7.911   4.648   1.506 -0.2419 -1.3075  0.0434
    6CHTO   C42 2398   7.922   4.682   1.652  0.4440  0.7921 -0.1801
    6CHTO   H84 2399   8.026   4.715   1.654  0.4198  0.9095 -0.6495
    6CHTO   C44 2400   7.906   4.564   1.753 -0.0326 -0.3437  0.5355
    6CHTO   H86 2401   7.803   4.528   1.753 -0.6151  1.2178 -0.7324
    6CHTO   O32 2402   7.991   4.461   1.713  0.5700  0.1172  0.0869
    6CHTO   H69 2403   7.987   4.385   1.769 -2.4008  1.0940  1.3096
    6CHTO   C48 2404   7.934   4.618   1.899 -0.5310 -0.0800  0.2775
    6CHTO   H90 2405   8.032   4.664   1.910 -1.8888  2.5026  1.8545
    6CHTO    N9 2406   7.935   4.509   2.006  0.3550  0.1087  0.1636
    6CHTO   H77 2407   8.032   4.462   2.020  0.0594  0.7968  5.8337
    6CHTO   H78 2408   7.903   4.550   2.101 -0.2080  1.5849 -0.6569
    6CHTO   C51 2409   7.828   4.728   1.935  0.2855 -0.6164 -0.7187
    6CHTO   H93 2410   7.724   4.694   1.937  0.3023 -0.6360  1.5998
    6CHTO   O30 2411   7.844   4.835   1.845 -0.2775  0.5021  0.2901
    6CHTO   C46 2412   7.832   4.801   1.694 -0.3177 -0.5091  0.9034
    6CHTO   H88 2413   7.727   4.783   1.671 -0.5426  2.8153 -1.0309
    6CHTO   C53 2414   7.880   4.933   1.628 -0.0848  0.4617 -0.3256
    6CHTO   O72 2415   7.832   4.944   1.487  0.3114 -0.0951 -0.6090
    6CHTO  H199 2416   7.865   5.024   1.450 -2.2821  0.9304 -0.7612
    6CHTO   O22 2417   7.854   4.782   2.062 -0.3636  0.0325 -0.3479
    6CHTO   C31 2418   7.754   4.837   2.150 -0.7727  0.9361  0.2896
    6CHTO   H59 2419   7.796   4.936   2.175  0.1310  1.0815 -1.7443
    6CHTO   C29 2420   7.612   4.867   2.087 -0.1217  0.1095 -0.9328
    6CHTO   H57 2421   7.578   4.779   2.031  2.2967 -1.1049 -0.5511
    6CHTO   O21 2422   7.627   4.961   1.982 -0.3191  0.0443  0.1484
    6CHTO   H37 2423   7.675   4.928   1.909  1.2659 -3.3237  2.5521
    6CHTO   C27 2424   7.506   4.914   2.194 -0.7057 -0.2107 -0.3143
    6CHTO   H55 2425   7.523   5.020   2.220 -0.3199  0.2210 -2.2947
    6CHTO    N5 2426   7.374   4.909   2.132  0.3098 -0.1563  0.0670
    6CHTO   H43 2427   7.372   4.977   2.048  1.3434 -0.2877 -0.0701
    6CHTO   H44 2428   7.299   4.933   2.206  0.6051 -0.8274  0.5852
    6CHTO   C25 2429   7.520   4.832   2.335 -0.4343 -0.2184  0.1665
    6CHTO   H53 2430   7.478   4.731   2.322  3.6319 -1.8621 -1.1078
    6CHTO   O17 2431   7.656   4.819   2.375 -0.3093  0.2205  0.2415
    6CHTO   C32 2432   7.745   4.753   2.283  0.4435 -0.1948 -0.7569
    6CHTO   H60 2433   7.706   4.655   2.255  0.9217 -1.1460  1.7861
    6CHTO   C36 2434   7.882   4.726   2.356  0.7500 -1.0985 -0.0031
    6CHTO   O25 2435   7.885   4.619   2.456 -0.0004  0.4430 -0.0281
    6CHTO   H40 2436   7.863   4.538   2.414 -2.8883  1.8132 -1.3742
    6CHTO   O15 2437   7.436   4.899   2.444  0.1617  0.2422  0.0342
    6CHTO   C19 2438   7.338   4.990   2.519  0.9469  0.4152 -0.0762
    6CHTO   H47 2439   7.358   4.977   2.627  1.1491  1.4176  0.0111
    6CHTO   C20 2440   7.344   5.143   2.497 -0.2459 -0.0310  0.7954
    6CHTO   H48 2441   7.332   5.163   2.389  1.5292  0.1378  0.6103
    6CHTO   O19 2442   7.476   5.181   2.528 -0.2400 -0.5549 -0.1608
    6CHTO   H35 2443   7.491   5.270   2.501 -0.2161 -1.3567 -2.8752
    6CHTO   C21 2444   7.233   5.212   2.577  0.5801 -0.2395 -0.5697
    6CHTO   H49 2445   7.252   5.205   2.684 -0.2741  0.2257 -0.3848
    6CHTO    N4 2446   7.232   5.357   2.545 -0.6721  0.3246  0.3148
    6CHTO   H41 2447   7.318   5.407   2.588  0.9082 -3.2669  1.4781
    6CHTO   H42 2448   7.143   5.396   2.592 -1.4576 -0.7579 -0.2491
    6CHTO   C22 2449   7.095   5.149   2.547 -0.7767  0.4984  0.0961
    6CHTO   H50 2450   7.053   5.167   2.448 -0.5588 -0.8935 -0.2528
    6CHTO   O14 2451   7.111   5.008   2.567  0.4841 -0.3468  0.1055
    6CHTO   C23 2452   7.201   4.928   2.495 -0.2063  0.2085 -0.3915
    6CHTO   H51 2453   7.176   4.913   2.388 -3.3808 -1.1035  0.4743
    6CHTO   C34 2454   7.178   4.793   2.563 -0.2989  0.4009  0.2578
    6CHTO   O23 2455   7.278   4.699   2.527 -0.0534  0.2897 -0.1826
    6CHTO   H38 2456   7.359   4.736   2.555  0.9443 -1.0172 -1.2721
    6CHTO   O16 2457   6.992   5.182   2.640  0.0480 -0.2242  0.0533
    6CHTO   C24 2458   6.873   5.264   2.582 -0.6800 -0.4361  0.7509
    6CHTO   H52 2459   6.895   5.302   2.482  0.8830  0.2224  1.3346
    6CHTO   C26 2460   6.840   5.383   2.672 -0.3061  0.0015  0.0184
    6CHTO   H54 2461   6.820   5.341   2.773  1.4597 -1.9227 -0.3841
    6CHTO   O20 2462   6.950   5.475   2.683  0.6195  0.2383  0.6631
    6CHTO   H36 2463   6.936   5.527   2.760  0.1507 -0.0028  0.7434
    6CHTO   C30 2464   6.705   5.458   2.627  0.3295 -0.3830  0.0568
    6CHTO   H58 2465   6.725   5.512   2.534  0.8573  1.2931  1.1108
    6CHTO    N6 2466   6.657   5.571   2.718 -0.3853 -0.1727 -0.6714
    6CHTO   H45 2467   6.626   5.656   2.659 -1.8021 -0.2586 -0.0670
    6CHTO   H46 2468   6.736   5.602   2.786  0.2577  1.8368 -2.2630
    6CHTO   C33 2469   6.593   5.348   2.594  0.1804 -0.8454 -0.0618
    6CHTO   H61 2470   6.571   5.296   2.688  0.8963 -2.7649 -0.9296
    6CHTO   O18 2471   6.635   5.243   2.508  0.2573 -0.2329  0.2850
    6CHTO   C28 2472   6.746   5.173   2.565 -0.3506  0.1138  0.2238
    6CHTO   H56 2473   6.719   5.124   2.658  1.6236  0.7494  1.1656
    6CHTO   C35 2474   6.772   5.052   2.476 -0.1554  0.4707 -0.2603
    6CHTO   O24 2475   6.798   5.083   2.342  0.5115 -0.5093 -0.6667
    6CHTO   H39 2476   6.732   5.043   2.289  0.7862 -1.7338 -0.1098
    6CHTO    O9 2477   6.465   5.411   2.551  0.3147  0.5205 -0.5033
    6CHTO   C13 2478   6.340   5.379   2.634  0.1621  0.2073  0.1646
    6CHTO   H26 2479   6.364   5.338   2.735 -2.8330  1.3564  1.4209
    6CHTO   C11 2480   6.254   5.280   2.555  0.6157  0.2057  0.6459
    6CHTO   H24 2481   6.312   5.189   2.536  0.1102 -0.1000  0.5922
    6CHTO    O8 2482   6.223   5.330   2.424  0.6804  0.3477  0.5352
    6CHTO    H3 2483   6.151   5.287   2.381  2.0478 -2.9638  1.4057
    6CHTO    C9 2484   6.131   5.254   2.647 -0.4689  0.3370 -0.0068
    6CHTO   H22 2485   6.176   5.215   2.740  3.0172  2.0087 -0.8921
    6CHTO    N2 2486   6.042   5.148   2.597  0.4318  0.0576 -0.1350
    6CHTO   H10 2487   6.000   5.171   2.501 -2.2468 -0.0961  0.9414
    6CHTO   H11 2488   5.961   5.126   2.665 -0.9676  0.4966 -1.6242
    6CHTO    C7 2489   6.055   5.392   2.685 -0.5663 -0.3269 -0.1976
    6CHTO   H20 2490   6.068   5.393   2.795  1.9659  1.6233 -0.4860
    6CHTO    O4 2491   6.121   5.506   2.625  1.0373  0.4208 -0.4290
    6CHTO   C14 2492   6.259   5.520   2.671  0.9425  0.0934  0.5522
    6CHTO   H27 2493   6.263   5.540   2.780 -2.8154 -0.6568  0.8930
    6CHTO   C18 2494   6.310   5.648   2.605  0.2083 -0.6148 -0.5548
    6CHTO   O13 2495   6.222   5.758   2.623  0.0015  0.3102 -0.2251
    6CHTO    H7 2496   6.268   5.835   2.596  0.2779  0.9271  1.8848
    6CHTO    O2 2497   5.886   5.391   2.650  0.5103  0.1549 -0.2545
    6CHTO    C1 2498   5.806   5.447   2.757 -0.3157 -0.0125 -0.3993
    6CHTO   H14 2499   5.704   5.465   2.718 -1.1076 -0.1902  1.5423
    6CHTO    C2 2500   5.863   5.584   2.809 -0.2835 -0.5340  0.0589
    6CHTO   H15 2501   5.966   5.582   2.846  0.8831 -1.5326 -3.1353
    6CHTO    O6 2502   5.868   5.669   2.694 -0.6932  0.1485  0.2906
    6CHTO    H1 2503   5.940   5.660   2.634  0.9510 -0.6506  2.3188
    6CHTO    C3 2504   5.757   5.645   2.911  0.5867 -0.1823  0.2561
    6CHTO   H16 2505   5.661   5.662   2.861  1.0774  0.8370 -0.3338
    6CHTO    N1 2506   5.800   5.774   2.977  0.0302 -0.0747 -0.4319
    6CHTO    H8 2507   5.908   5.778   2.985 -0.1036  0.7753  1.2572
    6CHTO    H9 2508   5.738   5.802   3.061  0.8688  1.3549 -0.2814
    6CHTO    C4 2509   5.724   5.536   3.027 -0.5835  0.2170 -0.2355
    6CHTO   H17 2510   5.808   5.530   3.097 -1.2034 -1.6788  0.3928
    6CHTO    O1 2511   5.698   5.407   2.963 -0.4537  0.3976  0.2873
    6CHTO    C5 2512   5.802   5.351   2.882 -0.0302  0.2148 -0.0830
    6CHTO   H18 2513   5.901   5.358   2.927  1.1550 -0.2764 -2.5240
    6CHTO   C16 2514   5.771   5.200   2.834  0.3993  0.4903 -0.0358
    6CHTO   O11 2515   5.637   5.156   2.843 -0.0009  0.1895 -0.0157
    6CHTO    H5 2516   5.624   5.108   2.922 -0.3511 -1.6617 -1.1767
    6CHTO    O3 2517   5.603   5.566   3.097  0.4202  0.0941 -0.6584
    6CHTO    C6 2518   5.603   5.523   3.240  0.4711 -0.6443  0.0459
    6CHTO   H19 2519   5.675   5.443   3.262  1.4304 -0.2324 -1.4991
    6CHTO    C8 2520   5.639   5.643   3.338 -0.3026  0.3288 -0.3895
    6CHTO   H21 2521   5.578   5.728   3.307 -2.2397 -1.3177 -1.2176
    6CHTO    O7 2522   5.781   5.665   3.305 -0.2238  0.1142 -0.2294
    6CHTO    H2 2523   5.796   5.696   3.217  0.2109  1.7197  0.3979
    6CHTO   C12 2524   5.627   5.588   3.483  0.3271  0.1510 -0.8112
    6CHTO   H25 2525   5.701   5.505   3.488  0.1554  0.1205  2.4727
    6CHTO    N3 2526   5.658   5.697   3.589  0.1270 -0.4055  0.0504
    6CHTO   H12 2527   5.651   5.662   3.691  0.0397 -1.5293 -0.3270
    6CHTO   H13 2528   5.614   5.795   3.581  1.8514  0.2536 -1.7776
    6CHTO   C15 2529   5.488   5.527   3.495 -0.3211  0.4042  0.2972
    6CHTO   H28 2530   5.416   5.608   3.492  1.1360  1.8081  2.0128
    6CHTO   O10 2531   5.470   5.450   3.619 -0.0839 -0.2173  0.1684
    6CHTO    H4 2532   5.424   5.511   3.673  0.9315  1.2495 -0.5888
    6CHTO    O5 2533   5.456   5.426   3.400  0.4501  0.6270  0.1320
    6CHTO   C10 2534   5.459   5.465   3.263  0.0320  0.9317 -0.4586
    6CHTO   H23 2535   5.383   5.540   3.242  0.6490  1.8568  0.5834
    6CHTO   C17 2536   5.432   5.339   3.181 -0.0365  0.0246  0.7883
    6CHTO   O12 2537   5.291   5.304   3.167  0.4897  0.0604 -0.3806
    6CHTO    H6 2538   5.254   5.362   3.104  1.1552  1.1546  0.2309
    7CHTO  H203 2539   5.237   2.161   3.038 -0.5108 -0.1601  1.1190
    7CHTO   O82 2540   5.296   2.235   3.037 -0.2522 -0.3705  0.5879
    7CHTO  C123 2541   5.416   2.192   2.973 -0.1910 -1.3585  0.5273
    7CHTO  H227 2542   5.392   2.165   2.869 -1.5922 -2.4670  1.1338
    7CHTO   O77 2543   5.486   2.323   2.964 -0.3259 -0.0224  0.1329
    7CHTO  C118 2544   5.622   2.312   2.915  0.0899 -1.0396  0.8637
    7CHTO  H222 2545   5.613   2.280   2.811  0.5972  1.6265 -0.0417
    7CHTO  C125 2546   5.680   2.452   2.910  0.5448 -0.6192  0.0417
    7CHTO   O84 2547   5.616   2.541   2.818  0.2032  0.0298 -0.1883
    7CHTO  H205 2548   5.647   2.534   2.730  0.0569  0.3227 -0.2643
    7CHTO  C114 2549   5.712   2.225   3.004  0.3330  0.3939 -0.1644
    7CHTO  H218 2550   5.711   2.266   3.105 -0.9471  0.9891 -0.4025
    7CHTO  C116 2551   5.651   2.077   3.014  0.6675  0.1584  0.3171
    7CHTO  H220 2552   5.673   2.041   2.911  0.9707  0.9995  0.0849
    7CHTO   O79 2553   5.720   1.991   3.102 -0.4901  0.7240 -0.1945
    7CHTO  H201 2554   5.801   1.964   3.064 -1.4503 -2.3747 -0.1252
    7CHTO  C120 2555   5.498   2.082   3.051 -0.5444 -0.1059 -0.4437
    7CHTO  H224 2556   5.503   2.105   3.159  1.2838  0.6604 -0.6760
    7CHTO   N21 2557   5.436   1.947   3.020  0.5242 -0.0752 -0.1061
    7CHTO  H211 2558   5.491   1.903   2.938 -1.2340 -2.3524 -0.1049
    7CHTO  H212 2559   5.437   1.873   3.098 -0.5742 -0.0334 -0.0419
    7CHTO   O75 2560   5.845   2.233   2.940 -0.4366  0.7388  0.4336
    7CHTO  C112 2561   5.957   2.203   3.028  0.1671 -0.4682 -1.0910
    7CHTO  H216 2562   5.951   2.100   3.067 -0.8315 -1.5268 -3.9413
    7CHTO   O73 2563   5.957   2.300   3.136  0.6024 -0.3531 -0.1440
    7CHTO  C113 2564   6.054   2.281   3.235  0.6906 -0.3607  0.1473
    7CHTO  H217 2565   6.022   2.182   3.272 -0.8343 -0.5154 -1.4857
    7CHTO  C124 2566   6.044   2.383   3.348 -0.2694  0.1205  0.7918
    7CHTO   O83 2567   6.065   2.313   3.468 -0.2738 -0.1427  0.3882
    7CHTO  H204 2568   5.989   2.335   3.518 -0.7699  1.1901 -0.8984
    7CHTO  C109 2569   6.199   2.283   3.170 -0.3868  0.2649 -0.9733
    7CHTO  H213 2570   6.219   2.386   3.139  0.6751 -1.1225 -5.2863
    7CHTO  C110 2571   6.215   2.191   3.040 -0.0640  0.2506  0.3012
    7CHTO  H214 2572   6.209   2.086   3.069  1.1081 -0.5535 -2.2171
    7CHTO   O78 2573   6.348   2.204   2.984  0.2801 -0.0905  0.0671
    7CHTO  H200 2574   6.380   2.292   2.982  1.2949 -0.4552 -0.2631
    7CHTO  C111 2575   6.095   2.225   2.944  0.1701  0.7361 -0.2991
    7CHTO  H215 2576   6.101   2.333   2.923  0.4918  0.6347 -0.7222
    7CHTO   N19 2577   6.098   2.153   2.808 -0.0688 -0.2187  0.5072
    7CHTO  H207 2578   6.174   2.076   2.812  1.0751  0.9246  1.0618
    7CHTO  H208 2579   6.120   2.223   2.729 -0.2090  0.0123  0.6700
    7CHTO   O74 2580   6.306   2.245   3.258 -0.1606 -0.5965  0.1121
    7CHTO  C115 2581   6.418   2.345   3.253  0.7843  0.5836 -0.1246
    7CHTO  H219 2582   6.417   2.398   3.158  2.7515  0.6170 -0.1445
    7CHTO   O76 2583   6.404   2.451   3.363 -0.4905 -0.0161 -0.3617
    7CHTO  C122 2584   6.410   2.404   3.491 -0.2228  0.2331 -0.0050
    7CHTO  H226 2585   6.325   2.342   3.518 -0.7664  0.8466 -0.2891
    7CHTO  C126 2586   6.401   2.528   3.597 -0.1017  0.4589  0.2432
    7CHTO   O85 2587   6.365   2.489   3.730  0.1552  0.4141  0.0915
    7CHTO  H206 2588   6.272   2.505   3.727  0.4874  2.1230 -1.2266
    7CHTO  C121 2589   6.537   2.318   3.522 -0.1322 -0.3481  0.8415
    7CHTO  H225 2590   6.614   2.395   3.503 -0.4011 -0.3346 -0.2327
    7CHTO   O81 2591   6.530   2.280   3.656 -0.1874  0.4216 -0.2389
    7CHTO  H202 2592   6.513   2.357   3.707  1.4688  0.3646  0.4495
    7CHTO  C119 2593   6.549   2.204   3.415 -0.1436  0.1027  0.1253
    7CHTO  H223 2594   6.643   2.152   3.433 -0.2196 -0.5785 -1.4026
    7CHTO  C117 2595   6.546   2.263   3.266 -0.1607  0.5831 -0.1898
    7CHTO  H221 2596   6.546   2.185   3.189 -0.2756  0.3071  0.0903
    7CHTO   N20 2597   6.663   2.351   3.229 -0.1153 -0.2065 -0.5532
    7CHTO  H209 2598   6.709   2.387   3.319 -0.8066 -2.3246  0.6965
    7CHTO  H210 2599   6.739   2.290   3.181  1.4031  0.8477  0.4810
    7CHTO   O80 2600   6.469   2.098   3.430  0.5161 -0.0511 -0.1086
    7CHTO  C103 2601   6.492   1.965   3.355  0.7351 -0.8755  0.1305
    7CHTO  H190 2602   6.467   1.985   3.251  0.9314 -0.3123  0.1896
    7CHTO  C101 2603   6.628   1.887   3.361  0.4605 -0.3432 -0.0889
    7CHTO  H188 2604   6.673   1.889   3.460 -0.9026  0.7645  0.5347
    7CHTO   O68 2605   6.739   1.966   3.270 -0.8002  0.3534 -0.1201
    7CHTO  H168 2606   6.725   1.941   3.181  0.0154  1.3268 -0.5438
    7CHTO   C99 2607   6.592   1.734   3.330 -0.1514 -0.0987  0.0820
    7CHTO  H186 2608   6.563   1.738   3.223 -0.4996 -0.7451  0.1469
    7CHTO   N17 2609   6.701   1.631   3.331  0.5978 -0.1300  0.3178
    7CHTO  H174 2610   6.765   1.663   3.250 -0.8142 -0.3614 -0.9144
    7CHTO  H175 2611   6.653   1.537   3.306  0.2516  0.0636  0.2499
    7CHTO   C97 2612   6.464   1.677   3.400  0.0529 -0.3482 -0.1463
    7CHTO  H184 2613   6.481   1.674   3.509 -1.7551  2.1954  0.2372
    7CHTO   O64 2614   6.347   1.753   3.367 -0.2065 -0.0452 -0.2200
    7CHTO  C104 2615   6.362   1.885   3.419  0.0034  0.2767 -0.3177
    7CHTO  H191 2616   6.361   1.889   3.528  0.5187 -0.1912 -0.2970
    7CHTO  C108 2617   6.232   1.960   3.375 -0.3476  0.1185 -0.6696
    7CHTO   O71 2618   6.130   1.910   3.460 -0.3048  0.3265 -0.4089
    7CHTO  H171 2619   6.062   1.974   3.463 -2.3165 -1.6008 -2.6146
    7CHTO   O62 2620   6.413   1.557   3.349  0.6149 -0.1841  0.5187
    7CHTO   C91 2621   6.347   1.464   3.437  0.0337  0.0235 -0.4228
    7CHTO  H178 2622   6.301   1.391   3.371 -0.4405  0.3208 -0.4221
    7CHTO   C92 2623   6.218   1.524   3.513 -0.6532  0.0883 -0.5174
    7CHTO  H179 2624   6.262   1.611   3.564 -1.0628  1.1614 -1.9658
    7CHTO   O66 2625   6.133   1.573   3.409  0.3586  0.0150 -0.1620
    7CHTO  H166 2626   6.070   1.509   3.385  1.4223 -2.0224  2.2133
    7CHTO   C93 2627   6.151   1.413   3.604  0.8607 -0.1216 -0.7470
    7CHTO  H180 2628   6.119   1.339   3.529 -0.1928  0.5891 -1.0001
    7CHTO   N16 2629   6.026   1.455   3.674 -0.6751 -0.3494  0.4988
    7CHTO  H172 2630   5.939   1.400   3.643 -1.1316 -0.9421  2.7521
    7CHTO  H173 2631   6.007   1.561   3.666 -0.2382 -0.3279 -0.3633
    7CHTO   C94 2632   6.253   1.351   3.698  0.6785  0.0711 -0.1565
    7CHTO  H181 2633   6.294   1.428   3.764 -0.9918  1.1138 -0.2921
    7CHTO   O61 2634   6.358   1.301   3.615 -0.5414  0.3020  0.4694
    7CHTO   C95 2635   6.437   1.388   3.531  0.8704 -0.6097  0.0808
    7CHTO  H182 2636   6.487   1.463   3.593  0.0123 -1.2719  1.6148
    7CHTO  C106 2637   6.543   1.310   3.449  0.6514  0.3116  0.1991
    7CHTO   O69 2638   6.653   1.294   3.535  0.7173  0.1989  0.4458
    7CHTO  H169 2639   6.631   1.228   3.597  3.0649  1.1955  2.4014
    7CHTO   O63 2640   6.194   1.247   3.772 -0.1239 -0.1502 -0.0765
    7CHTO   C96 2641   6.243   1.245   3.941 -1.0052  0.1505 -0.7408
    7CHTO  H183 2642   6.223   1.344   3.981 -1.8684 -0.5004  0.4723
    7CHTO   C98 2643   6.394   1.192   3.956  0.0203  1.0964  1.2565
    7CHTO  H185 2644   6.461   1.234   3.880 -0.1117  1.0002  1.0872
    7CHTO   O67 2645   6.441   1.251   4.080  0.0035 -0.2362 -0.0887
    7CHTO  H167 2646   6.534   1.262   4.081  0.0822 -0.7936 -0.6198
    7CHTO  C102 2647   6.408   1.029   3.952 -0.1176 -0.2271 -0.0193
    7CHTO  H189 2648   6.508   1.010   3.994 -0.1292  1.7794  0.9974
    7CHTO   N18 2649   6.420   0.975   3.817  0.1776 -0.3130 -0.3243
    7CHTO  H176 2650   6.443   1.047   3.740  0.6830 -1.0736 -0.8951
    7CHTO  H177 2651   6.488   0.892   3.814 -1.1117 -1.5176  2.4612
    7CHTO  C105 2652   6.292   0.967   4.034  0.4702 -0.1961  0.2406
    7CHTO  H192 2653   6.228   0.906   3.970  1.7925 -1.9338  0.5333
    7CHTO   O65 2654   6.197   1.049   4.100  0.4463 -0.0061 -0.5898
    7CHTO  C100 2655   6.140   1.150   4.015 -0.0436 -0.2874  0.4108
    7CHTO  H187 2656   6.095   1.099   3.928  0.1728 -1.0962  0.7687
    7CHTO  C107 2657   6.041   1.234   4.092 -0.2124 -0.4646 -0.0925
    7CHTO   O70 2658   5.935   1.153   4.140  0.3899 -0.1256 -0.2970
    7CHTO  H170 2659   5.964   1.097   4.210 -1.9691 -1.5163 -0.3420
    7CHTO   O57 2660   6.366   0.892   4.127  0.3448  0.3768 -0.2796
    7CHTO   C85 2661   6.382   0.751   4.116  0.0304  0.3832  0.0336
    7CHTO  H157 2662   6.374   0.730   4.007 -0.8742  1.1955 -0.0715
    7CHTO   C83 2663   6.265   0.668   4.178  0.2821  0.1532 -0.0357
    7CHTO  H155 2664   6.175   0.688   4.121  0.5489  2.5209  0.3465
    7CHTO   O56 2665   6.243   0.736   4.302  0.3758  0.7211  0.1438
    7CHTO  H135 2666   6.161   0.781   4.310  0.6935  1.1665  0.9891
    7CHTO   C81 2667   6.298   0.513   4.181 -0.0956  0.7321  0.4706
    7CHTO  H153 2668   6.305   0.480   4.077 -0.0496  2.2506 -0.0162
    7CHTO   N14 2669   6.192   0.430   4.236 -0.0663  0.2609  0.4623
    7CHTO  H141 2670   6.219   0.327   4.247 -2.4503 -0.4195  0.2326
    7CHTO  H142 2671   6.180   0.482   4.329  1.2991  2.8628 -0.7499
    7CHTO   C79 2672   6.436   0.482   4.253  0.2570 -0.6200  0.5872
    7CHTO  H151 2673   6.463   0.381   4.223 -1.9131 -0.9606 -0.3581
    7CHTO   O52 2674   6.532   0.564   4.182 -0.5043 -0.0665  0.5800
    7CHTO   C86 2675   6.522   0.702   4.179 -0.1363 -0.5432 -0.0176
    7CHTO  H158 2676   6.533   0.730   4.285  1.1351 -2.5557  0.4054
    7CHTO   C90 2677   6.630   0.785   4.100 -0.2916  0.3335 -0.1592
    7CHTO   O60 2678   6.761   0.771   4.148  0.0285 -0.4585  0.5830
    7CHTO  H138 2679   6.797   0.857   4.144 -1.2580  0.0487 -0.2219
    7CHTO   O50 2680   6.437   0.512   4.396  0.3988  0.2390 -0.0536
    7CHTO   C73 2681   6.496   0.465   4.517  0.4264  0.0791 -0.2383
    7CHTO  H145 2682   6.602   0.435   4.503  0.9852  2.4443 -1.2416
    7CHTO   C74 2683   6.409   0.347   4.578  0.1140 -0.0242 -0.5201
    7CHTO  H146 2684   6.413   0.263   4.508  0.1704 -0.7887  0.3971
    7CHTO   O54 2685   6.469   0.288   4.691 -0.5263  0.1851 -0.9439
    7CHTO  H133 2686   6.456   0.196   4.693  0.0840  0.1028  0.4764
    7CHTO   C75 2687   6.257   0.399   4.606  0.6513  0.0350 -0.0706
    7CHTO  H147 2688   6.219   0.438   4.510  0.4861 -1.6395 -0.7062
    7CHTO   N13 2689   6.160   0.293   4.653  0.0176 -0.3597 -0.6792
    7CHTO  H139 2690   6.067   0.343   4.674  0.5581  0.1977  0.4376
    7CHTO  H140 2691   6.159   0.190   4.620 -0.2248 -0.4522 -0.3872
    7CHTO   C76 2692   6.261   0.525   4.700  0.1014  0.4097 -0.5582
    7CHTO  H148 2693   6.296   0.494   4.798 -0.7725  3.6150  0.8317
    7CHTO   O49 2694   6.351   0.630   4.646  0.2762  0.2129  0.2668
    7CHTO   C77 2695   6.492   0.591   4.623  0.2283 -0.3204  0.1340
    7CHTO  H149 2696   6.535   0.561   4.719  0.9142  1.4486  0.3981
    7CHTO   C88 2697   6.578   0.707   4.584  0.2356  0.3879  0.0259
    7CHTO   O58 2698   6.722   0.672   4.553  0.2074 -0.4280 -0.7671
    7CHTO  H136 2699   6.766   0.746   4.515 -1.6220  0.5553 -1.0518
    7CHTO   O51 2700   6.125   0.609   4.716  0.1323 -0.3285  0.0831
    7CHTO   C78 2701   6.076   0.631   4.859 -0.6550 -0.5721  0.0726
    7CHTO  H150 2702   6.119   0.571   4.942  2.0391  2.2480  0.8341
    7CHTO   C80 2703   5.927   0.617   4.860 -0.2463  0.3680 -0.2920
    7CHTO  H152 2704   5.881   0.677   4.778 -2.8286 -1.8683 -0.5291
    7CHTO   O55 2705   5.907   0.475   4.836 -0.0370  0.2147  0.2294
    7CHTO  H134 2706   5.891   0.462   4.745  3.6213 -0.0588 -0.4494
    7CHTO   C84 2707   5.866   0.663   5.003  0.5391 -0.0952 -0.2816
    7CHTO  H156 2708   5.921   0.603   5.076  1.1298  1.0763  0.2397
    7CHTO   N15 2709   5.725   0.630   5.007 -0.5609 -0.6039 -0.2551
    7CHTO  H143 2710   5.711   0.524   5.003 -0.7237 -0.6453  0.9661
    7CHTO  H144 2711   5.684   0.670   5.098  0.2949  2.0551 -0.9845
    7CHTO   C87 2712   5.894   0.811   5.022  0.0471  0.0841  0.6572
    7CHTO  H159 2713   5.855   0.886   4.953  0.6488  0.7605  1.0393
    7CHTO   O53 2714   6.048   0.816   5.026  0.1466 -0.2740 -0.0646
    7CHTO   C82 2715   6.108   0.777   4.899  0.3306 -0.2041  0.3325
    7CHTO  H154 2716   6.084   0.844   4.816  1.2301  1.4805  1.4004
    7CHTO   C89 2717   6.258   0.797   4.922  0.5618 -0.0735  0.2544
    7CHTO   O59 2718   6.303   0.933   4.924  0.4077 -0.2726 -0.9164
    7CHTO  H137 2719   6.242   1.000   4.945  0.0535 -1.0856  0.6957
    7CHTO   O45 2720   5.850   0.866   5.166 -0.6547  0.5563 -0.4427
    7CHTO   C67 2721   5.817   1.006   5.166 -0.1534  0.9172 -0.2462
    7CHTO  H124 2722   5.859   1.058   5.080 -0.3466  0.0889 -0.8475
    7CHTO   C65 2723   5.662   1.017   5.152 -0.0706 -0.2252  0.0994
    7CHTO  H122 2724   5.621   0.926   5.196  0.3498 -0.7466 -0.5789
    7CHTO   O44 2725   5.639   1.023   5.010  0.2044  0.2814  0.0484
    7CHTO  H102 2726   5.552   1.056   5.007 -0.8402 -2.2232  1.3985
    7CHTO   C63 2727   5.602   1.122   5.244 -0.2532  0.4720  0.4104
    7CHTO  H120 2728   5.608   1.089   5.348  0.6054  5.0612  1.9481
    7CHTO   N11 2729   5.459   1.144   5.228  1.0149  0.1640  0.6118
    7CHTO  H108 2730   5.442   1.249   5.225  0.5833  0.1144  1.4692
    7CHTO  H109 2731   5.425   1.116   5.130 -1.0830 -0.9751  1.6486
    7CHTO   C61 2732   5.688   1.253   5.239  0.6365 -0.2877  0.2323
    7CHTO  H118 2733   5.647   1.324   5.312  0.2743 -0.5692  0.3033
    7CHTO   O40 2734   5.833   1.223   5.275  1.0074  0.3432 -0.4163
    7CHTO   C68 2735   5.874   1.083   5.291 -0.2839 -0.6733  0.6784
    7CHTO  H125 2736   5.825   1.034   5.378  1.6576  0.6248  2.5355
    7CHTO   C72 2737   6.022   1.093   5.319 -0.6428 -0.1987  0.0854
    7CHTO   O48 2738   6.094   1.136   5.203  0.3738  0.1297 -0.0051
    7CHTO  H105 2739   6.054   1.111   5.122  0.2215 -4.4905  1.3738
    7CHTO   O38 2740   5.695   1.302   5.107 -0.6429  0.2933 -0.1803
    7CHTO   C55 2741   5.721   1.440   5.083 -0.1022  0.2545  0.0067
    7CHTO  H112 2742   5.750   1.489   5.177 -0.2507  2.0126 -0.8425
    7CHTO   C56 2743   5.588   1.495   5.028  0.2635  0.5663  0.1280
    7CHTO  H113 2744   5.560   1.431   4.944 -0.1966 -0.9324  1.4116
    7CHTO   O42 2745   5.484   1.491   5.128 -0.4198  0.4570  0.0615
    7CHTO  H100 2746   5.432   1.413   5.118 -1.5692  1.0608  1.1400
    7CHTO   C57 2747   5.622   1.645   4.979 -0.1428  0.3564  0.0723
    7CHTO  H114 2748   5.643   1.716   5.059 -0.8283  2.4139 -1.5568
    7CHTO   N10 2749   5.503   1.707   4.920  0.3985 -0.1733 -0.3573
    7CHTO  H106 2750   5.492   1.812   4.941 -2.0113 -0.2201 -1.2091
    7CHTO  H107 2751   5.502   1.699   4.813 -0.6320 -1.1873 -0.2880
    7CHTO   C58 2752   5.741   1.643   4.881  0.1899  0.0108  0.2366
    7CHTO  H115 2753   5.717   1.581   4.792  0.1099  1.3811 -0.7143
    7CHTO   O37 2754   5.859   1.583   4.939  0.2854  0.5109  0.1076
    7CHTO   C59 2755   5.837   1.446   4.976 -0.8722 -0.0475  0.5640
    7CHTO  H116 2756   5.806   1.387   4.889  1.7605 -0.7448  0.0354
    7CHTO   C70 2757   5.971   1.395   5.036  0.3837 -0.0293  0.8448
    7CHTO   O46 2758   6.088   1.439   4.970 -0.5621 -0.2064 -0.2578
    7CHTO  H103 2759   6.155   1.374   4.980  0.7430  1.4350  2.1629
    7CHTO   O39 2760   5.785   1.808   4.843  0.0234  0.5808 -0.4065
    7CHTO   C60 2761   5.895   1.810   4.754  0.4975  0.1387 -0.5142
    7CHTO  H117 2762   5.940   1.711   4.746  2.8535  1.1760 -0.4870
    7CHTO   C62 2763   5.839   1.870   4.621 -0.0502  0.0985  0.9954
    7CHTO  H119 2764   5.761   1.796   4.595 -1.5210  1.9141  0.0877
    7CHTO   O43 2765   5.784   2.004   4.630 -0.0474  0.0544 -0.5005
    7CHTO  H101 2766   5.850   2.070   4.642 -0.0691 -0.4206  2.7699
    7CHTO   C66 2767   5.950   1.858   4.504 -0.0137 -0.4232 -0.0145
    7CHTO  H123 2768   5.987   1.756   4.501  0.3703 -0.3395  1.4658
    7CHTO   N12 2769   5.896   1.895   4.366 -0.1019  0.1656 -0.0171
    7CHTO  H110 2770   5.832   1.981   4.363 -0.6166 -0.2545 -2.2287
    7CHTO  H111 2771   5.968   1.882   4.286 -2.5103 -1.8397 -1.9330
    7CHTO   C69 2772   6.074   1.939   4.547  0.3936  0.1040  0.0013
    7CHTO  H126 2773   6.040   2.044   4.538 -2.9994 -0.7971  1.4096
    7CHTO   O41 2774   6.119   1.898   4.693  0.0353  0.1741  0.0856
    7CHTO   C64 2775   6.011   1.899   4.807  0.4767 -0.0978 -0.1156
    7CHTO  H121 2776   5.960   1.996   4.828  0.9523 -0.0669  0.9422
    7CHTO   C71 2777   6.077   1.851   4.934 -0.5817  0.4224  0.5285
    7CHTO   O47 2778   5.995   1.855   5.046 -0.3041 -0.4000  0.2932
    7CHTO  H104 2779   6.009   1.934   5.094  1.2679  0.9037 -2.1683
    7CHTO   O34 2780   6.209   1.910   4.451 -0.4413  0.1241 -0.1688
    7CHTO   C49 2781   6.347   2.006   4.449 -0.3715 -0.4243  0.3459
    7CHTO   H91 2782   6.330   2.084   4.375  0.1377 -0.6296  0.0070
    7CHTO   C47 2783   6.462   1.915   4.412 -0.6091 -0.4520  0.0656
    7CHTO   H89 2784   6.552   1.980   4.405 -2.4493  2.3925  1.3434
    7CHTO   O33 2785   6.437   1.857   4.284 -0.0130  0.0915  0.1171
    7CHTO   H70 2786   6.519   1.860   4.239  0.1359  1.6059  0.4543
    7CHTO   C45 2787   6.486   1.803   4.531  0.6016 -0.3530  0.1673
    7CHTO   H87 2788   6.425   1.716   4.501 -0.1836 -1.4734  4.7422
    7CHTO    N8 2789   6.630   1.769   4.535 -0.7207 -0.7173  0.4386
    7CHTO   H75 2790   6.666   1.753   4.434 -0.3962 -0.0306  0.4405
    7CHTO   H76 2791   6.661   1.697   4.609 -2.4034 -1.7161  0.1964
    7CHTO   C43 2792   6.427   1.860   4.674 -0.2183  0.1028 -0.0628
    7CHTO   H85 2793   6.323   1.833   4.689 -0.1583  1.1765  2.7234
    7CHTO   O29 2794   6.451   1.996   4.692 -0.5344  0.3169  0.6273
    7CHTO   C50 2795   6.386   2.079   4.585  0.7446 -0.6824  0.8030
    7CHTO   H92 2796   6.287   2.098   4.630  0.9952  0.1361  1.0096
    7CHTO   C54 2797   6.454   2.220   4.564  0.0304  0.4531 -0.3794
    7CHTO   O36 2798   6.597   2.189   4.557 -0.1851  0.2954 -0.0226
    7CHTO   H72 2799   6.612   2.114   4.502  0.7595  1.0422 -0.7926
    7CHTO   O27 2800   6.477   1.797   4.794 -0.2280  0.0422  0.0080
    7CHTO   C37 2801   6.509   1.685   4.876 -0.3485 -0.1983  0.2583
    7CHTO   H79 2802   6.455   1.691   4.972  1.2271 -1.0580  1.2255
    7CHTO   C38 2803   6.461   1.551   4.830 -0.3724  0.6413  0.1310
    7CHTO   H80 2804   6.492   1.533   4.726  0.6258  0.6851  0.4159
    7CHTO   O31 2805   6.323   1.560   4.811 -0.1845  0.3538  0.4563
    7CHTO   H68 2806   6.299   1.485   4.760  1.4346  0.7992 -1.0140
    7CHTO   C39 2807   6.504   1.440   4.933  0.4284  0.2531  0.6401
    7CHTO   H81 2808   6.467   1.463   5.033 -0.4234  1.3978  0.0751
    7CHTO    N7 2809   6.464   1.296   4.887  0.5835 -0.2307 -0.2132
    7CHTO   H73 2810   6.488   1.276   4.784  1.2473  0.4341 -0.1922
    7CHTO   H74 2811   6.504   1.222   4.955  0.1972 -0.5500 -0.3287
    7CHTO   C40 2812   6.659   1.449   4.952 -0.3902 -0.5220 -0.4836
    7CHTO   H82 2813   6.711   1.432   4.858 -0.2975 -0.7326 -0.3946
    7CHTO   O26 2814   6.682   1.580   5.003 -0.6946 -0.0103  0.2596
    7CHTO   C41 2815   6.660   1.685   4.908 -0.4397  0.1635  0.3802
    7CHTO   H83 2816   6.717   1.682   4.814  1.4558  1.6685  1.4504
    7CHTO   C52 2817   6.721   1.806   4.980  0.7699  0.2978 -0.1886
    7CHTO   O35 2818   6.862   1.795   5.018  0.2061 -0.1420 -0.9742
    7CHTO   H71 2819   6.874   1.717   5.068 -0.2057  0.5014  0.1342
    7CHTO   O28 2820   6.710   1.360   5.046  0.2645  0.3739 -0.3766
    7CHTO   C42 2821   6.852   1.310   5.048 -0.3110  0.1407 -0.5954
    7CHTO   H84 2822   6.861   1.268   5.148  0.6197 -0.2119 -0.8238
    7CHTO   C44 2823   6.962   1.416   5.025 -0.0229  1.0033 -0.4281
    7CHTO   H86 2824   6.942   1.466   4.930 -0.6381  0.2563 -0.7016
    7CHTO   O32 2825   6.945   1.515   5.132 -0.2587 -0.1747  0.2784
    7CHTO   H69 2826   6.993   1.487   5.208  0.7949 -0.0913 -0.3455
    7CHTO   C48 2827   7.103   1.349   5.029 -0.8774  0.7684  0.1139
    7CHTO   H90 2828   7.117   1.295   5.123  2.7526  1.5145  0.0724
    7CHTO    N9 2829   7.214   1.445   5.016 -0.3116 -0.2339  0.1631
    7CHTO   H77 2830   7.222   1.486   4.917 -2.6454  1.9735  0.8393
    7CHTO   H78 2831   7.309   1.406   5.050 -0.0303  1.8479  1.8845
    7CHTO   C51 2832   7.098   1.242   4.904  0.1561 -0.8533  0.0527
    7CHTO   H93 2833   7.080   1.296   4.811  0.9653  2.5746  1.8125
    7CHTO   O30 2834   6.998   1.142   4.930  0.4984 -0.1711  0.1275
    7CHTO   C46 2835   6.868   1.187   4.943  0.5371 -0.3756  0.4691
    7CHTO   H88 2836   6.843   1.210   4.839 -0.6559 -0.2831  0.7745
    7CHTO   C53 2837   6.770   1.066   4.976  0.5588 -0.7465  0.2993
    7CHTO   O72 2838   6.781   0.977   4.867  1.1045  0.5936  0.3672
    7CHTO  H199 2839   6.718   1.005   4.804 -1.0138 -2.0445  1.2159
    7CHTO   O22 2840   7.229   1.177   4.888  0.9026 -0.4691 -0.0925
    7CHTO   C31 2841   7.273   1.112   4.764  0.1184 -0.5055  0.3386
    7CHTO   H59 2842   7.381   1.094   4.776  0.1814 -0.3174  0.0536
    7CHTO   C29 2843   7.203   0.977   4.739 -0.3839  0.3609  0.4908
    7CHTO   H57 2844   7.094   0.987   4.729 -0.2707  0.4777 -0.6611
    7CHTO   O21 2845   7.232   0.898   4.857  0.0385  0.2074 -0.6511
    7CHTO   H37 2846   7.158   0.841   4.866 -0.7148  1.0763 -1.1873
    7CHTO   C27 2847   7.263   0.905   4.609  0.1883 -0.4043 -0.3122
    7CHTO   H55 2848   7.370   0.882   4.622  0.2417  0.7723  1.6004
    7CHTO    N5 2849   7.192   0.782   4.572  0.7279 -0.3631 -0.4099
    7CHTO   H43 2850   7.254   0.718   4.512 -0.7671  0.0397 -2.4409
    7CHTO   H44 2851   7.173   0.718   4.657 -1.0193 -1.4140 -1.5785
    7CHTO   C25 2852   7.254   1.006   4.490 -0.4764  0.2323 -0.1559
    7CHTO   H53 2853   7.148   1.016   4.460 -0.4182 -2.1542 -1.3223
    7CHTO   O17 2854   7.317   1.135   4.523  0.0577  0.2603 -0.5031
    7CHTO   C32 2855   7.260   1.202   4.633  0.5510  0.4332  0.4357
    7CHTO   H60 2856   7.158   1.234   4.615  1.0554  0.7738 -2.0269
    7CHTO   C36 2857   7.344   1.332   4.655 -0.0355 -0.3537  0.3490
    7CHTO   O25 2858   7.330   1.406   4.531 -0.5706  0.5515 -0.1957
    7CHTO   H40 2859   7.301   1.494   4.543 -2.3710 -0.2678  1.8411
    7CHTO   O15 2860   7.321   0.957   4.372  0.8325  0.0686 -0.1594
    7CHTO   C19 2861   7.301   0.996   4.231 -0.2278  0.4808  0.1814
    7CHTO   H47 2862   7.378   0.942   4.174 -0.7109 -0.8202  0.7500
    7CHTO   C20 2863   7.164   0.953   4.174  0.3312  0.0445 -1.0117
    7CHTO   H48 2864   7.079   0.998   4.227  0.8685 -1.9075  1.5933
    7CHTO   O19 2865   7.160   0.806   4.192  0.1125  0.5841 -0.0114
    7CHTO   H35 2866   7.073   0.782   4.218  1.0899 -0.3508  2.4962
    7CHTO   C21 2867   7.154   0.995   4.021  0.2212  0.5475 -0.2966
    7CHTO   H49 2868   7.214   0.923   3.965 -1.3689 -1.4690  0.5345
    7CHTO    N4 2869   7.021   0.971   3.962  0.1804 -0.2546  0.0090
    7CHTO   H41 2870   6.949   1.012   4.031  0.6598 -0.6445  0.7408
    7CHTO   H42 2871   7.017   1.028   3.870 -2.7397  1.5341  1.1727
    7CHTO   C22 2872   7.199   1.144   4.008  0.6974 -0.8237 -0.0859
    7CHTO   H50 2873   7.131   1.199   4.072 -1.1634 -0.0153 -2.7054
    7CHTO   O14 2874   7.320   1.157   4.068 -0.7346  0.0101 -0.6622
    7CHTO   C23 2875   7.328   1.143   4.205  0.3534 -0.3479  0.0754
    7CHTO   H51 2876   7.250   1.208   4.247  2.0896  1.6912  0.2069
    7CHTO   C34 2877   7.465   1.171   4.271  0.0205 -0.3662  0.2173
    7CHTO   O23 2878   7.503   1.306   4.246 -0.9533 -0.0672  0.2131
    7CHTO   H38 2879   7.591   1.305   4.214 -0.8456  2.0298  0.3589
    7CHTO   O16 2880   7.198   1.189   3.875  0.1112 -0.5361 -0.0203
    7CHTO   C24 2881   7.159   1.340   3.857  0.0533  0.7446  0.2089
    7CHTO   H52 2882   7.134   1.386   3.953 -0.6863 -0.3902  0.5624
    7CHTO   C26 2883   7.034   1.346   3.774 -0.5221 -0.2752 -0.4772
    7CHTO   H54 2884   7.058   1.295   3.678  0.7937 -0.1718 -0.2220
    7CHTO   O20 2885   6.927   1.264   3.822 -0.1644  0.4813 -0.7023
    7CHTO   H36 2886   6.893   1.297   3.903  0.3175 -1.2734  0.2549
    7CHTO   C30 2887   6.986   1.493   3.756 -0.5044 -0.3923 -0.0061
    7CHTO   H58 2888   6.955   1.527   3.856  0.7903 -0.3055  0.3806
    7CHTO    N6 2889   6.869   1.505   3.664  0.3218 -0.6424  0.7320
    7CHTO   H45 2890   6.886   1.480   3.561  2.4531  1.9106  0.4265
    7CHTO   H46 2891   6.821   1.601   3.671  0.0866 -0.6369 -0.8712
    7CHTO   C33 2892   7.106   1.587   3.717  0.0771  0.3337 -0.3825
    7CHTO   H61 2893   7.126   1.571   3.610 -0.0486  1.9334 -0.6460
    7CHTO   O18 2894   7.226   1.567   3.795 -1.1778  0.5071 -0.0581
    7CHTO   C28 2895   7.273   1.430   3.803 -0.8991  0.6668 -0.4810
    7CHTO   H56 2896   7.298   1.404   3.700  0.3430 -2.3408  0.5309
    7CHTO   C35 2897   7.402   1.426   3.892 -0.6517 -0.6044  0.5710
    7CHTO   O24 2898   7.390   1.478   4.024 -0.0751 -0.1922  1.0480
    7CHTO   H39 2899   7.361   1.567   4.013 -1.2100 -0.7475 -0.6014
    7CHTO    O9 2900   7.061   1.725   3.729 -0.6214  0.2898  0.4496
    7CHTO   C13 2901   7.078   1.821   3.606  0.0224 -0.2129  0.3084
    7CHTO   H26 2902   7.039   1.771   3.515  1.3093  0.4886 -0.6583
    7CHTO   C11 2903   7.227   1.861   3.592 -0.5818  0.0236 -0.9882
    7CHTO   H24 2904   7.286   1.792   3.529 -0.8399 -0.6579 -0.4918
    7CHTO    O8 2905   7.290   1.858   3.723  0.0943  0.5361 -0.0435
    7CHTO    H3 2906   7.246   1.905   3.792  0.2886 -1.8865  1.7853
    7CHTO    C9 2907   7.243   2.002   3.537  0.3734 -0.5783  0.0478
    7CHTO   H22 2908   7.182   2.005   3.445  0.5859 -1.0860 -0.1148
    7CHTO    N2 2909   7.388   2.036   3.500  0.0556 -0.4763 -0.1343
    7CHTO   H10 2910   7.408   2.140   3.480 -0.3104 -0.3714  0.0400
    7CHTO   H11 2911   7.415   1.973   3.416 -2.3617  0.2070 -1.4540
    7CHTO    C7 2912   7.186   2.106   3.635 -0.8146  0.3605 -0.6840
    7CHTO   H20 2913   7.166   2.195   3.572  1.0994  0.4071 -1.2436
    7CHTO    O4 2914   7.064   2.064   3.699 -0.7927 -0.2621 -0.0931
    7CHTO   C14 2915   6.993   1.959   3.628  0.0510 -0.2217 -0.1223
    7CHTO   H27 2916   6.968   1.995   3.526  0.6323 -0.2153 -0.2663
    7CHTO   C18 2917   6.858   1.933   3.702  0.4256  0.0072  0.1353
    7CHTO   O13 2918   6.792   2.054   3.729  0.4054  0.0559 -0.3435
    7CHTO    H7 2919   6.737   2.081   3.658  1.6864 -0.7216 -1.6470
    7CHTO    O2 2920   7.298   2.151   3.755  0.8008  0.0006 -0.3378
    7CHTO    C1 2921   7.271   2.277   3.815  0.8759  0.0738 -0.1042
    7CHTO   H14 2922   7.163   2.298   3.808  0.4994 -1.5216  0.5975
    7CHTO    C2 2923   7.351   2.399   3.761  0.0245 -0.3791  0.3512
    7CHTO   H15 2924   7.458   2.374   3.770  0.3079  0.8561  0.3697
    7CHTO    O6 2925   7.321   2.413   3.618 -0.0806 -0.9596  0.2998
    7CHTO    H1 2926   7.245   2.465   3.598  0.6881 -0.3791 -1.2493
    7CHTO    C3 2927   7.315   2.535   3.840 -0.2701 -1.0450 -0.9028
    7CHTO   H16 2928   7.215   2.572   3.814 -0.7647  0.1439  2.4651
    7CHTO    N1 2929   7.407   2.644   3.811 -0.0237 -0.3343 -0.0786
    7CHTO    H8 2930   7.352   2.732   3.782 -2.7229 -1.2228  2.1122
    7CHTO    H9 2931   7.468   2.665   3.898  1.8601 -1.9501 -0.9583
    7CHTO    C4 2932   7.308   2.498   3.996 -0.2060 -0.3898  0.7458
    7CHTO   H17 2933   7.411   2.493   4.032  0.9955 -1.3316 -2.6959
    7CHTO    O1 2934   7.236   2.380   4.031  0.5021 -0.2389 -0.6968
    7CHTO    C5 2935   7.287   2.263   3.977 -0.1329 -0.0212 -0.0017
    7CHTO   H18 2936   7.388   2.237   4.009  0.2595 -1.7075 -2.4855
    7CHTO   C16 2937   7.199   2.146   4.022  0.3080 -1.0470 -0.3155
    7CHTO   O11 2938   7.211   2.110   4.165 -0.0292 -0.2693 -0.4283
    7CHTO    H5 2939   7.208   2.185   4.221  4.5460 -1.4138  1.5792
    7CHTO    O3 2940   7.231   2.598   4.067  0.0033 -0.5450 -0.4260
    7CHTO    C6 2941   7.296   2.695   4.144  0.8923 -0.3774  0.0678
    7CHTO   H19 2942   7.402   2.689   4.120  0.0901 -1.3132 -3.5709
    7CHTO    C8 2943   7.237   2.840   4.128 -0.7286  0.3380  0.3757
    7CHTO   H21 2944   7.137   2.843   4.171 -0.2004  0.6738  1.6181
    7CHTO    O7 2945   7.239   2.885   3.986 -0.3233  0.1586 -0.3109
    7CHTO    H2 2946   7.162   2.871   3.935 -0.6244 -1.1386  0.4878
    7CHTO   C12 2947   7.315   2.956   4.216 -0.0372  0.5680 -0.1977
    7CHTO   H25 2948   7.414   2.973   4.169  1.1932  2.2836  2.8112
    7CHTO    N3 2949   7.253   3.091   4.212  0.3711  0.8792 -0.2504
    7CHTO   H12 2950   7.299   3.158   4.141  0.6243 -0.0573 -0.9788
    7CHTO   H13 2951   7.152   3.072   4.179  0.7008 -0.5270 -0.4911
    7CHTO   C15 2952   7.336   2.904   4.367  0.5849  0.5486  0.5521
    7CHTO   H28 2953   7.244   2.905   4.426  0.5008 -1.5079  0.4951
    7CHTO   O10 2954   7.455   2.990   4.437  0.1083  0.3395 -0.1883
    7CHTO    H4 2955   7.540   2.953   4.451  0.3080  1.0873  0.5951
    7CHTO    O5 2956   7.377   2.765   4.377  0.9116 -0.7099 -0.0868
    7CHTO   C10 2957   7.285   2.673   4.301  0.8317  0.2408 -0.0669
    7CHTO   H23 2958   7.182   2.693   4.330  0.6222 -0.7194 -0.1454
    7CHTO   C17 2959   7.304   2.527   4.340  0.3152 -1.1416  0.2468
    7CHTO   O12 2960   7.305   2.528   4.481  0.3923 -0.1164  0.2873
    7CHTO    H6 2961   7.264   2.454   4.522 -2.2577  1.9512  1.6095
    8CHTO  H203 2962   7.827   6.616   0.303 -0.2784 -0.3987  0.1599
    8CHTO   O82 2963   7.825   6.709   0.313  0.2336 -0.3843  0.1223
    8CHTO  C123 2964   7.753   6.735   0.435 -0.0414  0.0753 -0.0212
    8CHTO  H227 2965   7.792   6.666   0.511  0.6312 -0.7681 -1.1110
    8CHTO   O77 2966   7.789   6.872   0.469 -0.9087 -0.2655 -0.4191
    8CHTO  C118 2967   7.732   6.913   0.598  0.7835 -0.1675  0.2661
    8CHTO  H222 2968   7.760   6.847   0.682  0.6203 -1.2806 -0.5383
    8CHTO  C125 2969   7.778   7.065   0.624 -0.9926 -0.1606  0.5877
    8CHTO   O84 2970   7.743   7.158   0.520  0.0994  0.5910 -0.4432
    8CHTO  H205 2971   7.656   7.154   0.483 -0.2610 -0.9976  0.5421
    8CHTO  C114 2972   7.579   6.921   0.597 -0.1348 -0.0546  0.3964
    8CHTO  H218 2973   7.545   6.982   0.513  0.7707 -0.8551 -0.5617
    8CHTO  C116 2974   7.527   6.777   0.556 -0.2470  0.2430  0.1464
    8CHTO  H220 2975   7.558   6.707   0.636 -0.4827  0.3521  0.3338
    8CHTO   O79 2976   7.382   6.797   0.546 -0.6255  0.5986 -0.0046
    8CHTO  H201 2977   7.336   6.716   0.542 -0.9672  0.5429  3.2894
    8CHTO  C120 2978   7.595   6.729   0.422 -0.3034  0.6104 -0.0065
    8CHTO  H224 2979   7.567   6.795   0.337 -2.6458 -0.8758 -0.4415
    8CHTO   N21 2980   7.542   6.593   0.398 -0.4638 -0.1183 -0.8429
    8CHTO  H211 2981   7.603   6.517   0.351  0.9456  0.8002 -0.5447
    8CHTO  H212 2982   7.445   6.589   0.352 -0.7678  0.1578 -0.2302
    8CHTO   O75 2983   7.523   6.965   0.726  0.3721 -0.5989  0.4062
    8CHTO  C112 2984   7.387   7.059   0.696 -0.2413  0.2249  0.3322
    8CHTO  H216 2985   7.321   7.017   0.618 -0.0677  1.5262 -0.5361
    8CHTO   O73 2986   7.430   7.190   0.655 -0.2222 -0.1526  0.0593
    8CHTO  C113 2987   7.321   7.277   0.630 -0.2633  0.7468 -0.3062
    8CHTO  H217 2988   7.247   7.227   0.564 -0.4777  0.0943  0.4252
    8CHTO  C124 2989   7.382   7.396   0.561  0.4865  0.6236  1.0572
    8CHTO   O83 2990   7.455   7.359   0.447 -0.8602  0.2535 -0.1346
    8CHTO  H204 2991   7.509   7.430   0.421 -0.0826  0.2250  1.3582
    8CHTO  C109 2992   7.246   7.310   0.764 -0.1847  0.7901 -0.3041
    8CHTO  H213 2993   7.321   7.357   0.829  1.0386 -1.2219 -0.2152
    8CHTO  C110 2994   7.198   7.175   0.833  0.1649 -0.5190  0.0704
    8CHTO  H214 2995   7.104   7.153   0.784  0.2416 -0.3671 -0.1478
    8CHTO   O78 2996   7.154   7.201   0.966 -0.2945 -0.0557  0.3039
    8CHTO  H200 2997   7.218   7.246   1.019  0.2050 -0.6462  0.2043
    8CHTO  C111 2998   7.307   7.062   0.829  0.2694 -0.3172  0.2665
    8CHTO  H215 2999   7.388   7.088   0.899  1.0737 -0.7198 -0.5005
    8CHTO   N19 3000   7.251   6.929   0.868  0.3790 -0.4201  0.6359
    8CHTO  H207 3001   7.180   6.896   0.793  0.8838 -1.4361  0.6003
    8CHTO  H208 3002   7.197   6.929   0.962 -1.3739  1.7249 -0.3407
    8CHTO   O74 3003   7.141   7.400   0.743 -0.5312  0.3964 -0.6860
    8CHTO  C115 3004   7.116   7.513   0.849  0.5238 -0.0041 -0.3019
    8CHTO  H219 3005   7.018   7.503   0.896  0.6126 -0.4041 -0.1906
    8CHTO   O76 3006   7.216   7.511   0.970  0.1006  0.6991 -0.1547
    8CHTO  C122 3007   7.208   7.619   1.067  0.0532 -0.5204  0.0084
    8CHTO  H226 3008   7.294   7.607   1.133 -0.8388 -1.2669  1.0563
    8CHTO  C126 3009   7.082   7.593   1.160  0.2539  0.5075  0.4488
    8CHTO   O85 3010   7.065   7.698   1.248  0.2891 -0.1396 -0.3464
    8CHTO  H206 3011   6.993   7.678   1.305  1.1928 -0.8458  0.5601
    8CHTO  C121 3012   7.205   7.759   1.001  0.4291  0.1350  0.1010
    8CHTO  H225 3013   7.179   7.839   1.073  1.1998  0.9769 -0.5426
    8CHTO   O81 3014   7.337   7.804   0.969 -0.1871 -0.1671 -0.7060
    8CHTO  H202 3015   7.335   7.879   0.913  0.4549 -0.6824 -1.4222
    8CHTO  C119 3016   7.106   7.764   0.880 -0.5053  0.2749  0.5200
    8CHTO  H223 3017   7.006   7.761   0.922 -1.8090 -1.6775 -2.5670
    8CHTO  C117 3018   7.118   7.648   0.773  0.2086  0.2990 -0.5539
    8CHTO  H221 3019   7.213   7.650   0.720  0.8747  2.7518  0.6642
    8CHTO   N20 3020   7.008   7.654   0.672 -0.1370 -0.6607  0.8074
    8CHTO  H209 3021   7.011   7.580   0.593  0.8590 -0.5852  0.7712
    8CHTO  H210 3022   7.019   7.752   0.630 -1.4205 -0.5803  0.6341
    8CHTO   O80 3023   7.102   7.907   0.817 -0.1692 -0.0711  0.1417
    8CHTO  C103 3024   7.055   8.017   0.896 -0.1145 -0.1269  0.0862
    8CHTO  H190 3025   7.006   7.985   0.988 -1.3659  0.3791 -0.4066
    8CHTO  C101 3026   7.157   8.137   0.932  0.3350 -0.2973 -0.4715
    8CHTO  H188 3027   7.229   8.145   0.850  0.8548 -0.6473 -0.0483
    8CHTO   O68 3028   7.251   8.081   1.056 -0.4590  0.4700  0.7001
    8CHTO  H168 3029   7.202   8.054   1.131 -2.0123  0.3794 -0.3296
    8CHTO   C99 3030   7.096   8.269   0.982 -0.1207 -0.1407 -0.7267
    8CHTO  H186 3031   7.035   8.254   1.074 -0.3382 -0.2854 -0.8938
    8CHTO   N17 3032   7.190   8.371   1.025 -0.1396  0.1155 -0.4706
    8CHTO  H174 3033   7.239   8.328   1.111 -3.0646 -0.0452  1.1596
    8CHTO  H175 3034   7.257   8.410   0.950  0.2536 -1.1601 -0.7845
    8CHTO   C97 3035   6.996   8.312   0.872  0.0942 -0.3381  0.4293
    8CHTO  H184 3036   7.052   8.339   0.781 -3.0184 -0.9996 -1.7661
    8CHTO   O64 3037   6.901   8.209   0.844  0.0275 -0.6905  0.4606
    8CHTO  C104 3038   6.946   8.081   0.797 -0.2549 -0.7620  0.1876
    8CHTO  H191 3039   6.991   8.099   0.700  1.2079  0.2984  1.0461
    8CHTO  C108 3040   6.831   7.986   0.782  0.5344  0.5357  0.2190
    8CHTO   O71 3041   6.739   8.040   0.680  0.0816  0.5662 -0.3945
    8CHTO  H171 3042   6.797   8.051   0.607  1.6351  0.5882  0.8050
    8CHTO   O62 3043   6.903   8.410   0.917 -0.1379  0.2151  0.4285
    8CHTO   C91 3044   6.909   8.537   0.851  0.5475 -0.0528  0.7144
    8CHTO  H178 3045   7.012   8.568   0.832 -0.5727  3.0310 -0.4964
    8CHTO   C92 3046   6.845   8.636   0.952  0.4484 -0.4966 -0.6937
    8CHTO  H179 3047   6.741   8.610   0.975  0.2113  2.0996  1.3007
    8CHTO   O66 3048   6.926   8.631   1.074  0.1393 -0.1426  0.3053
    8CHTO  H166 3049   6.890   8.684   1.143  3.2447  0.4345  1.5498
    8CHTO   C93 3050   6.848   8.790   0.904 -0.3706 -0.0926  0.1383
    8CHTO  H180 3051   6.952   8.824   0.897 -0.3825  0.4159  2.1523
    8CHTO   N16 3052   6.778   8.875   1.000  0.1477 -0.0544 -0.1641
    8CHTO  H172 3053   6.680   8.896   0.959 -0.6838 -0.3217  1.6479
    8CHTO  H173 3054   6.830   8.966   1.024  0.0944  0.8013 -3.0841
    8CHTO   C94 3055   6.784   8.797   0.759  0.4535 -0.0365  0.3954
    8CHTO  H181 3056   6.675   8.784   0.762  0.4655 -0.3075 -0.2882
    8CHTO   O61 3057   6.837   8.692   0.676 -0.5139  0.1628 -0.6662
    8CHTO   C95 3058   6.825   8.556   0.730  0.7259 -0.2849 -0.7044
    8CHTO  H182 3059   6.719   8.545   0.757  0.7083  0.7297 -0.3370
    8CHTO  C106 3060   6.846   8.463   0.604 -0.5179 -0.0392  0.9250
    8CHTO   O69 3061   6.985   8.454   0.570 -0.2175 -0.2389  0.0239
    8CHTO  H169 3062   6.993   8.375   0.521 -0.4885 -0.1879 -0.0978
    8CHTO   O63 3063   6.829   8.931   0.689  0.4332 -0.7041 -0.2670
    8CHTO   C96 3064   6.758   8.957   0.548  0.8144  0.2906 -0.4499
    8CHTO  H183 3065   6.691   8.877   0.517 -0.3095  1.0739 -0.1019
    8CHTO   C98 3066   6.854   8.975   0.435 -0.1413  0.2078  0.1634
    8CHTO  H185 3067   6.929   9.049   0.465 -0.7568  0.5302  0.9280
    8CHTO   O67 3068   6.928   8.849   0.423 -0.3234  0.4127 -0.9121
    8CHTO  H167 3069   6.975   8.852   0.342  1.7041  0.4002  0.2293
    8CHTO  C102 3070   6.776   9.002   0.292 -0.1508  0.1129 -0.1394
    8CHTO  H189 3071   6.703   8.922   0.270  0.1121 -0.6603  1.7211
    8CHTO   N18 3072   6.856   9.018   0.167 -0.1868  0.2764  0.4263
    8CHTO  H176 3073   6.813   8.955   0.091 -1.1514  2.8776 -1.2519
    8CHTO  H177 3074   6.961   8.997   0.178  0.0348  1.5674  0.8842
    8CHTO  C105 3075   6.682   9.125   0.320  0.1894  0.0774  0.4184
    8CHTO  H192 3076   6.739   9.218   0.327 -0.4520  0.3826  1.6606
    8CHTO   O65 3077   6.595   9.104   0.435  0.8435  0.1364  0.2172
    8CHTO  C100 3078   6.665   9.085   0.555 -0.5273 -0.3535  0.0725
    8CHTO  H187 3079   6.737   9.168   0.566  0.8043 -1.3430 -1.0228
    8CHTO  C107 3080   6.587   9.073   0.682  0.5215 -0.4348  0.1565
    8CHTO   O70 3081   6.478   9.163   0.691 -0.5224 -0.0960  0.2980
    8CHTO  H170 3082   6.482   9.203   0.776 -0.0373  0.7778 -0.1243
    8CHTO   O57 3083   6.582   9.126   0.187 -0.3032  0.3586 -0.5229
    8CHTO   C85 3084   6.573   9.253   0.113  0.2177 -0.3943  0.2183
    8CHTO  H157 3085   6.673   9.291   0.086  0.8993 -1.8215  0.7136
    8CHTO   C83 3086   6.512   9.368   0.200 -0.7986  0.1519  0.0284
    8CHTO  H155 3087   6.585   9.387   0.279 -2.4546  1.8230  1.2217
    8CHTO   O56 3088   6.394   9.317   0.268 -0.4809  0.4592  0.5822
    8CHTO  H135 3089   6.327   9.281   0.213  0.4989 -0.5625  0.0369
    8CHTO   C81 3090   6.484   9.496   0.116  0.2617  1.0833 -0.2015
    8CHTO  H153 3091   6.574   9.522   0.061 -0.0836  1.8490 -0.4154
    8CHTO   N14 3092   6.454   9.619   0.193 -0.2664  0.7469 -0.0090
    8CHTO  H141 3093   6.532   9.692   0.186  0.9910 -0.6077 -0.2827
    8CHTO  H142 3094   6.428   9.604   0.296  0.6528  1.2796  0.3015
    8CHTO   C79 3095   6.380   9.456   0.008 -0.1379  0.0736  0.2060
    8CHTO  H151 3096   6.369   9.546  -0.053  1.5402  2.2350  3.0186
    8CHTO   O52 3097   6.430   9.356  -0.078 -0.4471  0.5808 -0.8548
    8CHTO   C86 3098   6.481   9.231  -0.016  0.0521 -0.0157  0.2000
    8CHTO  H158 3099   6.385   9.180   0.008 -0.6662  2.1427  2.1577
    8CHTO   C90 3100   6.544   9.137  -0.119 -0.0775  0.5109 -0.2748
    8CHTO   O60 3101   6.618   9.222  -0.213 -0.8544  0.1246 -0.2899
    8CHTO  H138 3102   6.707   9.231  -0.187 -1.3956 -0.5103  1.9007
    8CHTO   O50 3103   6.247   9.410   0.059 -0.5767  0.2024 -0.2678
    8CHTO   C73 3104   6.107   9.425   0.052  0.4331 -1.0250  0.0946
    8CHTO  H145 3105   6.076   9.418  -0.053  2.5098 -2.6975 -0.4562
    8CHTO   C74 3106   6.071   9.566   0.119 -0.4766 -0.2618  0.0185
    8CHTO  H146 3107   6.124   9.642   0.060 -1.5611  0.6539  0.2084
    8CHTO   O54 3108   5.933   9.593   0.086  0.4882 -0.2591  0.5664
    8CHTO  H133 3109   5.926   9.623  -0.003  1.7187 -1.0529  0.1786
    8CHTO   C75 3110   6.094   9.580   0.269  0.4103  0.0523  0.0309
    8CHTO  H147 3111   6.202   9.581   0.290  0.7667  2.0342 -1.7643
    8CHTO   N13 3112   6.042   9.708   0.326  0.1773  0.0783  0.2383
    8CHTO  H139 3113   6.122   9.779   0.340  2.2881 -2.3634  1.0243
    8CHTO  H140 3114   5.966   9.747   0.260  2.0505  2.3607 -0.6433
    8CHTO   C76 3115   6.040   9.452   0.348  0.1061 -0.7007  0.0924
    8CHTO  H148 3116   5.933   9.465   0.364 -0.0244  0.2491 -1.4629
    8CHTO   O49 3117   6.068   9.321   0.271  0.1466  0.8345 -0.8119
    8CHTO   C77 3118   6.032   9.316   0.132 -0.2940 -0.8129  0.3789
    8CHTO  H149 3119   5.926   9.320   0.107  0.3865  3.6764 -2.3259
    8CHTO   C88 3120   6.078   9.175   0.078 -0.2955 -0.6251 -0.1963
    8CHTO   O58 3121   6.071   9.162  -0.059  0.0987 -0.3506  0.1358
    8CHTO  H136 3122   6.095   9.075  -0.084  0.4525  0.4198 -2.3519
    8CHTO   O51 3123   6.121   9.433   0.481  0.0169 -0.2796  0.2912
    8CHTO   C78 3124   6.055   9.337   0.565 -0.3279  0.5158  0.5809
    8CHTO  H150 3125   5.966   9.289   0.519 -1.0440  0.4104  2.0233
    8CHTO   C80 3126   6.014   9.408   0.695 -0.1553  0.1386  0.7317
    8CHTO  H152 3127   6.102   9.436   0.756 -0.0020 -1.1791  1.1447
    8CHTO   O55 3128   5.934   9.520   0.665 -0.3770 -0.0415  0.1992
    8CHTO  H134 3129   5.933   9.575   0.742 -2.2633 -1.3224  1.1255
    8CHTO   C84 3130   5.926   9.304   0.779 -0.0189  0.7242  0.5298
    8CHTO  H156 3131   5.841   9.270   0.720  0.4710 -0.3963  0.4596
    8CHTO   N15 3132   5.864   9.364   0.902 -0.0650  0.2222  0.1842
    8CHTO  H143 3133   5.807   9.296   0.962 -0.1502  1.2084  1.2460
    8CHTO  H144 3134   5.933   9.422   0.960  1.1117 -0.0721 -0.9088
    8CHTO   C87 3135   6.019   9.190   0.819  0.5920  0.3033  0.2487
    8CHTO  H159 3136   6.098   9.212   0.890  0.5337 -1.9437  1.0661
    8CHTO   O53 3137   6.077   9.129   0.694  0.2716 -0.1432  0.1495
    8CHTO   C82 3138   6.146   9.219   0.602 -0.4924 -0.1698  0.1734
    8CHTO  H154 3139   6.239   9.250   0.651  0.6140  0.4999 -2.2387
    8CHTO   C89 3140   6.189   9.128   0.479 -0.2732  0.6340  0.6215
    8CHTO   O59 3141   6.272   9.022   0.522  0.4437 -0.1243 -0.3984
    8CHTO  H137 3142   6.234   8.982   0.598  0.2104  0.1657 -0.3604
    8CHTO   O45 3143   5.946   9.062   0.884  0.1699 -0.3075 -0.0096
    8CHTO   C67 3144   6.029   8.950   0.915  0.1070 -0.2516  0.5867
    8CHTO  H124 3145   6.117   8.952   0.851 -0.0690  0.0264  0.3490
    8CHTO   C65 3146   6.072   8.947   1.068  0.0257 -0.2714  0.0641
    8CHTO  H122 3147   5.991   9.002   1.117  0.1534 -1.1716  1.2995
    8CHTO   O44 3148   6.193   9.026   1.072 -0.2959 -0.0031 -0.2883
    8CHTO  H102 3149   6.251   8.981   1.014  1.0501  0.3367  0.7725
    8CHTO   C63 3150   6.068   8.806   1.137 -0.2018  0.0576 -0.6167
    8CHTO  H120 3151   5.964   8.776   1.151  0.6273 -2.7083 -0.1849
    8CHTO   N11 3152   6.121   8.792   1.281 -0.3102  0.0337 -0.9780
    8CHTO  H108 3153   6.072   8.712   1.331 -1.0214  0.3674 -1.1444
    8CHTO  H109 3154   6.228   8.783   1.287  0.0948  3.5159 -1.7647
    8CHTO   C61 3155   6.124   8.697   1.038 -1.0506  1.0829 -0.2026
    8CHTO  H118 3156   6.082   8.603   1.077 -1.2627  1.2435 -0.0399
    8CHTO   O40 3157   6.079   8.715   0.907  0.3392  0.4355  0.0354
    8CHTO   C68 3158   5.975   8.814   0.873  0.1705  0.3426  0.4907
    8CHTO  H125 3159   5.882   8.799   0.932  0.6201 -1.2091  0.8388
    8CHTO   C72 3160   5.936   8.795   0.726 -0.7986  0.1510 -0.1625
    8CHTO   O48 3161   5.815   8.856   0.691  0.0328  0.3872 -0.1860
    8CHTO  H105 3162   5.825   8.946   0.716 -0.8271 -0.2671  2.6889
    8CHTO   O38 3163   6.273   8.699   1.026  0.1596  0.6429 -0.0864
    8CHTO   C55 3164   6.331   8.576   0.985  0.6168 -0.3781 -0.2288
    8CHTO  H112 3165   6.258   8.521   0.923 -1.5450  0.1737  1.7769
    8CHTO   C56 3166   6.383   8.482   1.101  0.0189  0.4265  0.0972
    8CHTO  H113 3167   6.451   8.548   1.157 -1.3911  0.4674  1.8032
    8CHTO   O42 3168   6.273   8.466   1.190 -0.2484  0.1980  0.6449
    8CHTO  H100 3169   6.272   8.525   1.263  0.6701  0.7469  0.2282
    8CHTO   C57 3170   6.438   8.347   1.035  0.5800  0.0119 -0.6342
    8CHTO  H114 3171   6.352   8.295   0.994  1.3176 -0.4221 -1.6483
    8CHTO   N10 3172   6.497   8.245   1.130  0.0936  0.0056  0.4574
    8CHTO  H106 3173   6.420   8.184   1.175 -2.2902  2.5292 -0.0543
    8CHTO  H107 3174   6.544   8.298   1.211  0.8861  0.5915 -0.3665
    8CHTO   C58 3175   6.543   8.379   0.921  0.2031 -0.2382 -0.5666
    8CHTO  H115 3176   6.640   8.409   0.966  1.1467 -0.5226 -2.3761
    8CHTO   O37 3177   6.496   8.480   0.821 -0.1015 -0.4343 -0.7343
    8CHTO   C59 3178   6.441   8.603   0.876 -0.6229  0.4276  1.1323
    8CHTO  H116 3179   6.528   8.655   0.917 -0.1334 -0.3277  1.0585
    8CHTO   C70 3180   6.384   8.683   0.757 -0.1674  0.1239 -0.3339
    8CHTO   O46 3181   6.324   8.804   0.792 -0.5817 -0.0041  0.0126
    8CHTO  H103 3182   6.395   8.864   0.783  1.9792 -2.9869 -0.6399
    8CHTO   O39 3183   6.567   8.231   0.813  0.0212 -0.7504  0.1509
    8CHTO   C60 3184   6.459   8.210   0.717 -0.8852 -0.0991 -0.1219
    8CHTO  H117 3185   6.373   8.261   0.761 -2.4226 -1.1357 -1.8403
    8CHTO   C62 3186   6.489   8.270   0.578 -0.7474 -0.1809 -0.1193
    8CHTO  H119 3187   6.525   8.375   0.587 -0.5396 -0.2118 -0.6105
    8CHTO   O43 3188   6.599   8.197   0.517 -0.0947  0.2535  0.2148
    8CHTO  H101 3189   6.604   8.215   0.426  0.3875  1.8069  0.5421
    8CHTO   C66 3190   6.356   8.274   0.501 -0.0329 -0.4455 -1.1189
    8CHTO  H123 3191   6.285   8.344   0.545  0.4694 -0.0855 -0.8896
    8CHTO   N12 3192   6.368   8.326   0.361 -0.0538  0.0272 -0.0442
    8CHTO  H110 3193   6.271   8.356   0.325  0.4445 -0.4045 -1.8181
    8CHTO  H111 3194   6.442   8.404   0.349  0.3066 -0.1748  0.8062
    8CHTO   C69 3195   6.295   8.135   0.488  0.2664 -0.2592 -0.2576
    8CHTO  H126 3196   6.358   8.071   0.422 -1.4049 -0.8208 -1.3614
    8CHTO   O41 3197   6.292   8.063   0.634 -0.3953 -0.2999  0.7726
    8CHTO   C64 3198   6.416   8.063   0.700  0.4249  0.0217  0.8349
    8CHTO  H121 3199   6.489   8.002   0.643 -1.2163 -0.0887 -1.2336
    8CHTO   C71 3200   6.397   7.985   0.830  0.3092  0.0488  0.1628
    8CHTO   O47 3201   6.292   8.036   0.908  0.5270 -0.4083  0.6097
    8CHTO  H104 3202   6.292   7.984   0.985 -1.0794 -0.4143  0.6300
    8CHTO   O34 3203   6.138   8.123   0.416 -0.2005  0.1349 -0.0021
    8CHTO   C49 3204   5.984   8.167   0.448  0.2499  0.0886  1.2237
    8CHTO   H91 3205   5.934   8.168   0.351 -0.7298  0.2352  1.7200
    8CHTO   C47 3206   5.980   8.314   0.504  0.2000  0.3162 -0.2456
    8CHTO   H89 3207   5.872   8.338   0.499  0.2807  0.8123  0.3433
    8CHTO   O33 3208   6.052   8.404   0.416  0.1469 -0.2395 -0.1573
    8CHTO   H70 3209   6.047   8.494   0.445  3.2502  0.6849 -2.2322
    8CHTO   C45 3210   6.031   8.315   0.656  0.0966 -0.0666 -0.1740
    8CHTO   H87 3211   6.130   8.266   0.652  0.2587  0.3744 -1.9986
    8CHTO    N8 3212   6.042   8.447   0.723 -0.0223  0.4123  0.0996
    8CHTO   H75 3213   6.009   8.437   0.826 -2.8342 -1.2165 -0.8934
    8CHTO   H76 3214   6.143   8.483   0.718 -0.3518  1.0156 -2.8512
    8CHTO   C43 3215   5.935   8.214   0.747 -1.0439  0.3990  0.3650
    8CHTO   H85 3216   5.977   8.212   0.847  2.7049 -1.6300 -1.1481
    8CHTO   O29 3217   5.936   8.080   0.687 -0.0572 -0.8430 -0.5587
    8CHTO   C50 3218   5.914   8.066   0.548  0.2513  0.1281 -0.0605
    8CHTO   H92 3219   5.957   7.969   0.520  2.1432  1.4529 -1.9283
    8CHTO   C54 3220   5.758   8.059   0.518 -0.5188  0.2891  0.3103
    8CHTO   O36 3221   5.696   7.957   0.591  0.3362 -0.1611  0.6737
    8CHTO   H72 3222   5.616   7.989   0.629  0.5691  0.5032  0.6055
    8CHTO   O27 3223   5.800   8.258   0.763 -0.2404 -0.4455  0.0238
    8CHTO   C37 3224   5.696   8.324   0.830 -0.1800  0.4827  0.6535
    8CHTO   H79 3225   5.625   8.264   0.889 -1.5648  2.7540  1.3866
    8CHTO   C38 3226   5.755   8.431   0.920  0.1934  0.5195  0.0811
    8CHTO   H80 3227   5.811   8.502   0.857 -0.1945  0.9351  0.2010
    8CHTO   O31 3228   5.844   8.377   1.023  0.0665  0.4058 -0.2737
    8CHTO   H68 3229   5.798   8.323   1.084 -0.0716 -0.3883 -1.0892
    8CHTO   C39 3230   5.642   8.521   0.988 -0.6841 -0.7060  0.2133
    8CHTO   H81 3231   5.578   8.449   1.040  0.3029 -1.4562  0.3956
    8CHTO    N7 3232   5.684   8.620   1.097 -0.0532  0.1831  0.2895
    8CHTO   H73 3233   5.737   8.701   1.049 -0.0446 -0.2271 -0.4016
    8CHTO   H74 3234   5.605   8.661   1.158 -0.4690  0.3625 -0.3602
    8CHTO   C40 3235   5.546   8.575   0.877 -0.6524 -0.1454  0.5270
    8CHTO   H82 3236   5.609   8.639   0.815 -2.5452  0.6279 -0.6487
    8CHTO   O26 3237   5.501   8.462   0.802  0.1636  0.5304 -0.0458
    8CHTO   C41 3238   5.608   8.397   0.732  0.6768 -0.6888 -0.0448
    8CHTO   H83 3239   5.662   8.465   0.665 -0.5899 -0.5050 -0.8972
    8CHTO   C52 3240   5.543   8.301   0.631  0.1728  0.1361 -0.0763
    8CHTO   O35 3241   5.440   8.349   0.559 -0.5649  0.0645 -0.4061
    8CHTO   H71 3242   5.396   8.281   0.511 -0.6920  0.0421 -0.2568
    8CHTO   O28 3243   5.439   8.652   0.928  0.1618  0.4927  0.1371
    8CHTO   C42 3244   5.362   8.735   0.844 -0.1575 -0.4934  0.1733
    8CHTO   H84 3245   5.285   8.777   0.910  0.5324 -0.1418  0.7601
    8CHTO   C44 3246   5.283   8.669   0.721 -0.1429  0.2421  0.1113
    8CHTO   H86 3247   5.352   8.607   0.664  0.1991  1.3700 -0.7329
    8CHTO   O32 3248   5.184   8.580   0.780 -0.2628  0.6051  0.3927
    8CHTO   H69 3249   5.128   8.542   0.715  1.1089 -2.8345  1.1120
    8CHTO   C48 3250   5.222   8.772   0.619  0.4004  0.0535  0.0740
    8CHTO   H90 3251   5.142   8.812   0.681 -0.3972 -1.3802 -0.0019
    8CHTO    N9 3252   5.166   8.715   0.488 -0.2945  0.3013  0.1045
    8CHTO   H77 3253   5.216   8.763   0.405  0.9207 -1.2721 -0.1021
    8CHTO   H78 3254   5.184   8.609   0.481 -0.8502  0.3576 -3.0276
    8CHTO   C51 3255   5.321   8.893   0.588  0.9147  0.0950 -0.0242
    8CHTO   H93 3256   5.403   8.864   0.522  0.5784  1.3055 -1.0147
    8CHTO   O30 3257   5.368   8.940   0.713  0.9957  0.2360  0.6895
    8CHTO   C46 3258   5.447   8.856   0.793 -0.2210 -0.2656  0.6711
    8CHTO   H88 3259   5.538   8.826   0.741  0.6468  1.1372  1.3541
    8CHTO   C53 3260   5.502   8.938   0.913  0.3056 -0.3387 -1.2305
    8CHTO   O72 3261   5.578   9.047   0.862  0.3520  0.8504 -0.4678
    8CHTO  H199 3262   5.588   9.114   0.927 -0.4680  1.1129 -0.6064
    8CHTO   O22 3263   5.255   9.009   0.533 -0.3403 -0.1794 -0.3128
    8CHTO   C31 3264   5.323   9.123   0.458 -0.1271  0.7574 -0.0230
    8CHTO   H59 3265   5.258   9.211   0.476 -3.1489 -1.3981 -0.2087
    8CHTO   C29 3266   5.463   9.156   0.505  0.2026  0.5359  0.5390
    8CHTO   H57 3267   5.522   9.063   0.498 -1.7463 -0.5446 -2.8052
    8CHTO   O21 3268   5.450   9.195   0.643  0.1120  0.3003 -0.1126
    8CHTO   H37 3269   5.406   9.278   0.643  1.0550  0.8108 -1.2715
    8CHTO   C27 3270   5.522   9.265   0.402  0.1242  0.0656 -0.4649
    8CHTO   H55 3271   5.454   9.351   0.409 -0.4095 -0.4701  1.0837
    8CHTO    N5 3272   5.657   9.308   0.435  0.3781  0.1571 -0.0121
    8CHTO   H43 3273   5.716   9.230   0.481 -1.1098 -0.2974  1.1465
    8CHTO   H44 3274   5.660   9.394   0.499  2.5549  0.6342 -0.6887
    8CHTO   C25 3275   5.513   9.203   0.258 -1.0582 -0.9709 -0.0937
    8CHTO   H53 3276   5.560   9.105   0.269 -1.1494 -0.7921  2.0121
    8CHTO   O17 3277   5.369   9.197   0.227 -0.0094  0.0336  0.0090
    8CHTO   C32 3278   5.318   9.091   0.309  0.1691 -0.6169  0.0335
    8CHTO   H60 3279   5.376   9.000   0.295  0.4937 -0.3318 -0.4809
    8CHTO   C36 3280   5.178   9.046   0.266  0.5186  0.3987 -0.4209
    8CHTO   O25 3281   5.179   8.971   0.143 -0.8089  0.0653 -0.4868
    8CHTO   H40 3282   5.117   8.902   0.155 -0.2481 -0.9941 -3.2874
    8CHTO   O15 3283   5.575   9.284   0.142  0.5854  0.4140 -0.2145
    8CHTO   C19 3284   5.596   9.284   0.002 -0.0294  0.4272  0.8078
    8CHTO   H47 3285   5.493   9.259  -0.025  0.6599 -0.2399 -1.3226
    8CHTO   C20 3286   5.643   9.427  -0.052  0.6786 -0.0530 -0.1805
    8CHTO   H48 3287   5.735   9.452   0.002 -1.0135  1.2429  2.2118
    8CHTO   O19 3288   5.548   9.526  -0.025  0.0383 -0.5895 -0.1400
    8CHTO   H35 3289   5.549   9.595  -0.089 -0.6526 -2.1490 -1.8923
    8CHTO   C21 3290   5.680   9.416  -0.212 -0.1898 -0.6923 -0.1648
    8CHTO   H49 3291   5.593   9.387  -0.270  0.5422 -3.9446  0.2944
    8CHTO    N4 3292   5.732   9.547  -0.275 -0.1840  0.5147  0.6525
    8CHTO   H41 3293   5.752   9.532  -0.380 -3.4847 -0.3454  0.0737
    8CHTO   H42 3294   5.654   9.621  -0.265 -1.9821 -1.2877  0.4416
    8CHTO   C22 3295   5.783   9.299  -0.230 -0.2104  0.0371 -0.6169
    8CHTO   H50 3296   5.863   9.311  -0.157 -0.2769  0.8010 -0.6743
    8CHTO   O14 3297   5.722   9.177  -0.191  0.3479  0.1964  0.5909
    8CHTO   C23 3298   5.688   9.168  -0.045 -0.1969  0.3838 -0.0421
    8CHTO   H51 3299   5.783   9.173   0.012  1.2044  3.4197 -2.5335
    8CHTO   C34 3300   5.617   9.041  -0.013  0.3634  0.3548 -0.3002
    8CHTO   O23 3301   5.678   8.917  -0.063  0.1270 -0.0403 -0.3605
    8CHTO   H38 3302   5.681   8.925  -0.157 -0.2485 -2.1797 -0.5905
    8CHTO   O16 3303   5.830   9.267  -0.365  0.6206  0.1577  0.4277
    8CHTO   C24 3304   5.949   9.187  -0.374 -0.3586 -0.0522  0.3666
    8CHTO   H52 3305   5.967   9.133  -0.281 -0.3081  0.9165  0.9234
    8CHTO   C26 3306   6.073   9.273  -0.395 -0.2502  0.2866 -0.0400
    8CHTO   H54 3307   6.076   9.315  -0.498 -1.5226 -2.0526 -1.0589
    8CHTO   O20 3308   6.089   9.368  -0.285  0.5073  0.3217 -0.6213
    8CHTO   H36 3309   6.127   9.448  -0.316 -0.1974  0.7382 -0.4165
    8CHTO   C30 3310   6.204   9.182  -0.407  0.0680 -0.3546  0.1500
    8CHTO   H58 3311   6.230   9.143  -0.307 -0.8347 -0.7701  0.2327
    8CHTO    N6 3312   6.320   9.267  -0.438  0.2632 -0.3126 -0.5861
    8CHTO   H45 3313   6.407   9.204  -0.452 -1.5179 -2.8463 -0.6775
    8CHTO   H46 3314   6.338   9.336  -0.356 -0.4011 -1.8871  0.9104
    8CHTO   C33 3315   6.181   9.057  -0.501  0.5516 -0.8181 -0.6722
    8CHTO   H61 3316   6.168   9.083  -0.607  3.8895 -0.8842 -1.1562
    8CHTO   O18 3317   6.061   8.999  -0.455  0.2247 -0.1990  0.0295
    8CHTO   C28 3318   5.948   9.080  -0.477 -0.2025 -0.7387  0.5524
    8CHTO   H56 3319   5.941   9.124  -0.576  2.0673 -0.3097  0.5688
    8CHTO   C35 3320   5.821   8.996  -0.468 -0.1916 -0.1901  0.5507
    8CHTO   O24 3321   5.811   8.927  -0.345  0.0693  0.0140  0.3362
    8CHTO   H39 3322   5.788   8.989  -0.279 -1.3463 -1.4846  1.3002
    8CHTO    O9 3323   6.293   8.965  -0.500 -0.3933 -0.4202 -0.3972
    8CHTO   C13 3324   6.309   8.865  -0.608  1.0638  0.3785  0.6757
    8CHTO   H26 3325   6.279   8.921  -0.699  1.3859 -0.4354  0.0660
    8CHTO   C11 3326   6.216   8.741  -0.591 -0.3975  0.1229 -0.4788
    8CHTO   H24 3327   6.112   8.776  -0.594 -1.2390 -2.0081  1.8072
    8CHTO    O8 3328   6.235   8.676  -0.460  0.4618  0.2512 -0.2965
    8CHTO    H3 3329   6.294   8.604  -0.473  0.2079 -0.2822  1.3211
    8CHTO    C9 3330   6.242   8.654  -0.720  0.2204 -0.1768  0.2634
    8CHTO   H22 3331   6.224   8.717  -0.808  0.9269 -1.4185 -0.7960
    8CHTO    N2 3332   6.142   8.547  -0.738 -0.0453 -0.0534  0.0321
    8CHTO   H10 3333   6.133   8.484  -0.651 -0.0571  1.4868  1.1462
    8CHTO   H11 3334   6.051   8.581  -0.784 -1.0021 -3.5844 -0.8601
    8CHTO    C7 3335   6.388   8.604  -0.725 -0.0869  0.4951 -0.0047
    8CHTO   H20 3336   6.409   8.565  -0.826  3.2852  4.6179 -1.0233
    8CHTO    O4 3337   6.479   8.715  -0.711 -0.6585 -0.4558 -0.5109
    8CHTO   C14 3338   6.453   8.831  -0.626 -0.3943 -0.2455  0.1091
    8CHTO   H27 3339   6.509   8.918  -0.667  0.8866 -2.0664 -2.0779
    8CHTO   C18 3340   6.524   8.799  -0.488  0.0462 -0.0474  0.1424
    8CHTO   O13 3341   6.666   8.778  -0.506  0.1145 -0.4844 -0.7750
    8CHTO    H7 3342   6.670   8.688  -0.531  1.3236 -1.0808  1.3753
    8CHTO    O2 3343   6.422   8.488  -0.598  0.1118  0.6675 -0.2984
    8CHTO    C1 3344   6.512   8.376  -0.618  0.1548 -0.9936 -0.0108
    8CHTO   H14 3345   6.565   8.349  -0.524  2.2327  1.3329 -0.4599
    8CHTO    C2 3346   6.631   8.404  -0.722 -0.4851  0.2594  0.0927
    8CHTO   H15 3347   6.584   8.435  -0.816 -0.6811  1.0969  0.4542
    8CHTO    O6 3348   6.708   8.513  -0.671 -0.1808 -0.2187 -0.0120
    8CHTO    H1 3349   6.784   8.533  -0.724  0.7517 -0.8889  1.0538
    8CHTO    C3 3350   6.716   8.261  -0.742 -0.0010 -0.2461 -0.1319
    8CHTO   H16 3351   6.784   8.235  -0.659 -0.5626  1.5324  0.9125
    8CHTO    N1 3352   6.803   8.281  -0.866 -0.0503 -0.1416  0.2943
    8CHTO    H8 3353   6.863   8.193  -0.884 -0.7225 -0.4148 -0.6311
    8CHTO    H9 3354   6.871   8.364  -0.857  0.1214 -0.5178  2.9751
    8CHTO    C4 3355   6.620   8.137  -0.753 -0.2337 -0.0690  0.0655
    8CHTO   H17 3356   6.568   8.145  -0.848 -0.0646 -1.6083 -0.1611
    8CHTO    O1 3357   6.519   8.132  -0.644  0.5097 -0.0099 -0.2144
    8CHTO    C5 3358   6.433   8.243  -0.654 -0.4812 -0.3993 -0.0249
    8CHTO   H18 3359   6.395   8.266  -0.754 -1.2812  1.9605  0.7939
    8CHTO   C16 3360   6.313   8.212  -0.557  0.0535 -0.3987 -0.1084
    8CHTO   O11 3361   6.242   8.096  -0.615  0.0070 -0.0189 -0.2463
    8CHTO    H5 3362   6.187   8.051  -0.553 -1.1570 -0.6180 -1.6899
    8CHTO    O3 3363   6.692   8.010  -0.747 -0.3230 -0.1399 -0.1447
    8CHTO    C6 3364   6.634   7.897  -0.821  0.0971 -0.1701  0.8550
    8CHTO   H19 3365   6.525   7.893  -0.821  0.0632 -0.0291 -1.3076
    8CHTO    C8 3366   6.676   7.897  -0.968 -0.0208 -0.2998  0.0531
    8CHTO   H21 3367   6.779   7.932  -0.972 -0.5153  1.5658  2.3501
    8CHTO    O7 3368   6.595   7.992  -1.033 -0.4086 -0.9089 -0.0683
    8CHTO    H2 3369   6.622   8.070  -0.988 -0.1431 -0.1940 -1.4451
    8CHTO   C12 3370   6.653   7.762  -1.043  0.6938  0.3395 -0.2826
    8CHTO   H25 3371   6.545   7.737  -1.053  0.4587  1.3146 -0.2699
    8CHTO    N3 3372   6.710   7.774  -1.187  0.4185  0.3729  0.0794
    8CHTO   H12 3373   6.637   7.830  -1.245 -0.3651 -0.1283  0.5683
    8CHTO   H13 3374   6.739   7.677  -1.224 -0.9670 -0.6289  1.5580
    8CHTO   C15 3375   6.722   7.651  -0.955  0.0535  0.1226  0.4670
    8CHTO   H28 3376   6.831   7.663  -0.953  0.1382 -0.3739 -0.8303
    8CHTO   O10 3377   6.687   7.520  -0.998  0.7793  0.0498  0.7244
    8CHTO    H4 3378   6.745   7.494  -1.067 -1.8106 -1.0318 -1.1094
    8CHTO    O5 3379   6.661   7.656  -0.825 -0.3002 -0.1632  0.2178
    8CHTO   C10 3380   6.685   7.769  -0.739 -0.4667 -0.2285  1.3668
    8CHTO   H23 3381   6.792   7.765  -0.718  0.0726  1.3585 -0.8568
    8CHTO   C17 3382   6.618   7.739  -0.604 -0.7724  0.1263 -0.6272
    8CHTO   O12 3383   6.617   7.848  -0.506 -0.1998 -0.0462  0.2688
    8CHTO    H6 3384   6.594   7.920  -0.560 -1.4579 -1.1213 -0.6378
    9CHTO  H203 3385   7.263   3.811   3.957  0.5016 -0.5168 -0.8508
    9CHTO   O82 3386   7.261   3.868   3.882 -0.1028  0.5133 -0.0749
    9CHTO  C123 3387   7.389   3.890   3.824  0.0183 -0.0048 -0.3761
    9CHTO  H227 3388   7.456   3.931   3.901 -1.2070  1.0390  0.1522
    9CHTO   O77 3389   7.426   3.757   3.787  0.4439 -0.3894  0.5533
    9CHTO  C118 3390   7.559   3.747   3.729  0.2457 -0.3108  0.0542
    9CHTO  H222 3391   7.638   3.787   3.793  1.0028  2.4495 -2.5056
    9CHTO  C125 3392   7.582   3.594   3.704 -0.2793 -0.2557 -0.0994
    9CHTO   O84 3393   7.616   3.512   3.816  0.3814  0.2372  0.0884
    9CHTO  H205 3394   7.709   3.512   3.826  0.3581  0.8402  0.3594
    9CHTO  C114 3395   7.573   3.827   3.599 -0.2233  0.5199  0.4096
    9CHTO  H218 3396   7.494   3.792   3.531 -0.0875 -1.3856  1.2065
    9CHTO  C116 3397   7.534   3.977   3.627 -0.0969  0.3180  0.1740
    9CHTO  H220 3398   7.614   4.024   3.687  0.4275 -0.5591  0.1816
    9CHTO   O79 3399   7.534   4.039   3.495 -0.5696 -0.4697 -0.1407
    9CHTO  H201 3400   7.450   4.077   3.476 -0.6916 -0.1135  1.0670
    9CHTO  C120 3401   7.391   3.981   3.701  0.1137  0.0280 -0.6862
    9CHTO  H224 3402   7.323   3.938   3.625  0.0531  2.4715 -2.0636
    9CHTO   N21 3403   7.362   4.121   3.732  0.4333  0.2154 -0.1630
    9CHTO  H211 3404   7.449   4.184   3.745 -0.0079  0.7357  0.2337
    9CHTO  H212 3405   7.298   4.168   3.659 -0.7034 -2.2481 -0.8051
    9CHTO   O75 3406   7.701   3.808   3.537 -0.3230 -0.4081  0.7261
    9CHTO  C112 3407   7.699   3.758   3.384  1.0141  0.3605  0.2473
    9CHTO  H216 3408   7.611   3.802   3.336  0.1817 -1.6387 -0.1066
    9CHTO   O73 3409   7.691   3.613   3.382  0.1916  0.1382  0.3554
    9CHTO  C113 3410   7.707   3.549   3.254  0.0784 -0.2264 -0.3377
    9CHTO  H217 3411   7.616   3.575   3.196 -0.4793  0.5714  0.8778
    9CHTO  C124 3412   7.689   3.403   3.278  0.4521 -0.1909 -0.2779
    9CHTO   O83 3413   7.799   3.347   3.354  0.2703  0.0736  0.0012
    9CHTO  H204 3414   7.877   3.397   3.343 -0.9803  2.0820 -0.0746
    9CHTO  C109 3415   7.832   3.592   3.182  0.9390  0.4996 -0.6699
    9CHTO  H213 3416   7.916   3.549   3.239 -0.7204 -2.6351 -0.5028
    9CHTO  C110 3417   7.833   3.749   3.177 -0.2589 -0.0467  0.4186
    9CHTO  H214 3418   7.751   3.786   3.115 -1.4218 -0.4505  1.6750
    9CHTO   O78 3419   7.954   3.781   3.113 -0.0179 -0.2856 -0.2888
    9CHTO  H200 3420   7.935   3.787   3.022 -0.1885  1.1016 -0.1838
    9CHTO  C111 3421   7.829   3.813   3.320 -0.0015  0.2370  0.1209
    9CHTO  H215 3422   7.917   3.778   3.377  0.9654  0.9608 -0.9031
    9CHTO   N19 3423   7.845   3.963   3.326 -0.1251  0.3070  0.2178
    9CHTO  H207 3424   7.830   4.008   3.229 -0.4303 -2.6733 -1.1723
    9CHTO  H208 3425   7.780   3.997   3.405  0.2451 -0.1883  0.7340
    9CHTO   O74 3426   7.827   3.543   3.044  0.3010 -0.2896 -0.6092
    9CHTO  C115 3427   7.962   3.468   2.998 -0.6063  0.1111 -0.2651
    9CHTO  H219 3428   8.052   3.523   3.028 -0.5313 -0.4652  0.5812
    9CHTO   O76 3429   7.977   3.319   3.068  0.2980 -0.5182  0.1500
    9CHTO  C122 3430   7.889   3.216   3.016 -0.0735 -0.0831  0.1371
    9CHTO  H226 3431   7.787   3.237   3.050  0.1856  0.3850  0.6285
    9CHTO  C126 3432   7.937   3.083   3.085 -0.1047 -0.1452 -0.1029
    9CHTO   O85 3433   7.956   3.084   3.226  0.3333  0.5905  0.3205
    9CHTO  H206 3434   7.887   3.138   3.259 -1.1454 -0.3409 -1.1444
    9CHTO  C121 3435   7.899   3.198   2.861 -0.3402 -0.4471 -0.1497
    9CHTO  H225 3436   8.000   3.168   2.826  0.1575  1.7407 -0.6332
    9CHTO   O81 3437   7.794   3.099   2.831 -0.7028  0.1782 -0.2795
    9CHTO  H202 3438   7.792   3.083   2.738 -1.1322  2.3702 -0.6760
    9CHTO  C119 3439   7.865   3.333   2.794 -1.4464 -0.6098  0.1487
    9CHTO  H223 3440   7.878   3.328   2.686  1.6066 -1.0142  0.4935
    9CHTO  C117 3441   7.953   3.461   2.836  0.0008  0.6985 -0.1902
    9CHTO  H221 3442   7.918   3.560   2.805  0.4209  0.8396 -0.2093
    9CHTO   N20 3443   8.095   3.448   2.772  0.2703  0.2918  0.7258
    9CHTO  H209 3444   8.097   3.438   2.664  3.3783  0.5141  0.7143
    9CHTO  H210 3445   8.150   3.534   2.808 -0.4281  1.1438 -0.2045
    9CHTO   O80 3446   7.707   3.367   2.810  0.0164 -0.4101 -0.2627
    9CHTO  C103 3447   7.636   3.477   2.716  0.1276  0.5544 -0.2756
    9CHTO  H190 3448   7.681   3.572   2.744  0.3890  0.0685  1.0256
    9CHTO  C101 3449   7.646   3.457   2.565  0.6750  0.2594 -0.1011
    9CHTO  H188 3450   7.614   3.356   2.542  1.5277 -0.3528  1.3774
    9CHTO   O68 3451   7.790   3.480   2.521 -0.0194 -0.0443 -0.2435
    9CHTO  H168 3452   7.787   3.440   2.436 -1.4768 -1.0956  0.2616
    9CHTO   C99 3453   7.551   3.562   2.493  0.3111  0.0731  0.6000
    9CHTO  H186 3454   7.587   3.666   2.506  0.4748  0.2827 -1.4247
    9CHTO   N17 3455   7.546   3.550   2.348  0.0347 -0.5637 -0.5212
    9CHTO  H174 3456   7.557   3.449   2.310 -1.7277 -0.4762 -1.3180
    9CHTO  H175 3457   7.625   3.614   2.313  1.4813 -0.2726  3.0560
    9CHTO   C97 3458   7.409   3.555   2.562 -0.2705 -0.5068  0.2103
    9CHTO  H184 3459   7.356   3.461   2.541  1.7934 -1.3301 -1.3693
    9CHTO   O64 3460   7.413   3.584   2.699 -0.5296 -0.6182 -0.1202
    9CHTO  C104 3461   7.485   3.479   2.772  0.3856 -0.0359 -0.3972
    9CHTO  H191 3462   7.439   3.381   2.767 -1.5965  0.6958  2.3673
    9CHTO  C108 3463   7.481   3.518   2.925 -0.3011  0.0365  0.6737
    9CHTO   O71 3464   7.354   3.483   2.984 -0.1385  0.1319 -0.0593
    9CHTO  H171 3465   7.343   3.392   2.964  5.5279 -0.1190 -3.0130
    9CHTO   O62 3466   7.334   3.677   2.531  0.0606  0.5610  1.1247
    9CHTO   C91 3467   7.229   3.671   2.436  0.6606  0.2184  0.6780
    9CHTO  H178 3468   7.265   3.619   2.347  0.0906  0.7173  0.1446
    9CHTO   C92 3469   7.191   3.811   2.384  0.3387 -0.0411 -0.1492
    9CHTO  H179 3470   7.287   3.859   2.357  1.2145 -1.6274  0.0825
    9CHTO   O66 3471   7.122   3.784   2.258  0.4853  0.5903 -0.5512
    9CHTO  H166 3472   7.092   3.865   2.223 -0.0508  1.2889  1.4995
    9CHTO   C93 3473   7.092   3.895   2.468  0.1432 -0.3251  0.3061
    9CHTO  H180 3474   7.043   3.970   2.404  1.6473  0.7001  0.3239
    9CHTO   N16 3475   7.159   3.972   2.572  0.0770  0.3720 -0.8114
    9CHTO  H172 3476   7.097   4.041   2.626  1.1530  0.4482  0.3616
    9CHTO  H173 3477   7.242   4.032   2.538  1.1515 -1.4739 -1.5088
    9CHTO   C94 3478   6.977   3.800   2.529 -0.3110  0.5789 -0.4232
    9CHTO  H181 3479   6.987   3.781   2.636  0.3196  1.7857 -0.2707
    9CHTO   O61 3480   6.968   3.673   2.461  0.6362  0.2651  0.5207
    9CHTO   C95 3481   7.091   3.604   2.497 -0.2745 -0.0359  0.3194
    9CHTO  H182 3482   7.100   3.604   2.606  0.6164  1.4924  0.2606
    9CHTO  C106 3483   7.076   3.453   2.465 -0.6662 -0.3115  0.3416
    9CHTO   O69 3484   6.960   3.390   2.535  0.0564 -0.5749 -0.2382
    9CHTO  H169 3485   6.959   3.299   2.512  0.2998  0.2387 -3.6473
    9CHTO   O63 3486   6.852   3.873   2.506  0.1342 -0.2545 -0.3132
    9CHTO   C96 3487   6.750   3.855   2.609  0.7946  0.0321 -0.4662
    9CHTO  H183 3488   6.792   3.823   2.704 -1.8492 -0.0132  0.7347
    9CHTO   C98 3489   6.642   3.743   2.572  0.3577 -0.9868  0.1280
    9CHTO  H185 3490   6.588   3.758   2.478  1.7618 -0.4421 -0.6102
    9CHTO   O67 3491   6.712   3.616   2.559 -0.0344 -0.2284  0.2231
    9CHTO  H167 3492   6.785   3.600   2.615 -0.1665 -0.8257  0.2285
    9CHTO  C102 3493   6.527   3.741   2.689  0.1940  0.3823 -0.2550
    9CHTO  H189 3494   6.582   3.729   2.783  1.7431 -1.6443 -1.3596
    9CHTO   N18 3495   6.429   3.631   2.682  0.2035  0.6232  0.1468
    9CHTO  H176 3496   6.379   3.613   2.588  0.5942 -0.2124  0.0894
    9CHTO  H177 3497   6.357   3.648   2.760  0.7526 -0.1027  0.8134
    9CHTO  C105 3498   6.472   3.887   2.677  0.9818 -0.1966 -0.7810
    9CHTO  H192 3499   6.436   3.905   2.576 -0.1309 -2.6164 -0.8469
    9CHTO   O65 3500   6.573   3.988   2.704 -0.4390 -0.1194 -0.7592
    9CHTO  C100 3501   6.683   3.992   2.614  0.4803  0.2762  0.5982
    9CHTO  H187 3502   6.656   4.022   2.512 -1.1169  0.6065  1.1053
    9CHTO  C107 3503   6.782   4.096   2.662 -0.1498 -0.3469 -0.2647
    9CHTO   O70 3504   6.722   4.231   2.659  0.0289 -0.1443 -0.3761
    9CHTO  H170 3505   6.761   4.282   2.728  1.2796 -0.5665 -0.7528
    9CHTO   O57 3506   6.375   3.899   2.766 -0.5462  0.0884 -0.1944
    9CHTO   C85 3507   6.269   3.990   2.751 -0.8153 -0.5225 -0.1309
    9CHTO  H157 3508   6.232   3.964   2.650  0.4070  1.0949 -1.0206
    9CHTO   C83 3509   6.304   4.139   2.749 -0.3390  0.6777  0.6272
    9CHTO  H155 3510   6.368   4.152   2.661  2.1131 -0.5923  2.1788
    9CHTO   O56 3511   6.372   4.175   2.866  0.2408  0.3538 -0.4141
    9CHTO  H135 3512   6.417   4.255   2.846  0.6321  0.0110 -0.9175
    9CHTO   C81 3513   6.170   4.214   2.727  0.2391  0.0859 -0.0261
    9CHTO  H153 3514   6.119   4.169   2.642 -0.9561 -1.6086  1.5305
    9CHTO   N14 3515   6.181   4.354   2.678  0.2604  0.5145 -0.3383
    9CHTO  H141 3516   6.285   4.380   2.669  0.4518  1.3299  3.3642
    9CHTO  H142 3517   6.131   4.427   2.738  0.4110 -1.3077  2.0688
    9CHTO   C79 3518   6.081   4.192   2.856 -0.9829  0.1116 -0.2507
    9CHTO  H151 3519   5.988   4.247   2.842 -1.5088 -0.3327  1.3841
    9CHTO   O52 3520   6.044   4.046   2.868  0.2417  0.0141 -0.0114
    9CHTO   C86 3521   6.160   3.953   2.864  0.4567 -0.3564  0.3718
    9CHTO  H158 3522   6.209   3.957   2.963 -0.7751 -1.1139  1.0270
    9CHTO   C90 3523   6.111   3.803   2.850 -0.1755 -0.2766 -0.4041
    9CHTO   O60 3524   5.998   3.792   2.763 -0.1435  0.5232  0.1162
    9CHTO  H138 3525   6.011   3.702   2.736  0.7973  0.2308  1.5017
    9CHTO   O50 3526   6.145   4.242   2.978  0.0961 -0.3250  0.2254
    9CHTO   C73 3527   6.160   4.325   3.097  0.0861  0.2840  0.2892
    9CHTO  H145 3528   6.061   4.334   3.145  0.6250  0.8697  1.2912
    9CHTO   C74 3529   6.203   4.469   3.065  0.5463  0.7820 -0.2193
    9CHTO  H146 3530   6.131   4.506   2.991 -0.9157 -1.4979 -0.0060
    9CHTO   O54 3531   6.176   4.547   3.179 -0.3899  0.1014  0.3635
    9CHTO  H133 3532   6.187   4.635   3.147  0.3113  0.1234  0.6423
    9CHTO   C75 3533   6.357   4.469   3.012 -0.0916  0.9885  0.2187
    9CHTO  H147 3534   6.356   4.423   2.911 -0.0612  0.5877  0.3990
    9CHTO   N13 3535   6.414   4.605   2.995  0.3466  0.0587  0.0555
    9CHTO  H139 3536   6.356   4.687   3.034  4.3169  2.3689  1.3764
    9CHTO  H140 3537   6.438   4.627   2.892  1.7988  0.6501  0.5099
    9CHTO   C76 3538   6.455   4.380   3.095 -0.0335 -0.3630 -0.1729
    9CHTO  H148 3539   6.485   4.443   3.178  1.0841  0.8550 -1.4729
    9CHTO   O49 3540   6.397   4.258   3.147  0.0449 -0.1482 -0.2457
    9CHTO   C77 3541   6.261   4.259   3.198 -0.1565  0.3679  0.0600
    9CHTO  H149 3542   6.265   4.321   3.287 -0.3551 -0.3377  0.5627
    9CHTO   C88 3543   6.214   4.122   3.242 -0.0766 -0.2394  0.1016
    9CHTO   O58 3544   6.104   4.123   3.321  0.3652  0.2647  0.6373
    9CHTO  H136 3545   6.085   4.033   3.338 -0.0129  0.0409 -0.8519
    9CHTO   O51 3546   6.572   4.332   3.013  0.2518 -0.1206 -0.0963
    9CHTO   C78 3547   6.719   4.316   3.077  0.1613  0.3025 -0.0878
    9CHTO  H150 3548   6.708   4.289   3.184 -0.4269  1.8163  0.2448
    9CHTO   C80 3549   6.798   4.449   3.066 -0.1119  0.3299  0.1181
    9CHTO  H152 3550   6.808   4.468   2.957 -1.5849  3.5323  0.5068
    9CHTO   O55 3551   6.722   4.548   3.133 -0.1532 -0.2078 -0.4018
    9CHTO  H134 3552   6.705   4.623   3.079  0.4659 -0.5094 -1.0128
    9CHTO   C84 3553   6.947   4.437   3.118  0.3783 -1.0317 -0.5296
    9CHTO  H156 3554   6.934   4.419   3.224 -0.3073 -0.6585 -0.5463
    9CHTO   N15 3555   7.030   4.563   3.112  0.3321  0.2877 -0.2695
    9CHTO  H143 3556   7.115   4.564   3.177  0.6853  1.5271 -0.7292
    9CHTO  H144 3557   7.059   4.576   3.010 -1.2202  0.6457 -0.6768
    9CHTO   C87 3558   7.014   4.316   3.040 -0.1716  0.2621  1.2322
    9CHTO  H159 3559   7.010   4.340   2.933 -1.9064  1.0934  1.4604
    9CHTO   O53 3560   6.918   4.197   3.064 -0.0358  0.3955 -0.1466
    9CHTO   C82 3561   6.784   4.195   3.008 -0.0738 -0.7037 -0.1216
    9CHTO  H154 3562   6.782   4.205   2.900  2.5716 -0.9518 -0.2174
    9CHTO   C89 3563   6.715   4.060   3.045  0.0336 -1.0230 -0.3858
    9CHTO   O59 3564   6.777   3.940   2.985  1.0598 -0.2843  0.4951
    9CHTO  H137 3565   6.755   3.864   3.035 -0.1205 -0.3203 -0.0594
    9CHTO   O45 3566   7.169   4.292   3.096 -0.1362 -0.0109  0.2019
    9CHTO   C67 3567   7.191   4.163   3.151  0.0409 -0.0960 -0.2302
    9CHTO  H124 3568   7.096   4.116   3.174 -1.1765  2.1784 -0.4497
    9CHTO   C65 3569   7.262   4.072   3.049  0.4083  0.7084  0.7304
    9CHTO  H122 3570   7.304   4.144   2.979 -0.7888 -0.8633 -1.6819
    9CHTO   O44 3571   7.172   4.004   2.959  0.0809  0.7727 -0.0365
    9CHTO  H102 3572   7.215   3.950   2.896 -0.5988  1.3538 -1.0043
    9CHTO   C63 3573   7.382   3.990   3.123 -0.4481  0.4094  0.8900
    9CHTO  H120 3574   7.464   4.059   3.140 -0.1218  1.3550 -3.7979
    9CHTO   N11 3575   7.456   3.889   3.042  0.2122  0.0422 -0.2159
    9CHTO  H108 3576   7.475   3.919   2.941  0.7758 -1.0859 -0.4559
    9CHTO  H109 3577   7.537   3.839   3.090 -0.7015 -0.6666  0.6138
    9CHTO   C61 3578   7.333   3.936   3.262 -0.1176  0.0032  0.4296
    9CHTO  H118 3579   7.411   3.875   3.309  0.2869  0.6673  0.6234
    9CHTO   O40 3580   7.303   4.051   3.352 -0.2072  0.2876  0.1018
    9CHTO   C68 3581   7.254   4.179   3.289  0.1095 -0.2799  0.0175
    9CHTO  H125 3582   7.341   4.245   3.268 -0.8016 -0.1756 -3.8467
    9CHTO   C72 3583   7.161   4.253   3.392 -0.0110 -0.3953  0.4187
    9CHTO   O48 3584   7.034   4.191   3.420  0.3861 -0.3551  0.5883
    9CHTO  H105 3585   7.045   4.116   3.475 -1.4638 -0.3523  1.0037
    9CHTO   O38 3586   7.219   3.848   3.245 -0.3267  0.4278 -0.0543
    9CHTO   C55 3587   7.162   3.777   3.355  0.2587  0.2638 -0.3215
    9CHTO  H112 3588   7.173   3.839   3.445  0.3259  0.8530 -0.7313
    9CHTO   C56 3589   7.230   3.633   3.375 -0.4563 -0.5074 -0.5267
    9CHTO  H113 3590   7.224   3.580   3.279  2.6130 -2.1620  0.1461
    9CHTO   O42 3591   7.372   3.646   3.390 -0.2263 -0.0455  0.5435
    9CHTO  H100 3592   7.409   3.575   3.438 -0.8624 -0.0203  1.0806
    9CHTO   C57 3593   7.158   3.559   3.496  0.7832  0.0487  0.4600
    9CHTO  H114 3594   7.202   3.606   3.584  1.8593 -1.1326  0.5746
    9CHTO   N10 3595   7.191   3.413   3.499  0.3158 -0.5276  0.2652
    9CHTO  H106 3596   7.279   3.388   3.442 -0.7783 -1.9810 -0.8366
    9CHTO  H107 3597   7.207   3.393   3.604 -4.1978 -3.2207  0.5793
    9CHTO   C58 3598   7.005   3.574   3.498  0.2404 -0.1321  0.6493
    9CHTO  H115 3599   6.958   3.493   3.438  2.2180 -0.0460 -1.0487
    9CHTO   O37 3600   6.961   3.698   3.439  0.7010 -0.1183  0.1822
    9CHTO   C59 3601   7.010   3.761   3.320 -0.3069  0.5799 -0.4369
    9CHTO  H116 3602   7.001   3.704   3.227 -0.8957 -0.3013  0.1590
    9CHTO   C70 3603   6.931   3.890   3.301  0.4787 -0.2091  0.2947
    9CHTO   O46 3604   6.790   3.863   3.292  0.5466 -0.2691 -0.7435
    9CHTO  H103 3605   6.747   3.946   3.296  1.4702  0.2111 -0.6149
    9CHTO   O39 3606   6.942   3.585   3.659 -0.0160  0.2203  0.3772
    9CHTO   C60 3607   6.799   3.569   3.668 -0.1117  0.0817  0.4408
    9CHTO  H117 3608   6.754   3.656   3.620  2.9746  0.5885 -1.7519
    9CHTO   C62 3609   6.754   3.431   3.614  0.3300 -0.2751 -0.0241
    9CHTO  H119 3610   6.778   3.428   3.506 -0.2060 -0.6082 -0.1404
    9CHTO   O43 3611   6.827   3.323   3.681  0.4902  0.1378  0.2691
    9CHTO  H101 3612   6.823   3.349   3.771  0.6045 -0.8478  0.5605
    9CHTO   C66 3613   6.588   3.413   3.633  0.0000 -0.4056  0.1941
    9CHTO  H123 3614   6.538   3.501   3.591 -2.0573 -2.2356 -1.3107
    9CHTO   N12 3615   6.518   3.291   3.578 -0.2860 -0.7048 -0.5134
    9CHTO  H110 3616   6.508   3.315   3.474 -1.6944  0.2972 -0.1553
    9CHTO  H111 3617   6.585   3.208   3.596  0.4343  0.0124  0.1684
    9CHTO   C69 3618   6.551   3.430   3.777 -1.0320 -0.6845  0.3109
    9CHTO  H126 3619   6.594   3.342   3.828  0.9002  0.8155  1.3400
    9CHTO   O41 3620   6.625   3.565   3.841  0.4656 -0.0244 -0.0889
    9CHTO   C64 3621   6.759   3.576   3.811  0.0432 -0.0339 -0.4153
    9CHTO  H121 3622   6.799   3.491   3.869 -0.7553  0.5177  0.9543
    9CHTO   C71 3623   6.813   3.703   3.882 -0.0947 -0.0885  0.0692
    9CHTO   O47 3624   6.767   3.706   4.018 -0.3300  0.1032  0.4774
    9CHTO  H104 3625   6.767   3.795   4.049 -0.3400  0.6125 -0.9816
    9CHTO   O34 3626   6.393   3.443   3.798 -0.0657 -0.2060 -0.5168
    9CHTO   C49 3627   6.255   3.472   3.882  0.3261 -0.0144 -0.4134
    9CHTO   H91 3628   6.175   3.501   3.813 -1.1223 -1.5811  0.5518
    9CHTO   C47 3629   6.286   3.585   3.982 -0.0639  0.5383  0.5492
    9CHTO   H89 3630   6.185   3.605   4.023 -0.1975  0.8241  0.0785
    9CHTO   O33 3631   6.325   3.703   3.905 -0.5546 -0.3943  0.1912
    9CHTO   H70 3632   6.266   3.698   3.832 -3.7999 -0.3722  2.6549
    9CHTO   C45 3633   6.399   3.537   4.096  0.6379  0.0369 -0.2974
    9CHTO   H87 3634   6.499   3.568   4.064  1.4466 -1.3357  0.8433
    9CHTO    N8 3635   6.366   3.606   4.227 -0.2141 -0.2930 -0.2809
    9CHTO   H75 3636   6.272   3.569   4.265  1.5162 -2.0927  2.4327
    9CHTO   H76 3637   6.372   3.713   4.221 -0.3287 -0.2419  0.4537
    9CHTO   C43 3638   6.391   3.386   4.110  0.1121 -0.1449  0.2918
    9CHTO   H85 3639   6.450   3.343   4.028  1.3698 -2.5722  2.3650
    9CHTO   O29 3640   6.254   3.339   4.108 -0.3404  0.4304 -0.0207
    9CHTO   C50 3641   6.201   3.354   3.972  0.4917 -0.2659  0.4567
    9CHTO   H92 3642   6.213   3.257   3.921 -2.3637 -0.2231 -0.3842
    9CHTO   C54 3643   6.055   3.351   3.994  0.1759 -0.4392 -0.2306
    9CHTO   O36 3644   5.994   3.472   4.054  0.0507  0.3680  0.0007
    9CHTO   H72 3645   6.047   3.522   4.112 -1.0979  0.4680  0.9915
    9CHTO   O27 3646   6.465   3.328   4.218 -0.1074  0.4851 -0.2556
    9CHTO   C37 3647   6.598   3.304   4.270 -0.4966  0.4884 -0.2286
    9CHTO   H79 3648   6.603   3.208   4.323  2.0736  0.2834 -0.7847
    9CHTO   C38 3649   6.694   3.289   4.146 -0.3771  0.0626  0.2227
    9CHTO   H80 3650   6.677   3.372   4.076 -0.0975  1.0220  1.2596
    9CHTO   O31 3651   6.656   3.173   4.071  0.2529  0.0969  0.1480
    9CHTO   H68 3652   6.573   3.134   4.090  0.1666 -0.0426 -0.5122
    9CHTO   C39 3653   6.845   3.296   4.190 -0.1457 -0.7950 -0.0845
    9CHTO   H81 3654   6.863   3.214   4.260  0.8324 -2.1685 -1.9077
    9CHTO    N7 3655   6.949   3.289   4.075  0.4725  0.1099  0.1537
    9CHTO   H73 3656   7.051   3.292   4.111  0.5844  2.5248 -0.2484
    9CHTO   H74 3657   6.949   3.194   4.025 -1.7687  0.6721 -0.9976
    9CHTO   C40 3658   6.863   3.426   4.278 -0.9719 -0.8640 -0.5048
    9CHTO   H82 3659   6.831   3.516   4.225 -1.4553 -0.6403  0.1710
    9CHTO   O26 3660   6.787   3.403   4.397  0.9570  0.7701 -0.4220
    9CHTO   C41 3661   6.646   3.417   4.362  0.2851  0.3062  1.2137
    9CHTO   H83 3662   6.621   3.517   4.324 -0.7579  1.1060  3.8862
    9CHTO   C52 3663   6.581   3.399   4.498  0.6481  0.0021  0.1115
    9CHTO   O35 3664   6.456   3.443   4.518 -0.0012  0.1921  0.3799
    9CHTO   H71 3665   6.423   3.404   4.596  1.8466 -1.4820  0.3924
    9CHTO   O28 3666   6.997   3.446   4.332  0.3800  0.3549  0.5128
    9CHTO   C42 3667   7.027   3.574   4.366  0.5220  0.0077 -0.2921
    9CHTO   H84 3668   7.121   3.558   4.419  0.1053 -3.7066 -0.5207
    9CHTO   C44 3669   6.936   3.640   4.474 -0.1348 -0.0608 -0.0293
    9CHTO   H86 3670   6.830   3.624   4.451 -1.0980  1.7041  2.9154
    9CHTO   O32 3671   6.959   3.567   4.598  0.2225  0.1149 -0.6726
    9CHTO   H69 3672   7.047   3.539   4.614 -0.0131  0.3395  1.1674
    9CHTO   C48 3673   6.968   3.792   4.477 -0.0594  0.2120  0.3017
    9CHTO   H90 3674   7.068   3.797   4.520 -0.0560 -2.4175  0.6972
    9CHTO    N9 3675   6.875   3.864   4.576 -0.0834  0.6685 -0.0509
    9CHTO   H77 3676   6.821   3.945   4.529 -0.5890  3.4499  5.0077
    9CHTO   H78 3677   6.933   3.909   4.655 -0.7638 -0.0861  0.8896
    9CHTO   C51 3678   6.963   3.853   4.340  0.3047 -0.4996  0.6998
    9CHTO   H93 3679   6.868   3.816   4.301  0.4720  0.5183 -0.6945
    9CHTO   O30 3680   7.068   3.811   4.252  0.2309  0.1568  0.5782
    9CHTO   C46 3681   7.055   3.662   4.237 -0.0823  0.0562 -0.6692
    9CHTO   H88 3682   6.962   3.646   4.182 -1.6683  3.0580  1.0194
    9CHTO   C53 3683   7.172   3.610   4.148 -0.0518 -0.2974  0.3366
    9CHTO   O72 3684   7.130   3.585   4.018 -0.0388 -0.5929 -0.1465
    9CHTO  H199 3685   7.196   3.601   3.953  0.3033 -0.4248  0.2426
    9CHTO   O22 3686   6.972   3.998   4.339  0.5370 -0.2244 -0.4336
    9CHTO   C31 3687   6.908   4.079   4.227  0.5192 -0.2711  0.3416
    9CHTO   H59 3688   6.921   4.185   4.259 -1.1211 -0.4178  1.5744
    9CHTO   C29 3689   6.982   4.068   4.093  0.5192  0.0013 -0.5730
    9CHTO   H57 3690   6.981   3.961   4.068  1.3174 -0.0036 -0.6032
    9CHTO   O21 3691   7.118   4.104   4.113 -0.2396  0.0254  0.0685
    9CHTO   H37 3692   7.174   4.060   4.053  0.0156  1.7819 -1.0031
    9CHTO   C27 3693   6.912   4.141   3.969 -0.3858 -0.1392  0.5452
    9CHTO   H55 3694   6.919   4.250   3.982 -2.8903 -0.0443  1.3781
    9CHTO    N5 3695   6.979   4.110   3.841 -0.5542 -0.0796  0.5846
    9CHTO   H43 3696   7.035   4.196   3.807  1.1545 -1.7012 -0.7896
    9CHTO   H44 3697   7.051   4.036   3.872 -0.6496 -0.9109 -1.1128
    9CHTO   C25 3698   6.758   4.109   3.969 -0.2153 -0.5654  0.6536
    9CHTO   H53 3699   6.751   4.000   3.957  1.8227 -0.6463  0.0661
    9CHTO   O17 3700   6.706   4.155   4.102 -0.0255  0.4614  0.2821
    9CHTO   C32 3701   6.757   4.063   4.205  0.2738  0.3066 -0.3000
    9CHTO   H60 3702   6.735   3.964   4.164 -2.3370  0.6486  0.1810
    9CHTO   C36 3703   6.667   4.079   4.333  0.3257 -0.1766 -0.7180
    9CHTO   O25 3704   6.532   4.053   4.303 -0.0450 -0.4540 -0.0097
    9CHTO   H40 3705   6.475   4.105   4.356  0.5856  0.0267  0.2048
    9CHTO   O15 3706   6.688   4.202   3.841 -0.3166  0.3312  0.4449
    9CHTO   C19 3707   6.577   4.164   3.753  0.4236 -0.3482 -0.0211
    9CHTO   H47 3708   6.532   4.262   3.732 -0.8748 -0.7100  0.9328
    9CHTO   C20 3709   6.624   4.090   3.624  0.0201 -0.5022  0.0354
    9CHTO   H48 3710   6.677   3.996   3.647 -1.5135 -1.1580  0.9778
    9CHTO   O19 3711   6.714   4.184   3.561  0.1335 -0.3410  0.0585
    9CHTO   H35 3712   6.716   4.162   3.469  0.5157 -2.2907  0.5172
    9CHTO   C21 3713   6.499   4.066   3.531  0.2689 -0.4145 -0.0873
    9CHTO   H49 3714   6.446   4.160   3.519 -1.6374 -1.6881 -1.9583
    9CHTO    N4 3715   6.532   4.004   3.398  0.6148  0.1154 -0.0114
    9CHTO   H41 3716   6.440   3.999   3.342  0.5176  0.1818  0.1407
    9CHTO   H42 3717   6.569   3.904   3.413 -0.2136 -0.1642  0.1930
    9CHTO   C22 3718   6.398   3.986   3.621  0.1473 -0.8217 -0.1785
    9CHTO   H50 3719   6.455   3.894   3.631 -1.7585 -2.1604 -1.2611
    9CHTO   O14 3720   6.358   4.051   3.739 -0.3584 -0.4649  0.0717
    9CHTO   C23 3721   6.473   4.083   3.826 -0.2213  0.7641  0.1054
    9CHTO   H51 3722   6.517   3.994   3.872  1.0098  1.6791  0.7144
    9CHTO   C34 3723   6.428   4.169   3.940 -0.2891 -0.6285 -0.0961
    9CHTO   O23 3724   6.312   4.116   4.009  0.2356  0.3330  0.5754
    9CHTO   H38 3725   6.265   4.191   4.042  1.0540  0.1377  2.2682
    9CHTO   O16 3726   6.275   3.964   3.546  0.3281  0.3575  0.0848
    9CHTO   C24 3727   6.162   3.853   3.597  0.9403  0.3694 -0.3836
    9CHTO   H52 3728   6.173   3.828   3.703 -2.1588  0.5873  0.0163
    9CHTO   C26 3729   6.179   3.735   3.498  0.3826 -0.1808  0.7464
    9CHTO   H54 3730   6.180   3.783   3.398  0.8816  1.1984  1.4134
    9CHTO   O20 3731   6.307   3.669   3.529  0.2998 -0.4140  0.3460
    9CHTO   H36 3732   6.372   3.736   3.536  0.9823 -1.1917  1.5232
    9CHTO   C30 3733   6.061   3.632   3.498 -0.6921 -0.3609  1.0638
    9CHTO   H58 3734   6.051   3.576   3.593  1.1257 -1.3970  0.6867
    9CHTO    N6 3735   6.078   3.536   3.390 -0.3360  0.4758  0.3632
    9CHTO   H45 3736   6.017   3.451   3.413  0.4670 -0.7441 -1.8743
    9CHTO   H46 3737   6.050   3.579   3.295  0.9546  3.6596  1.3415
    9CHTO   C33 3738   5.923   3.711   3.484 -0.1797 -0.0642 -0.0707
    9CHTO   H61 3739   5.896   3.762   3.391  0.0644 -0.9242 -0.6146
    9CHTO   O18 3740   5.922   3.812   3.589 -0.0210 -0.2400 -0.3537
    9CHTO   C28 3741   6.022   3.909   3.582 -0.5163 -0.4642  0.3056
    9CHTO   H56 3742   6.016   3.960   3.486 -0.2916  0.7315  0.9164
    9CHTO   C35 3743   6.009   4.013   3.692  0.2454 -0.7737 -0.8915
    9CHTO   O24 3744   5.897   4.098   3.670  0.0215 -0.0756  0.2854
    9CHTO   H39 3745   5.883   4.144   3.750 -0.9335  0.5791 -0.2586
    9CHTO    O9 3746   5.818   3.616   3.503  0.2692 -0.7492 -0.3805
    9CHTO   C13 3747   5.685   3.639   3.420 -0.0097  0.7331 -0.1237
    9CHTO   H26 3748   5.716   3.673   3.319 -0.7193  1.7573 -0.0032
    9CHTO   C11 3749   5.581   3.739   3.489 -0.8661 -0.0853  0.2020
    9CHTO   H24 3750   5.615   3.838   3.454 -0.6055 -0.9620 -2.1073
    9CHTO    O8 3751   5.593   3.740   3.637  0.3452 -0.2962  0.0217
    9CHTO    H3 3752   5.567   3.654   3.664  1.5570 -0.6024  0.2334
    9CHTO    C9 3753   5.439   3.715   3.431 -0.2607  0.0014 -0.2511
    9CHTO   H22 3754   5.450   3.704   3.322  1.3898 -1.3629  0.0277
    9CHTO    N2 3755   5.355   3.826   3.461 -0.2199 -0.9895 -0.2426
    9CHTO   H10 3756   5.254   3.798   3.486  0.1038 -2.0738 -0.1170
    9CHTO   H11 3757   5.355   3.890   3.374  1.3656 -0.1393  0.3573
    9CHTO    C7 3758   5.398   3.578   3.488 -0.3353 -0.6839 -0.5171
    9CHTO   H20 3759   5.304   3.554   3.434  0.6891 -5.1143 -0.5213
    9CHTO    O4 3760   5.499   3.478   3.466  0.8845  0.1397  0.1320
    9CHTO   C14 3761   5.612   3.502   3.378  0.7086  0.0138 -0.0171
    9CHTO   H27 3762   5.565   3.507   3.278  0.7049  1.4223  0.0501
    9CHTO   C18 3763   5.717   3.379   3.376  0.1072 -0.7360  0.2604
    9CHTO   O13 3764   5.765   3.342   3.508  0.3601  0.0396  0.5500
    9CHTO    H7 3765   5.858   3.349   3.517  0.1603 -0.9671  3.7664
    9CHTO    O2 3766   5.356   3.584   3.650 -0.0118 -0.4153  0.1795
    9CHTO    C1 3767   5.323   3.456   3.703 -0.0269 -0.1782 -0.5377
    9CHTO   H14 3768   5.372   3.373   3.647  0.5891  0.1241 -0.4570
    9CHTO    C2 3769   5.164   3.433   3.712  0.0856 -0.3260  0.1321
    9CHTO   H15 3770   5.122   3.520   3.764  2.4123 -0.3727  2.1466
    9CHTO    O6 3771   5.113   3.431   3.575  0.1601 -0.9367  0.2478
    9CHTO    H1 3772   5.022   3.453   3.572  0.3011 -0.0635  1.7729
    9CHTO    C3 3773   5.131   3.296   3.792 -0.2574 -0.0623  0.0288
    9CHTO   H16 3774   5.162   3.204   3.739  2.4478  0.7826  0.0640
    9CHTO    N1 3775   4.982   3.267   3.808 -0.3140 -0.0358 -0.1497
    9CHTO    H8 3776   4.976   3.161   3.788  4.2341 -0.4718  0.2716
    9CHTO    H9 3777   4.923   3.318   3.734 -0.3805 -2.5179 -1.8655
    9CHTO    C4 3778   5.205   3.305   3.927 -0.7891 -0.0130  0.5038
    9CHTO   H17 3779   5.174   3.398   3.975 -1.7361 -1.1158  2.0513
    9CHTO    O1 3780   5.345   3.321   3.902  0.0926  0.1332 -0.3182
    9CHTO    C5 3781   5.387   3.445   3.840 -0.0533 -0.4629 -0.1010
    9CHTO   H18 3782   5.346   3.527   3.898 -0.9773 -0.5917 -0.5685
    9CHTO   C16 3783   5.545   3.449   3.841  0.5535 -0.0444 -0.4933
    9CHTO   O11 3784   5.616   3.346   3.782 -0.1758  0.5816  0.0772
    9CHTO    H5 3785   5.620   3.356   3.689  1.2081  0.4922  0.1197
    9CHTO    O3 3786   5.203   3.187   4.009  0.1483  0.4111 -0.2540
    9CHTO    C6 3787   5.224   3.215   4.151 -0.1171 -0.8299  0.3901
    9CHTO   H19 3788   5.274   3.311   4.167  1.0175 -1.4082  0.3521
    9CHTO    C8 3789   5.095   3.234   4.232 -0.2011 -0.2243  0.4400
    9CHTO   H21 3790   5.046   3.137   4.233 -1.0535  0.1099 -2.4917
    9CHTO    O7 3791   5.013   3.341   4.179  0.2372  0.0249  0.5413
    9CHTO    H2 3792   5.063   3.417   4.155 -0.9216  0.1492 -1.6288
    9CHTO   C12 3793   5.133   3.258   4.383  0.5724  0.2321 -0.4453
    9CHTO   H25 3794   5.199   3.347   4.388 -1.0601  1.5972 -2.5484
    9CHTO    N3 3795   5.015   3.297   4.472 -0.5349  0.2292  0.1158
    9CHTO   H12 3796   5.021   3.262   4.573  0.7304 -0.2300 -0.1096
    9CHTO   H13 3797   4.922   3.255   4.436  1.3209 -4.2766  0.3193
    9CHTO   C15 3798   5.215   3.132   4.435  0.4927 -0.1031  0.2066
    9CHTO   H28 3799   5.159   3.038   4.435 -0.0932  0.2275 -1.5723
    9CHTO   O10 3800   5.281   3.171   4.586 -0.3312 -0.2925 -0.1338
    9CHTO    H4 3801   5.314   3.259   4.596  0.7207 -0.6916 -0.0459
    9CHTO    O5 3802   5.329   3.106   4.357 -0.1167 -0.0104  0.5793
    9CHTO   C10 3803   5.311   3.104   4.213  0.4222 -0.0632  0.5957
    9CHTO   H23 3804   5.279   3.001   4.195  2.0188 -0.4341 -0.2140
    9CHTO   C17 3805   5.452   3.098   4.155 -0.8410  0.2508 -0.1221
    9CHTO   O12 3806   5.501   2.967   4.127  0.0616  0.4525 -0.1319
    9CHTO    H6 3807   5.552   2.955   4.050  0.2507 -0.2121  0.0961
   10CHTO  H203 3808   5.674   6.145  -1.580  0.4075  0.9409 -0.8212
   10CHTO   O82 3809   5.599   6.153  -1.635 -0.0433  0.0594 -0.3411
   10CHTO  C123 3810   5.495   6.173  -1.540 -0.1280  0.0604 -0.2092
   10CHTO  H227 3811   5.415   6.228  -1.591  0.5709 -0.8840 -2.3992
   10CHTO   O77 3812   5.460   6.034  -1.513 -0.1403 -0.1364  0.4051
   10CHTO  C118 3813   5.340   6.018  -1.440 -0.0802 -0.2090  0.0577
   10CHTO  H222 3814   5.259   6.068  -1.495 -0.6239  0.3736  1.3656
   10CHTO  C125 3815   5.310   5.860  -1.426  0.0167 -0.6116 -0.1632
   10CHTO   O84 3816   5.244   5.803  -1.539 -0.2886  0.1459 -0.1436
   10CHTO  H205 3817   5.289   5.726  -1.567  1.4149  1.7051 -1.8368
   10CHTO  C114 3818   5.360   6.069  -1.292  0.2055 -0.3218  0.8492
   10CHTO  H218 3819   5.427   5.997  -1.245  0.1330 -1.4847 -0.7908
   10CHTO  C116 3820   5.427   6.211  -1.284  0.1606 -0.0648  0.4817
   10CHTO  H220 3821   5.355   6.295  -1.291  1.6085  1.0874 -1.0978
   10CHTO   O79 3822   5.486   6.227  -1.154  0.3192  0.2339 -0.4829
   10CHTO  H201 3823   5.549   6.158  -1.141 -0.0958 -0.2252 -0.8665
   10CHTO  C120 3824   5.538   6.233  -1.400 -0.3388 -0.2065  0.0647
   10CHTO  H224 3825   5.617   6.165  -1.362 -0.0366 -0.7004 -1.4066
   10CHTO   N21 3826   5.584   6.373  -1.419 -0.1054 -0.2895 -0.4242
   10CHTO  H211 3827   5.622   6.391  -1.518  1.1182  0.4123  0.1622
   10CHTO  H212 3828   5.649   6.400  -1.337 -3.2192  0.4490  1.9172
   10CHTO   O75 3829   5.226   6.065  -1.235  0.0064 -0.1305  0.0653
   10CHTO  C112 3830   5.230   6.066  -1.077 -0.2632 -0.4901  0.0116
   10CHTO  H216 3831   5.296   6.139  -1.028  0.4966 -1.6400  0.7216
   10CHTO   O73 3832   5.261   5.934  -1.034 -0.3459 -0.2171 -0.1084
   10CHTO  C113 3833   5.246   5.909  -0.898 -0.4671  0.6335 -0.3839
   10CHTO  H217 3834   5.303   5.989  -0.846 -0.3141  0.2090  0.1097
   10CHTO  C124 3835   5.300   5.773  -0.859  0.0219 -0.2377  0.7318
   10CHTO   O83 3836   5.252   5.651  -0.920  0.2491 -0.0515 -0.0551
   10CHTO  H204 3837   5.314   5.581  -0.916  0.5374  0.2657  1.2469
   10CHTO  C109 3838   5.096   5.929  -0.858 -0.5047  0.1838  0.3760
   10CHTO  H213 3839   5.039   5.854  -0.914 -0.1054  0.2340 -0.0964
   10CHTO  C110 3840   5.048   6.075  -0.889 -0.3787 -0.0624  1.3379
   10CHTO  H214 3841   5.102   6.145  -0.825 -2.7005  0.8720  2.3216
   10CHTO   O78 3842   4.906   6.072  -0.877 -0.4458  0.4093  0.1211
   10CHTO  H200 3843   4.872   6.090  -0.791  1.3877 -2.4632  1.5217
   10CHTO  C111 3844   5.077   6.113  -1.033 -0.1576 -0.4149 -0.5043
   10CHTO  H215 3845   5.009   6.054  -1.096  1.0393 -2.9373  0.4814
   10CHTO   N19 3846   5.056   6.259  -1.057  0.4582 -0.2486  0.4661
   10CHTO  H207 3847   4.981   6.306  -0.995  1.9892  2.4822  0.3419
   10CHTO  H208 3848   5.152   6.309  -1.064 -0.5299  1.6241 -0.0643
   10CHTO   O74 3849   5.070   5.908  -0.716 -0.2027 -0.3961 -0.8344
   10CHTO  C115 3850   4.941   5.786  -0.687  0.2638 -0.3818  0.6941
   10CHTO  H219 3851   4.842   5.823  -0.713  0.3186 -1.3668 -1.0108
   10CHTO   O76 3852   4.955   5.658  -0.778  0.5176 -0.0602  0.0896
   10CHTO  C122 3853   4.878   5.538  -0.746  0.0253 -0.0341 -0.5369
   10CHTO  H226 3854   4.924   5.456  -0.801  1.3047 -0.0702  0.5804
   10CHTO  C126 3855   4.739   5.560  -0.815  0.9026 -0.7988 -0.0868
   10CHTO   O85 3856   4.652   5.448  -0.814 -0.0060  0.3662 -0.0225
   10CHTO  H206 3857   4.589   5.459  -0.883  2.6629  2.2811 -2.2493
   10CHTO  C121 3858   4.869   5.506  -0.590  0.6933  0.5086 -0.2981
   10CHTO  H225 3859   4.796   5.423  -0.576  1.2074 -0.1339 -1.3375
   10CHTO   O81 3860   4.997   5.451  -0.560 -0.0865  0.9584 -0.2861
   10CHTO  H202 3861   5.017   5.441  -0.468 -0.2796  1.2908 -0.2066
   10CHTO  C119 3862   4.838   5.636  -0.505  0.2881 -0.3332  0.1214
   10CHTO  H223 3863   4.742   5.678  -0.536  0.4387  0.0026  0.1039
   10CHTO  C117 3864   4.948   5.749  -0.535 -0.7380  0.7158 -0.6707
   10CHTO  H221 3865   5.051   5.722  -0.511 -0.4957  0.3055 -2.1623
   10CHTO   N20 3866   4.915   5.874  -0.462 -0.1092 -0.1696 -0.5694
   10CHTO  H209 3867   4.979   5.951  -0.504  0.7188 -0.6443 -0.2063
   10CHTO  H210 3868   4.815   5.909  -0.482  0.4331  2.3476  0.8116
   10CHTO   O80 3869   4.802   5.602  -0.351 -0.1636  0.1355 -0.1022
   10CHTO  C103 3870   4.681   5.485  -0.323 -0.4518  0.1549 -0.5933
   10CHTO  H190 3871   4.645   5.454  -0.421 -3.1077 -1.3281  0.7849
   10CHTO  C101 3872   4.712   5.355  -0.236  0.4300 -0.4167 -0.3313
   10CHTO  H188 3873   4.772   5.394  -0.154 -1.5933  0.5759  0.7007
   10CHTO   O68 3874   4.809   5.254  -0.321  0.2275 -0.0421 -0.3957
   10CHTO  H168 3875   4.877   5.294  -0.371  0.4687  0.6094  0.4431
   10CHTO   C99 3876   4.576   5.285  -0.182  0.0013  0.1087  0.7889
   10CHTO  H186 3877   4.531   5.248  -0.277  0.0669  0.6613  0.5400
   10CHTO   N17 3878   4.599   5.162  -0.106  0.1319 -0.7130 -0.0312
   10CHTO  H174 3879   4.704   5.137  -0.098  0.0515 -0.7789  0.9411
   10CHTO  H175 3880   4.565   5.167  -0.004 -0.4028 -1.0874 -0.1913
   10CHTO   C97 3881   4.473   5.393  -0.132 -0.2933  0.3238 -0.5074
   10CHTO  H184 3882   4.501   5.434  -0.034  0.3859 -2.3875  0.4736
   10CHTO   O64 3883   4.456   5.490  -0.230  0.0561  0.2731 -0.0010
   10CHTO  C104 3884   4.568   5.575  -0.258 -0.2024 -0.4907 -0.6615
   10CHTO  H191 3885   4.599   5.621  -0.164  0.4948  1.1163 -1.6469
   10CHTO  C108 3886   4.519   5.698  -0.344 -0.6670  0.1102  0.6962
   10CHTO   O71 3887   4.605   5.809  -0.364  0.9663 -0.4214  0.2203
   10CHTO  H171 3888   4.575   5.867  -0.432 -1.0659 -1.1581  0.4550
   10CHTO   O62 3889   4.345   5.339  -0.135 -0.1911  0.0916  0.1897
   10CHTO   C91 3890   4.259   5.336  -0.016 -0.4202 -0.2013  0.5730
   10CHTO  H178 3891   4.331   5.335   0.067 -0.5180  2.1244  0.7141
   10CHTO   C92 3892   4.185   5.190  -0.010  0.1793  0.4198  0.4586
   10CHTO  H179 3893   4.138   5.177  -0.108  0.1803  1.5410  0.3019
   10CHTO   O66 3894   4.280   5.083   0.006 -0.1450 -0.0112 -0.2168
   10CHTO  H166 3895   4.255   5.011  -0.048 -0.5675  0.8201 -1.1466
   10CHTO   C93 3896   4.071   5.183   0.098 -0.7433  0.5231  0.0762
   10CHTO  H180 3897   4.126   5.177   0.194 -3.4511 -2.1726  1.5354
   10CHTO   N16 3898   3.990   5.063   0.090  0.0739  0.0674 -0.3659
   10CHTO  H172 3899   3.890   5.068   0.048 -0.2385  0.1517  0.3882
   10CHTO  H173 3900   4.046   4.982   0.046 -1.2752 -1.5617  0.8579
   10CHTO   C94 3901   3.977   5.313   0.102 -0.0672  0.4066 -0.0929
   10CHTO  H181 3902   3.913   5.319   0.015 -1.7589  1.3568  1.1836
   10CHTO   O61 3903   4.059   5.435   0.102  0.2869 -0.2385  0.3789
   10CHTO   C95 3904   4.154   5.449  -0.007 -0.1402 -0.0040  0.0190
   10CHTO  H182 3905   4.095   5.454  -0.098 -3.5208 -1.0390  2.0855
   10CHTO  C106 3906   4.209   5.588   0.014 -0.4526 -0.1634  0.4646
   10CHTO   O69 3907   4.243   5.663  -0.105 -0.0922  0.2591 -0.0196
   10CHTO  H169 3908   4.204   5.747  -0.090 -3.2029 -0.8802 -1.2006
   10CHTO   O63 3909   3.884   5.310   0.244  0.0352 -0.1176 -0.2074
   10CHTO   C96 3910   3.935   5.349   0.368 -0.2596 -0.3926  0.0648
   10CHTO  H183 3911   4.032   5.395   0.351  0.3684 -1.6985  0.0871
   10CHTO   C98 3912   3.948   5.238   0.481  0.1137 -0.0807  0.3807
   10CHTO  H185 3913   3.853   5.183   0.491  0.3096 -0.4842  0.0539
   10CHTO   O67 3914   4.041   5.144   0.427 -0.0329 -0.0043  0.1424
   10CHTO  H167 3915   4.126   5.176   0.407 -0.5774  1.7495  0.5614
   10CHTO  C102 3916   4.006   5.295   0.621 -0.0972 -0.7349 -0.9281
   10CHTO  H189 3917   4.115   5.300   0.605  0.5020 -1.6948  2.5130
   10CHTO   N18 3918   3.989   5.202   0.737 -0.3960 -0.3898  0.2403
   10CHTO  H176 3919   3.959   5.104   0.702 -0.6678 -0.7882  1.5508
   10CHTO  H177 3920   3.947   5.241   0.829 -0.3482  0.9737 -0.3101
   10CHTO  C105 3921   3.957   5.440   0.656  0.0667  0.7538 -0.2407
   10CHTO  H192 3922   3.879   5.436   0.732  0.1150  2.4005 -0.0803
   10CHTO   O65 3923   3.909   5.517   0.545  0.0017 -0.1148  0.3817
   10CHTO  C100 3924   3.852   5.468   0.420  0.5798  0.1477  0.4172
   10CHTO  H187 3925   3.751   5.427   0.432  0.7020 -0.0653  0.7459
   10CHTO  C107 3926   3.848   5.592   0.329 -0.1624 -0.1730  0.0843
   10CHTO   O70 3927   3.762   5.552   0.222  0.3536 -0.0419  0.7300
   10CHTO  H170 3928   3.719   5.629   0.191 -0.4318 -1.5946 -2.1913
   10CHTO   O57 3929   4.074   5.502   0.718 -0.2605  0.5619  0.1291
   10CHTO   C85 3930   4.064   5.624   0.800  1.1658 -0.1098 -0.0424
   10CHTO  H157 3931   3.959   5.637   0.835  2.2267  2.3828  2.3590
   10CHTO   C83 3932   4.086   5.754   0.718  0.0371 -0.5989  0.2632
   10CHTO  H155 3933   4.015   5.761   0.635 -1.1959  1.4131  1.4489
   10CHTO   O56 3934   4.218   5.751   0.665  0.4667  0.3129 -0.1969
   10CHTO  H135 3935   4.217   5.712   0.580 -2.1643 -0.7779  0.2656
   10CHTO   C81 3936   4.067   5.876   0.815 -0.3984 -0.4310  0.3349
   10CHTO  H153 3937   3.968   5.870   0.859 -0.5342  1.2969  0.2946
   10CHTO   N14 3938   4.075   6.012   0.759 -0.0890  0.0983  0.2624
   10CHTO  H141 3939   4.053   6.090   0.830 -1.3220  0.3917 -0.4265
   10CHTO  H142 3940   4.000   6.011   0.683 -1.1413 -1.5733  1.3061
   10CHTO   C79 3941   4.182   5.855   0.932  0.0703 -0.0268 -0.2139
   10CHTO  H151 3942   4.164   5.934   1.004 -0.0300  0.2679 -0.5571
   10CHTO   O52 3943   4.155   5.732   1.010 -0.1772 -0.5484 -0.6564
   10CHTO   C86 3944   4.170   5.620   0.922 -0.2722 -0.0331 -0.5176
   10CHTO  H158 3945   4.275   5.618   0.887  0.8023 -0.7716  2.6599
   10CHTO   C90 3946   4.144   5.497   1.011  0.0366  0.7739 -0.2531
   10CHTO   O60 3947   4.248   5.475   1.102 -0.4896 -0.0934 -0.7908
   10CHTO  H138 3948   4.332   5.454   1.065 -0.3386 -1.0511  0.0634
   10CHTO   O50 3949   4.315   5.873   0.885  0.2696  0.4885  0.4644
   10CHTO   C73 3950   4.456   5.853   0.882  0.1692  0.4626  0.0153
   10CHTO  H145 3951   4.476   5.802   0.786  2.5191  2.2933 -0.5102
   10CHTO   C74 3952   4.507   5.766   1.003  0.3725 -0.2426  0.1852
   10CHTO  H146 3953   4.439   5.680   0.996  0.6204 -0.3720 -0.8024
   10CHTO   O54 3954   4.640   5.721   0.971 -0.7182  0.4555  0.0968
   10CHTO  H133 3955   4.665   5.659   1.037  1.5281  0.1538 -1.0043
   10CHTO   C75 3956   4.487   5.844   1.131  0.8563 -0.4740 -0.0132
   10CHTO  H147 3957   4.383   5.874   1.147  0.5287 -0.7002 -1.6214
   10CHTO   N13 3958   4.533   5.773   1.252  0.4301  0.2538 -0.1811
   10CHTO  H139 3959   4.637   5.750   1.233  0.4991  0.4833 -0.0902
   10CHTO  H140 3960   4.528   5.834   1.341  2.3447  1.9280 -1.1696
   10CHTO   C76 3961   4.564   5.985   1.113 -1.2068 -0.2146  0.6928
   10CHTO  H148 3962   4.666   5.960   1.082 -1.2416 -1.1966  1.3191
   10CHTO   O49 3963   4.498   6.065   1.005  0.0144  0.1967  1.3663
   10CHTO   C77 3964   4.522   5.993   0.881  0.1861  0.4990  0.0644
   10CHTO  H149 3965   4.630   5.986   0.871  0.4586  3.1057  0.8364
   10CHTO   C88 3966   4.473   6.075   0.763 -0.2627 -0.9741 -0.3757
   10CHTO   O58 3967   4.522   6.235   0.775 -0.8124 -0.4128  0.0673
   10CHTO  H136 3968   4.537   6.272   0.690 -0.1797 -0.4630  0.1570
   10CHTO   O51 3969   4.544   6.072   1.242 -0.9311 -0.5145  0.1467
   10CHTO   C78 3970   4.666   6.181   1.278  0.3016 -0.5567  0.2073
   10CHTO  H150 3971   4.719   6.207   1.184  0.1759 -2.0577 -0.2969
   10CHTO   C80 3972   4.776   6.121   1.371  0.2898  0.3007  0.2559
   10CHTO  H152 3973   4.728   6.077   1.461  0.4095 -1.5865 -0.5804
   10CHTO   O55 3974   4.847   6.023   1.296  0.0604 -0.0033 -0.1783
   10CHTO  H134 3975   4.886   5.960   1.353 -1.2575 -1.5991 -1.0063
   10CHTO   C84 3976   4.889   6.230   1.405  0.0768  0.0671 -0.0490
   10CHTO  H156 3977   4.955   6.257   1.323 -0.3641 -0.2493 -0.5025
   10CHTO   N15 3978   4.991   6.175   1.508  0.4968  0.2405 -0.4150
   10CHTO  H143 3979   4.950   6.199   1.604 -0.0835 -0.3189 -0.5178
   10CHTO  H144 3980   4.985   6.068   1.505 -1.2790  0.2361  1.8046
   10CHTO   C87 3981   4.827   6.362   1.453 -0.0742  0.2341 -0.4230
   10CHTO  H159 3982   4.784   6.349   1.553 -0.8482 -1.8207 -1.0065
   10CHTO   O53 3983   4.721   6.410   1.361 -0.0392  0.2266 -0.6019
   10CHTO   C82 3984   4.618   6.311   1.337 -0.6318 -0.6119 -0.4574
   10CHTO  H154 3985   4.562   6.294   1.429  0.5490 -1.1547  0.1589
   10CHTO   C89 3986   4.519   6.381   1.243 -0.0067  0.0671 -0.4674
   10CHTO   O59 3987   4.381   6.389   1.296 -0.3025  0.2194 -0.3382
   10CHTO  H137 3988   4.382   6.419   1.385  0.1463  0.0370 -0.2767
   10CHTO   O45 3989   4.934   6.484   1.462  0.1587  0.5108 -0.0194
   10CHTO   C67 3990   4.897   6.609   1.517 -0.3675 -0.1740 -0.6670
   10CHTO  H124 3991   4.799   6.618   1.564 -0.4467  1.5455 -1.1252
   10CHTO   C65 3992   5.001   6.659   1.617 -0.7621  0.0992 -0.8634
   10CHTO  H122 3993   5.004   6.580   1.692 -1.5778  2.0950  1.3489
   10CHTO   O44 3994   4.960   6.785   1.680 -0.4454  0.7926 -0.0394
   10CHTO  H102 3995   4.871   6.801   1.655 -1.3882  0.2626  2.8392
   10CHTO   C63 3996   5.147   6.665   1.548 -0.7197  0.1380  1.3894
   10CHTO  H120 3997   5.164   6.571   1.496 -1.9429  0.3522  0.5997
   10CHTO   N11 3998   5.273   6.696   1.636  0.5503 -0.4120  0.0195
   10CHTO  H108 3999   5.281   6.798   1.666  2.3159 -0.2802 -0.8238
   10CHTO  H109 4000   5.269   6.633   1.722 -2.5767 -3.2702 -2.0780
   10CHTO   C61 4001   5.125   6.764   1.421 -0.6401 -0.2238  0.0907
   10CHTO  H118 4002   5.216   6.738   1.365  0.1506 -1.2281  1.7860
   10CHTO   O40 4003   5.019   6.734   1.340 -0.3105 -0.4663 -0.5226
   10CHTO   C68 4004   4.879   6.699   1.392  0.7276 -0.0237  0.0716
   10CHTO  H125 4005   4.843   6.626   1.316  0.7662 -0.9208  0.9086
   10CHTO   C72 4006   4.778   6.818   1.390 -0.3812  0.1189 -0.3800
   10CHTO   O48 4007   4.756   6.856   1.253  0.1966 -0.2155  0.1767
   10CHTO  H105 4008   4.720   6.942   1.247  0.4729 -0.1051  0.0763
   10CHTO   O38 4009   5.129   6.903   1.464 -0.0702  0.1521 -0.2037
   10CHTO   C55 4010   5.205   6.991   1.384  0.2293 -0.8166  0.0742
   10CHTO  H112 4011   5.237   6.951   1.287 -0.6317  2.4431 -1.6470
   10CHTO   C56 4012   5.329   7.034   1.478 -0.1936 -0.1525  0.0825
   10CHTO  H113 4013   5.289   7.059   1.577  0.3199 -1.5500  0.6583
   10CHTO   O42 4014   5.423   6.923   1.501 -0.6787 -0.2540  0.1468
   10CHTO  H100 4015   5.379   6.863   1.557 -1.6444 -0.8879 -1.2711
   10CHTO   C57 4016   5.408   7.154   1.407 -0.1432 -0.3098 -0.1015
   10CHTO  H114 4017   5.452   7.113   1.317 -0.7028  0.4757 -0.7393
   10CHTO   N10 4018   5.512   7.212   1.490 -0.1581 -0.0544 -0.0093
   10CHTO  H106 4019   5.517   7.319   1.477  1.3060 -0.1382 -0.1760
   10CHTO  H107 4020   5.492   7.189   1.594  1.9605  1.0629  0.6707
   10CHTO   C58 4021   5.308   7.263   1.362  0.1186  0.0006 -0.2867
   10CHTO  H115 4022   5.266   7.313   1.452  2.9041  1.3805  0.3011
   10CHTO   O37 4023   5.209   7.212   1.279  0.2317 -0.7851  0.4033
   10CHTO   C59 4024   5.123   7.117   1.340 -0.2295  0.9135  0.4408
   10CHTO  H116 4025   5.069   7.167   1.420  0.9188  1.8640  0.6352
   10CHTO   C70 4026   5.030   7.078   1.226 -0.3057 -0.0211 -0.5826
   10CHTO   O46 4027   4.937   7.175   1.181 -0.3602  0.1467  0.1717
   10CHTO  H103 4028   4.981   7.257   1.185  0.0160 -0.0187 -0.5591
   10CHTO   O39 4029   5.380   7.374   1.258  0.2125 -0.0575 -0.2469
   10CHTO   C60 4030   5.316   7.496   1.269  0.3718 -0.2676 -0.2341
   10CHTO  H117 4031   5.215   7.483   1.307  1.5982 -1.1454  2.8638
   10CHTO   C62 4032   5.405   7.583   1.364  0.5529 -0.7746  0.3074
   10CHTO  H119 4033   5.386   7.544   1.466 -1.1669  1.7125  0.9843
   10CHTO   O43 4034   5.549   7.590   1.338 -0.0193  0.2353  0.4866
   10CHTO  H101 4035   5.592   7.558   1.415 -1.2272 -2.1660  0.2190
   10CHTO   C66 4036   5.344   7.731   1.371  0.0517 -0.2754  0.3794
   10CHTO  H123 4037   5.238   7.725   1.395 -0.0219 -1.2182 -0.1287
   10CHTO   N12 4038   5.402   7.812   1.480 -0.2459 -0.2918  0.1923
   10CHTO  H110 4039   5.368   7.914   1.471 -0.5206 -0.4982 -1.3129
   10CHTO  H111 4040   5.510   7.801   1.478 -0.3384 -1.4661  0.9664
   10CHTO   C69 4041   5.349   7.801   1.233 -0.0949  0.1298 -0.2545
   10CHTO  H126 4042   5.453   7.802   1.194  0.0772  2.7530  0.1588
   10CHTO   O41 4043   5.258   7.716   1.122  0.7004 -0.2455 -0.6161
   10CHTO   C64 4044   5.310   7.562   1.124 -0.0072 -0.8643  0.5112
   10CHTO  H121 4045   5.412   7.559   1.080  0.3815 -1.4222  1.4334
   10CHTO   C71 4046   5.211   7.475   1.042  0.2341  1.0071 -0.4764
   10CHTO   O47 4047   5.079   7.512   1.078 -0.3340  0.2617 -0.7739
   10CHTO  H104 4048   5.047   7.464   1.152 -0.3408  0.8127 -0.4137
   10CHTO   O34 4049   5.311   7.951   1.235  0.1213  0.0530  0.1132
   10CHTO   C49 4050   5.322   8.066   1.146  0.1263 -0.6755  0.2451
   10CHTO   H91 4051   5.402   8.041   1.076 -0.2877 -3.2882  0.6851
   10CHTO   C47 4052   5.342   8.196   1.232  0.6424  0.5020  0.6685
   10CHTO   H89 4053   5.340   8.285   1.165 -2.5355  1.3754  1.8205
   10CHTO   O33 4054   5.475   8.190   1.298  0.9635  0.0591 -0.1169
   10CHTO   H70 4055   5.545   8.180   1.235 -0.6739 -0.8339 -1.8414
   10CHTO   C45 4056   5.210   8.196   1.325 -0.5921  0.0131 -0.4296
   10CHTO   H87 4057   5.198   8.100   1.379  0.3587  0.4041  0.5007
   10CHTO    N8 4058   5.221   8.302   1.427  0.0676  0.4379  0.0919
   10CHTO   H75 4059   5.134   8.304   1.492  1.9287  2.0726  2.6374
   10CHTO   H76 4060   5.310   8.289   1.486 -0.3196 -0.8614  0.4138
   10CHTO   C43 4061   5.077   8.216   1.230  0.1279 -0.2790 -0.4421
   10CHTO   H85 4062   4.987   8.206   1.290 -0.5613  3.6810 -0.6643
   10CHTO   O29 4063   5.076   8.120   1.128  0.3035 -0.6594 -0.0613
   10CHTO   C50 4064   5.198   8.088   1.058  0.5415 -1.0389  0.6114
   10CHTO   H92 4065   5.186   7.992   1.005  4.0405 -2.0000  1.4336
   10CHTO   C54 4066   5.213   8.191   0.949 -0.2691  0.3008  0.0419
   10CHTO   O36 4067   5.331   8.171   0.867  0.3129 -0.6599 -0.0636
   10CHTO   H72 4068   5.341   8.090   0.821  0.6724 -0.6224 -0.0533
   10CHTO   O27 4069   5.076   8.352   1.184  0.2026  0.2188  0.1935
   10CHTO   C37 4070   5.051   8.460   1.091  0.3468 -0.1072 -0.4195
   10CHTO   H79 4071   5.113   8.437   1.002 -0.7041  0.0240 -1.2014
   10CHTO   C38 4072   4.908   8.459   1.039 -0.0802 -0.4692  0.4669
   10CHTO   H80 4073   4.840   8.465   1.125  0.9561  3.5985  1.1128
   10CHTO   O31 4074   4.891   8.328   0.986  0.9836 -0.5470 -0.6400
   10CHTO   H68 4075   4.810   8.325   0.938 -1.1603 -0.5561  2.8171
   10CHTO   C39 4076   4.877   8.577   0.932 -0.0873 -0.3817  0.1761
   10CHTO   H81 4077   4.935   8.559   0.841  0.4130 -1.4171  0.6925
   10CHTO    N7 4078   4.730   8.587   0.895  0.0034  0.2826 -0.0063
   10CHTO   H73 4079   4.706   8.678   0.948 -0.2865 -1.7715  3.5715
   10CHTO   H74 4080   4.675   8.510   0.948  0.1129 -1.1873 -1.9846
   10CHTO   C40 4081   4.931   8.713   0.990 -0.0838  0.4105  0.0474
   10CHTO   H82 4082   4.861   8.754   1.062 -1.7197 -0.6248 -0.9246
   10CHTO   O26 4083   5.066   8.703   1.035  0.0406  0.2222 -0.0987
   10CHTO   C41 4084   5.088   8.603   1.138 -0.1003 -0.7010  0.0198
   10CHTO   H83 4085   5.030   8.629   1.228  2.2162  2.7335  0.6409
   10CHTO   C52 4086   5.241   8.611   1.169  0.5250 -0.2047 -0.2728
   10CHTO   O35 4087   5.279   8.735   1.221 -0.5216 -0.1863 -0.5786
   10CHTO   H71 4088   5.271   8.732   1.315  1.9593  0.4951 -0.3058
   10CHTO   O28 4089   4.963   8.807   0.890 -0.6719  0.1181 -0.0274
   10CHTO   C42 4090   4.928   8.949   0.905 -0.2861  0.6103 -0.1302
   10CHTO   H84 4091   4.874   8.971   0.997  0.2232 -0.0919  0.3395
   10CHTO   C44 4092   4.837   8.994   0.796 -0.9441 -0.1003 -0.0027
   10CHTO   H86 4093   4.887   8.983   0.699 -4.2444 -1.0034 -1.7000
   10CHTO   O32 4094   4.725   8.911   0.801  0.6281 -0.6801 -0.4951
   10CHTO   H69 4095   4.727   8.836   0.744 -0.4292 -2.5305  1.8289
   10CHTO   C48 4096   4.809   9.145   0.808  0.0305 -0.6156  0.3046
   10CHTO   H90 4097   4.764   9.157   0.906  1.0926  0.0018  0.7227
   10CHTO    N9 4098   4.710   9.202   0.704  0.1767  0.7391 -0.3528
   10CHTO   H77 4099   4.742   9.219   0.602 -2.3176 -1.7713 -1.6068
   10CHTO   H78 4100   4.612   9.158   0.707 -0.4007  2.0853  3.1150
   10CHTO   C51 4101   4.944   9.229   0.802 -0.6448 -0.2866  0.0785
   10CHTO   H93 4102   4.996   9.214   0.707 -0.5325  0.5209  0.0043
   10CHTO   O30 4103   5.016   9.185   0.914  0.0757  0.2059  0.4594
   10CHTO   C46 4104   5.059   9.038   0.910 -0.2268  0.1139  0.8137
   10CHTO   H88 4105   5.127   9.013   0.829  1.6998  2.4392  1.6428
   10CHTO   C53 4106   5.130   9.019   1.038 -0.2824  0.1401  0.2518
   10CHTO   O72 4107   5.253   9.092   1.051  0.2709 -0.1685 -0.5219
   10CHTO  H199 4108   5.305   9.040   1.110  1.5161  1.0902 -0.4885
   10CHTO   O22 4109   4.925   9.372   0.822  0.2147  0.4493 -0.3262
   10CHTO   C31 4110   5.038   9.468   0.789  0.2328 -0.4736 -0.0247
   10CHTO   H59 4111   5.010   9.561   0.843  4.4661  0.2424  1.1326
   10CHTO   C29 4112   5.183   9.432   0.841 -0.7338 -0.0398 -0.4609
   10CHTO   H57 4113   5.201   9.339   0.785  4.2176  0.4007  0.1696
   10CHTO   O21 4114   5.183   9.383   0.979 -0.3761 -0.5860  0.9812
   10CHTO   H37 4115   5.256   9.325   0.993 -0.1725 -0.2241  1.4514
   10CHTO   C27 4116   5.296   9.539   0.802 -0.3673  0.0168 -0.0554
   10CHTO   H55 4117   5.272   9.635   0.850  0.2069 -0.3203  0.9161
   10CHTO    N5 4118   5.434   9.496   0.831  0.1646  0.1893  0.2159
   10CHTO   H43 4119   5.447   9.516   0.937  1.5679 -1.4212  0.3761
   10CHTO   H44 4120   5.443   9.391   0.808  1.3445  0.9416 -2.8973
   10CHTO   C25 4121   5.276   9.570   0.649  1.2173  0.0769 -0.9190
   10CHTO   H53 4122   5.298   9.491   0.575  2.3158  0.5349 -1.0884
   10CHTO   O17 4123   5.140   9.606   0.618 -0.3318 -0.0012  0.0029
   10CHTO   C32 4124   5.050   9.500   0.641  0.9483 -0.2158  0.7217
   10CHTO   H60 4125   5.081   9.408   0.592 -2.0813 -0.8539 -0.0949
   10CHTO   C36 4126   4.911   9.544   0.576 -0.5700  0.5114 -0.4936
   10CHTO   O25 4127   4.854   9.658   0.640  0.0182 -0.1732  0.0349
   10CHTO   H40 4128   4.763   9.665   0.618 -0.1859  1.1436  1.1815
   10CHTO   O15 4129   5.354   9.674   0.608 -0.1771  0.0011 -0.3301
   10CHTO   C19 4130   5.394   9.807   0.558 -0.5809  0.4251  0.0811
   10CHTO   H47 4131   5.346   9.813   0.459 -0.9258  3.0691  0.3771
   10CHTO   C20 4132   5.335   9.926   0.644 -0.3825  0.3401  0.3517
   10CHTO   H48 4133   5.369   9.921   0.749 -0.5906 -0.3006  0.3859
   10CHTO   O19 4134   5.188   9.915   0.627  0.0648  0.0635 -0.5728
   10CHTO   H35 4135   5.146   9.994   0.656 -1.9308 -1.5389  0.9871
   10CHTO   C21 4136   5.382  10.069   0.584 -0.3632 -0.4237 -0.0398
   10CHTO   H49 4137   5.339  10.083   0.485 -0.2849  0.7505  0.0839
   10CHTO    N4 4138   5.333  10.176   0.678  0.1715  0.7563 -0.1085
   10CHTO   H41 4139   5.225  10.184   0.683  0.1963  1.3524 -0.5004
   10CHTO   H42 4140   5.374  10.151   0.775 -2.0371 -1.0723  0.4234
   10CHTO   C22 4141   5.535  10.058   0.571  0.0306  0.1216 -0.2188
   10CHTO   H50 4142   5.571  10.052   0.673  0.9724  0.1449 -0.5474
   10CHTO   O14 4143   5.579   9.956   0.492 -0.0685 -0.0397  0.0394
   10CHTO   C23 4144   5.543   9.821   0.536 -0.5807 -0.2716  0.4920
   10CHTO   H51 4145   5.598   9.806   0.630  0.4527 -1.1849 -0.2464
   10CHTO   C34 4146   5.589   9.713   0.439 -0.1024  0.0948  0.2357
   10CHTO   O23 4147   5.556   9.733   0.301 -0.9021  0.3768  0.2862
   10CHTO   H38 4148   5.463   9.723   0.302 -0.6972 -1.7195  0.8149
   10CHTO   O16 4149   5.587  10.177   0.497  0.3754 -0.6849 -0.1851
   10CHTO   C24 4150   5.724  10.222   0.526 -0.7040 -0.0954 -0.4387
   10CHTO   H52 4151   5.784  10.141   0.568  0.8944  1.3221  0.0268
   10CHTO   C26 4152   5.725  10.335   0.634  0.9871 -0.5058 -0.1696
   10CHTO   H54 4153   5.662  10.417   0.593  0.2858 -1.8498 -1.8648
   10CHTO   O20 4154   5.665  10.293   0.756  0.0724  0.1925 -0.1020
   10CHTO   H36 4155   5.579  10.263   0.738  0.3585 -2.2213  2.2487
   10CHTO   C30 4156   5.862  10.393   0.659 -0.0975 -0.2343 -0.0415
   10CHTO   H58 4157   5.921  10.331   0.728  0.9319  0.6728 -0.0965
   10CHTO    N6 4158   5.857  10.519   0.741 -0.3567 -0.8962  0.4976
   10CHTO   H45 4159   5.757  10.557   0.756 -0.2778 -0.3184 -0.4304
   10CHTO   H46 4160   5.912  10.523   0.834 -1.5292 -1.1771  1.2091
   10CHTO   C33 4161   5.943  10.416   0.528 -0.7442  0.4124 -0.1473
   10CHTO   H61 4162   5.908  10.507   0.478  1.1542  1.4656  0.3825
   10CHTO   O18 4163   5.931  10.310   0.433  0.3311  0.4311  0.3040
   10CHTO   C28 4164   5.799  10.263   0.395 -1.0248  0.4703  0.3255
   10CHTO   H56 4165   5.740  10.339   0.344 -1.5503 -1.8663 -2.6383
   10CHTO   C35 4166   5.834  10.147   0.296 -0.1104 -0.6050 -0.3218
   10CHTO   O24 4167   5.726  10.086   0.228  0.2387 -0.0829 -0.2887
   10CHTO   H39 4168   5.687  10.026   0.288  0.3199  0.1235 -0.0310
   10CHTO    O9 4169   6.081  10.436   0.561  0.4425 -0.3234  0.4665
   10CHTO   C13 4170   6.190  10.440   0.445  0.1098 -0.3604 -0.1050
   10CHTO   H26 4171   6.143  10.456   0.346 -1.7724 -1.4377  0.5855
   10CHTO   C11 4172   6.257  10.300   0.445 -0.9038 -0.4282 -0.5396
   10CHTO   H24 4173   6.186  10.220   0.421 -0.8511 -0.8148  0.6029
   10CHTO    O8 4174   6.310  10.268   0.575  0.1668 -0.0120 -0.1683
   10CHTO    H3 4175   6.371  10.197   0.564  0.6688  0.0480  1.9678
   10CHTO    C9 4176   6.362  10.300   0.333 -0.4423  0.5619  0.8388
   10CHTO   H22 4177   6.307  10.322   0.240 -1.6091 -2.5604  0.7345
   10CHTO    N2 4178   6.407  10.159   0.305 -0.5203 -0.4812 -0.6435
   10CHTO   H10 4179   6.512  10.161   0.278 -0.2778 -1.0187  0.2328
   10CHTO   H11 4180   6.346  10.123   0.224  0.8030 -1.7444 -1.0944
   10CHTO    C7 4181   6.471  10.413   0.357  0.4069 -0.2760 -0.4439
   10CHTO   H20 4182   6.492  10.469   0.263 -0.3108 -0.5593 -0.7792
   10CHTO    O4 4183   6.428  10.496   0.468  0.1060  0.7954  0.6587
   10CHTO   C14 4184   6.299  10.555   0.464 -0.1136  0.5381 -0.1127
   10CHTO   H27 4185   6.298  10.624   0.378 -0.1187 -0.3392 -0.8185
   10CHTO   C18 4186   6.291  10.643   0.595  0.3539 -0.2645  0.0936
   10CHTO   O13 4187   6.345  10.571   0.705 -0.0044 -0.3774  0.2692
   10CHTO    H7 4188   6.307  10.601   0.785 -1.1073 -2.4509  0.5606
   10CHTO    O2 4189   6.624  10.345   0.397 -0.4046  0.0699  0.1837
   10CHTO    C1 4190   6.730  10.446   0.405 -0.1860  0.2039  0.2119
   10CHTO   H14 4191   6.689  10.542   0.444 -1.1150  0.2503 -0.8347
   10CHTO    C2 4192   6.809  10.479   0.268 -0.1141  0.1980  0.9475
   10CHTO   H15 4193   6.870  10.392   0.241  0.8850 -0.0877  3.9365
   10CHTO    O6 4194   6.720  10.509   0.161 -0.0163  0.3486  0.1448
   10CHTO    H1 4195   6.766  10.541   0.086  0.4545  0.6058  0.5476
   10CHTO    C3 4196   6.918  10.597   0.309  0.6553 -0.4187 -0.1834
   10CHTO   H16 4197   6.864  10.689   0.336 -2.6361 -2.4943  0.6551
   10CHTO    N1 4198   7.014  10.635   0.208  0.2617 -0.6256 -0.2150
   10CHTO    H8 4199   7.103  10.688   0.237 -0.6604  0.2716  1.0313
   10CHTO    H9 4200   6.957  10.691   0.135 -0.8084 -0.1764  0.9365
   10CHTO    C4 4201   7.006  10.562   0.441 -0.0518 -0.6926 -0.8513
   10CHTO   H17 4202   7.087  10.497   0.409  1.9855  1.4126 -0.1186
   10CHTO    O1 4203   6.928  10.498   0.544 -0.2000 -0.0141 -0.9030
   10CHTO    C5 4204   6.826  10.398   0.517  0.2798 -0.1225  0.2331
   10CHTO   H18 4205   6.864  10.308   0.470 -1.3746 -0.5211 -0.3579
   10CHTO   C16 4206   6.742  10.358   0.648 -0.6964 -0.3370  0.2422
   10CHTO   O11 4207   6.823  10.270   0.728 -0.0569  0.3195 -0.1040
   10CHTO    H5 4208   6.844  10.318   0.806 -1.2901  2.7082 -1.2031
   10CHTO    O3 4209   7.049  10.680   0.504 -0.5223 -0.5000 -0.4316
   10CHTO    C6 4210   7.196  10.702   0.509  0.1286  0.2812  0.5447
   10CHTO   H19 4211   7.246  10.656   0.424 -2.5130  1.2325 -1.6055
   10CHTO    C8 4212   7.235  10.850   0.499  0.3164  0.1262  0.4341
   10CHTO   H21 4213   7.193  10.898   0.587 -1.3814 -0.0372 -0.2633
   10CHTO    O7 4214   7.173  10.897   0.374  0.7432 -0.3598 -0.5284
   10CHTO    H2 4215   7.236  10.950   0.329  0.1121 -0.0067 -0.9914
   10CHTO   C12 4216   7.389  10.874   0.509  0.0964  0.4681 -0.7620
   10CHTO   H25 4217   7.428  10.837   0.412  2.4838  0.9067  0.0030
   10CHTO    N3 4218   7.414  11.022   0.513  0.3374 -0.2931 -0.0022
   10CHTO   H12 4219   7.393  11.060   0.612  2.2213  0.0112  0.3017
   10CHTO   H13 4220   7.340  11.068   0.449  0.1454 -1.8344 -0.9101
   10CHTO   C15 4221   7.452  10.788   0.631  0.8885 -0.2566  0.2928
   10CHTO   H28 4222   7.442  10.835   0.729 -0.1488 -1.1270  0.6115
   10CHTO   O10 4223   7.592  10.761   0.623  0.1922  0.1398 -0.0266
   10CHTO    H4 4224   7.636  10.839   0.598  2.4071 -1.2721 -0.6255
   10CHTO    O5 4225   7.400  10.658   0.630  0.4534  0.1595  0.2548
   10CHTO   C10 4226   7.256  10.644   0.642 -0.2473 -0.6842  0.3886
   10CHTO   H23 4227   7.225  10.705   0.727  1.4931 -2.4691  2.3801
   10CHTO   C17 4228   7.221  10.502   0.683  0.1961 -0.4906 -0.0039
   10CHTO   O12 4229   7.216  10.483   0.818 -0.3129  0.0986 -0.4293
   10CHTO    H6 4230   7.127  10.501   0.840 -1.2186 -0.3755 -3.4272
   11CHTO  H203 4231   6.890   4.423  -0.485 -1.1295  2.0983  1.9812
   11CHTO   O82 4232   6.818   4.431  -0.544  0.3115 -0.3064 -0.2008
   11CHTO  C123 4233   6.705   4.491  -0.477 -0.1519 -0.7857  1.0706
   11CHTO  H227 4234   6.620   4.454  -0.536  0.6255  0.0329 -0.6031
   11CHTO   O77 4235   6.705   4.428  -0.347 -0.0723  0.1564 -0.3939
   11CHTO  C118 4236   6.587   4.457  -0.271  1.3591  0.1493 -0.6583
   11CHTO  H222 4237   6.501   4.424  -0.331  0.5365  0.8349  0.1281
   11CHTO  C125 4238   6.596   4.369  -0.140  0.7450  0.2019  0.4536
   11CHTO   O84 4239   6.696   4.400  -0.050  0.3558 -0.2439  0.2561
   11CHTO  H205 4240   6.656   4.462   0.008 -0.1643 -0.4507  0.1264
   11CHTO  C114 4241   6.582   4.606  -0.231 -0.0261  0.3195 -0.5898
   11CHTO  H218 4242   6.657   4.636  -0.158 -0.4019  0.3401 -0.2098
   11CHTO  C116 4243   6.590   4.699  -0.365  0.5276  0.2011 -0.3313
   11CHTO  H220 4244   6.498   4.677  -0.423  1.0404  1.9466 -1.8372
   11CHTO   O79 4245   6.587   4.844  -0.344 -0.2862  0.7206  0.6809
   11CHTO  H201 4246   6.675   4.873  -0.328  0.8979  0.3584 -4.2820
   11CHTO  C120 4247   6.709   4.650  -0.458  0.0693  0.1528  0.5747
   11CHTO  H224 4248   6.805   4.680  -0.411  0.7962 -0.1275 -0.7011
   11CHTO   N21 4249   6.703   4.710  -0.593  0.4864  0.4782  0.2037
   11CHTO  H211 4250   6.657   4.648  -0.668 -3.0048  0.9881  1.8109
   11CHTO  H212 4251   6.660   4.809  -0.601 -0.1939  0.3775  2.2207
   11CHTO   O75 4252   6.449   4.615  -0.169 -0.5893  0.6838 -0.0485
   11CHTO  C112 4253   6.451   4.722  -0.021  0.0688  1.0477  0.0557
   11CHTO  H216 4254   6.542   4.783  -0.035  0.7324  0.6495  2.3106
   11CHTO   O73 4255   6.463   4.638   0.093 -0.1097  0.3082 -0.0600
   11CHTO  C113 4256   6.475   4.710   0.214  0.4480  0.9566 -0.0219
   11CHTO  H217 4257   6.573   4.761   0.220  1.2505 -0.8347  3.1376
   11CHTO  C124 4258   6.481   4.603   0.328 -0.3445 -0.2477  0.3225
   11CHTO   O83 4259   6.602   4.528   0.334  0.1576 -0.6680 -0.1463
   11CHTO  H204 4260   6.672   4.580   0.299  0.2025  0.5667  1.7180
   11CHTO  C109 4261   6.357   4.805   0.242  0.0685 -0.0167  0.8272
   11CHTO  H213 4262   6.268   4.743   0.255 -1.7217  1.8801 -1.8242
   11CHTO  C110 4263   6.331   4.891   0.116  0.2445  0.1015 -0.1116
   11CHTO  H214 4264   6.407   4.970   0.115 -0.4475  0.8146  1.4749
   11CHTO   O78 4265   6.209   4.957   0.145  0.2794  0.1359 -0.1334
   11CHTO  H200 4266   6.168   4.988   0.067 -0.3008 -0.8047 -0.2035
   11CHTO  C111 4267   6.324   4.807  -0.013  0.6102 -0.2105 -0.3320
   11CHTO  H215 4268   6.230   4.749  -0.012  0.0964  0.5857 -1.3953
   11CHTO   N19 4269   6.316   4.893  -0.134 -0.3494 -0.3153  0.2810
   11CHTO  H207 4270   6.248   4.974  -0.113  0.6492  0.0185  2.4010
   11CHTO  H208 4271   6.416   4.925  -0.160 -0.0891 -0.7638  0.7407
   11CHTO   O74 4272   6.368   4.893   0.361  0.1035 -0.0427 -0.1170
   11CHTO  C115 4273   6.239   4.896   0.469 -0.1271  0.5575  0.1697
   11CHTO  H219 4274   6.143   4.882   0.419  0.0809 -2.7713  0.5720
   11CHTO   O76 4275   6.253   4.787   0.575 -0.0560  0.0184 -0.3710
   11CHTO  C122 4276   6.149   4.778   0.671  0.1687  0.6872 -0.0296
   11CHTO  H226 4277   6.185   4.700   0.738 -0.6834 -0.0101 -0.3669
   11CHTO  C126 4278   6.013   4.726   0.611 -0.4686  0.0782  0.3362
   11CHTO   O85 4279   6.008   4.595   0.560  0.0908  0.1359 -0.3924
   11CHTO  H206 4280   5.922   4.581   0.524  0.2208  0.7653 -0.9496
   11CHTO  C121 4281   6.136   4.914   0.749  0.2332 -0.5468  0.1233
   11CHTO  H225 4282   6.043   4.908   0.811  0.1525  1.5821  0.2644
   11CHTO   O81 4283   6.243   4.917   0.844  0.3197  0.1614  0.0053
   11CHTO  H202 4284   6.257   5.006   0.872  2.0125  0.1168 -0.6524
   11CHTO  C119 4285   6.124   5.039   0.646 -1.0715 -0.4242 -0.6132
   11CHTO  H223 4286   6.029   5.021   0.596 -2.1033  0.3230  1.0646
   11CHTO  C117 4287   6.232   5.034   0.541 -0.3963  0.1099 -0.9059
   11CHTO  H221 4288   6.333   5.061   0.571 -1.1199 -0.0715  1.7980
   11CHTO   N20 4289   6.207   5.141   0.437  0.2386  0.2196 -0.2285
   11CHTO  H209 4290   6.187   5.101   0.339  0.3156 -0.4139  0.0166
   11CHTO  H210 4291   6.291   5.209   0.436  0.9169 -0.6135 -0.3241
   11CHTO   O80 4292   6.091   5.184   0.707 -0.1347  0.0484 -0.2509
   11CHTO  C103 4293   6.138   5.221   0.834 -0.6090 -0.1229  0.3078
   11CHTO  H190 4294   6.128   5.140   0.906  0.7405 -0.4805  0.1174
   11CHTO  C101 4295   6.293   5.278   0.825 -0.8423 -0.1255  0.5901
   11CHTO  H188 4296   6.296   5.340   0.735  2.2876 -0.2590  0.5760
   11CHTO   O68 4297   6.388   5.176   0.806  0.1292 -0.3424 -0.1169
   11CHTO  H168 4298   6.443   5.183   0.729 -1.2696  0.1458 -1.0848
   11CHTO   C99 4299   6.322   5.378   0.954  0.1500 -0.1545  0.2967
   11CHTO  H186 4300   6.323   5.312   1.043  1.5443 -2.6443 -1.5066
   11CHTO   N17 4301   6.458   5.452   0.946  1.2701  0.1533 -0.3956
   11CHTO  H174 4302   6.454   5.560   0.956  0.6523  0.2646 -1.7397
   11CHTO  H175 4303   6.546   5.402   0.984  2.5489  2.8987  0.3784
   11CHTO   C97 4304   6.201   5.479   0.977 -0.3633  0.0763 -0.7120
   11CHTO  H184 4305   6.196   5.536   0.884 -1.3126  1.9821  0.4754
   11CHTO   O64 4306   6.083   5.401   1.003  0.5453  0.5990 -0.1377
   11CHTO  C104 4307   6.038   5.336   0.880  0.1194 -0.3085  0.6335
   11CHTO  H191 4308   6.034   5.410   0.801  0.7468 -1.2566 -0.3081
   11CHTO  C108 4309   5.895   5.282   0.905  0.0928 -0.3530  0.2142
   11CHTO   O71 4310   5.896   5.183   1.008 -0.2633  0.2943 -0.3043
   11CHTO  H171 4311   5.814   5.137   1.000 -0.0165  0.1856 -2.8230
   11CHTO   O62 4312   6.215   5.555   1.103 -0.3620 -0.2136  0.2362
   11CHTO   C91 4313   6.164   5.686   1.109  0.1630 -0.8810 -0.2747
   11CHTO  H178 4314   6.091   5.704   1.030 -2.0551  0.0465  1.9349
   11CHTO   C92 4315   6.288   5.773   1.068  0.0225  0.1784 -0.9398
   11CHTO  H179 4316   6.382   5.729   1.105 -1.2062 -1.2216  0.6200
   11CHTO   O66 4317   6.306   5.774   0.926  0.0141  0.3623  0.4789
   11CHTO  H166 4318   6.314   5.685   0.895 -2.0422 -0.2270  1.4984
   11CHTO   C93 4319   6.272   5.928   1.116 -0.2732  0.5483  0.0863
   11CHTO  H180 4320   6.188   5.978   1.065  0.0776  0.4195 -0.6345
   11CHTO   N16 4321   6.385   6.012   1.087 -0.5059  0.2718  0.4572
   11CHTO  H172 4322   6.354   6.101   1.034  0.1052  0.6792  0.7687
   11CHTO  H173 4323   6.454   5.968   1.015 -0.8248 -1.7227  1.3445
   11CHTO   C94 4324   6.238   5.926   1.273 -0.0584 -0.0349  0.3407
   11CHTO  H181 4325   6.315   5.874   1.331  0.5560  0.0461 -0.3899
   11CHTO   O61 4326   6.113   5.863   1.284 -0.8988  0.2245  0.1679
   11CHTO   C95 4327   6.105   5.721   1.251  0.3131  0.0936  0.8032
   11CHTO  H182 4328   6.161   5.663   1.324  0.4583 -0.3889  0.3092
   11CHTO  C106 4329   5.949   5.678   1.265 -0.2545 -0.2523  0.1073
   11CHTO   O69 4330   5.933   5.546   1.240  0.1990  0.6874  0.0755
   11CHTO  H169 4331   5.850   5.529   1.281  0.2826 -0.1048 -0.0605
   11CHTO   O63 4332   6.202   6.070   1.329  0.1200  0.1538 -0.8505
   11CHTO   C96 4333   6.212   6.079   1.490 -0.1178  0.1990  0.0124
   11CHTO  H183 4334   6.225   5.982   1.538 -1.4140  0.9243  1.8764
   11CHTO   C98 4335   6.082   6.135   1.549 -0.1714 -1.4184 -0.4695
   11CHTO  H185 4336   6.050   6.223   1.491 -2.0314 -2.9177 -1.7374
   11CHTO   O67 4337   5.966   6.047   1.536 -0.3930  0.1583 -0.5723
   11CHTO  H167 4338   5.967   6.004   1.453  1.1223  1.4902 -1.2592
   11CHTO  C102 4339   6.100   6.185   1.698 -0.0687 -0.6932  0.3714
   11CHTO  H189 4340   6.130   6.096   1.755 -0.4445  0.8087  2.9757
   11CHTO   N18 4341   5.990   6.245   1.779  0.5486 -0.1077  0.8347
   11CHTO  H176 4342   5.939   6.311   1.710  0.0980 -2.4270 -1.1082
   11CHTO  H177 4343   5.927   6.161   1.805 -0.8868  0.8618  0.5505
   11CHTO  C105 4344   6.220   6.285   1.700 -0.5048 -0.1896 -0.2529
   11CHTO  H192 4345   6.213   6.364   1.625  2.7569  0.0756 -0.3726
   11CHTO   O65 4346   6.334   6.203   1.671 -0.1172  1.0411 -0.6733
   11CHTO  C100 4347   6.339   6.174   1.530 -1.1140  0.6962  0.6765
   11CHTO  H187 4348   6.330   6.270   1.478  2.1429  1.8205  2.0144
   11CHTO  C107 4349   6.477   6.113   1.493  0.3078 -0.3063  0.1684
   11CHTO   O70 4350   6.486   5.989   1.555 -0.4313 -0.2588  0.5072
   11CHTO  H170 4351   6.514   6.002   1.644 -0.4340  1.6452  0.2417
   11CHTO   O57 4352   6.238   6.356   1.863  0.5230 -0.1242 -0.0647
   11CHTO   C85 4353   6.350   6.432   1.908 -0.4214  0.2853 -0.1844
   11CHTO  H157 4354   6.328   6.444   2.016 -0.2190 -1.4335  0.0641
   11CHTO   C83 4355   6.347   6.565   1.847 -0.1261  0.1907 -0.2468
   11CHTO  H155 4356   6.246   6.601   1.863 -0.0028 -0.3580  1.9879
   11CHTO   O56 4357   6.360   6.550   1.705 -0.0467 -0.0393 -0.6791
   11CHTO  H135 4358   6.435   6.501   1.678 -0.4758 -0.0882 -1.7817
   11CHTO   C81 4359   6.454   6.652   1.913  0.1077  0.1542 -0.1221
   11CHTO  H153 4360   6.441   6.645   2.021  0.5563  0.3666 -0.0545
   11CHTO   N14 4361   6.420   6.795   1.883 -0.2196  0.4963  0.3371
   11CHTO  H141 4362   6.389   6.821   1.784 -1.2788 -0.4603  0.4110
   11CHTO  H142 4363   6.508   6.853   1.902  0.2988 -0.1988  0.0971
   11CHTO   C79 4364   6.594   6.592   1.880  0.3303  0.2736  0.6247
   11CHTO  H151 4365   6.667   6.645   1.942 -0.0079 -0.3194  1.5468
   11CHTO   O52 4366   6.611   6.453   1.925  0.7549  0.1503 -0.2784
   11CHTO   C86 4367   6.501   6.369   1.883 -0.2408  0.5322 -0.4114
   11CHTO  H158 4368   6.524   6.345   1.777  1.4654 -0.1333  0.0950
   11CHTO   C90 4369   6.501   6.237   1.958 -0.0881 -0.1265 -0.4190
   11CHTO   O60 4370   6.610   6.164   1.901  0.1912 -0.2785 -0.0675
   11CHTO  H138 4371   6.663   6.120   1.964 -1.0854 -2.1166 -0.2593
   11CHTO   O50 4372   6.636   6.617   1.747  0.5670 -0.5427 -0.0778
   11CHTO   C73 4373   6.729   6.661   1.643 -0.3722  0.1975 -0.0280
   11CHTO  H145 4374   6.747   6.769   1.651  0.8347  0.0349 -0.3444
   11CHTO   C74 4375   6.675   6.634   1.495 -0.3608 -0.2542 -0.4373
   11CHTO  H146 4376   6.583   6.693   1.486 -0.0666 -0.0098 -2.0737
   11CHTO   O54 4377   6.770   6.691   1.405 -0.1560 -0.5871  0.3239
   11CHTO  H133 4378   6.860   6.682   1.427  0.2210  4.0387  1.2766
   11CHTO   C75 4379   6.649   6.483   1.485  0.3371  0.2843 -0.0836
   11CHTO  H147 4380   6.587   6.457   1.572  0.5963  0.2264  0.0837
   11CHTO   N13 4381   6.586   6.438   1.360 -0.0148  0.6738 -0.0236
   11CHTO  H139 4382   6.485   6.475   1.360 -0.6396 -0.9709  1.7819
   11CHTO  H140 4383   6.597   6.335   1.329 -0.5797  0.9814 -1.3044
   11CHTO   C76 4384   6.787   6.407   1.513 -0.6675 -0.9369  0.0335
   11CHTO  H148 4385   6.851   6.443   1.432 -0.9336 -2.2980 -0.8035
   11CHTO   O49 4386   6.842   6.442   1.639  0.3191  0.2713 -0.8992
   11CHTO   C77 4387   6.866   6.586   1.654 -0.3938 -0.3252 -0.1925
   11CHTO  H149 4388   6.935   6.629   1.581 -0.7183 -1.3023 -1.0824
   11CHTO   C88 4389   6.947   6.621   1.786  0.0861  0.4943 -0.3135
   11CHTO   O58 4390   7.085   6.553   1.788 -0.0809  0.2718  0.2379
   11CHTO  H136 4391   7.145   6.609   1.834  2.5621 -2.2884  0.0642
   11CHTO   O51 4392   6.788   6.261   1.525 -0.0421 -0.2502 -0.4498
   11CHTO   C78 4393   6.891   6.185   1.435  0.2386  0.1268  0.8707
   11CHTO  H150 4394   6.960   6.257   1.386  0.2356  1.1295  2.2850
   11CHTO   C80 4395   6.814   6.091   1.334 -0.2575  0.3405  0.5805
   11CHTO  H152 4396   6.734   6.039   1.390  0.3954  0.3709  1.5595
   11CHTO   O55 4397   6.748   6.185   1.248  0.7768  0.4125 -0.1631
   11CHTO  H134 4398   6.703   6.136   1.183  0.7671  0.0469  0.1175
   11CHTO   C84 4399   6.914   5.992   1.251 -0.6816  0.1625 -0.5011
   11CHTO  H156 4400   6.960   6.059   1.179 -0.0771  0.7327  0.4008
   11CHTO   N15 4401   6.814   5.898   1.174 -0.9560  0.4495  0.0347
   11CHTO  H143 4402   6.765   5.946   1.092 -3.2578  2.0465  2.2842
   11CHTO  H144 4403   6.879   5.821   1.138 -1.6269  0.1771 -0.6215
   11CHTO   C87 4404   7.018   5.926   1.344 -0.1199  0.6495  0.2878
   11CHTO  H159 4405   6.957   5.862   1.407  1.9851  1.3298  3.1487
   11CHTO   O53 4406   7.088   6.034   1.433 -0.5129 -0.0149 -0.2887
   11CHTO   C82 4407   6.994   6.099   1.516 -0.7739 -0.2937  0.0610
   11CHTO  H154 4408   6.950   6.025   1.582  1.3587 -0.7992  0.9726
   11CHTO   C89 4409   7.060   6.195   1.612 -0.3968 -0.4528  0.4858
   11CHTO   O59 4410   7.132   6.123   1.711 -0.0529 -0.0038  0.4498
   11CHTO  H137 4411   7.163   6.187   1.772  1.0516 -0.0840 -0.0223
   11CHTO   O45 4412   7.143   5.843   1.274  0.3012  0.2104  0.4227
   11CHTO   C67 4413   7.172   5.866   1.138 -0.0314 -0.1245 -0.0499
   11CHTO  H124 4414   7.084   5.844   1.079 -0.1557 -0.4595  0.2601
   11CHTO   C65 4415   7.209   6.013   1.108 -0.0714  0.4963 -0.3235
   11CHTO  H122 4416   7.181   6.065   1.199  2.1539  1.7901 -0.3291
   11CHTO   O44 4417   7.125   6.060   1.000  0.3329  0.6133 -0.6240
   11CHTO  H102 4418   7.037   6.077   1.028  0.4030  0.6849 -0.4510
   11CHTO   C63 4419   7.364   6.035   1.086  0.6672 -0.1620 -0.0664
   11CHTO  H120 4420   7.413   5.995   1.175  0.0604 -0.6895  0.0389
   11CHTO   N11 4421   7.409   6.177   1.083  0.0741 -0.2935  0.1754
   11CHTO  H108 4422   7.381   6.224   1.175  0.0984 -2.9934  1.6277
   11CHTO  H109 4423   7.516   6.180   1.074 -0.0124 -0.3970 -0.9279
   11CHTO   C61 4424   7.411   5.944   0.972 -0.2187 -0.2067  0.5644
   11CHTO  H118 4425   7.520   5.928   0.974  0.0677  1.3916 -1.1588
   11CHTO   O40 4426   7.348   5.816   0.968 -0.1734 -0.1597 -0.6057
   11CHTO   C68 4427   7.289   5.767   1.092 -0.4600  0.5885  0.4383
   11CHTO  H125 4428   7.366   5.760   1.171  2.5814  1.1066 -2.3672
   11CHTO   C72 4429   7.226   5.628   1.080  0.3857  0.3180 -0.2588
   11CHTO   O48 4430   7.129   5.619   0.975  0.4605  0.7128 -0.0316
   11CHTO  H105 4431   7.053   5.662   1.008  0.0500 -0.9652  1.2867
   11CHTO   O38 4432   7.366   6.007   0.849 -0.3468  0.2800  0.0292
   11CHTO   C55 4433   7.443   5.956   0.737 -0.0076 -0.8771 -0.2380
   11CHTO  H112 4434   7.491   5.860   0.759  1.3283 -0.6244 -1.9344
   11CHTO   C56 4435   7.545   6.067   0.681  0.3927 -1.0351  0.7391
   11CHTO  H113 4436   7.494   6.163   0.696 -1.3838 -1.3978 -2.4610
   11CHTO   O42 4437   7.651   6.053   0.778 -0.0731  0.7085 -0.2176
   11CHTO  H100 4438   7.707   5.979   0.759 -1.8255 -0.5230 -0.6975
   11CHTO   C57 4439   7.603   6.047   0.531 -0.1004  0.1193 -0.0635
   11CHTO  H114 4440   7.683   5.972   0.526 -0.1158  0.0258  0.9704
   11CHTO   N10 4441   7.677   6.162   0.482 -0.3506 -0.5735 -0.4411
   11CHTO  H106 4442   7.627   6.251   0.515  0.3275  0.1383 -1.3086
   11CHTO  H107 4443   7.779   6.168   0.517  0.0858 -1.4691 -1.5416
   11CHTO   C58 4444   7.482   6.004   0.444 -0.7594 -0.4320  0.3965
   11CHTO  H115 4445   7.410   6.088   0.448  0.0433  0.3528 -1.0183
   11CHTO   O37 4446   7.419   5.886   0.500 -0.2967  0.4610 -0.7650
   11CHTO   C59 4447   7.344   5.927   0.621 -0.5899  0.0474  1.1517
   11CHTO  H116 4448   7.281   6.013   0.601  1.0921  1.0675  0.1221
   11CHTO   C70 4449   7.244   5.806   0.637  0.3837  0.1625  0.3222
   11CHTO   O46 4450   7.140   5.793   0.730  0.7225  0.1461 -0.5517
   11CHTO  H103 4451   7.173   5.816   0.815 -0.1953 -1.0534  0.1586
   11CHTO   O39 4452   7.538   5.957   0.298 -0.5822 -0.2574 -0.8448
   11CHTO   C60 4453   7.427   5.950   0.212 -0.3849  0.4275 -0.6013
   11CHTO  H117 4454   7.338   5.933   0.273  0.9538 -0.0523  1.2836
   11CHTO   C62 4455   7.404   6.081   0.146  0.2089 -0.1686 -0.1455
   11CHTO  H119 4456   7.377   6.152   0.227 -0.7318  0.5849 -1.0954
   11CHTO   O43 4457   7.521   6.119   0.083 -0.4268  0.0840  0.4584
   11CHTO  H101 4458   7.569   6.176   0.140  2.0869 -1.1074 -0.3962
   11CHTO   C66 4459   7.278   6.095   0.042 -0.7596  0.0465  0.0220
   11CHTO  H123 4460   7.186   6.063   0.091  0.0520  0.2072  1.7012
   11CHTO   N12 4461   7.248   6.227  -0.017  0.0136  0.2615  0.1210
   11CHTO  H110 4462   7.246   6.217  -0.125 -1.0846  0.3361  0.1389
   11CHTO  H111 4463   7.318   6.305   0.012 -1.5124  2.2305 -1.3244
   11CHTO   C69 4464   7.308   5.985  -0.069  0.2225  0.0046 -0.0929
   11CHTO  H126 4465   7.403   6.002  -0.123 -1.9132  2.8013 -3.1310
   11CHTO   O41 4466   7.327   5.834  -0.004 -0.3699  0.1621  0.0906
   11CHTO   C64 4467   7.444   5.833   0.108 -0.0308 -0.1849  0.6618
   11CHTO  H121 4468   7.542   5.830   0.056  0.0756 -2.5208  0.9286
   11CHTO   C71 4469   7.437   5.688   0.164  0.0816  0.1218 -0.5446
   11CHTO   O47 4470   7.307   5.633   0.183 -0.7629 -0.0417  0.7720
   11CHTO  H104 4471   7.296   5.569   0.115 -1.5322 -0.8513  1.6227
   11CHTO   O34 4472   7.186   5.981  -0.170 -0.2531  0.2374  0.1654
   11CHTO   C49 4473   7.191   5.906  -0.301  0.1511 -0.2810  0.6203
   11CHTO   H91 4474   7.296   5.896  -0.328  0.1916 -3.0187  1.5812
   11CHTO   C47 4475   7.105   5.978  -0.406  0.7326  0.3363  0.1822
   11CHTO   H89 4476   7.112   5.914  -0.496  0.2313 -0.8869  0.9919
   11CHTO   O33 4477   7.158   6.111  -0.428  0.0965 -0.2940  0.3709
   11CHTO   H70 4478   7.244   6.120  -0.464  0.2584  0.4034  0.9379
   11CHTO   C45 4479   6.951   5.988  -0.368 -0.2101  0.1652  0.2575
   11CHTO   H87 4480   6.938   6.084  -0.316 -1.0499 -0.0816  0.5187
   11CHTO    N8 4481   6.867   5.977  -0.489 -0.3580  0.1761  0.1809
   11CHTO   H75 4482   6.885   5.881  -0.536  1.1324 -0.1417  1.3563
   11CHTO   H76 4483   6.766   5.987  -0.453  0.0222  1.9722  0.7977
   11CHTO   C43 4484   6.914   5.876  -0.253 -0.1608 -0.7071  0.2378
   11CHTO   H85 4485   6.943   5.917  -0.157 -0.3218  1.6786 -0.6919
   11CHTO   O29 4486   6.982   5.751  -0.293 -0.0064  0.5793  0.1846
   11CHTO   C50 4487   7.119   5.766  -0.278 -0.4428  0.6074  0.6851
   11CHTO   H92 4488   7.135   5.741  -0.172 -2.3682 -2.2487  0.3565
   11CHTO   C54 4489   7.181   5.654  -0.366 -0.3452  0.3233 -0.4868
   11CHTO   O36 4490   7.317   5.673  -0.411 -0.1777  0.4164  0.7270
   11CHTO   H72 4491   7.334   5.746  -0.467  0.1276  0.4565  0.8717
   11CHTO   O27 4492   6.773   5.848  -0.238 -0.2002  0.1768 -0.2621
   11CHTO   C37 4493   6.695   5.779  -0.134 -0.2221  0.7864 -0.1058
   11CHTO   H79 4494   6.738   5.682  -0.105  0.7756  0.8439 -1.3214
   11CHTO   C38 4495   6.676   5.870  -0.009  0.3685  0.5355 -0.4967
   11CHTO   H80 4496   6.631   5.963  -0.045 -1.3676 -0.0370  0.1661
   11CHTO   O31 4497   6.811   5.897   0.034 -0.5919  0.4556 -0.1199
   11CHTO   H68 4498   6.822   5.940   0.118 -2.5979  1.2473 -0.2289
   11CHTO   C39 4499   6.582   5.808   0.097 -0.4542 -0.0282 -0.2210
   11CHTO   H81 4500   6.627   5.715   0.132 -0.5093 -0.2541 -0.7493
   11CHTO    N7 4501   6.553   5.885   0.220 -0.7005 -0.4833  0.1114
   11CHTO   H73 4502   6.527   5.988   0.201 -0.5091 -0.1699  1.5151
   11CHTO   H74 4503   6.466   5.834   0.258 -0.2631 -1.0003  0.4103
   11CHTO   C40 4504   6.444   5.772   0.031  0.7807  0.8270 -0.0843
   11CHTO   H82 4505   6.366   5.847   0.020  0.2546  0.5004  1.2248
   11CHTO   O26 4506   6.465   5.692  -0.085  0.2485  0.3005 -0.0565
   11CHTO   C41 4507   6.552   5.751  -0.189  0.0829 -0.0652  0.2135
   11CHTO   H83 4508   6.503   5.846  -0.216 -1.2434 -0.6933  0.3378
   11CHTO   C52 4509   6.566   5.644  -0.307  0.0662 -0.2400  0.2721
   11CHTO   O35 4510   6.612   5.700  -0.427 -0.3564 -0.3747 -0.2995
   11CHTO   H71 4511   6.542   5.720  -0.486  0.0381 -1.3731 -1.1110
   11CHTO   O28 4512   6.384   5.663   0.094  0.1063  0.3518  0.1558
   11CHTO   C42 4513   6.237   5.629   0.088 -0.0121 -0.5372 -0.1959
   11CHTO   H84 4514   6.204   5.672  -0.007 -0.2604  2.1968  1.0809
   11CHTO   C44 4515   6.148   5.697   0.197  0.3090  1.1093  0.2021
   11CHTO   H86 4516   6.197   5.680   0.293 -1.6171 -0.4868  0.9536
   11CHTO   O32 4517   6.138   5.830   0.156 -0.0309 -0.4418  0.0840
   11CHTO   H69 4518   6.132   5.892   0.227 -1.2396  0.2762 -0.6273
   11CHTO   C48 4519   6.001   5.639   0.199  0.4879 -0.0468  0.7215
   11CHTO   H90 4520   5.943   5.682   0.117  1.8306  0.6370  0.1092
   11CHTO    N9 4521   5.928   5.694   0.316  0.0883 -0.1173 -0.1477
   11CHTO   H77 4522   5.904   5.799   0.311 -2.8651 -0.7103  0.3765
   11CHTO   H78 4523   5.972   5.659   0.408 -1.7431  2.1051  1.6109
   11CHTO   C51 4524   5.999   5.481   0.198  0.0069 -0.3147  0.5802
   11CHTO   H93 4525   6.048   5.454   0.291  0.3252 -1.7512  0.0078
   11CHTO   O30 4526   6.074   5.441   0.087  0.1487 -0.0314  0.2162
   11CHTO   C46 4527   6.211   5.471   0.078  0.0420 -0.0643  0.5211
   11CHTO   H88 4528   6.254   5.428   0.169  0.5403  0.1014  0.3635
   11CHTO   C53 4529   6.271   5.409  -0.054 -0.1752  0.4095 -0.1639
   11CHTO   O72 4530   6.282   5.268  -0.049 -0.1653  0.3449  0.1980
   11CHTO  H199 4531   6.345   5.244   0.017 -0.0721 -0.2585 -0.1028
   11CHTO   O22 4532   5.861   5.429   0.203 -0.3116 -0.2397  0.9827
   11CHTO   C31 4533   5.860   5.292   0.252  0.2448  0.0508 -0.3459
   11CHTO   H59 4534   5.965   5.256   0.252  0.4562  0.6259  1.3091
   11CHTO   C29 4535   5.805   5.277   0.400  0.1190 -0.2379 -0.2281
   11CHTO   H57 4536   5.704   5.320   0.399  0.8146  1.6147  1.9839
   11CHTO   O21 4537   5.887   5.347   0.491 -0.9323  0.1333 -0.7409
   11CHTO   H37 4538   5.832   5.370   0.563  0.6443 -2.0212  1.2463
   11CHTO   C27 4539   5.806   5.123   0.448  0.2150  1.0583  0.2525
   11CHTO   H55 4540   5.909   5.088   0.464 -0.8874 -1.3648  2.4306
   11CHTO    N5 4541   5.734   5.101   0.577  0.0982 -0.8292 -0.7670
   11CHTO   H43 4542   5.712   4.998   0.601 -0.5193 -0.7866 -1.1255
   11CHTO   H44 4543   5.779   5.155   0.660 -1.2401 -1.3490  0.3169
   11CHTO   C25 4544   5.740   5.033   0.341  0.7622 -0.4844 -0.2409
   11CHTO   H53 4545   5.631   5.041   0.352  0.7083 -1.0324 -0.3544
   11CHTO   O17 4546   5.786   5.059   0.205  0.3967  0.5073  0.2642
   11CHTO   C32 4547   5.786   5.190   0.156 -0.1605  0.1472  0.7874
   11CHTO   H60 4548   5.681   5.218   0.163 -0.0527  0.6140  0.5687
   11CHTO   C36 4549   5.853   5.186   0.018 -0.1699  1.1222  0.1206
   11CHTO   O25 4550   5.774   5.134  -0.081  0.3949  0.4423  0.4768
   11CHTO   H40 4551   5.781   5.041  -0.076  5.1577  0.6303 -0.2682
   11CHTO   O15 4552   5.774   4.892   0.377  0.4538 -0.0517 -0.0427
   11CHTO   C19 4553   5.725   4.761   0.353 -0.0854  0.6180  0.6196
   11CHTO   H47 4554   5.786   4.686   0.405 -1.2834 -0.5980  0.2729
   11CHTO   C20 4555   5.580   4.743   0.402 -0.5077 -0.0449  0.0898
   11CHTO   H48 4556   5.507   4.797   0.340 -1.3603 -0.2870  0.8766
   11CHTO   O19 4557   5.574   4.781   0.540 -0.3978 -0.4684 -0.6680
   11CHTO   H35 4558   5.588   4.872   0.559  0.3867 -1.1145  2.0230
   11CHTO   C21 4559   5.536   4.596   0.389 -0.6325 -0.8332  0.8471
   11CHTO   H49 4560   5.610   4.540   0.445  1.3728  0.6606 -0.2421
   11CHTO    N4 4561   5.395   4.564   0.438 -0.3211  0.0675 -0.4377
   11CHTO   H41 4562   5.333   4.647   0.408  2.0105  1.9865 -0.1263
   11CHTO   H42 4563   5.393   4.550   0.545  0.0296 -0.2353 -0.4717
   11CHTO   C22 4564   5.551   4.552   0.239 -0.1998  0.5751 -0.8588
   11CHTO   H50 4565   5.476   4.606   0.183  0.1068 -0.4672 -2.3089
   11CHTO   O14 4566   5.684   4.587   0.189 -0.7019 -0.1334 -0.8091
   11CHTO   C23 4567   5.729   4.721   0.200 -0.1615 -0.3604 -0.3452
   11CHTO   H51 4568   5.660   4.783   0.140 -0.7178 -1.3729 -0.7695
   11CHTO   C34 4569   5.870   4.729   0.137  0.1674 -0.1377  0.0155
   11CHTO   O23 4570   5.968   4.639   0.201  0.2257 -0.0850 -0.5612
   11CHTO   H38 4571   5.941   4.550   0.185 -3.4865  0.5271  1.5713
   11CHTO   O16 4572   5.536   4.410   0.227 -0.3861  0.0245  1.0518
   11CHTO   C24 4573   5.515   4.361   0.064  0.0328  0.8954  0.3148
   11CHTO   H52 4574   5.551   4.436  -0.007  0.1771 -0.7063 -1.3354
   11CHTO   C26 4575   5.369   4.328   0.034  0.2501 -0.0153  0.1056
   11CHTO   H54 4576   5.332   4.250   0.104 -1.7646  0.0155 -0.9057
   11CHTO   O20 4577   5.299   4.450   0.048 -0.2909  0.0761  0.8314
   11CHTO   H36 4578   5.282   4.470   0.138 -2.4349  3.2818 -0.1912
   11CHTO   C30 4579   5.352   4.265  -0.109 -0.1856  0.3386  1.0775
   11CHTO   H58 4580   5.361   4.346  -0.183  0.4249 -1.2788 -0.6436
   11CHTO    N6 4581   5.225   4.209  -0.148 -0.1402 -0.1255 -0.7788
   11CHTO   H45 4582   5.162   4.284  -0.192 -0.7528  0.9451  1.8535
   11CHTO   H46 4583   5.176   4.167  -0.061  0.4982  0.5760 -0.0687
   11CHTO   C33 4584   5.464   4.163  -0.150  0.1040 -0.6993 -0.2114
   11CHTO   H61 4585   5.449   4.066  -0.102 -2.8838 -0.8197 -1.2635
   11CHTO   O18 4586   5.594   4.213  -0.103  0.2400  0.3436  0.3900
   11CHTO   C28 4587   5.605   4.237   0.037  0.8979 -0.2667 -0.3192
   11CHTO   H56 4588   5.568   4.154   0.097 -0.7210 -0.7681 -1.9661
   11CHTO   C35 4589   5.750   4.272   0.090 -0.5705  0.2452  0.2808
   11CHTO   O24 4590   5.841   4.166   0.047  0.0040  0.3770 -0.4486
   11CHTO   H39 4591   5.823   4.140  -0.041  3.1091 -1.1645 -0.6890
   11CHTO    O9 4592   5.460   4.136  -0.293  0.3674  0.3099  0.3479
   11CHTO   C13 4593   5.522   4.265  -0.391 -0.2604 -0.1040  0.0030
   11CHTO   H26 4594   5.511   4.355  -0.326  0.4495 -1.2042  1.6851
   11CHTO   C11 4595   5.430   4.277  -0.524  0.4034 -0.5768 -0.1826
   11CHTO   H24 4596   5.332   4.306  -0.483  1.2330  0.5775  1.0131
   11CHTO    O8 4597   5.406   4.148  -0.584 -0.0101 -0.6052 -0.2061
   11CHTO    H3 4598   5.347   4.103  -0.526  1.9989  0.4084  2.7547
   11CHTO    C9 4599   5.480   4.392  -0.616 -0.3038  0.5800 -0.4671
   11CHTO   H22 4600   5.455   4.482  -0.558 -0.0115  0.9654 -0.9417
   11CHTO    N2 4601   5.403   4.403  -0.743  0.1918 -0.6639  0.1221
   11CHTO   H10 4602   5.419   4.321  -0.812  0.9133  0.8048 -1.4763
   11CHTO   H11 4603   5.423   4.496  -0.793  0.4800 -1.8672 -2.0562
   11CHTO    C7 4604   5.635   4.391  -0.622  0.6173  0.2614  0.1847
   11CHTO   H20 4605   5.659   4.466  -0.544  1.3317 -0.8281  1.0322
   11CHTO    O4 4606   5.686   4.261  -0.583 -0.5951 -0.1328 -0.7199
   11CHTO   C14 4607   5.673   4.241  -0.437 -0.8226  0.0736 -0.0910
   11CHTO   H27 4608   5.744   4.305  -0.382 -1.0353  0.6394 -0.4737
   11CHTO   C18 4609   5.713   4.093  -0.407  0.3305 -0.7639  1.0581
   11CHTO   O13 4610   5.838   4.046  -0.464 -0.2721  0.4899 -0.6947
   11CHTO    H7 4611   5.820   4.023  -0.553 -1.9690 -3.3148  0.5045
   11CHTO    O2 4612   5.703   4.437  -0.765 -0.4311 -0.0924 -0.0277
   11CHTO    C1 4613   5.804   4.538  -0.746 -0.0110 -0.2809  0.1246
   11CHTO   H14 4614   5.842   4.530  -0.641  0.9616 -0.5590 -0.2413
   11CHTO    C2 4615   5.760   4.684  -0.770 -0.2654 -0.2265  0.5211
   11CHTO   H15 4616   5.719   4.686  -0.872 -0.1770 -1.9181  0.4245
   11CHTO    O6 4617   5.653   4.717  -0.680 -0.6885  0.3820  0.0034
   11CHTO    H1 4618   5.579   4.759  -0.718  0.6193  0.9234 -1.9836
   11CHTO    C3 4619   5.880   4.794  -0.762  0.6642  0.3346  0.0564
   11CHTO   H16 4620   5.914   4.800  -0.658  1.1468 -0.7773 -0.0355
   11CHTO    N1 4621   5.841   4.935  -0.814  0.5812  0.9150 -0.7263
   11CHTO    H8 4622   5.735   4.936  -0.834 -0.0531 -1.2202  2.2286
   11CHTO    H9 4623   5.866   5.015  -0.745  1.5056  0.0822 -0.0734
   11CHTO    C4 4624   6.008   4.751  -0.845  0.6049 -0.2425 -0.0935
   11CHTO   H17 4625   5.983   4.763  -0.950 -0.8063 -1.1031  0.1266
   11CHTO    O1 4626   6.035   4.609  -0.825  0.3464 -0.4751 -0.1112
   11CHTO    C5 4627   5.928   4.513  -0.829 -0.1332 -1.0722 -0.2496
   11CHTO   H18 4628   5.897   4.518  -0.933 -0.6421 -1.4959 -0.1176
   11CHTO   C16 4629   5.974   4.368  -0.808  0.4751 -0.8536 -0.1806
   11CHTO   O11 4630   6.042   4.359  -0.687  0.2613  0.3188  0.5669
   11CHTO    H5 4631   6.084   4.275  -0.689 -0.4763 -0.0585  0.6307
   11CHTO    O3 4632   6.134   4.814  -0.804  0.1335  0.4269  0.2880
   11CHTO    C6 4633   6.228   4.828  -0.917  0.3913  0.6438 -0.4905
   11CHTO   H19 4634   6.185   4.774  -1.002 -1.3775 -0.0972  0.8333
   11CHTO    C8 4635   6.240   4.971  -0.970 -0.8153 -0.5817 -0.5694
   11CHTO   H21 4636   6.260   5.035  -0.884  0.9769 -0.1156 -1.3097
   11CHTO    O7 4637   6.116   5.016  -1.025  0.4547 -0.2557 -0.4127
   11CHTO    H2 4638   6.068   5.067  -0.963  0.6282 -0.4153 -0.1445
   11CHTO   C12 4639   6.358   4.986  -1.079  0.6322  0.7410 -0.0793
   11CHTO   H25 4640   6.327   4.921  -1.162  1.4006 -2.6746  2.2102
   11CHTO    N3 4641   6.360   5.132  -1.125  0.0975 -0.5501 -0.4202
   11CHTO   H12 4642   6.351   5.130  -1.233 -3.3639 -0.1346 -0.1746
   11CHTO   H13 4643   6.455   5.168  -1.087  0.2604 -0.7399 -0.6359
   11CHTO   C15 4644   6.490   4.923  -1.015 -0.1822  0.0200  0.2666
   11CHTO   H28 4645   6.517   4.979  -0.925 -1.6289 -1.1014  1.4116
   11CHTO   O10 4646   6.613   4.929  -1.126 -0.3652 -0.1474 -0.4738
   11CHTO    H4 4647   6.618   5.015  -1.164 -0.0643 -0.3104 -0.8100
   11CHTO    O5 4648   6.466   4.784  -0.985 -0.2559 -0.1255  0.5239
   11CHTO   C10 4649   6.368   4.765  -0.878 -0.2919 -0.7652 -0.2677
   11CHTO   H23 4650   6.417   4.801  -0.787 -0.4461  2.0898 -1.2943
   11CHTO   C17 4651   6.358   4.616  -0.848 -1.1804 -0.1495  0.0718
   11CHTO   O12 4652   6.295   4.542  -0.950  0.6235 -0.2093  0.0501
   11CHTO    H6 4653   6.347   4.532  -1.027  0.5218 -1.0909  0.0951
   12CHTO  H203 4654   5.147  11.715   4.592  0.9417 -0.4048 -0.3466
   12CHTO   O82 4655   5.119  11.640   4.542  0.0709 -0.2806 -0.0478
   12CHTO  C123 4656   5.210  11.533   4.579 -0.3920  0.2684  0.8097
   12CHTO  H227 4657   5.311  11.573   4.566 -0.9257  2.4862  3.1091
   12CHTO   O77 4658   5.174  11.502   4.711  0.5901 -0.4740 -0.5071
   12CHTO  C118 4659   5.262  11.408   4.778 -0.9619  0.2599  0.2139
   12CHTO  H222 4660   5.367  11.435   4.761 -0.9394 -0.1487 -0.2972
   12CHTO  C125 4661   5.230  11.413   4.933  1.1366 -0.1595 -0.2281
   12CHTO   O84 4662   5.089  11.406   4.956 -0.1284  0.2600 -0.2836
   12CHTO  H205 4663   5.063  11.385   5.044 -0.1002  1.0334 -0.0951
   12CHTO  C114 4664   5.241  11.274   4.703 -0.5329 -0.4593  0.0684
   12CHTO  H218 4665   5.137  11.242   4.710 -0.5404 -1.2660 -2.8419
   12CHTO  C116 4666   5.262  11.286   4.550  0.0351 -0.4670 -0.1015
   12CHTO  H220 4667   5.370  11.299   4.529  0.9148 -1.0068  3.7476
   12CHTO   O79 4668   5.224  11.150   4.505  0.6852 -0.5099  0.1974
   12CHTO  H201 4669   5.294  11.087   4.506  0.7084 -0.5141  2.6452
   12CHTO  C120 4670   5.185  11.409   4.487 -0.8638 -0.7625 -0.8728
   12CHTO  H224 4671   5.076  11.384   4.484 -1.1395  0.0503  1.7660
   12CHTO   N21 4672   5.216  11.434   4.342  0.2725 -0.6140  0.4912
   12CHTO  H211 4673   5.240  11.342   4.291  2.5056  0.1965  0.0113
   12CHTO  H212 4674   5.130  11.488   4.302 -0.5617 -1.2171  1.4563
   12CHTO   O75 4675   5.333  11.184   4.768 -0.5309 -0.1043  0.1624
   12CHTO  C112 4676   5.267  11.039   4.819  0.4290  0.1257 -0.0547
   12CHTO  H216 4677   5.202  11.006   4.736  2.4372 -0.2805 -1.5122
   12CHTO   O73 4678   5.196  11.056   4.940 -0.6737  0.1780  0.5699
   12CHTO  C113 4679   5.120  10.943   4.983 -0.6219 -0.3370 -0.0063
   12CHTO  H217 4680   5.060  10.913   4.895  0.7430 -1.6804 -0.4987
   12CHTO  C124 4681   5.022  10.992   5.096 -0.1766  0.4148  0.0472
   12CHTO   O83 4682   5.070  11.068   5.205 -0.3832 -0.3278 -0.3458
   12CHTO  H204 4683   5.075  11.158   5.179  1.7220 -0.7287 -1.3829
   12CHTO  C109 4684   5.218  10.826   5.020 -0.4693 -0.0532  0.3041
   12CHTO  H213 4685   5.279  10.858   5.105 -1.2087 -0.8649  1.1590
   12CHTO  C110 4686   5.311  10.798   4.896 -0.2415  0.1300  0.1421
   12CHTO  H214 4687   5.254  10.751   4.816 -1.1827  0.0737  0.8342
   12CHTO   O78 4688   5.411  10.706   4.931  0.1934  0.5516 -0.3450
   12CHTO  H200 4689   5.446  10.730   5.014  0.5069 -1.0077 -0.0123
   12CHTO  C111 4690   5.377  10.927   4.844 -0.1844  0.5797  0.1374
   12CHTO  H215 4691   5.437  10.968   4.926  0.5990  1.4143 -0.8436
   12CHTO   N19 4692   5.468  10.916   4.730 -0.1749 -0.1718 -0.3544
   12CHTO  H207 4693   5.568  10.952   4.752 -0.5384  1.7644 -1.7448
   12CHTO  H208 4694   5.480  10.812   4.703  0.0309 -0.5968  1.3146
   12CHTO   O74 4695   5.147  10.708   5.060  0.4192  0.8800  0.6200
   12CHTO  C115 4696   5.205  10.610   5.167 -0.3621 -0.4848  0.3502
   12CHTO  H219 4697   5.304  10.644   5.196 -0.0416 -1.5168  0.4677
   12CHTO   O76 4698   5.114  10.603   5.300  0.4233  0.1647  0.3313
   12CHTO  C122 4699   4.983  10.572   5.270  0.3406 -0.6429 -0.3149
   12CHTO  H226 4700   4.937  10.661   5.228  0.1534 -0.7402 -0.3152
   12CHTO  C126 4701   4.918  10.544   5.411 -0.0855 -0.1849 -0.5110
   12CHTO   O85 4702   4.904  10.659   5.493 -0.3963  0.5630 -0.5332
   12CHTO  H206 4703   4.983  10.687   5.535 -0.0698 -2.3789  0.9193
   12CHTO  C121 4704   4.970  10.443   5.172 -0.2514 -0.0297  0.0961
   12CHTO  H225 4705   4.901  10.375   5.225  0.6091  0.5579  2.0201
   12CHTO   O81 4706   4.901  10.482   5.051 -0.8219 -0.6644  0.9159
   12CHTO  H202 4707   4.810  10.493   5.072 -1.1081 -1.1973 -0.0358
   12CHTO  C119 4708   5.104  10.370   5.141  0.7385  0.1730 -0.4854
   12CHTO  H223 4709   5.130  10.321   5.234  1.0715  0.6376 -0.3371
   12CHTO  C117 4710   5.218  10.469   5.098  0.4098  0.7408 -0.1715
   12CHTO  H221 4711   5.222  10.487   4.991 -1.2391 -0.6247 -0.4792
   12CHTO   N20 4712   5.352  10.408   5.128 -0.0674  0.2433  0.6398
   12CHTO  H209 4713   5.417  10.473   5.185  2.2224  1.5141 -3.2396
   12CHTO  H210 4714   5.404  10.371   5.041 -1.7970  0.6543 -0.5840
   12CHTO   O80 4715   5.083  10.245   5.052  0.2353  0.3849 -0.4428
   12CHTO  C103 4716   5.060  10.104   5.112 -0.2594  0.1832 -0.1038
   12CHTO  H190 4717   5.140  10.085   5.183  1.8822  3.4596 -1.4788
   12CHTO  C101 4718   4.922  10.057   5.172  0.4017  0.9386 -0.3308
   12CHTO  H188 4719   4.851  10.105   5.105  0.8040  0.4054 -1.1444
   12CHTO   O68 4720   4.898  10.122   5.305  0.2242  0.1323 -0.3513
   12CHTO  H168 4721   4.826  10.079   5.346  0.0853 -0.2596 -0.9923
   12CHTO   C99 4722   4.899   9.894   5.181 -0.4106 -0.0875  0.0714
   12CHTO  H186 4723   4.967   9.857   5.261 -1.8235 -1.4025  0.6752
   12CHTO   N17 4724   4.760   9.855   5.210 -0.3715 -0.1702  0.3654
   12CHTO  H174 4725   4.725   9.929   5.280  1.1982  1.0151 -0.0893
   12CHTO  H175 4726   4.693   9.864   5.126 -2.1593 -2.9557  1.4107
   12CHTO   C97 4727   4.958   9.828   5.045  0.5623 -0.0368 -0.1092
   12CHTO  H184 4728   4.885   9.858   4.968 -0.7154 -0.5965  0.8589
   12CHTO   O64 4729   5.087   9.875   5.015 -0.2349 -0.2324  0.1875
   12CHTO  C104 4730   5.093  10.017   4.988  0.3964  0.1756  0.1557
   12CHTO  H191 4731   5.025  10.041   4.906  1.2174 -0.6599 -0.7911
   12CHTO  C108 4732   5.233  10.054   4.937  0.1174  0.6327 -0.0363
   12CHTO   O71 4733   5.271  10.020   4.806  0.2110 -0.1522 -0.8525
   12CHTO  H171 4734   5.325  10.085   4.767 -0.0336  1.1989  1.0051
   12CHTO   O62 4735   4.966   9.683   5.047 -0.0198 -0.3150  0.7777
   12CHTO   C91 4736   4.962   9.614   4.923  0.3528  0.0820  0.4218
   12CHTO  H178 4737   4.981   9.693   4.851  2.2547 -0.2409  0.5249
   12CHTO   C92 4738   4.819   9.558   4.888 -0.5085  0.4467  0.3556
   12CHTO  H179 4739   4.789   9.494   4.973  1.6571 -1.2590 -0.1077
   12CHTO   O66 4740   4.726   9.668   4.873  0.1318 -0.0893 -0.2250
   12CHTO  H166 4741   4.642   9.633   4.848  0.6549 -0.3442 -1.6871
   12CHTO   C93 4742   4.822   9.473   4.754 -0.6886 -0.7305  0.1629
   12CHTO  H180 4743   4.837   9.549   4.676  0.0127 -0.3265  0.6771
   12CHTO   N16 4744   4.695   9.405   4.735  0.1711  0.2530 -0.0006
   12CHTO  H172 4745   4.705   9.298   4.722 -1.4165  0.3714 -2.4476
   12CHTO  H173 4746   4.613   9.427   4.801 -1.0438  1.8541 -1.9835
   12CHTO   C94 4747   4.940   9.378   4.755  0.3460  0.3078 -0.6453
   12CHTO  H181 4748   4.931   9.302   4.833  0.0247 -0.4144 -1.3667
   12CHTO   O61 4749   5.060   9.449   4.780  0.4283 -0.0573  0.6495
   12CHTO   C95 4750   5.068   9.506   4.912  0.3478 -0.4175 -0.4738
   12CHTO  H182 4751   5.056   9.428   4.988  1.3556 -0.5127 -0.3993
   12CHTO  C106 4752   5.219   9.547   4.952  0.4052 -0.0815  0.5713
   12CHTO   O69 4753   5.235   9.570   5.093 -0.3636  0.2123 -0.3389
   12CHTO  H169 4754   5.178   9.637   5.124 -0.7799  0.6072 -1.9085
   12CHTO   O63 4755   4.961   9.293   4.599 -0.1945  0.2170  0.3489
   12CHTO   C96 4756   5.070   9.193   4.610  0.0222  0.1280  0.0739
   12CHTO  H183 4757   5.112   9.199   4.711  1.6131 -0.3525 -0.5362
   12CHTO   C98 4758   5.189   9.222   4.519 -0.9052  0.5010  0.3385
   12CHTO  H185 4759   5.161   9.220   4.413 -1.9641  0.3729  0.6116
   12CHTO   O67 4760   5.228   9.359   4.539 -0.0547  0.1110 -0.2726
   12CHTO  H167 4761   5.172   9.405   4.480  0.1767 -0.5975 -1.0456
   12CHTO  C102 4762   5.317   9.124   4.538  0.3952  0.0937  0.2583
   12CHTO  H189 4763   5.357   9.147   4.638 -1.9480  1.4351  0.9374
   12CHTO   N18 4764   5.424   9.148   4.439  0.3404  0.1132 -0.0417
   12CHTO  H176 4765   5.395   9.133   4.336  0.2173 -0.2308  0.0418
   12CHTO  H177 4766   5.481   9.236   4.465  0.2732 -0.3496  1.7938
   12CHTO  C105 4767   5.266   8.975   4.530 -0.1905  0.3713  0.7990
   12CHTO  H192 4768   5.231   8.960   4.428 -0.5633  0.3970  0.9219
   12CHTO   O65 4769   5.156   8.966   4.618 -0.1816 -0.6236 -0.5575
   12CHTO  C100 4770   5.038   9.039   4.584 -0.1219  0.1710 -0.3300
   12CHTO  H187 4771   5.012   9.029   4.478  0.8034 -1.7132 -0.4015
   12CHTO  C107 4772   4.926   8.983   4.669  0.1761 -0.4326  0.1333
   12CHTO   O70 4773   4.801   9.049   4.683 -0.7251 -0.1580  0.3351
   12CHTO  H170 4774   4.740   9.011   4.622 -3.5752  2.5204  1.3734
   12CHTO   O57 4775   5.387   8.862   4.565  0.5665  0.0563  0.0825
   12CHTO   C85 4776   5.374   8.721   4.602 -0.2750 -0.0878 -0.0266
   12CHTO  H157 4777   5.293   8.678   4.540 -0.3705 -0.9054  0.6520
   12CHTO   C83 4778   5.318   8.704   4.750  0.0328 -0.3622  0.3565
   12CHTO  H155 4779   5.218   8.747   4.749 -0.3561 -1.1334  2.4189
   12CHTO   O56 4780   5.393   8.786   4.842  0.3162 -0.1489  0.0265
   12CHTO  H135 4781   5.346   8.802   4.921 -1.2228 -1.8614 -0.5021
   12CHTO   C81 4782   5.312   8.559   4.800 -0.2578  0.1069  0.6056
   12CHTO  H153 4783   5.253   8.502   4.728 -0.3698  0.5398  0.3532
   12CHTO   N14 4784   5.241   8.536   4.934  0.1397 -0.2985  0.2117
   12CHTO  H141 4785   5.202   8.629   4.972  1.1785 -0.0990  0.8091
   12CHTO  H142 4786   5.159   8.470   4.916 -0.5862  0.7889 -0.5857
   12CHTO   C79 4787   5.462   8.504   4.794 -0.3909 -0.2095 -0.4025
   12CHTO  H151 4788   5.462   8.397   4.818 -0.5430 -0.1791 -0.2663
   12CHTO   O52 4789   5.505   8.504   4.650  0.0258 -0.4279 -0.5773
   12CHTO   C86 4790   5.503   8.637   4.588 -0.2595 -0.5394 -0.4614
   12CHTO  H158 4791   5.580   8.691   4.647 -1.9460  0.2388  1.0756
   12CHTO   C90 4792   5.548   8.622   4.441 -0.3881 -0.2658 -0.2961
   12CHTO   O60 4793   5.560   8.750   4.381  0.3512  0.7383  0.0318
   12CHTO  H138 4794   5.480   8.796   4.397  0.4066  0.9169 -0.2178
   12CHTO   O50 4795   5.560   8.562   4.875 -0.0747  0.0084  0.3260
   12CHTO   C73 4796   5.604   8.539   5.011 -0.2201  0.8892  0.3954
   12CHTO  H145 4797   5.531   8.469   5.052 -2.3106  2.8299  0.0746
   12CHTO   C74 4798   5.588   8.655   5.104  0.5687 -0.8127  0.4243
   12CHTO  H146 4799   5.488   8.689   5.075  0.6918 -0.4381  0.4354
   12CHTO   O54 4800   5.583   8.631   5.248  0.6341 -0.0435  0.0504
   12CHTO  H133 4801   5.507   8.586   5.278  0.2764  0.3552 -0.2516
   12CHTO   C75 4802   5.699   8.764   5.064  0.0902  0.4764 -0.0284
   12CHTO  H147 4803   5.688   8.790   4.957 -1.1196  0.4360  0.0798
   12CHTO   N13 4804   5.699   8.890   5.151  0.0916  0.6523  0.2268
   12CHTO  H139 4805   5.777   8.960   5.125  1.9048 -1.3976  0.0225
   12CHTO  H140 4806   5.606   8.944   5.140 -0.6389 -0.6449 -0.1705
   12CHTO   C76 4807   5.845   8.705   5.047 -0.0602 -0.7967 -0.5719
   12CHTO  H148 4808   5.886   8.689   5.147  0.9395  2.5733 -0.3752
   12CHTO   O49 4809   5.839   8.579   4.970 -0.0341  0.2217 -0.5826
   12CHTO   C77 4810   5.746   8.484   5.022 -0.0022 -0.3136  0.4741
   12CHTO  H149 4811   5.772   8.460   5.125  1.9233 -0.3020  0.0159
   12CHTO   C88 4812   5.771   8.359   4.937 -0.1676 -0.1839 -0.1776
   12CHTO   O58 4813   5.668   8.258   4.971 -0.1210 -0.9494 -0.0130
   12CHTO  H136 4814   5.593   8.277   4.918 -0.2137  1.0905  0.8286
   12CHTO   O51 4815   5.935   8.790   4.966 -0.0713 -0.2008  0.5705
   12CHTO   C78 4816   6.076   8.728   4.951  0.9594  0.5504  0.1815
   12CHTO  H150 4817   6.067   8.618   4.939 -2.5414  0.8467 -0.4304
   12CHTO   C80 4818   6.181   8.768   5.067  0.9010 -0.2922 -0.2901
   12CHTO  H152 4819   6.174   8.879   5.072  0.7362 -0.2247 -1.8521
   12CHTO   O55 4820   6.122   8.709   5.183  0.3243 -0.3983 -0.9357
   12CHTO  H134 4821   6.107   8.617   5.176 -0.3465 -0.3434 -0.1915
   12CHTO   C84 4822   6.331   8.724   5.043  0.4524 -0.1953  0.4030
   12CHTO  H156 4823   6.343   8.616   5.055  0.1202 -0.2412  0.3224
   12CHTO   N15 4824   6.432   8.779   5.132 -0.1804  0.2024  0.3785
   12CHTO  H143 4825   6.510   8.710   5.157  0.0035 -0.2793 -1.4072
   12CHTO  H144 4826   6.384   8.805   5.223 -1.0236 -0.6782  0.1988
   12CHTO   C87 4827   6.369   8.762   4.899 -0.6746  0.1488 -0.1921
   12CHTO  H159 4828   6.392   8.866   4.877 -0.8250  0.3899  0.7484
   12CHTO   O53 4829   6.257   8.715   4.804  0.5027 -0.1321 -0.5948
   12CHTO   C82 4830   6.128   8.769   4.815  0.9797  0.8737 -0.4775
   12CHTO  H154 4831   6.128   8.878   4.802  0.3560  0.9881  0.4606
   12CHTO   C89 4832   6.038   8.716   4.692 -0.3092  0.4479  0.0366
   12CHTO   O59 4833   6.050   8.808   4.584 -0.0236 -0.2165 -0.6998
   12CHTO  H137 4834   5.969   8.793   4.538  0.2759 -1.0836 -0.9479
   12CHTO   O45 4835   6.505   8.663   4.868 -0.4226 -0.4101  0.1549
   12CHTO   C67 4836   6.542   8.662   4.726  0.5338  0.0910 -0.5434
   12CHTO  H124 4837   6.470   8.718   4.666  0.2091 -0.6903 -0.8926
   12CHTO   C65 4838   6.691   8.713   4.709  0.0107  0.3904  0.3194
   12CHTO  H122 4839   6.689   8.800   4.775 -3.0038  1.0076 -0.4781
   12CHTO   O44 4840   6.697   8.745   4.571 -0.4770 -0.2027 -0.0824
   12CHTO  H102 4841   6.660   8.689   4.505  2.5058 -0.8424 -1.2940
   12CHTO   C63 4842   6.796   8.618   4.774  0.0618  1.1593 -0.3543
   12CHTO  H120 4843   6.772   8.611   4.880  0.1285  1.6027 -0.3085
   12CHTO   N11 4844   6.931   8.672   4.781 -0.1101 -0.1502 -0.2206
   12CHTO  H108 4845   7.001   8.592   4.793 -0.0022  0.0406  0.4167
   12CHTO  H109 4846   6.948   8.725   4.690 -2.4017  0.7249 -0.1767
   12CHTO   C61 4847   6.780   8.472   4.708  1.1577  0.3181 -0.1812
   12CHTO  H118 4848   6.836   8.397   4.767  0.4021  0.5638  0.8689
   12CHTO   O40 4849   6.648   8.425   4.713  0.1959  0.0092 -0.0887
   12CHTO   C68 4850   6.533   8.510   4.678 -0.4674  0.2512 -0.0323
   12CHTO  H125 4851   6.446   8.463   4.729 -1.5497  1.3741 -0.8313
   12CHTO   C72 4852   6.511   8.509   4.530  0.4597 -0.6725 -1.0166
   12CHTO   O48 4853   6.455   8.381   4.486  0.5156  0.5458  0.0229
   12CHTO  H105 4854   6.513   8.332   4.431  0.2285 -1.0843  1.1271
   12CHTO   O38 4855   6.826   8.464   4.571 -0.3005  0.4389 -0.0510
   12CHTO   C55 4856   6.920   8.362   4.534 -0.4568 -0.1971 -0.1186
   12CHTO  H112 4857   6.956   8.317   4.628  0.7652 -0.6835 -0.7957
   12CHTO   C56 4858   7.045   8.426   4.453 -0.1917  0.1760 -0.0082
   12CHTO  H113 4859   7.009   8.478   4.362 -1.3169  0.2334  0.4569
   12CHTO   O42 4860   7.108   8.532   4.524  0.0922  0.0464 -0.5378
   12CHTO  H100 4861   7.070   8.613   4.496  0.2529 -0.3928 -2.0356
   12CHTO   C57 4862   7.143   8.304   4.416 -0.0817 -0.2537 -0.4057
   12CHTO  H114 4863   7.171   8.254   4.508  0.3071  1.2229  0.2970
   12CHTO   N10 4864   7.259   8.352   4.332  0.6917 -0.1787  0.1956
   12CHTO  H106 4865   7.281   8.457   4.340  0.5077 -0.1192 -0.1017
   12CHTO  H107 4866   7.351   8.297   4.350  1.9858  0.7979 -3.2162
   12CHTO   C58 4867   7.058   8.205   4.330  0.5571 -0.2970 -0.3963
   12CHTO  H115 4868   7.023   8.252   4.236 -0.5050 -0.1436  0.0592
   12CHTO   O37 4869   6.950   8.154   4.401 -0.1017  0.5334 -0.1747
   12CHTO   C59 4870   6.850   8.255   4.445 -0.4647 -0.0766  0.2587
   12CHTO  H116 4871   6.822   8.300   4.350 -0.2373 -0.5352 -0.0306
   12CHTO   C70 4872   6.753   8.174   4.530 -0.0160 -0.2068 -0.5352
   12CHTO   O46 4873   6.668   8.083   4.457  0.1137  0.0231 -0.2387
   12CHTO  H103 4874   6.595   8.060   4.511 -0.6194  1.8264 -0.4356
   12CHTO   O39 4875   7.160   8.066   4.297 -0.0018  0.3902  0.1031
   12CHTO   C60 4876   7.121   7.992   4.173 -0.4941 -0.4905 -0.4146
   12CHTO  H117 4877   7.013   7.994   4.159 -0.3798  0.2610 -1.2018
   12CHTO   C62 4878   7.190   8.041   4.042 -0.1507  0.2043  0.1781
   12CHTO  H119 4879   7.163   8.148   4.034 -2.2820 -0.4755 -2.3881
   12CHTO   O43 4880   7.334   8.028   4.041  0.2763 -0.6466  0.1930
   12CHTO  H101 4881   7.372   8.050   4.124 -0.1407  3.0115 -0.4961
   12CHTO   C66 4882   7.110   7.953   3.933 -0.0700  0.0535 -0.4977
   12CHTO  H123 4883   7.003   7.970   3.941 -0.0216  1.6264 -2.7060
   12CHTO   N12 4884   7.139   7.993   3.796 -0.7089  0.0736  0.3916
   12CHTO  H110 4885   7.078   7.946   3.721 -0.7429 -0.3980  0.7135
   12CHTO  H111 4886   7.244   7.990   3.772 -0.9665 -1.7125 -0.5462
   12CHTO   C69 4887   7.147   7.800   3.952  0.3457 -0.5031  0.4444
   12CHTO  H126 4888   7.257   7.792   3.939  0.1028 -0.4938 -1.8266
   12CHTO   O41 4889   7.111   7.756   4.075  0.4180  0.9217 -0.1964
   12CHTO   C64 4890   7.158   7.840   4.194 -0.0212  0.2603  0.0671
   12CHTO  H121 4891   7.268   7.827   4.195  0.0126  0.4393 -0.7744
   12CHTO   C71 4892   7.104   7.779   4.330  0.1356  0.4853  0.0323
   12CHTO   O47 4893   6.965   7.810   4.359  0.3273  0.5889 -0.1716
   12CHTO  H104 4894   6.932   7.786   4.443  0.2123  5.5280  1.3578
   12CHTO   O34 4895   7.095   7.692   3.841  0.4190 -0.1439 -0.1455
   12CHTO   C49 4896   7.176   7.585   3.756 -0.5692 -0.3693  0.1532
   12CHTO   H91 4897   7.234   7.640   3.682  0.0549 -0.2795  0.7036
   12CHTO   C47 4898   7.076   7.488   3.695  0.0440 -0.0181 -0.5701
   12CHTO   H89 4899   7.133   7.439   3.612 -0.7625 -2.6772  0.3897
   12CHTO   O33 4900   6.970   7.559   3.633 -0.4620  0.1864 -0.5145
   12CHTO   H70 4901   6.989   7.633   3.578 -0.5194 -1.2521 -2.5234
   12CHTO   C45 4902   7.010   7.388   3.800  0.1362 -0.1791  0.1924
   12CHTO   H87 4903   6.907   7.417   3.827  0.6292  1.4609  0.3567
   12CHTO    N8 4904   7.007   7.252   3.741  0.2551 -0.0056 -0.3355
   12CHTO   H75 4905   6.957   7.262   3.646  0.1463 -0.3639 -0.3184
   12CHTO   H76 4906   6.932   7.192   3.792  0.3660 -0.7206 -1.0096
   12CHTO   C43 4907   7.083   7.401   3.948 -0.9413  0.4111  0.4199
   12CHTO   H85 4908   7.047   7.493   3.994  2.7714  1.5688  1.2009
   12CHTO   O29 4909   7.226   7.403   3.933 -0.3835 -0.0981 -0.6478
   12CHTO   C50 4910   7.279   7.505   3.846  0.8475 -0.1661 -0.5538
   12CHTO   H92 4911   7.339   7.576   3.904  1.6665 -1.4605  0.1886
   12CHTO   C54 4912   7.385   7.441   3.756  0.1525 -0.2603  0.4539
   12CHTO   O36 4913   7.495   7.402   3.840  0.0065  0.2076  0.1298
   12CHTO   H72 4914   7.512   7.477   3.893  0.6952  0.0775  0.0972
   12CHTO   O27 4915   7.026   7.305   4.036 -0.0398 -0.1126 -0.6388
   12CHTO   C37 4916   6.977   7.288   4.168 -0.1986 -0.3363 -0.1867
   12CHTO   H79 4917   6.964   7.181   4.194 -0.6781 -0.8589 -2.4684
   12CHTO   C38 4918   7.088   7.341   4.267  0.3060  0.0054  0.0409
   12CHTO   H80 4919   7.124   7.438   4.231 -0.1649  0.1913  0.0632
   12CHTO   O31 4920   7.203   7.253   4.260  0.1335 -0.4736 -0.1833
   12CHTO   H68 4921   7.164   7.168   4.254  1.1944 -0.8598 -2.2172
   12CHTO   C39 4922   7.026   7.353   4.422 -0.1209  0.5233  0.7693
   12CHTO   H81 4923   7.017   7.247   4.442 -0.7172 -0.2852 -3.3439
   12CHTO    N7 4924   7.116   7.414   4.525 -0.5806  0.1043 -0.6529
   12CHTO   H73 4925   7.198   7.348   4.550 -0.6681 -0.3373 -1.5003
   12CHTO   H74 4926   7.146   7.515   4.502 -2.2484  0.6346 -0.5478
   12CHTO   C40 4927   6.881   7.408   4.430 -0.7909 -0.2558 -0.3998
   12CHTO   H82 4928   6.891   7.515   4.413 -1.1799 -0.4227 -1.8004
   12CHTO   O26 4929   6.804   7.340   4.327 -0.0817 -0.3652  0.4431
   12CHTO   C41 4930   6.842   7.363   4.187 -0.4258 -0.2879 -0.4136
   12CHTO   H83 4931   6.861   7.470   4.170  2.2456 -0.5271  0.8439
   12CHTO   C52 4932   6.725   7.325   4.087  0.1714 -0.6128 -0.2990
   12CHTO   O35 4933   6.609   7.399   4.120 -0.1989  0.2399  0.2495
   12CHTO   H71 4934   6.585   7.362   4.203  0.9119 -0.3207  0.3307
   12CHTO   O28 4935   6.820   7.372   4.558  0.1445 -0.0909 -0.4257
   12CHTO   C42 4936   6.695   7.435   4.596  0.9504 -0.2179 -0.6548
   12CHTO   H84 4937   6.698   7.412   4.703  0.1241 -0.1130 -0.6045
   12CHTO   C44 4938   6.565   7.379   4.534  0.8975  0.0014 -0.2455
   12CHTO   H86 4939   6.574   7.380   4.426  3.0201 -3.7126 -0.2030
   12CHTO   O32 4940   6.568   7.247   4.589  0.4402 -0.1522  0.1716
   12CHTO   H69 4941   6.590   7.179   4.528  1.6759 -2.7493  3.3119
   12CHTO   C48 4942   6.437   7.455   4.572  0.8682 -0.0011 -0.4974
   12CHTO   H90 4943   6.407   7.441   4.676 -0.2086  0.0966 -0.7967
   12CHTO    N9 4944   6.322   7.406   4.498  0.0436  0.0665 -0.3230
   12CHTO   H77 4945   6.225   7.439   4.532 -0.0563  0.4609 -0.9653
   12CHTO   H78 4946   6.331   7.423   4.392 -5.0075  1.3651 -0.6798
   12CHTO   C51 4947   6.450   7.616   4.562 -0.4452 -0.3692 -0.0262
   12CHTO   H93 4948   6.454   7.650   4.459  0.8104  3.0503  1.1147
   12CHTO   O30 4949   6.564   7.653   4.637  0.4376 -0.7237  0.3052
   12CHTO   C46 4950   6.691   7.593   4.585 -0.8885 -0.8440 -0.0952
   12CHTO   H88 4951   6.705   7.617   4.480 -1.0493  1.6776  0.4360
   12CHTO   C53 4952   6.815   7.645   4.663  0.2475  0.4506 -0.1874
   12CHTO   O72 4953   6.871   7.764   4.614 -0.0040 -0.1954  0.5711
   12CHTO  H199 4954   6.911   7.746   4.531  3.0064  2.4817  1.3169
   12CHTO   O22 4955   6.342   7.681   4.631  0.2767  0.1368  0.5451
   12CHTO   C31 4956   6.324   7.826   4.659 -0.1895  0.0524  1.1119
   12CHTO   H59 4957   6.233   7.833   4.722 -1.1672 -1.2352 -0.1286
   12CHTO   C29 4958   6.438   7.895   4.739 -0.0751  0.3200 -0.1891
   12CHTO   H57 4959   6.533   7.893   4.684 -0.5352  2.0917 -1.1060
   12CHTO   O21 4960   6.460   7.824   4.865 -0.0429  0.6914  0.8343
   12CHTO   H37 4961   6.548   7.799   4.881  0.0730  0.6593  0.1505
   12CHTO   C27 4962   6.394   8.039   4.769 -0.2856 -0.0783 -0.7583
   12CHTO   H55 4963   6.304   8.035   4.831  0.5045 -0.8663  0.3702
   12CHTO    N5 4964   6.498   8.125   4.845  0.1474 -0.0618 -0.1513
   12CHTO   H43 4965   6.577   8.067   4.889  0.2354  0.2567  0.1006
   12CHTO   H44 4966   6.527   8.209   4.783  1.0841 -1.0622 -1.0838
   12CHTO   C25 4967   6.334   8.122   4.645  0.1198  0.0547 -0.3079
   12CHTO   H53 4968   6.420   8.157   4.587 -0.0381  3.9600  1.6243
   12CHTO   O17 4969   6.249   8.034   4.557 -0.0446  0.3976 -0.5952
   12CHTO   C32 4970   6.297   7.906   4.534 -0.2135  0.0872  0.0067
   12CHTO   H60 4971   6.391   7.926   4.483  0.7659 -1.5985  1.0930
   12CHTO   C36 4972   6.190   7.840   4.443 -0.2749  0.3859 -0.6832
   12CHTO   O25 4973   6.252   7.774   4.337 -0.0361 -0.3046  0.7129
   12CHTO   H40 4974   6.205   7.790   4.258  1.0418  0.4859  0.2285
   12CHTO   O15 4975   6.248   8.257   4.687  0.2418 -0.5810 -0.1417
   12CHTO   C19 4976   6.107   8.294   4.659 -0.3922 -0.5265  0.2307
   12CHTO   H47 4977   6.092   8.372   4.736 -0.6873 -0.6399  0.2878
   12CHTO   C20 4978   6.083   8.363   4.522 -0.3039 -0.1275  0.1460
   12CHTO   H48 4979   6.095   8.292   4.439  0.6022  1.7446 -1.3848
   12CHTO   O19 4980   6.170   8.476   4.497  0.7269 -0.1814  0.2081
   12CHTO   H35 4981   6.160   8.548   4.556  0.4054  0.6099 -0.7796
   12CHTO   C21 4982   5.928   8.407   4.524  0.0018  0.3955 -0.2578
   12CHTO   H49 4983   5.913   8.472   4.610  2.0830 -0.1221  0.5133
   12CHTO    N4 4984   5.892   8.465   4.395  0.4370 -0.4209 -0.7268
   12CHTO   H41 4985   5.795   8.513   4.391 -0.3196 -2.0278 -2.4168
   12CHTO   H42 4986   5.971   8.530   4.362  0.9286  1.0936  3.1712
   12CHTO   C22 4987   5.841   8.281   4.555  0.1532 -0.1152  0.3800
   12CHTO   H50 4988   5.864   8.212   4.474 -3.2459  0.5527 -1.2349
   12CHTO   O14 4989   5.873   8.226   4.687 -0.5473 -0.2650  0.0953
   12CHTO   C23 4990   6.014   8.179   4.695 -0.2059  0.1341 -0.2846
   12CHTO   H51 4991   6.024   8.095   4.626  2.5128  0.6336 -0.5450
   12CHTO   C34 4992   6.034   8.121   4.838  0.3273 -0.7585  0.1966
   12CHTO   O23 4993   6.000   7.983   4.831 -0.0857  0.8999 -0.8321
   12CHTO   H38 4994   6.071   7.923   4.823 -1.2949 -0.5254 -1.1140
   12CHTO   O16 4995   5.695   8.300   4.561 -0.8301 -0.5320 -0.1718
   12CHTO   C24 4996   5.615   8.199   4.482 -0.3223 -0.0559 -0.3471
   12CHTO   H52 4997   5.660   8.100   4.488  1.7733  1.0348  3.6521
   12CHTO   C26 4998   5.609   8.229   4.330 -0.1853  0.4570  0.1854
   12CHTO   H54 4999   5.576   8.335   4.318  0.4041  0.8325  1.7238
   12CHTO   O20 5000   5.739   8.193   4.269 -0.8819  0.5909  0.5329
   12CHTO   H36 5001   5.807   8.242   4.310 -0.8247 -0.6973  2.0119
   12CHTO   C30 5002   5.499   8.148   4.254  0.4304 -0.1541 -0.6104
   12CHTO   H58 5003   5.525   8.041   4.243 -0.6814 -0.3476 -1.4557
   12CHTO    N6 5004   5.484   8.193   4.113  0.3710  0.0696  0.0254
   12CHTO   H45 5005   5.460   8.111   4.047 -1.2495  0.8158 -0.3442
   12CHTO   H46 5006   5.407   8.268   4.102 -1.8601 -1.8386  1.8648
   12CHTO   C33 5007   5.369   8.150   4.337 -0.3065 -0.5091 -0.0755
   12CHTO   H61 5008   5.327   8.251   4.351  0.4897 -0.1921  0.0430
   12CHTO   O18 5009   5.396   8.102   4.466  0.0412 -0.2820 -0.2954
   12CHTO   C28 5010   5.474   8.192   4.548  0.0300 -1.1683 -0.3089
   12CHTO   H56 5011   5.434   8.294   4.549 -0.9059 -1.5409  0.5506
   12CHTO   C35 5012   5.485   8.136   4.693 -0.5078  0.3877 -0.6856
   12CHTO   O24 5013   5.365   8.156   4.766 -0.0622 -0.2007 -0.6691
   12CHTO   H39 5014   5.307   8.083   4.758  1.3922 -1.7583  2.3199
   12CHTO    O9 5015   5.261   8.078   4.276 -0.1670  0.3424  0.1912
   12CHTO   C13 5016   5.291   7.913   4.275  0.4454  0.2136 -0.1198
   12CHTO   H26 5017   5.383   7.890   4.333  0.4347  1.2600  0.3207
   12CHTO   C11 5018   5.300   7.858   4.126  0.4136 -0.0141  0.0342
   12CHTO   H24 5019   5.386   7.897   4.070 -0.8382 -2.1116 -3.5453
   12CHTO    O8 5020   5.179   7.906   4.053  0.3019 -0.1599 -0.0694
   12CHTO    H3 5021   5.111   7.843   4.063 -0.8044  1.0802  0.2729
   12CHTO    C9 5022   5.302   7.700   4.130  0.1314  0.1123  0.9589
   12CHTO   H22 5023   5.386   7.675   4.196 -0.2708  2.6535  2.4989
   12CHTO    N2 5024   5.326   7.635   3.995 -0.3080 -0.1355  0.3684
   12CHTO   H10 5025   5.361   7.532   3.998 -0.3308 -0.2986 -3.2926
   12CHTO   H11 5026   5.242   7.644   3.928 -0.1497 -1.5793 -0.0382
   12CHTO    C7 5027   5.170   7.639   4.203  0.0672  0.2352  0.4768
   12CHTO   H20 5028   5.217   7.572   4.278  0.6657  0.0244 -0.0855
   12CHTO    O4 5029   5.099   7.750   4.269 -0.3788  0.1469 -0.1826
   12CHTO   C14 5030   5.175   7.834   4.356  0.4885  0.3854  0.2548
   12CHTO   H27 5031   5.212   7.765   4.435 -2.1638 -0.9391  0.4046
   12CHTO   C18 5032   5.068   7.929   4.423  0.1267  0.0419 -0.1790
   12CHTO   O13 5033   4.992   7.875   4.532 -0.0601  0.7069  0.4686
   12CHTO    H7 5034   4.967   7.788   4.510 -0.7067  0.5691  1.6604
   12CHTO    O2 5035   5.049   7.550   4.090 -0.8262  0.1558 -0.4003
   12CHTO    C1 5036   4.992   7.438   4.158  1.2322  0.3194  0.6976
   12CHTO   H14 5037   5.006   7.441   4.269  1.4778 -1.2071  0.7237
   12CHTO    C2 5038   5.055   7.296   4.109  0.3428 -0.4545 -0.1479
   12CHTO   H15 5039   5.059   7.293   3.999 -1.7836 -1.4618 -0.2144
   12CHTO    O6 5040   5.188   7.294   4.163  0.3216 -0.3080 -0.4227
   12CHTO    H1 5041   5.236   7.243   4.100  0.8316  1.7553 -1.7820
   12CHTO    C3 5042   4.968   7.169   4.170  0.5256 -0.6044  0.4602
   12CHTO   H16 5043   4.997   7.169   4.277 -0.1083 -1.6030  0.6359
   12CHTO    N1 5044   4.998   7.030   4.124  0.0645  0.0101  0.3776
   12CHTO    H8 5045   5.106   7.037   4.114 -0.1545  1.3644 -1.3584
   12CHTO    H9 5046   4.971   7.018   4.020  0.5670 -1.5541  0.4148
   12CHTO    C4 5047   4.814   7.197   4.158 -0.0729  0.4212  0.2222
   12CHTO   H17 5048   4.786   7.185   4.053  1.0152 -2.0103  0.1548
   12CHTO    O1 5049   4.772   7.329   4.203  0.0107 -0.6427 -0.7186
   12CHTO    C5 5050   4.834   7.441   4.135  0.0584  0.8245  0.1679
   12CHTO   H18 5051   4.817   7.419   4.030  3.0355 -1.6403  0.1201
   12CHTO   C16 5052   4.785   7.582   4.170  0.2485 -0.3559  0.5782
   12CHTO   O11 5053   4.646   7.602   4.146 -0.6564  0.0657 -0.0039
   12CHTO    H5 5054   4.597   7.587   4.224 -1.0565 -0.7115 -0.3912
   12CHTO    O3 5055   4.744   7.104   4.241  0.3275  0.2162 -0.0976
   12CHTO    C6 5056   4.602   7.079   4.226  0.2203  0.2627  0.0738
   12CHTO   H19 5057   4.555   7.152   4.160  1.8437 -0.3749 -1.8632
   12CHTO    C8 5058   4.592   6.943   4.164 -0.1452  0.2735  0.6984
   12CHTO   H21 5059   4.656   6.872   4.216  1.9180 -1.0587 -3.4539
   12CHTO    O7 5060   4.644   6.960   4.029  0.9382  0.2244 -0.5232
   12CHTO    H2 5061   4.602   7.023   3.974 -2.7370 -2.7823 -1.4024
   12CHTO   C12 5062   4.446   6.888   4.149 -0.6537 -0.2244  0.1618
   12CHTO   H25 5063   4.387   6.941   4.071  0.6824 -0.3666 -0.9638
   12CHTO    N3 5064   4.429   6.752   4.097 -0.0696  0.5539  0.7601
   12CHTO   H12 5065   4.324   6.731   4.087  0.2868 -1.1520  0.3521
   12CHTO   H13 5066   4.484   6.677   4.151 -0.9810 -0.2718  0.5540
   12CHTO   C15 5067   4.378   6.902   4.288 -0.5895 -0.2348 -0.0944
   12CHTO   H28 5068   4.412   6.826   4.358  0.9023  0.5520  0.0460
   12CHTO   O10 5069   4.223   6.880   4.289  0.4038 -0.1198  0.2083
   12CHTO    H4 5070   4.207   6.804   4.237 -1.6552  1.5685 -1.7363
   12CHTO    O5 5071   4.392   7.031   4.333  0.5657 -0.0038  0.6236
   12CHTO   C10 5072   4.526   7.079   4.363 -0.0783  1.1091  0.3582
   12CHTO   H23 5073   4.566   7.011   4.438 -1.4798  0.6362  0.6813
   12CHTO   C17 5074   4.505   7.218   4.423 -0.2760  0.0136  0.4616
   12CHTO   O12 5075   4.465   7.317   4.329  0.4907  0.1533 -0.1494
   12CHTO    H6 5076   4.529   7.330   4.262  1.3056  1.9131  0.9197
   13CHTO  H203 5077   7.670   3.828   1.509  0.0642 -1.6054 -0.7824
   13CHTO   O82 5078   7.689   3.867   1.592 -0.9628 -0.5104 -1.0390
   13CHTO  C123 5079   7.684   4.011   1.586 -0.2140  0.8924  0.5432
   13CHTO  H227 5080   7.750   4.052   1.509 -0.9935  0.0868 -0.5763
   13CHTO   O77 5081   7.550   4.021   1.539 -0.6260 -0.2619  0.4636
   13CHTO  C118 5082   7.502   4.153   1.516  0.3916 -0.4931 -1.1727
   13CHTO  H222 5083   7.568   4.195   1.439  0.9278  0.9258  0.0328
   13CHTO  C125 5084   7.358   4.144   1.463  0.5197 -0.3641  0.5566
   13CHTO   O84 5085   7.351   4.059   1.353  0.4964 -0.6296 -0.0684
   13CHTO  H205 5086   7.328   4.116   1.282 -1.4892 -1.7913 -0.3832
   13CHTO  C114 5087   7.509   4.237   1.647  0.3359 -0.4551 -0.5717
   13CHTO  H218 5088   7.445   4.189   1.721 -1.3275  0.2735 -1.5213
   13CHTO  C116 5089   7.649   4.233   1.704 -0.1949 -0.1264 -0.0994
   13CHTO  H220 5090   7.710   4.283   1.626 -0.1067  0.8654  0.5976
   13CHTO   O79 5091   7.647   4.312   1.818 -0.7234 -0.2914  0.2615
   13CHTO  H201 5092   7.607   4.267   1.890 -0.7210  1.7472  1.5539
   13CHTO  C120 5093   7.693   4.083   1.728 -0.4616  0.0059  0.0639
   13CHTO  H224 5094   7.619   4.036   1.797 -1.5297  0.6467 -0.6259
   13CHTO   N21 5095   7.822   4.084   1.797  0.0027 -0.1120  0.0444
   13CHTO  H211 5096   7.820   4.077   1.905 -0.8800  0.0643  0.0358
   13CHTO  H212 5097   7.880   4.006   1.749  2.3214  0.5420  1.6810
   13CHTO   O75 5098   7.448   4.368   1.626  0.4060  0.0224 -0.3882
   13CHTO  C112 5099   7.342   4.442   1.735  0.0164  0.1267 -0.2662
   13CHTO  H216 5100   7.396   4.457   1.830 -0.1198 -1.2604  0.0357
   13CHTO   O73 5101   7.232   4.351   1.753  0.8991 -0.2502  0.4097
   13CHTO  C113 5102   7.137   4.401   1.844 -0.1599 -0.1772  0.1882
   13CHTO  H217 5103   7.188   4.421   1.940  1.7689 -1.2678 -0.5771
   13CHTO  C124 5104   7.032   4.290   1.863  0.2194  0.2010  0.3166
   13CHTO   O83 5105   7.078   4.181   1.946  0.1049  0.0721  0.1118
   13CHTO  H204 5106   7.041   4.098   1.921  1.2991 -0.0456 -1.3471
   13CHTO  C109 5107   7.070   4.528   1.807  0.4967 -0.3703 -0.3991
   13CHTO  H213 5108   7.010   4.505   1.718 -1.0619 -2.2603  1.1055
   13CHTO  C110 5109   7.173   4.643   1.774  0.7127 -0.1436  0.2498
   13CHTO  H214 5110   7.216   4.671   1.870  0.5212  0.6688  0.1003
   13CHTO   O78 5111   7.116   4.759   1.713  0.2930 -0.2293 -0.2794
   13CHTO  H200 5112   7.188   4.813   1.684  0.8208 -1.9643 -2.3656
   13CHTO  C111 5113   7.289   4.582   1.685  0.1691  0.1265  0.6197
   13CHTO  H215 5114   7.247   4.556   1.587 -0.9150  1.7776  0.6364
   13CHTO   N19 5115   7.401   4.678   1.657  0.1275  0.6702  0.3649
   13CHTO  H207 5116   7.491   4.676   1.715  1.6331  0.5927 -1.9125
   13CHTO  H208 5117   7.414   4.699   1.552 -0.6489  4.0838  0.8812
   13CHTO   O74 5118   6.986   4.581   1.918 -0.0870 -0.2194 -0.0034
   13CHTO  C115 5119   6.863   4.636   1.863  0.1758  0.5834  0.1780
   13CHTO  H219 5120   6.876   4.663   1.758  3.0239  0.5064  0.4778
   13CHTO   O76 5121   6.756   4.528   1.860 -0.0260 -0.7745  0.0534
   13CHTO  C122 5122   6.675   4.507   1.979 -0.1034 -0.9529  0.3175
   13CHTO  H226 5123   6.739   4.489   2.065 -1.2583  1.1395  1.6721
   13CHTO  C126 5124   6.582   4.376   1.962 -0.0681 -0.3101 -0.4134
   13CHTO   O85 5125   6.651   4.260   1.911  0.5520  0.0812  0.0455
   13CHTO  H206 5126   6.659   4.200   1.983  1.6717  1.0676  0.7739
   13CHTO  C121 5127   6.593   4.645   2.011  0.4918 -0.3958  0.0378
   13CHTO  H225 5128   6.494   4.626   1.965 -0.7821  0.1285  2.5156
   13CHTO   O81 5129   6.590   4.654   2.152  0.1694  0.5954 -0.3753
   13CHTO  H202 5130   6.549   4.577   2.186  0.7223  0.7630  0.6974
   13CHTO  C119 5131   6.658   4.777   1.954 -0.0355  0.2013 -0.0356
   13CHTO  H223 5132   6.627   4.787   1.850 -0.0029  0.2374 -0.0418
   13CHTO  C117 5133   6.819   4.767   1.953 -0.2613  0.2507  0.0097
   13CHTO  H221 5134   6.875   4.753   2.045 -2.5389 -0.4661  1.3203
   13CHTO   N20 5135   6.875   4.892   1.888  0.0271  0.1860  0.5034
   13CHTO  H209 5136   6.959   4.931   1.944  0.8081 -0.4122 -0.2275
   13CHTO  H210 5137   6.804   4.958   1.841  0.5105 -0.2968 -0.9345
   13CHTO   O80 5138   6.587   4.904   2.010 -0.1011 -0.1418 -0.3675
   13CHTO  C103 5139   6.437   4.949   1.956  0.1104 -0.3243 -0.1301
   13CHTO  H190 5140   6.428   5.057   1.969 -3.4156 -0.7372  1.3578
   13CHTO  C101 5141   6.399   4.892   1.806 -0.1301 -0.3980  0.4191
   13CHTO  H188 5142   6.411   4.784   1.802 -0.6560 -0.4128 -1.4845
   13CHTO   O68 5143   6.499   4.971   1.712 -0.2356 -0.2227 -0.1507
   13CHTO  H168 5144   6.477   5.061   1.723  0.3460 -0.0486 -0.4411
   13CHTO   C99 5145   6.242   4.924   1.779  0.0010  0.5673 -0.5291
   13CHTO  H186 5146   6.227   5.034   1.773  0.4575  0.5936 -1.3849
   13CHTO   N17 5147   6.201   4.876   1.641  0.2316  0.5771  0.3301
   13CHTO  H174 5148   6.152   4.781   1.656  0.9452  0.2422  0.5626
   13CHTO  H175 5149   6.124   4.942   1.603  0.9524  0.1333 -1.9884
   13CHTO   C97 5150   6.151   4.870   1.890 -0.0373  0.2579 -0.2426
   13CHTO  H184 5151   6.139   4.761   1.896  3.6172 -0.0626  2.9330
   13CHTO   O64 5152   6.200   4.919   2.011  0.4363 -0.3950 -0.1778
   13CHTO  C104 5153   6.333   4.892   2.052 -0.6222 -0.3021 -0.0123
   13CHTO  H191 5154   6.342   4.783   2.053  2.2027 -0.0911  1.3476
   13CHTO  C108 5155   6.327   4.937   2.204 -0.1467  0.3963  0.0918
   13CHTO   O71 5156   6.458   4.939   2.271  0.9146  0.5263 -0.0360
   13CHTO  H171 5157   6.497   5.022   2.248  0.5181  0.7816  0.1979
   13CHTO   O62 5158   6.019   4.932   1.884  0.3645 -0.2971 -0.2824
   13CHTO   C91 5159   5.903   4.849   1.918  0.4679 -1.0375 -0.0477
   13CHTO  H178 5160   5.937   4.765   1.977 -0.1726 -1.6932 -0.6082
   13CHTO   C92 5161   5.835   4.789   1.794 -0.2937 -0.7415  1.4046
   13CHTO  H179 5162   5.789   4.863   1.726  0.8824 -1.3226 -0.0517
   13CHTO   O66 5163   5.931   4.714   1.718 -0.5426  0.2436 -0.1849
   13CHTO  H166 5164   5.889   4.662   1.652 -0.2247 -1.3014  0.8140
   13CHTO   C93 5165   5.715   4.697   1.831  0.1342 -0.9849 -0.0485
   13CHTO  H180 5166   5.767   4.615   1.881  0.8033 -0.9323 -0.6465
   13CHTO   N16 5167   5.638   4.633   1.719 -0.0008  0.3336 -0.2344
   13CHTO  H172 5168   5.548   4.591   1.761  0.0572 -1.7633 -2.1124
   13CHTO  H173 5169   5.617   4.713   1.650  0.5619  0.0405 -0.7442
   13CHTO   C94 5170   5.620   4.778   1.938 -0.2097  0.0557  0.0633
   13CHTO  H181 5171   5.569   4.865   1.897  0.6363  1.7135  2.3614
   13CHTO   O61 5172   5.698   4.830   2.047  0.3338  0.1515  0.3056
   13CHTO   C95 5173   5.798   4.924   2.009  0.4729  0.1004 -0.2161
   13CHTO  H182 5174   5.748   5.000   1.949 -1.2839 -0.5870  0.3497
   13CHTO  C106 5175   5.865   4.990   2.131 -0.2569  0.4491 -0.4994
   13CHTO   O69 5176   5.944   4.904   2.212 -0.1027  0.7872 -0.2493
   13CHTO  H169 5177   5.994   4.953   2.275  0.9291  0.5582 -0.8754
   13CHTO   O63 5178   5.521   4.676   2.000 -0.6353  0.3602 -0.1188
   13CHTO   C96 5179   5.386   4.747   2.077 -0.6066 -0.4548 -0.7759
   13CHTO  H183 5180   5.349   4.821   2.006 -2.4567  0.3493  0.9787
   13CHTO   C98 5181   5.430   4.805   2.216 -0.7786  0.6470 -0.6023
   13CHTO  H185 5182   5.512   4.879   2.214 -1.3158  1.3451  1.6394
   13CHTO   O67 5183   5.310   4.881   2.252 -0.5832  0.6391  0.0789
   13CHTO  H167 5184   5.226   4.839   2.251 -0.0993 -0.3021 -0.9280
   13CHTO  C102 5185   5.462   4.694   2.321 -0.1168  0.5477 -0.2647
   13CHTO  H189 5186   5.446   4.747   2.416 -0.4083 -1.0258  0.5733
   13CHTO   N18 5187   5.601   4.646   2.328 -0.1488  0.1263 -0.3971
   13CHTO  H176 5188   5.614   4.580   2.411  1.3527 -0.2196 -0.8931
   13CHTO  H177 5189   5.664   4.732   2.347 -0.0220  0.0168 -0.3250
   13CHTO  C105 5190   5.356   4.579   2.317  0.0864  0.1554 -0.2474
   13CHTO  H192 5191   5.400   4.487   2.279  0.6435  1.0939 -1.8976
   13CHTO   O65 5192   5.243   4.607   2.228 -0.4491 -0.1859 -0.0101
   13CHTO  C100 5193   5.274   4.634   2.092 -0.4877 -0.2180  0.0102
   13CHTO  H187 5194   5.318   4.539   2.059 -2.4932 -1.4365  0.7091
   13CHTO  C107 5195   5.142   4.670   2.020  0.1607  0.1970  0.2432
   13CHTO   O70 5196   5.168   4.672   1.877 -0.0750 -0.1967 -0.3846
   13CHTO  H170 5197   5.113   4.605   1.841 -1.6469 -0.9553  3.1782
   13CHTO   O57 5198   5.311   4.561   2.477  0.4699 -0.3711 -0.6198
   13CHTO   C85 5199   5.246   4.441   2.524 -0.0090  0.7023  0.0263
   13CHTO  H157 5200   5.257   4.368   2.441 -0.9449  0.7191 -0.1112
   13CHTO   C83 5201   5.092   4.470   2.551  0.9629  0.4873 -0.2710
   13CHTO  H155 5202   5.042   4.500   2.459 -1.5771 -0.1220  0.8652
   13CHTO   O56 5203   5.075   4.584   2.640  0.3257  0.3145 -0.3464
   13CHTO  H135 5204   4.983   4.601   2.645  0.9033  3.3961  0.8978
   13CHTO   C81 5205   5.026   4.336   2.603  0.2169  0.5734 -0.2753
   13CHTO  H153 5206   5.038   4.262   2.524 -0.3276  1.5761 -1.3095
   13CHTO   N14 5207   4.880   4.330   2.618 -0.1851  0.5089 -0.3828
   13CHTO  H141 5208   4.834   4.240   2.581  0.9845 -0.2880  0.0820
   13CHTO  H142 5209   4.834   4.414   2.570  2.0868  1.5311 -0.8149
   13CHTO   C79 5210   5.101   4.275   2.727  0.5734 -0.0770 -0.3664
   13CHTO  H151 5211   5.058   4.175   2.739  0.3961 -0.3880 -3.2430
   13CHTO   O52 5212   5.244   4.261   2.707 -0.2179  0.6344 -0.6155
   13CHTO   C86 5213   5.309   4.387   2.651 -0.1743  0.7741  0.2817
   13CHTO  H158 5214   5.290   4.457   2.735  0.7348  1.5491 -0.1616
   13CHTO   C90 5215   5.466   4.375   2.644  0.1531 -0.0266 -0.2494
   13CHTO   O60 5216   5.515   4.331   2.776  0.2563  0.1049  0.0802
   13CHTO  H138 5217   5.599   4.371   2.783  0.2790  0.0105  0.3692
   13CHTO   O50 5218   5.081   4.348   2.851 -0.4069 -0.4209  0.0985
   13CHTO   C73 5219   5.021   4.299   2.966 -0.9833 -0.2976 -0.0588
   13CHTO  H145 5220   5.014   4.189   2.969  0.0499 -0.3423  1.1632
   13CHTO   C74 5221   4.878   4.345   2.973  0.5326 -0.3942 -0.1338
   13CHTO  H146 5222   4.821   4.308   2.887  0.6765 -0.9935  0.0287
   13CHTO   O54 5223   4.808   4.277   3.077 -0.3745  0.1465  0.0239
   13CHTO  H133 5224   4.851   4.307   3.154  2.0406  0.5530 -1.4389
   13CHTO   C75 5225   4.875   4.503   2.979 -0.0358  0.0156 -0.2293
   13CHTO  H147 5226   4.926   4.540   2.888 -0.9063  0.6431 -0.4695
   13CHTO   N13 5227   4.745   4.570   2.972  0.4154  0.4425 -0.5022
   13CHTO  H139 5228   4.668   4.496   2.955 -1.6540  2.5817 -0.6957
   13CHTO  H140 5229   4.748   4.639   2.889 -1.6487  0.3715 -0.6425
   13CHTO   C76 5230   4.955   4.545   3.112  0.1206 -0.6236  0.2594
   13CHTO  H148 5231   4.893   4.512   3.194  1.3206  1.0160  1.8831
   13CHTO   O49 5232   5.088   4.482   3.112 -0.0994  0.0546 -0.0637
   13CHTO   C77 5233   5.090   4.340   3.103  1.1830  0.1797 -0.2681
   13CHTO  H149 5234   5.025   4.303   3.182  0.1122 -1.2314 -1.7602
   13CHTO   C88 5235   5.229   4.282   3.138  0.0144 -0.3229 -0.2541
   13CHTO   O58 5236   5.345   4.310   3.023  0.4325  0.2979 -0.2905
   13CHTO  H136 5237   5.404   4.380   3.044 -0.6220  1.2506 -0.3949
   13CHTO   O51 5238   4.989   4.721   3.103 -0.0257  0.1809  0.4031
   13CHTO   C78 5239   5.081   4.762   3.238  0.6337 -0.0056  1.5774
   13CHTO  H150 5240   5.141   4.674   3.269 -0.8165 -1.2171  0.9685
   13CHTO   C80 5241   5.003   4.809   3.355  0.3163  0.2235 -0.7141
   13CHTO  H152 5242   4.953   4.906   3.335 -1.0759 -0.5029 -0.8460
   13CHTO   O55 5243   4.909   4.704   3.380 -0.0641 -0.1037 -0.6325
   13CHTO  H134 5244   4.834   4.727   3.328 -0.8249  0.6769  0.7645
   13CHTO   C84 5245   5.097   4.827   3.483  0.0351  0.3223 -0.4271
   13CHTO  H156 5246   5.133   4.728   3.513 -0.5028 -0.2066 -1.4944
   13CHTO   N15 5247   5.025   4.887   3.606  0.3351 -0.1023  0.4957
   13CHTO  H143 5248   5.062   4.988   3.606 -1.2801  0.5173 -2.0950
   13CHTO  H144 5249   5.057   4.834   3.693  2.5979  0.1439 -0.1533
   13CHTO   C87 5250   5.218   4.913   3.443  0.2519 -0.0704  0.4531
   13CHTO  H159 5251   5.190   5.019   3.443 -0.8783 -0.3539 -0.4490
   13CHTO   O53 5252   5.287   4.873   3.301 -0.2065 -0.1418 -0.1231
   13CHTO   C82 5253   5.188   4.869   3.196  0.0182  0.4025 -0.1292
   13CHTO  H154 5254   5.138   4.962   3.172 -0.8872  0.8356  3.2629
   13CHTO   C89 5255   5.256   4.816   3.068  0.0895 -0.4359 -0.1877
   13CHTO   O59 5256   5.322   4.690   3.093 -0.0957  0.5233  0.4973
   13CHTO  H137 5257   5.334   4.643   3.013 -2.1967 -0.4172  0.6918
   13CHTO   O45 5258   5.343   4.887   3.563 -0.0877  0.5785 -0.1109
   13CHTO   C67 5259   5.479   4.854   3.539  0.7375  0.5426 -0.1126
   13CHTO  H124 5260   5.494   4.790   3.452 -0.7825  0.1869 -0.1299
   13CHTO   C65 5261   5.565   4.990   3.530 -0.2306  0.3075 -0.3412
   13CHTO  H122 5262   5.505   5.072   3.569  0.9803  0.5688  1.0096
   13CHTO   O44 5263   5.594   5.019   3.393  0.2197 -0.6194  0.3139
   13CHTO  H102 5264   5.682   5.004   3.364  0.7062 -1.2212  2.0923
   13CHTO   C63 5265   5.696   4.980   3.619 -0.0237 -0.1722 -0.5221
   13CHTO  H120 5266   5.677   4.988   3.726  0.1215 -0.5298 -0.4692
   13CHTO   N11 5267   5.784   5.100   3.606  0.1261  0.2792 -0.3924
   13CHTO  H108 5268   5.726   5.187   3.633  0.1925  0.2438 -0.1385
   13CHTO  H109 5269   5.875   5.097   3.662  0.2087  1.2746 -0.4578
   13CHTO   C61 5270   5.762   4.841   3.605 -1.0311  0.3610 -0.1797
   13CHTO  H118 5271   5.852   4.838   3.669  0.1204  1.1092 -1.7157
   13CHTO   O40 5272   5.666   4.741   3.660 -0.2835  0.3794 -0.5913
   13CHTO   C68 5273   5.518   4.766   3.658  0.7853  0.2195 -0.1626
   13CHTO  H125 5274   5.503   4.812   3.757  1.4006 -1.1869  0.5922
   13CHTO   C72 5275   5.448   4.628   3.660 -0.2069 -0.2943  0.7741
   13CHTO   O48 5276   5.310   4.647   3.696  0.0616 -0.3337  0.5961
   13CHTO  H105 5277   5.308   4.667   3.788 -0.8603  1.3715  0.2160
   13CHTO   O38 5278   5.806   4.802   3.474 -0.7223  0.4400 -0.1977
   13CHTO   C55 5279   5.934   4.735   3.453  0.3279  0.6755  0.2416
   13CHTO  H112 5280   5.933   4.707   3.347  0.1076 -0.8338  0.6267
   13CHTO   C56 5281   5.955   4.610   3.550  0.3460 -0.2634  0.2846
   13CHTO  H113 5282   5.953   4.641   3.656  0.9076 -1.6983  0.7148
   13CHTO   O42 5283   5.845   4.514   3.540  0.0160  0.1686  0.2362
   13CHTO  H100 5284   5.759   4.548   3.528  0.2284 -0.0049 -1.9671
   13CHTO   C57 5285   6.092   4.529   3.507 -0.4465  0.1024 -0.5782
   13CHTO  H114 5286   6.073   4.511   3.402 -1.9609  2.9171 -0.8450
   13CHTO   N10 5287   6.118   4.407   3.589  0.2832 -0.1291  0.0400
   13CHTO  H106 5288   6.088   4.431   3.689  1.3707  0.8406  0.1435
   13CHTO  H107 5289   6.224   4.386   3.584  0.4591  0.8891 -0.6451
   13CHTO   C58 5290   6.209   4.630   3.517 -0.2605  0.2511  0.5772
   13CHTO  H115 5291   6.229   4.668   3.619  0.1119  0.7486  0.3227
   13CHTO   O37 5292   6.179   4.742   3.436  0.9575 -0.8458 -0.5848
   13CHTO   C59 5293   6.062   4.825   3.470 -0.2859 -0.0505  0.0365
   13CHTO  H116 5294   6.067   4.859   3.573  1.8368 -1.1823  0.3241
   13CHTO   C70 5295   6.061   4.945   3.366 -0.1987  0.2543  0.4923
   13CHTO   O46 5296   6.171   5.038   3.372 -0.0629  0.1053 -0.0131
   13CHTO  H103 5297   6.243   4.985   3.343 -0.5531 -0.6700  0.1727
   13CHTO   O39 5298   6.345   4.582   3.440  0.6415 -0.4472 -0.2864
   13CHTO   C60 5299   6.470   4.638   3.497  0.0654  0.2461 -1.0427
   13CHTO  H117 5300   6.450   4.716   3.570  2.8905  0.4031 -0.3966
   13CHTO   C62 5301   6.556   4.526   3.570 -0.1175  0.1707  0.3412
   13CHTO  H119 5302   6.486   4.477   3.641  0.9783  0.1833  1.4510
   13CHTO   O43 5303   6.610   4.428   3.481 -0.3193 -0.1880 -0.2290
   13CHTO  H101 5304   6.626   4.466   3.396  4.0952 -0.8486  0.1613
   13CHTO   C66 5305   6.677   4.602   3.639 -0.0702 -1.1839  0.1493
   13CHTO  H123 5306   6.637   4.672   3.712 -1.1387  0.9527 -2.3798
   13CHTO   N12 5307   6.759   4.512   3.726  0.1356 -0.0215 -0.1864
   13CHTO  H110 5308   6.732   4.408   3.738  0.4580 -0.3164 -1.8703
   13CHTO  H111 5309   6.837   4.554   3.787 -1.3646  0.6455  1.3031
   13CHTO   C69 5310   6.770   4.679   3.535 -0.1100 -0.2781 -0.5871
   13CHTO  H126 5311   6.829   4.604   3.479 -1.4952 -1.3278 -0.6555
   13CHTO   O41 5312   6.668   4.759   3.428  0.2855 -0.0582 -0.1727
   13CHTO   C64 5313   6.552   4.702   3.382 -0.7701  0.1198  0.0276
   13CHTO  H121 5314   6.581   4.620   3.313  1.3291  0.2810  0.6824
   13CHTO   C71 5315   6.471   4.803   3.302  0.1257 -0.4855 -0.8594
   13CHTO   O47 5316   6.438   4.921   3.375  0.1965  0.2564  0.4152
   13CHTO  H104 5317   6.427   4.897   3.465  1.5380 -0.9200  0.2798
   13CHTO   O34 5318   6.868   4.780   3.594  0.6750 -0.2847  0.2392
   13CHTO   C49 5319   6.975   4.861   3.487  0.4295 -0.5177 -0.4355
   13CHTO   H91 5320   7.007   4.785   3.416  2.4224  0.2861 -0.4543
   13CHTO   C47 5321   7.091   4.907   3.572  0.8966  0.3076 -0.2249
   13CHTO   H89 5322   7.162   4.942   3.494  0.1843  2.2676 -0.0167
   13CHTO   O33 5323   7.156   4.802   3.645  0.0445 -0.2185  0.1128
   13CHTO   H70 5324   7.217   4.837   3.708  0.4711  2.3412 -1.6666
   13CHTO   C45 5325   7.045   5.032   3.669 -0.2245  0.0530  0.0057
   13CHTO   H87 5326   7.009   4.983   3.760 -1.4087 -2.3478 -1.6822
   13CHTO    N8 5327   7.172   5.105   3.698  0.0829 -0.0650  0.5487
   13CHTO   H75 5328   7.164   5.212   3.685 -0.0691 -0.3332 -1.7067
   13CHTO   H76 5329   7.201   5.074   3.798  0.3155 -1.5710  0.0204
   13CHTO   C43 5330   6.914   5.118   3.619  0.2304  0.3648  0.7348
   13CHTO   H85 5331   6.829   5.063   3.659  1.6043 -1.7242  0.8699
   13CHTO   O29 5332   6.917   5.113   3.472 -0.0416 -0.7029  0.3257
   13CHTO   C50 5333   6.894   4.979   3.415 -1.1028  0.2531 -0.3091
   13CHTO   H92 5334   6.786   4.961   3.425 -0.7576 -0.5012  2.2700
   13CHTO   C54 5335   6.922   4.993   3.265  0.1433 -0.8305  0.7598
   13CHTO   O36 5336   6.876   4.879   3.193  0.3851 -0.1689 -0.8281
   13CHTO   H72 5337   6.942   4.852   3.132  0.4622  1.1065 -1.3278
   13CHTO   O27 5338   6.890   5.254   3.667  0.4131 -0.1178 -0.3682
   13CHTO   C37 5339   6.767   5.322   3.685  0.2813 -0.7494  0.2330
   13CHTO   H79 5340   6.685   5.256   3.655 -0.5877 -0.2382  1.4575
   13CHTO   C38 5341   6.737   5.358   3.835 -0.2327  0.0698  0.6666
   13CHTO   H80 5342   6.835   5.381   3.880 -0.7641  0.0272  1.8622
   13CHTO   O31 5343   6.697   5.238   3.899  0.5527 -0.2870 -0.2681
   13CHTO   H68 5344   6.606   5.248   3.919  1.0471  0.6985  1.5876
   13CHTO   C39 5345   6.642   5.484   3.861  0.4908  0.9340  0.4157
   13CHTO   H81 5346   6.539   5.449   3.852  0.2349  2.0728 -1.4183
   13CHTO    N7 5347   6.658   5.531   4.006 -0.1339  0.0446  0.1816
   13CHTO   H73 5348   6.763   5.538   4.031  0.3771 -2.1787 -1.1543
   13CHTO   H74 5349   6.607   5.623   4.031 -1.5465 -0.8953  0.7918
   13CHTO   C40 5350   6.663   5.595   3.751 -0.6618 -0.5880 -0.4589
   13CHTO   H82 5351   6.759   5.645   3.769 -0.4120 -2.1294  2.7460
   13CHTO   O26 5352   6.657   5.537   3.620 -0.5815 -0.2756 -0.2627
   13CHTO   C41 5353   6.766   5.446   3.590  0.2528  0.1441  0.6613
   13CHTO   H83 5354   6.858   5.505   3.607  0.5257  0.1648 -0.7697
   13CHTO   C52 5355   6.750   5.415   3.438  0.2081  0.9373 -0.2160
   13CHTO   O35 5356   6.609   5.346   3.433  0.6189  0.4308 -0.3887
   13CHTO   H71 5357   6.552   5.415   3.403 -0.9319 -0.2178  0.9581
   13CHTO   O28 5358   6.557   5.694   3.779  0.6608 -0.1819 -0.2092
   13CHTO   C42 5359   6.566   5.833   3.723 -0.6078 -0.8143  0.4497
   13CHTO   H84 5360   6.627   5.826   3.633 -1.3734  2.0811 -0.3184
   13CHTO   C44 5361   6.640   5.931   3.816  0.1558 -0.0449  0.6113
   13CHTO   H86 5362   6.586   5.924   3.911 -3.3810 -2.6955 -1.4538
   13CHTO   O32 5363   6.767   5.878   3.853  0.0968 -0.4579 -0.0141
   13CHTO   H69 5364   6.826   5.945   3.883  0.2883 -0.7718  0.3114
   13CHTO   C48 5365   6.657   6.079   3.756 -0.2346  0.1200 -0.3920
   13CHTO   H90 5366   6.721   6.077   3.668 -1.0598  0.0329 -0.9950
   13CHTO    N9 5367   6.721   6.172   3.852  0.2170 -0.1445 -0.6196
   13CHTO   H77 5368   6.719   6.273   3.813 -0.6922  0.7341  1.6102
   13CHTO   H78 5369   6.812   6.125   3.885 -0.6833 -2.2558 -1.0943
   13CHTO   C51 5370   6.514   6.126   3.699 -0.4004 -0.7611  0.1378
   13CHTO   H93 5371   6.447   6.150   3.782 -1.5170 -0.7518 -0.7559
   13CHTO   O30 5372   6.463   6.026   3.618  0.1954  1.1605 -0.6518
   13CHTO   C46 5373   6.432   5.900   3.684  0.1636  0.0509  1.5049
   13CHTO   H88 5374   6.375   5.923   3.773 -0.6769  1.0408  0.7219
   13CHTO   C53 5375   6.344   5.810   3.591 -0.2693  0.0362  0.1957
   13CHTO   O72 5376   6.416   5.798   3.466 -0.3233  0.2301  0.4056
   13CHTO  H199 5377   6.368   5.736   3.415  2.8839 -1.9508 -0.0806
   13CHTO   O22 5378   6.518   6.246   3.614 -0.1245  0.2631  0.2715
   13CHTO   C31 5379   6.401   6.334   3.608  0.2550 -0.6250 -0.1030
   13CHTO   H59 5380   6.319   6.282   3.661 -0.2063 -0.2035 -0.3948
   13CHTO   C29 5381   6.415   6.469   3.679 -0.6828 -0.3175 -0.6432
   13CHTO   H57 5382   6.489   6.523   3.618  1.3437  0.3710  2.3334
   13CHTO   O21 5383   6.474   6.453   3.807  0.1423 -0.1788  0.2286
   13CHTO   H37 5384   6.497   6.535   3.847 -0.9484 -0.9678  2.5567
   13CHTO   C27 5385   6.277   6.555   3.685 -0.2004  0.2543 -0.5860
   13CHTO   H55 5386   6.210   6.502   3.755 -0.0043  1.9420  0.9149
   13CHTO    N5 5387   6.295   6.689   3.735  0.2432 -0.3064  0.0626
   13CHTO   H43 5388   6.395   6.728   3.724  0.0999  0.2379  0.6825
   13CHTO   H44 5389   6.288   6.690   3.843  0.4265 -0.4609  0.0747
   13CHTO   C25 5390   6.217   6.547   3.539 -0.3429 -0.4743 -0.1879
   13CHTO   H53 5391   6.268   6.621   3.476 -1.9540 -0.3950 -1.4144
   13CHTO   O17 5392   6.214   6.423   3.469 -0.1896  0.1615 -0.7414
   13CHTO   C32 5393   6.344   6.368   3.467 -0.1355  0.4107  0.2200
   13CHTO   H60 5394   6.416   6.431   3.414  0.0074  0.8887  0.9704
   13CHTO   C36 5395   6.353   6.242   3.379  0.4878  0.6691 -0.0695
   13CHTO   O25 5396   6.325   6.266   3.244  0.0574 -0.2249 -0.1587
   13CHTO   H40 5397   6.299   6.186   3.204 -0.3324 -0.5345  0.7040
   13CHTO   O15 5398   6.048   6.613   3.544 -0.0492 -0.1011 -0.4163
   13CHTO   C19 5399   5.931   6.605   3.628 -0.4601  0.5066 -0.0834
   13CHTO   H47 5400   5.963   6.620   3.733 -0.8534 -0.6719  0.2128
   13CHTO   C20 5401   5.831   6.723   3.602 -0.0853 -0.3249 -0.5551
   13CHTO   H48 5402   5.767   6.706   3.514  1.5974 -1.5944 -1.5656
   13CHTO   O19 5403   5.901   6.845   3.577 -0.3105  0.0678  0.1354
   13CHTO   H35 5404   5.945   6.842   3.495  0.5609 -0.0722  0.5982
   13CHTO   C21 5405   5.733   6.731   3.723  0.3824  0.4194  0.0165
   13CHTO   H49 5406   5.792   6.734   3.815  1.5642 -2.7552 -0.5536
   13CHTO    N4 5407   5.642   6.849   3.720  0.2355  0.1516  0.4212
   13CHTO   H41 5408   5.676   6.926   3.787  0.1186  0.0322  0.6189
   13CHTO   H42 5409   5.621   6.895   3.625  1.2335  1.7235  0.9491
   13CHTO   C22 5410   5.661   6.595   3.739 -0.0921 -0.2949 -0.3028
   13CHTO   H50 5411   5.598   6.577   3.652  0.0115 -0.9294 -0.2445
   13CHTO   O14 5412   5.752   6.482   3.737  0.2181  0.4842 -0.3135
   13CHTO   C23 5413   5.844   6.474   3.624 -0.2059 -0.2313 -0.1777
   13CHTO   H51 5414   5.796   6.458   3.527  0.7220  0.7117 -0.8083
   13CHTO   C34 5415   5.942   6.350   3.645 -0.2010 -0.2677 -0.2469
   13CHTO   O23 5416   5.891   6.221   3.648  0.6259 -0.3910  0.1879
   13CHTO   H38 5417   5.918   6.179   3.728 -0.3259  1.3415  1.4594
   13CHTO   O16 5418   5.590   6.578   3.862  0.1693  0.1176 -0.1085
   13CHTO   C24 5419   5.442   6.512   3.843  0.9453  0.2182  0.3028
   13CHTO   H52 5420   5.441   6.434   3.767 -0.7163  0.1001  0.4255
   13CHTO   C26 5421   5.328   6.613   3.801  0.1326 -0.9544  0.4365
   13CHTO   H54 5422   5.351   6.715   3.839  1.6217 -0.5320 -1.5607
   13CHTO   O20 5423   5.324   6.627   3.657  0.3565  0.3978 -0.2518
   13CHTO   H36 5424   5.378   6.698   3.627  0.1656  0.7302  0.1803
   13CHTO   C30 5425   5.184   6.588   3.849  0.1830  0.2416  0.1792
   13CHTO   H58 5426   5.126   6.520   3.785 -2.0752  2.8287 -0.6631
   13CHTO    N6 5427   5.102   6.713   3.855  0.4535 -0.5230 -0.4785
   13CHTO   H45 5428   5.151   6.777   3.927 -0.7808  0.5698 -0.5868
   13CHTO   H46 5429   5.000   6.693   3.885 -0.6653  3.3189 -1.3446
   13CHTO   C33 5430   5.185   6.528   3.989 -0.4050  0.7758  0.1923
   13CHTO   H61 5431   5.234   6.599   4.057 -0.0095 -1.3803  2.2311
   13CHTO   O18 5432   5.266   6.415   3.989 -0.0526  0.2730 -0.5098
   13CHTO   C28 5433   5.404   6.442   3.978 -0.2051  0.0319  0.0518
   13CHTO   H56 5434   5.445   6.496   4.063 -0.4932  1.1199 -0.4852
   13CHTO   C35 5435   5.482   6.312   3.972  0.0557 -0.6955 -0.7109
   13CHTO   O24 5436   5.611   6.333   4.019 -0.6788 -0.3892  0.3857
   13CHTO   H39 5437   5.611   6.307   4.109  0.1285 -1.2683  0.1421
   13CHTO    O9 5438   5.054   6.498   4.045 -0.3050  0.3777 -0.2567
   13CHTO   C13 5439   5.064   6.489   4.218  0.0184 -0.5927 -0.1090
   13CHTO   H26 5440   5.144   6.556   4.255 -1.3109  1.2912 -0.5829
   13CHTO   C11 5441   5.094   6.332   4.258 -0.6151  0.3223 -0.0079
   13CHTO   H24 5442   5.202   6.318   4.244 -1.0809 -1.9627 -1.5583
   13CHTO    O8 5443   5.019   6.247   4.171  0.6155 -0.0671  0.0882
   13CHTO    H3 5444   5.010   6.157   4.196 -0.5762  0.0099 -0.0372
   13CHTO    C9 5445   5.064   6.321   4.415  0.5806  0.1572  0.2683
   13CHTO   H22 5446   5.114   6.406   4.463  1.2832 -0.2161  0.1979
   13CHTO    N2 5447   5.110   6.199   4.479  0.5899  0.3718  0.3435
   13CHTO   H10 5448   5.108   6.110   4.418  0.9535 -1.8252  3.3968
   13CHTO   H11 5449   5.200   6.209   4.539  0.5666  1.1758  0.2443
   13CHTO    C7 5450   4.905   6.333   4.433 -0.1110 -0.3467  1.0486
   13CHTO   H20 5451   4.891   6.390   4.527  1.5274  1.6363  0.1255
   13CHTO    O4 5452   4.848   6.412   4.324  0.6225  0.3265  0.1093
   13CHTO   C14 5453   4.931   6.526   4.288 -0.1963  0.3191 -0.1676
   13CHTO   H27 5454   4.954   6.571   4.387  3.0046 -3.1741  0.8069
   13CHTO   C18 5455   4.845   6.621   4.208 -0.4549 -0.1552  0.0590
   13CHTO   O13 5456   4.733   6.657   4.280 -0.3619  0.6004 -0.7943
   13CHTO    H7 5457   4.705   6.743   4.256 -1.7976 -0.2066 -2.1141
   13CHTO    O2 5458   4.819   6.181   4.460 -0.4593 -0.1275 -0.0227
   13CHTO    C1 5459   4.727   6.179   4.578 -0.1690  0.1945 -0.1518
   13CHTO   H14 5460   4.748   6.267   4.642  0.3414 -0.0856  0.0652
   13CHTO    C2 5461   4.723   6.048   4.667  0.3745 -0.1383  0.7805
   13CHTO   H15 5462   4.699   5.962   4.602  1.3112 -0.1530  0.4378
   13CHTO    O6 5463   4.856   6.029   4.717 -0.0579  0.3293  0.2002
   13CHTO    H1 5464   4.902   5.971   4.659 -0.5073 -0.9538  1.0791
   13CHTO    C3 5465   4.612   6.053   4.787 -0.9689  0.0475  0.0830
   13CHTO   H16 5466   4.623   6.133   4.861  0.2263  0.2260 -0.2759
   13CHTO    N1 5467   4.614   5.923   4.865 -0.3642  0.6901  0.0082
   13CHTO    H8 5468   4.511   5.890   4.874 -0.5755  1.6398  1.2156
   13CHTO    H9 5469   4.638   5.944   4.968 -3.6206 -3.8436  1.8583
   13CHTO    C4 5470   4.465   6.075   4.715 -0.2531 -0.3143 -0.1676
   13CHTO   H17 5471   4.432   5.982   4.668  0.1445 -1.6292  2.1011
   13CHTO    O1 5472   4.466   6.185   4.615 -0.0817  0.3178 -0.3261
   13CHTO    C5 5473   4.578   6.188   4.520  0.1982  0.0218 -0.3295
   13CHTO   H18 5474   4.574   6.104   4.450 -0.1677  0.5085 -0.8904
   13CHTO   C16 5475   4.551   6.322   4.434  0.2463 -0.0406 -0.2974
   13CHTO   O11 5476   4.554   6.441   4.507 -0.0487 -0.8348  0.2441
   13CHTO    H5 5477   4.639   6.444   4.547 -1.0524  0.9770  2.3230
   13CHTO    O3 5478   4.365   6.122   4.810 -0.1590 -0.7789  0.5413
   13CHTO    C6 5479   4.259   6.019   4.824  0.2335 -0.1859  0.6540
   13CHTO   H19 5480   4.290   5.917   4.801 -2.8990 -1.0898  0.1519
   13CHTO    C8 5481   4.217   6.016   4.977  0.5266  0.3692 -0.0181
   13CHTO   H21 5482   4.170   6.111   5.001 -0.5436  0.5144 -2.4727
   13CHTO    O7 5483   4.339   5.995   5.050 -0.1890 -0.6268 -0.1128
   13CHTO    H2 5484   4.376   6.081   5.058  1.5387 -1.2262 -1.4728
   13CHTO   C12 5485   4.109   5.905   4.999  0.5812  0.2628 -0.4366
   13CHTO   H25 5486   4.156   5.810   4.966  0.5668  1.1898 -3.3062
   13CHTO    N3 5487   4.070   5.887   5.140  0.6696  0.1427  0.1094
   13CHTO   H12 5488   4.001   5.808   5.164  1.2107 -0.9293 -1.7682
   13CHTO   H13 5489   4.139   5.927   5.212  2.1346 -0.0842 -1.1201
   13CHTO   C15 5490   3.989   5.928   4.904  0.4021 -0.4037  0.7164
   13CHTO   H28 5491   3.928   6.012   4.938 -1.0445  0.2253 -3.1753
   13CHTO   O10 5492   3.900   5.792   4.885 -0.4094 -0.3430 -0.0428
   13CHTO    H4 5493   3.817   5.796   4.841 -0.4831  0.0661  0.1328
   13CHTO    O5 5494   4.025   5.949   4.761  0.0966  0.0571  0.0274
   13CHTO   C10 5495   4.128   6.053   4.739  0.3012 -0.1302 -0.6930
   13CHTO   H23 5496   4.075   6.143   4.770  1.5097  0.1259  0.6585
   13CHTO   C17 5497   4.160   6.065   4.585 -0.1185 -0.0967 -0.1091
   13CHTO   O12 5498   4.206   5.942   4.515 -0.2248  0.2555  0.1000
   13CHTO    H6 5499   4.238   5.967   4.431 -2.5529  1.5608 -0.4185
   14CHTO  H203 5500   5.799   4.849   3.161  0.6819  0.2136  0.2807
   14CHTO   O82 5501   5.797   4.819   3.072  0.4651  0.0408  0.3437
   14CHTO  C123 5502   5.834   4.678   3.061  0.5375  0.3265 -0.4694
   14CHTO  H227 5503   5.933   4.655   3.103 -0.2912 -0.3102  1.1453
   14CHTO   O77 5504   5.726   4.633   3.149  0.6343 -0.1431 -0.0112
   14CHTO  C118 5505   5.758   4.500   3.186 -0.0025  0.5177  0.0008
   14CHTO  H222 5506   5.858   4.508   3.231 -0.4487  1.7056  0.8205
   14CHTO  C125 5507   5.661   4.451   3.293  0.1432  0.2036  0.3016
   14CHTO   O84 5508   5.519   4.474   3.279  0.4217 -0.6315 -0.0376
   14CHTO  H205 5509   5.495   4.537   3.213  1.7799  0.3663  0.4044
   14CHTO  C114 5510   5.756   4.406   3.064 -0.4555  0.2128 -0.6834
   14CHTO  H218 5511   5.654   4.374   3.043 -0.7229  0.9493 -0.5256
   14CHTO  C116 5512   5.827   4.458   2.932 -0.1525  0.5577  0.5280
   14CHTO  H220 5513   5.936   4.435   2.923  0.1286  1.9861  0.1306
   14CHTO   O79 5514   5.792   4.395   2.809  0.3296  0.3632 -0.5684
   14CHTO  H201 5515   5.793   4.303   2.829  0.4978  0.1383 -1.5511
   14CHTO  C120 5516   5.808   4.614   2.916  0.6024 -0.0118  0.2722
   14CHTO  H224 5517   5.711   4.636   2.866  1.9039  2.2879 -1.3426
   14CHTO   N21 5518   5.910   4.671   2.825  0.4591 -0.4876 -0.2902
   14CHTO  H211 5519   5.882   4.666   2.720 -2.6751  2.2926  0.3478
   14CHTO  H212 5520   6.007   4.633   2.854  0.9411  0.1053 -1.1183
   14CHTO   O75 5521   5.823   4.294   3.115  0.1296  0.1615 -0.8322
   14CHTO  C112 5522   5.781   4.134   3.078 -0.6084  0.4846 -0.0572
   14CHTO  H216 5523   5.871   4.076   3.102 -1.4738 -0.4104  1.1172
   14CHTO   O73 5524   5.749   4.138   2.934 -0.9129  0.0768  0.1583
   14CHTO  C113 5525   5.706   4.015   2.886  0.3456 -0.4440  0.2780
   14CHTO  H217 5526   5.778   3.934   2.908  1.1555 -0.0222 -0.7877
   14CHTO  C124 5527   5.702   4.026   2.729  0.9244  0.5946  0.1214
   14CHTO   O83 5528   5.697   3.891   2.675  0.1526  1.0030 -0.7926
   14CHTO  H204 5529   5.692   3.900   2.582  2.1410  0.7993 -0.9281
   14CHTO  C109 5530   5.564   3.981   2.935 -0.1829 -0.1882 -0.2555
   14CHTO  H213 5531   5.503   4.068   2.909  1.4432  1.2007  0.4749
   14CHTO  C110 5532   5.586   3.966   3.089  0.0616  0.2303 -0.3560
   14CHTO  H214 5533   5.644   3.876   3.112 -0.2571  0.5368  1.7160
   14CHTO   O78 5534   5.457   3.945   3.150 -0.4209  0.4306  0.2681
   14CHTO  H200 5535   5.428   3.862   3.117  0.9873  0.4024 -0.9411
   14CHTO  C111 5536   5.659   4.093   3.158  0.6256 -0.0579 -0.2303
   14CHTO  H215 5537   5.593   4.181   3.161  0.2988 -0.2770 -0.8707
   14CHTO   N19 5538   5.697   4.066   3.297 -0.0469  0.1747  0.2263
   14CHTO  H207 5539   5.749   4.147   3.345 -0.0001 -0.1425  0.7194
   14CHTO  H208 5540   5.774   3.992   3.285  0.8578  1.1215  0.1558
   14CHTO   O74 5541   5.504   3.866   2.871  0.6755 -0.0705 -0.2239
   14CHTO  C115 5542   5.378   3.893   2.776  0.0085  0.6871 -0.1605
   14CHTO  H219 5543   5.358   3.999   2.761  0.4812  0.7606 -0.2839
   14CHTO   O76 5544   5.400   3.821   2.612 -0.2951  0.1345 -0.7360
   14CHTO  C122 5545   5.350   3.686   2.614  0.0663 -0.1558 -0.4335
   14CHTO  H226 5546   5.390   3.640   2.704  0.4628  0.8813 -0.0745
   14CHTO  C126 5547   5.402   3.593   2.498  0.3499  0.1935  0.5201
   14CHTO   O85 5548   5.546   3.581   2.520  0.5568  0.0015 -0.0072
   14CHTO  H206 5549   5.569   3.491   2.511  1.7533  0.1640  1.2065
   14CHTO  C121 5550   5.190   3.685   2.638  0.1112 -0.0881  0.2583
   14CHTO  H225 5551   5.134   3.694   2.543  0.5579  1.3588  0.1282
   14CHTO   O81 5552   5.157   3.557   2.692  0.2298  0.3865 -0.2972
   14CHTO  H202 5553   5.065   3.544   2.702  0.2423 -0.7440 -1.6325
   14CHTO  C119 5554   5.142   3.791   2.730 -0.5347  0.0933  0.1043
   14CHTO  H223 5555   5.147   3.873   2.659  0.0310 -0.0307 -0.0011
   14CHTO  C117 5556   5.250   3.823   2.841  0.3943 -0.6220  0.4372
   14CHTO  H221 5557   5.288   3.735   2.892  0.8776 -0.5126  0.2711
   14CHTO   N20 5558   5.194   3.911   2.942  0.2079  0.3356  0.2459
   14CHTO  H209 5559   5.163   4.003   2.894  0.8131 -0.1472 -1.0830
   14CHTO  H210 5560   5.272   3.935   3.013  0.6068  1.2737 -0.4876
   14CHTO   O80 5561   4.979   3.790   2.768 -0.3821 -0.2252  0.3660
   14CHTO  C103 5562   4.876   3.905   2.705  0.2693 -0.6924  0.1771
   14CHTO  H190 5563   4.932   3.998   2.693 -1.1820  0.4165  1.8217
   14CHTO  C101 5564   4.804   3.872   2.568 -0.7667  0.3458 -0.1082
   14CHTO  H188 5565   4.743   3.783   2.582  0.1021 -0.3243 -0.5322
   14CHTO   O68 5566   4.919   3.846   2.452 -0.0463 -0.2936 -0.2176
   14CHTO  H168 5567   4.923   3.933   2.418 -3.7841 -0.3609 -1.0074
   14CHTO   C99 5568   4.705   3.985   2.528  0.1175 -0.5143 -0.2286
   14CHTO  H186 5569   4.764   4.074   2.496 -0.9653 -0.3387 -1.7962
   14CHTO   N17 5570   4.626   3.946   2.399 -0.2120  0.8215 -0.2950
   14CHTO  H174 5571   4.611   4.039   2.346  1.2685  0.4233 -1.4383
   14CHTO  H175 5572   4.686   3.888   2.331 -1.1561 -0.6195  0.0853
   14CHTO   C97 5573   4.617   4.038   2.645  0.0837 -0.5640 -0.1865
   14CHTO  H184 5574   4.548   3.953   2.656 -1.6896  1.0090  1.2385
   14CHTO   O64 5575   4.700   4.059   2.764 -0.2790  0.2312 -0.5104
   14CHTO  C104 5576   4.761   3.942   2.816 -0.2370 -0.2370 -0.1825
   14CHTO  H191 5577   4.686   3.863   2.819  0.4420 -0.8680  0.8264
   14CHTO  C108 5578   4.802   3.968   2.963 -0.8124  0.5140 -0.5422
   14CHTO   O71 5579   4.854   3.850   3.018 -0.3327 -0.6131 -0.0236
   14CHTO  H171 5580   4.789   3.783   3.008  1.2795 -1.6663 -4.2885
   14CHTO   O62 5581   4.541   4.157   2.608 -0.1945  0.7163  0.0225
   14CHTO   C91 5582   4.447   4.215   2.696 -0.1102 -0.2608 -0.1652
   14CHTO  H178 5583   4.417   4.144   2.773  1.0171 -1.3131 -0.6807
   14CHTO   C92 5584   4.325   4.247   2.615 -0.2312 -0.0216  0.0669
   14CHTO  H179 5585   4.298   4.157   2.556 -0.4836 -1.7760  2.7827
   14CHTO   O66 5586   4.207   4.264   2.702 -0.2700 -0.3663 -0.4973
   14CHTO  H166 5587   4.134   4.225   2.658 -0.8620  0.7778 -0.5658
   14CHTO   C93 5588   4.343   4.370   2.519 -0.0815  0.0461  0.1867
   14CHTO  H180 5589   4.246   4.423   2.519  0.9930  2.1584  3.1640
   14CHTO   N16 5590   4.382   4.344   2.377  0.2990  0.2001  0.1329
   14CHTO  H172 5591   4.324   4.413   2.319  0.9231  0.4391 -0.2164
   14CHTO  H173 5592   4.349   4.248   2.340 -0.5413  0.9535 -1.0945
   14CHTO   C94 5593   4.448   4.473   2.574 -0.0438  0.7656 -0.7687
   14CHTO  H181 5594   4.549   4.453   2.538 -1.1825 -2.2484 -2.4529
   14CHTO   O61 5595   4.447   4.462   2.723  0.1684 -0.0097 -0.2324
   14CHTO   C95 5596   4.498   4.342   2.772  0.2073 -0.1332  0.3916
   14CHTO  H182 5597   4.607   4.341   2.767  0.3031 -1.3941  2.1600
   14CHTO  C106 5598   4.466   4.346   2.925  0.1609 -0.1465 -0.3108
   14CHTO   O69 5599   4.521   4.236   2.993  0.1259 -0.5936  0.5544
   14CHTO  H169 5600   4.522   4.155   2.946  1.4674 -0.2104 -0.0964
   14CHTO   O63 5601   4.406   4.640   2.533 -0.2325 -0.2103  0.4386
   14CHTO   C96 5602   4.534   4.714   2.509  0.3725 -0.3655  0.4289
   14CHTO  H183 5603   4.508   4.814   2.473  1.0436  0.0371  1.0412
   14CHTO   C98 5604   4.636   4.668   2.398  0.1766 -0.0222 -0.3581
   14CHTO  H185 5605   4.672   4.565   2.414  1.4793  0.3961 -0.5161
   14CHTO   O67 5606   4.561   4.668   2.277 -0.1443 -0.1756  0.2770
   14CHTO  H167 5607   4.607   4.611   2.218 -1.8510 -0.4888 -0.8015
   14CHTO  C102 5608   4.767   4.770   2.391  1.1377 -0.2400  0.0225
   14CHTO  H189 5609   4.730   4.861   2.341 -0.4002 -1.2386 -0.6970
   14CHTO   N18 5610   4.870   4.708   2.304 -0.5734  0.5229 -0.0084
   14CHTO  H176 5611   4.897   4.761   2.215  2.4500 -1.0094 -0.0664
   14CHTO  H177 5612   4.833   4.609   2.284  1.4126 -0.3223  0.3894
   14CHTO  C105 5613   4.816   4.790   2.538  0.5168  0.6728 -0.4879
   14CHTO  H192 5614   4.863   4.697   2.571  1.7822  2.0573  1.7927
   14CHTO   O65 5615   4.719   4.825   2.635 -0.2961  0.1645  0.2886
   14CHTO  C100 5616   4.600   4.742   2.648 -0.9987 -1.1839  0.1996
   14CHTO  H187 5617   4.634   4.648   2.694 -2.1982 -0.9994  1.4988
   14CHTO  C107 5618   4.519   4.806   2.766  0.0337  0.0778  0.2339
   14CHTO   O70 5619   4.411   4.889   2.723 -0.2878  0.1049  0.1557
   14CHTO  H170 5620   4.451   4.972   2.705  0.8128 -0.3234  0.5808
   14CHTO   O57 5621   4.926   4.913   2.530  0.2628  0.3066  0.0222
   14CHTO   C85 5622   5.002   4.934   2.649  0.7533  0.3155 -0.2190
   14CHTO  H157 5623   5.006   4.837   2.703  1.3574 -0.5678 -1.8434
   14CHTO   C83 5624   4.927   5.031   2.754  0.6080  0.0592  0.4298
   14CHTO  H155 5625   4.848   4.967   2.794  0.1284 -0.3743 -1.1899
   14CHTO   O56 5626   4.865   5.135   2.676 -0.2164 -0.2762 -0.2362
   14CHTO  H135 5627   4.854   5.113   2.586  1.1744  1.7992 -0.9602
   14CHTO   C81 5628   5.021   5.071   2.868  0.3469 -0.3323 -0.8454
   14CHTO  H153 5629   5.056   4.979   2.915  0.9152 -0.2663 -1.1458
   14CHTO   N14 5630   4.964   5.158   2.974 -0.5641  0.1542 -0.3454
   14CHTO  H141 5631   4.951   5.256   2.931 -3.8391 -1.5064 -3.4059
   14CHTO  H142 5632   5.031   5.160   3.057  0.1727  2.2714 -0.9445
   14CHTO   C79 5633   5.146   5.151   2.811  0.5238 -0.1605 -1.0182
   14CHTO  H151 5634   5.216   5.169   2.893  0.1956  2.1304 -1.2089
   14CHTO   O52 5635   5.219   5.049   2.730  0.2242  0.1232 -0.1243
   14CHTO   C86 5636   5.147   4.989   2.615 -0.3575 -0.3226  0.2728
   14CHTO  H158 5637   5.148   5.070   2.539 -2.4310 -1.8400 -1.4216
   14CHTO   C90 5638   5.240   4.877   2.559  0.2903 -0.2823 -0.0825
   14CHTO   O60 5639   5.275   4.778   2.654  0.3378 -0.3080 -0.3952
   14CHTO  H138 5640   5.339   4.811   2.715 -0.2728  1.0975 -0.4991
   14CHTO   O50 5641   5.116   5.267   2.736  0.4338 -0.5546 -0.1977
   14CHTO   C73 5642   5.119   5.411   2.704 -0.2411 -0.3977  0.3121
   14CHTO  H145 5643   5.086   5.471   2.790 -1.2081 -0.8496  0.2636
   14CHTO   C74 5644   5.022   5.450   2.587  0.1972 -0.8957  0.0349
   14CHTO  H146 5645   4.918   5.422   2.610 -0.2201 -0.3993 -1.2384
   14CHTO   O54 5646   5.027   5.594   2.579 -0.0140  0.1066  0.2219
   14CHTO  H133 5647   4.938   5.619   2.566 -0.0206 -0.6477 -1.3640
   14CHTO   C75 5648   5.072   5.380   2.454  0.3032 -1.0170 -0.2317
   14CHTO  H147 5649   5.066   5.271   2.463 -0.5084 -0.8822  0.9562
   14CHTO   N13 5650   5.004   5.420   2.325  0.2621  0.0269 -0.0968
   14CHTO  H139 5651   4.898   5.438   2.337  0.2968  0.1808 -0.0098
   14CHTO  H140 5652   5.005   5.329   2.267  0.7333 -0.3760  0.5296
   14CHTO   C76 5653   5.229   5.413   2.432  0.2805 -0.4146 -0.7865
   14CHTO  H148 5654   5.227   5.518   2.403 -0.6944 -0.4836 -1.0039
   14CHTO   O49 5655   5.308   5.373   2.550 -0.8120 -0.1997 -0.2694
   14CHTO   C77 5656   5.264   5.454   2.667  0.5321 -0.1363  0.7472
   14CHTO  H149 5657   5.265   5.562   2.657 -2.5079 -0.1335 -0.1295
   14CHTO   C88 5658   5.359   5.441   2.780 -0.0271 -0.1327 -0.6289
   14CHTO   O58 5659   5.478   5.519   2.746  0.2726 -0.3770  0.2599
   14CHTO  H136 5660   5.549   5.512   2.807  0.6412 -0.0814 -0.1276
   14CHTO   O51 5661   5.287   5.318   2.307  0.1910  0.3836  0.2044
   14CHTO   C78 5662   5.422   5.383   2.257  0.1002  0.3921  0.2448
   14CHTO  H150 5663   5.464   5.470   2.312  0.4638 -0.6825  1.6994
   14CHTO   C80 5664   5.395   5.429   2.114  0.0769  0.3033  0.4864
   14CHTO  H152 5665   5.369   5.339   2.054  1.3189 -0.7667  1.5305
   14CHTO   O55 5666   5.289   5.524   2.116  0.6690  0.3501 -0.1282
   14CHTO  H134 5667   5.211   5.472   2.118  0.6761  0.3787  0.7970
   14CHTO   C84 5668   5.525   5.491   2.052 -0.1618 -0.4756  0.2828
   14CHTO  H156 5669   5.573   5.554   2.128 -1.1308  0.3613  0.2228
   14CHTO   N15 5670   5.507   5.561   1.924  0.2735 -0.2033  0.6885
   14CHTO  H143 5671   5.566   5.516   1.846 -1.0544  2.3739 -1.8831
   14CHTO  H144 5672   5.531   5.665   1.926 -1.4181  0.1814  1.6476
   14CHTO   C87 5673   5.632   5.382   2.054  0.1893 -0.2540  0.8793
   14CHTO  H159 5674   5.599   5.306   1.983  0.8547 -0.2011  0.5132
   14CHTO   O53 5675   5.651   5.337   2.197 -0.5504  0.0712 -0.6224
   14CHTO   C82 5676   5.531   5.275   2.249 -0.1203  0.0928 -0.3736
   14CHTO  H154 5677   5.502   5.198   2.177  0.9641 -0.4766 -0.2095
   14CHTO   C89 5678   5.564   5.210   2.377  0.1940 -0.1304 -0.2249
   14CHTO   O59 5679   5.459   5.118   2.425  0.3334 -0.5001  0.2706
   14CHTO  H137 5680   5.493   5.030   2.427  1.6791 -0.0120 -0.7533
   14CHTO   O45 5681   5.795   5.455   2.024 -0.3408  0.2549 -0.6157
   14CHTO   C67 5682   5.869   5.353   1.953 -0.2594 -0.2699  0.5665
   14CHTO  H124 5683   5.867   5.255   2.000 -1.7517 -0.8567 -0.6834
   14CHTO   C65 5684   5.811   5.341   1.802  0.5426  0.1721 -0.0818
   14CHTO  H122 5685   5.703   5.356   1.803  0.1723 -2.4059  0.1514
   14CHTO   O44 5686   5.837   5.209   1.752  0.1232  0.8547 -0.1560
   14CHTO  H102 5687   5.832   5.144   1.819 -0.9228  0.6943 -0.3869
   14CHTO   C63 5688   5.877   5.452   1.714 -0.6572  0.5045 -0.5822
   14CHTO  H120 5689   5.867   5.551   1.758  0.9148  1.0250 -1.3815
   14CHTO   N11 5690   5.804   5.456   1.578  0.0335  0.1448 -0.0584
   14CHTO  H108 5691   5.802   5.355   1.543 -1.6093 -0.7030  2.3412
   14CHTO  H109 5692   5.838   5.517   1.497  0.5589 -1.8233 -1.3496
   14CHTO   C61 5693   6.029   5.433   1.710  0.5354 -0.1438  1.0387
   14CHTO  H118 5694   6.062   5.515   1.645 -0.6925 -1.0415 -0.7505
   14CHTO   O40 5695   6.083   5.468   1.844 -0.3556  0.1153 -0.1603
   14CHTO   C68 5696   6.027   5.395   1.957 -0.2100  0.6271 -0.2512
   14CHTO  H125 5697   6.042   5.456   2.049  0.2029  0.7024 -0.3691
   14CHTO   C72 5698   6.119   5.265   1.981  0.0443 -0.0050  0.3514
   14CHTO   O48 5699   6.087   5.205   2.109 -0.1245 -0.0157  0.2312
   14CHTO  H105 5700   5.995   5.187   2.107 -0.1051 -0.1632  0.8154
   14CHTO   O38 5701   6.070   5.308   1.657  0.1724 -0.6366  0.3977
   14CHTO   C55 5702   6.165   5.312   1.548  0.4068  0.2188 -0.2533
   14CHTO  H112 5703   6.180   5.416   1.515 -3.3934  0.5920 -1.0003
   14CHTO   C56 5704   6.109   5.221   1.431 -0.1041 -0.1729  0.2460
   14CHTO  H113 5705   6.074   5.132   1.486  1.1214 -2.0684 -1.9610
   14CHTO   O42 5706   5.987   5.275   1.376  0.1470  0.5687 -0.7606
   14CHTO  H100 5707   5.990   5.361   1.340 -1.4452  0.2265 -1.7760
   14CHTO   C57 5708   6.221   5.182   1.319  0.4090  0.3121 -0.7169
   14CHTO  H114 5709   6.222   5.271   1.256 -1.2948  1.5853  1.0033
   14CHTO   N10 5710   6.183   5.064   1.236 -0.2163 -0.8276  0.0403
   14CHTO  H106 5711   6.133   5.095   1.145  1.2021  5.7727  1.2305
   14CHTO  H107 5712   6.114   5.007   1.297 -0.4749  0.2998  0.8207
   14CHTO   C58 5713   6.362   5.159   1.378 -0.1001  0.3386 -0.2920
   14CHTO  H115 5714   6.362   5.067   1.440  0.7465  0.7704  0.3584
   14CHTO   O37 5715   6.396   5.264   1.472  0.1958 -0.2949 -0.0165
   14CHTO   C59 5716   6.309   5.268   1.588 -0.0208  0.3450  0.5395
   14CHTO  H116 5717   6.304   5.167   1.630  0.1831  0.5270  0.9977
   14CHTO   C70 5718   6.376   5.372   1.681 -0.2017 -0.1708 -0.2570
   14CHTO   O46 5719   6.493   5.309   1.748  0.4108 -0.0397 -0.4247
   14CHTO  H103 5720   6.560   5.368   1.776  0.9169 -0.3131 -1.0587
   14CHTO   O39 5721   6.463   5.150   1.277  0.5826 -0.6881 -0.0854
   14CHTO   C60 5722   6.584   5.073   1.295 -0.1544 -0.1643  0.0613
   14CHTO  H117 5723   6.660   5.149   1.313 -0.3991  0.9443 -3.3069
   14CHTO   C62 5724   6.588   4.961   1.397 -0.3642 -0.1939 -0.2463
   14CHTO  H119 5725   6.578   5.010   1.497  0.0312  0.6236 -0.6006
   14CHTO   O43 5726   6.483   4.860   1.383  0.0191 -0.3180  0.0200
   14CHTO  H101 5727   6.402   4.872   1.428 -0.0379 -0.8372  0.0588
   14CHTO   C66 5728   6.739   4.886   1.404 -0.3969 -0.8086  0.0878
   14CHTO  H123 5729   6.812   4.962   1.430 -0.6078 -1.4820  2.7733
   14CHTO   N12 5730   6.761   4.795   1.517  0.4186  0.2798 -0.0480
   14CHTO  H110 5731   6.843   4.725   1.509 -0.1447 -0.3077 -0.7224
   14CHTO  H111 5732   6.670   4.780   1.574 -0.8438  0.7163 -1.8862
   14CHTO   C69 5733   6.761   4.816   1.265 -0.0323  0.1020  0.8410
   14CHTO  H126 5734   6.682   4.739   1.256  1.4396 -1.3177 -0.1953
   14CHTO   O41 5735   6.751   4.930   1.160  0.0491 -0.2432 -0.3139
   14CHTO   C64 5736   6.617   5.007   1.155  0.6498  0.4636  0.2194
   14CHTO  H121 5737   6.540   4.929   1.133 -0.7094  1.4498  1.4519
   14CHTO   C71 5738   6.626   5.106   1.039 -0.1767  0.4347 -0.6066
   14CHTO   O47 5739   6.645   5.025   0.922  0.1964 -0.4927  0.2989
   14CHTO  H104 5740   6.705   5.068   0.864  0.6094 -0.7587  0.5315
   14CHTO   O34 5741   6.891   4.761   1.254  0.3101 -0.4718  0.2882
   14CHTO   C49 5742   7.026   4.744   1.208 -0.1209  1.0519  0.1284
   14CHTO   H91 5743   7.039   4.645   1.163  0.8536  1.3366 -0.2243
   14CHTO   C47 5744   7.119   4.753   1.330 -0.2350  0.5474  0.4790
   14CHTO   H89 5745   7.221   4.727   1.295  0.4363  0.5578  2.3815
   14CHTO   O33 5746   7.081   4.650   1.419 -0.1844 -0.0464 -0.2138
   14CHTO   H70 5747   7.140   4.656   1.492 -0.2069 -0.3936 -0.1657
   14CHTO   C45 5748   7.113   4.900   1.402  0.5869 -0.1748 -0.3882
   14CHTO   H87 5749   7.039   4.886   1.482 -0.4752  0.4598 -1.2505
   14CHTO    N8 5750   7.248   4.923   1.466 -0.4953 -0.0156 -0.6193
   14CHTO   H75 5751   7.245   5.023   1.508 -0.9415 -0.6426  0.8480
   14CHTO   H76 5752   7.320   4.910   1.386  0.2607  0.5482 -0.0408
   14CHTO   C43 5753   7.060   5.011   1.296  0.5963 -0.1791  0.4281
   14CHTO   H85 5754   6.951   5.002   1.296  0.4241  1.4348 -1.4930
   14CHTO   O29 5755   7.112   4.981   1.164  0.1881  0.6617  0.2452
   14CHTO   C50 5756   7.072   4.852   1.110 -0.4558 -0.6779 -0.5171
   14CHTO   H92 5757   6.990   4.865   1.038 -1.3486  4.0189  1.1325
   14CHTO   C54 5758   7.184   4.798   1.016  0.2603  0.4813 -0.3408
   14CHTO   O36 5759   7.197   4.864   0.887  0.3357 -0.3023 -0.2554
   14CHTO   H72 5760   7.278   4.910   0.878  1.7865 -3.1476 -2.7374
   14CHTO   O27 5761   7.100   5.147   1.337  0.3415 -0.7261 -0.4879
   14CHTO   C37 5762   7.039   5.276   1.329  0.4574  0.4058 -0.2046
   14CHTO   H79 5763   7.114   5.356   1.340  3.3532 -1.7119 -3.3986
   14CHTO   C38 5764   6.964   5.300   1.192 -0.1244  0.2701  0.0899
   14CHTO   H80 5765   6.890   5.221   1.175 -0.5553  0.2780  1.9027
   14CHTO   O31 5766   7.065   5.286   1.087 -0.3137 -0.0671 -0.8522
   14CHTO   H68 5767   7.071   5.198   1.056 -1.7344 -0.7178  0.6891
   14CHTO   C39 5768   6.890   5.437   1.180 -0.3898 -0.1405 -0.3414
   14CHTO   H81 5769   6.965   5.515   1.171 -0.6696  0.1084 -0.5235
   14CHTO    N7 5770   6.804   5.449   1.062 -0.3893  0.1042 -0.2893
   14CHTO   H73 5771   6.713   5.505   1.082 -0.0581  0.3322  0.6128
   14CHTO   H74 5772   6.852   5.468   0.968 -0.8455 -0.2774 -0.6006
   14CHTO   C40 5773   6.803   5.460   1.310 -0.1031  0.0295  0.2086
   14CHTO   H82 5774   6.709   5.405   1.304  1.0732 -1.9594 -0.2162
   14CHTO   O26 5775   6.879   5.427   1.430 -0.1473  0.8251 -0.6756
   14CHTO   C41 5776   6.938   5.290   1.441 -0.2626  0.1100 -0.2079
   14CHTO   H83 5777   6.855   5.219   1.431 -0.1151 -0.0336 -0.4027
   14CHTO   C52 5778   6.999   5.278   1.584  0.7423 -0.2734  0.2860
   14CHTO   O35 5779   6.899   5.331   1.697 -0.2277 -0.2805 -0.0922
   14CHTO   H71 5780   6.957   5.370   1.759  1.3351 -1.3939 -0.8326
   14CHTO   O28 5781   6.777   5.601   1.335  0.5760 -0.0695  0.1070
   14CHTO   C42 5782   6.713   5.661   1.449  0.7184 -0.6594  1.5512
   14CHTO   H84 5783   6.711   5.767   1.422  3.1342 -0.9039  0.2007
   14CHTO   C44 5784   6.792   5.658   1.590  0.1859  0.0056 -0.0414
   14CHTO   H86 5785   6.789   5.559   1.636  0.5475 -0.0999 -0.2441
   14CHTO   O32 5786   6.926   5.696   1.561  0.2115 -0.4949  0.3298
   14CHTO   H69 5787   6.933   5.786   1.535 -0.7259  0.0169  1.8296
   14CHTO   C48 5788   6.728   5.753   1.694 -0.6775  0.0160 -0.4555
   14CHTO   H90 5789   6.733   5.855   1.656  0.5417 -0.0897 -0.5846
   14CHTO    N9 5790   6.790   5.756   1.829 -0.2318  0.0446 -0.0092
   14CHTO   H77 5791   6.735   5.828   1.889 -1.7223 -0.1285 -1.1308
   14CHTO   H78 5792   6.889   5.793   1.808 -0.8324  1.0402 -1.1399
   14CHTO   C51 5793   6.571   5.713   1.703  0.3812 -0.0285 -0.4228
   14CHTO   H93 5794   6.562   5.618   1.755  0.2286 -1.2613 -2.6527
   14CHTO   O30 5795   6.514   5.706   1.567  0.0740  0.1132  0.0980
   14CHTO   C46 5796   6.567   5.617   1.466 -0.0987  0.2708  0.0335
   14CHTO   H88 5797   6.568   5.516   1.508  2.4791 -0.4950 -1.7063
   14CHTO   C53 5798   6.483   5.619   1.333 -0.1622  0.8239 -0.3908
   14CHTO   O72 5799   6.367   5.537   1.353 -0.1772 -0.3217  0.2473
   14CHTO  H199 5800   6.374   5.444   1.342  0.4416 -0.5984  2.5590
   14CHTO   O22 5801   6.490   5.816   1.765 -0.0988 -0.0182 -0.0403
   14CHTO   C31 5802   6.386   5.790   1.869  0.4529 -0.4709  0.3918
   14CHTO   H59 5803   6.374   5.679   1.871 -1.5236 -0.3114 -1.0473
   14CHTO   C29 5804   6.432   5.845   2.010  0.2298  0.4786  0.1658
   14CHTO   H57 5805   6.476   5.944   1.992  1.6357 -0.4334 -1.7278
   14CHTO   O21 5806   6.542   5.768   2.059 -0.6425  0.1690  0.5604
   14CHTO   H37 5807   6.617   5.771   2.003  0.2289  1.4585  1.7420
   14CHTO   C27 5808   6.314   5.856   2.107 -0.0704 -0.5566 -0.4448
   14CHTO   H55 5809   6.289   5.753   2.136 -0.3190 -0.3190  0.1947
   14CHTO    N5 5810   6.343   5.924   2.238  0.7734  0.3177  0.0395
   14CHTO   H43 5811   6.445   5.914   2.272  1.5943  3.4403 -1.2993
   14CHTO   H44 5812   6.259   5.916   2.306  0.8059 -1.8813 -0.1376
   14CHTO   C25 5813   6.191   5.920   2.037 -0.8658  1.1548 -0.2970
   14CHTO   H53 5814   6.226   6.012   1.987 -0.3205  0.4160 -1.2985
   14CHTO   O17 5815   6.156   5.834   1.924 -0.4832  0.2770 -0.2009
   14CHTO   C32 5816   6.251   5.848   1.821 -0.6395  0.3264  1.0070
   14CHTO   H60 5817   6.258   5.951   1.787  2.8918 -0.4751 -0.9026
   14CHTO   C36 5818   6.201   5.768   1.693  0.0875 -0.0625  0.1137
   14CHTO   O25 5819   6.067   5.806   1.653 -0.0716 -0.0811  0.1037
   14CHTO   H40 5820   6.069   5.885   1.603  0.0576 -0.2586 -0.1711
   14CHTO   O15 5821   6.049   5.952   2.133 -0.8456  0.3842 -0.5087
   14CHTO   C19 5822   5.929   5.878   2.154  0.2645  0.3138  0.1109
   14CHTO   H47 5823   5.914   5.853   2.048 -1.2702  0.1461  0.3541
   14CHTO   C20 5824   5.950   5.752   2.249  0.4139  0.0264 -0.2127
   14CHTO   H48 5825   6.008   5.778   2.339  0.9037  1.7435 -1.0025
   14CHTO   O19 5826   6.037   5.658   2.180 -0.3693  0.2499  0.0793
   14CHTO   H35 5827   6.115   5.701   2.151  0.3478 -0.4453  0.9536
   14CHTO   C21 5828   5.803   5.683   2.268  0.1516 -0.8298  0.1132
   14CHTO   H49 5829   5.764   5.644   2.174 -1.0946 -0.9645  0.6803
   14CHTO    N4 5830   5.804   5.565   2.364  0.5976 -0.4019  0.0444
   14CHTO   H41 5831   5.808   5.475   2.304 -0.4234  0.1152 -0.8184
   14CHTO   H42 5832   5.881   5.557   2.439  0.3940  1.2170  0.4408
   14CHTO   C22 5833   5.707   5.788   2.320  0.0117 -0.4608 -0.1110
   14CHTO   H50 5834   5.754   5.832   2.407 -1.1375 -0.9748  0.7844
   14CHTO   O14 5835   5.690   5.894   2.225  0.3690  0.3218  0.1031
   14CHTO   C23 5836   5.812   5.973   2.198 -0.3731 -0.2118  0.1138
   14CHTO   H51 5837   5.841   6.035   2.283 -1.0970 -0.0312  0.2371
   14CHTO   C34 5838   5.783   6.074   2.085 -0.1544  0.3532  0.0845
   14CHTO   O23 5839   5.693   6.175   2.114  0.3699  0.0960 -0.1933
   14CHTO   H38 5840   5.676   6.222   2.035 -0.8137 -1.8264 -1.1184
   14CHTO   O16 5841   5.571   5.751   2.343 -0.0487 -0.9354  0.2524
   14CHTO   C24 5842   5.481   5.865   2.431  0.6056  0.8054  0.7122
   14CHTO   H52 5843   5.493   5.965   2.389  2.0709 -0.2481 -1.4732
   14CHTO   C26 5844   5.512   5.854   2.583 -0.4449  0.1946 -0.0991
   14CHTO   H54 5845   5.477   5.757   2.624  0.8087  1.0279  3.0602
   14CHTO   O20 5846   5.650   5.874   2.606 -0.7056 -0.5056 -0.2812
   14CHTO   H36 5847   5.679   5.960   2.586 -0.9459 -0.2347  0.5127
   14CHTO   C30 5848   5.428   5.951   2.672 -0.1239  0.0331  0.3037
   14CHTO   H58 5849   5.445   6.058   2.654  0.9980 -0.6550 -3.0333
   14CHTO    N6 5850   5.454   5.939   2.820  0.2144 -0.4104  0.8144
   14CHTO   H45 5851   5.408   6.025   2.867 -0.8348  0.0483 -0.9529
   14CHTO   H46 5852   5.559   5.940   2.845 -0.0308  0.4492  1.8340
   14CHTO   C33 5853   5.278   5.916   2.641 -0.1771 -0.0618  0.2694
   14CHTO   H61 5854   5.242   5.819   2.680  2.4999 -0.3403  2.1918
   14CHTO   O18 5855   5.257   5.915   2.494 -0.6371  0.0038  0.4825
   14CHTO   C28 5856   5.336   5.831   2.410 -0.1422  0.0147 -0.5529
   14CHTO   H56 5857   5.315   5.727   2.433 -0.6525 -0.0960 -1.4658
   14CHTO   C35 5858   5.282   5.853   2.263  0.0651  0.2424  0.0327
   14CHTO   O24 5859   5.153   5.793   2.238  0.3384 -0.0071  0.0076
   14CHTO   H39 5860   5.101   5.826   2.309  1.3368  1.4209  0.0802
   14CHTO    O9 5861   5.198   6.014   2.699 -0.1314  0.0629  0.7437
   14CHTO   C13 5862   5.052   5.958   2.780 -0.2051  0.3612  0.4304
   14CHTO   H26 5863   5.034   5.855   2.745 -0.5113 -0.3188  2.4966
   14CHTO   C11 5864   4.933   6.052   2.744 -0.1744 -0.0577 -0.1427
   14CHTO   H24 5865   4.918   6.066   2.636 -2.5834 -0.8752  0.0536
   14CHTO    O8 5866   4.944   6.186   2.796  0.2999  0.6529 -0.3224
   14CHTO    H3 5867   4.910   6.192   2.883  0.1178  0.0303 -0.3482
   14CHTO    C9 5868   4.810   5.973   2.798 -0.1271 -0.1989 -0.2912
   14CHTO   H22 5869   4.819   5.869   2.765 -1.5544 -0.6039  0.5471
   14CHTO    N2 5870   4.674   6.017   2.762 -0.2800  0.5515  0.0306
   14CHTO   H10 5871   4.632   6.095   2.823  0.7538  1.0512  0.1142
   14CHTO   H11 5872   4.659   6.028   2.655  2.7385 -2.1600 -0.7629
   14CHTO    C7 5873   4.826   5.961   2.955 -0.3228 -0.0454  0.1412
   14CHTO   H20 5874   4.755   5.885   2.993  0.3473 -0.8320 -0.1589
   14CHTO    O4 5875   4.948   5.903   2.999 -0.1696 -0.0789 -0.2694
   14CHTO   C14 5876   5.072   5.946   2.938  0.0109  0.3173 -0.5166
   14CHTO   H27 5877   5.143   5.865   2.966 -2.2528 -1.4420  0.3554
   14CHTO   C18 5878   5.115   6.077   3.015 -0.2887  0.0964 -0.0423
   14CHTO   O13 5879   5.197   6.164   2.929  0.0233  0.2505 -0.2696
   14CHTO    H7 5880   5.278   6.119   2.918 -0.7332 -0.6975 -2.1583
   14CHTO    O2 5881   4.808   6.109   3.040  0.1392 -0.7390 -0.0580
   14CHTO    C1 5882   4.710   6.110   3.143  0.4282  0.7814  0.3997
   14CHTO   H14 5883   4.642   6.025   3.121  0.0951  1.0652  0.3204
   14CHTO    C2 5884   4.624   6.243   3.132 -0.0166  0.5333 -0.3788
   14CHTO   H15 5885   4.701   6.322   3.138 -0.7599  1.2304  0.0239
   14CHTO    O6 5886   4.551   6.247   3.013 -0.2790  0.3160  0.7493
   14CHTO    H1 5887   4.598   6.276   2.938 -0.1447  0.6207  0.9487
   14CHTO    C3 5888   4.534   6.271   3.265 -0.4908  0.0263 -0.3044
   14CHTO   H16 5889   4.456   6.193   3.267 -1.1857  0.7258  0.2500
   14CHTO    N1 5890   4.464   6.406   3.253  0.0548  0.5618 -0.4936
   14CHTO    H8 5891   4.358   6.402   3.276  0.3879  2.1497  1.4313
   14CHTO    H9 5892   4.513   6.481   3.313 -1.1068  1.1276 -0.2219
   14CHTO    C4 5893   4.616   6.253   3.393  0.8103  0.5234 -0.0668
   14CHTO   H17 5894   4.694   6.329   3.400  0.1898  1.2269 -0.6998
   14CHTO    O1 5895   4.685   6.123   3.393  0.0729 -0.1471 -0.2972
   14CHTO    C5 5896   4.775   6.097   3.287  0.5666  0.0140 -0.0662
   14CHTO   H18 5897   4.863   6.162   3.300  0.8989 -0.6310  0.9451
   14CHTO   C16 5898   4.830   5.948   3.314  0.3532 -0.0054 -0.1836
   14CHTO   O11 5899   4.887   5.931   3.440  1.1552 -0.3579  0.1573
   14CHTO    H5 5900   4.815   5.928   3.501 -0.5009  0.0221 -1.7255
   14CHTO    O3 5901   4.532   6.255   3.509  0.1636 -0.5122  1.0567
   14CHTO    C6 5902   4.593   6.262   3.636 -0.6695 -0.6973 -0.0049
   14CHTO   H19 5903   4.697   6.228   3.638 -0.3337  0.3571  3.0837
   14CHTO    C8 5904   4.601   6.409   3.686 -1.1745  0.1414 -0.6395
   14CHTO   H21 5905   4.500   6.446   3.702 -0.4294  2.2202 -0.5731
   14CHTO    O7 5906   4.668   6.492   3.591  0.1407  0.2771 -0.5202
   14CHTO    H2 5907   4.617   6.520   3.517  0.8939  1.6967 -0.5402
   14CHTO   C12 5908   4.678   6.403   3.828  0.3195 -0.3556  0.2028
   14CHTO   H25 5909   4.779   6.360   3.812  0.3828 -0.0149 -0.3294
   14CHTO    N3 5910   4.698   6.537   3.883 -0.2806  0.6977  0.5602
   14CHTO   H12 5911   4.750   6.591   3.806  0.1920  1.2806  1.2824
   14CHTO   H13 5912   4.609   6.587   3.918 -2.3271 -1.8020 -0.9107
   14CHTO   C15 5913   4.590   6.308   3.924  0.2619  0.6561 -0.3804
   14CHTO   H28 5914   4.489   6.343   3.945  0.0214  0.4743 -1.2347
   14CHTO   O10 5915   4.653   6.272   4.052 -0.5654 -0.1162 -0.0042
   14CHTO    H4 5916   4.583   6.236   4.101  0.2755 -2.2059 -0.3001
   14CHTO    O5 5917   4.580   6.172   3.867  0.1925  0.2243 -0.1047
   14CHTO   C10 5918   4.517   6.168   3.737  0.1755 -0.4231  0.3383
   14CHTO   H23 5919   4.412   6.196   3.735  0.0280 -0.9795  0.3488
   14CHTO   C17 5920   4.516   6.023   3.688  0.4054 -0.1724  0.0830
   14CHTO   O12 5921   4.640   5.955   3.710 -0.5662 -0.2464 -0.6624
   14CHTO    H6 5922   4.648   5.903   3.632  0.2961  0.1282 -0.8415
   15CHTO  H203 5923   5.960   4.505   2.383  0.1626  0.4879 -0.0617
   15CHTO   O82 5924   5.950   4.556   2.305  0.2332  0.6478  0.0332
   15CHTO  C123 5925   6.003   4.464   2.206  0.6121 -0.3784 -0.1887
   15CHTO  H227 5926   6.027   4.368   2.255 -1.8851 -1.2889 -0.6585
   15CHTO   O77 5927   5.895   4.437   2.109  0.3136  0.6489 -0.0853
   15CHTO  C118 5928   5.929   4.331   2.026 -0.1646  0.6808 -0.1446
   15CHTO  H222 5929   5.954   4.238   2.078 -1.0287  1.1310  1.1316
   15CHTO  C125 5930   5.807   4.308   1.925  0.2125 -0.0903  0.0498
   15CHTO   O84 5931   5.808   4.193   1.836  0.1962  0.3203 -0.2779
   15CHTO  H205 5932   5.866   4.219   1.768 -1.4048  3.8078 -0.4615
   15CHTO  C114 5933   6.050   4.368   1.936 -0.2517  0.8993 -0.3233
   15CHTO  H218 5934   6.021   4.455   1.877 -0.0401  2.7854  2.2772
   15CHTO  C116 5935   6.174   4.396   2.027 -0.1436 -0.2992 -0.1037
   15CHTO  H220 5936   6.205   4.300   2.073  2.8933 -0.4869 -2.3732
   15CHTO   O79 5937   6.279   4.428   1.938 -0.0698  0.0951 -0.2600
   15CHTO  H201 5938   6.328   4.494   1.982  0.2012  0.3846 -0.9893
   15CHTO  C120 5939   6.139   4.515   2.127  0.0011  0.2363 -0.8093
   15CHTO  H224 5940   6.129   4.608   2.068  0.0935  0.3474 -0.6491
   15CHTO   N21 5941   6.249   4.540   2.223 -0.2238 -0.3397 -0.1979
   15CHTO  H211 5942   6.291   4.449   2.262 -1.0091 -0.2284  0.9159
   15CHTO  H212 5943   6.323   4.610   2.186  1.2834 -1.0966  1.2897
   15CHTO   O75 5944   6.066   4.267   1.842 -0.3127  0.2792 -0.3016
   15CHTO  C112 5945   6.179   4.144   1.852  0.1914 -0.4190 -0.4257
   15CHTO  H216 5946   6.227   4.155   1.950 -1.7252 -1.0313  0.6078
   15CHTO   O73 5947   6.272   4.166   1.745  0.1112 -0.0899 -0.3954
   15CHTO  C113 5948   6.389   4.077   1.746  0.6146  0.0307 -0.3764
   15CHTO  H217 5949   6.443   4.082   1.842  1.4044 -0.3170 -0.7986
   15CHTO  C124 5950   6.483   4.122   1.630  0.3202 -0.5646  0.0331
   15CHTO   O83 5951   6.617   4.080   1.644 -0.0783  0.2642  0.3209
   15CHTO  H204 5952   6.666   4.127   1.709  0.7779  2.0569 -1.6008
   15CHTO  C109 5953   6.343   3.926   1.738 -0.0883 -0.8560  0.2060
   15CHTO  H213 5954   6.303   3.910   1.637  2.5792 -0.5183 -0.9591
   15CHTO  C110 5955   6.221   3.891   1.833 -0.5101  0.4690  0.8402
   15CHTO  H214 5956   6.261   3.881   1.934  0.5310 -2.5292  0.1751
   15CHTO   O78 5957   6.174   3.759   1.791 -0.2832 -0.2588 -0.3868
   15CHTO  H200 5958   6.094   3.742   1.839 -0.9418  0.6665 -1.1306
   15CHTO  C111 5959   6.112   4.002   1.837 -0.6853  0.3983  0.5137
   15CHTO  H215 5960   6.057   4.003   1.742 -0.7648  0.2855  0.5589
   15CHTO   N19 5961   6.015   3.972   1.944  0.9993  0.0337 -0.4860
   15CHTO  H207 5962   5.943   3.905   1.899 -0.0268  1.9672 -1.7799
   15CHTO  H208 5963   6.068   3.921   2.024  1.3997 -2.3078 -2.1936
   15CHTO   O74 5964   6.470   3.832   1.755  0.1632  0.3636  0.3183
   15CHTO  C115 5965   6.484   3.719   1.642 -0.3504 -0.1042 -0.5114
   15CHTO  H219 5966   6.386   3.695   1.600 -0.8345  0.0775  0.4984
   15CHTO   O76 5967   6.558   3.774   1.525  0.2539 -0.1308 -0.0939
   15CHTO  C122 5968   6.584   3.688   1.413  0.4502 -0.3180 -0.4414
   15CHTO  H226 5969   6.658   3.746   1.358 -1.1130 -0.3419 -2.6592
   15CHTO  C126 5970   6.453   3.699   1.330 -0.0648 -0.6860  0.2987
   15CHTO   O85 5971   6.489   3.656   1.203 -0.7228 -0.0912  0.0968
   15CHTO  H206 5972   6.461   3.714   1.135 -1.0127 -0.5233 -0.1538
   15CHTO  C121 5973   6.635   3.555   1.458 -0.6023  0.5134 -0.0481
   15CHTO  H225 5974   6.629   3.491   1.367 -2.2631  0.9061 -0.2399
   15CHTO   O81 5975   6.775   3.567   1.501  0.0593 -0.5884 -0.5288
   15CHTO  H202 5976   6.827   3.508   1.450  2.3933  1.3614 -0.4894
   15CHTO  C119 5977   6.546   3.488   1.578 -0.0104 -0.1318  0.0234
   15CHTO  H223 5978   6.444   3.493   1.539  0.1470 -0.0157 -0.3789
   15CHTO  C117 5979   6.552   3.588   1.698 -0.2473  0.4048 -0.1555
   15CHTO  H221 5980   6.651   3.628   1.721 -0.8970  1.3989  0.9511
   15CHTO   N20 5981   6.496   3.538   1.824 -0.7331  0.0021 -0.2406
   15CHTO  H209 5982   6.566   3.524   1.905 -0.4531  1.2511 -0.2507
   15CHTO  H210 5983   6.433   3.452   1.808  1.1220 -1.1103 -1.8650
   15CHTO   O80 5984   6.581   3.318   1.594 -0.0887 -0.7334  0.1780
   15CHTO  C103 5985   6.467   3.208   1.568 -0.0415 -0.4047 -0.5542
   15CHTO  H190 5986   6.497   3.108   1.599  2.0090  0.7861  1.4201
   15CHTO  C101 5987   6.333   3.227   1.654 -0.3046 -0.0073 -0.7987
   15CHTO  H188 5988   6.300   3.326   1.622  1.0793  0.9619  0.6870
   15CHTO   O68 5989   6.354   3.217   1.812  1.0109  0.3842  0.2224
   15CHTO  H168 5990   6.419   3.157   1.842 -0.4701 -0.2367  2.4032
   15CHTO   C99 5991   6.229   3.114   1.609  0.1663  0.0560 -0.4330
   15CHTO  H186 5992   6.247   3.008   1.638 -1.5170 -0.3118 -0.6568
   15CHTO   N17 5993   6.089   3.141   1.656  0.5618 -0.2409 -0.2316
   15CHTO  H174 5994   6.017   3.082   1.602 -0.1674  0.7915 -0.4097
   15CHTO  H175 5995   6.075   3.245   1.630  0.9616 -0.5511 -1.7306
   15CHTO   C97 5996   6.227   3.108   1.453  0.2302 -0.4894 -0.1986
   15CHTO  H184 5997   6.180   3.204   1.427  0.9752 -0.0463  0.0580
   15CHTO   O64 5998   6.357   3.090   1.391 -0.3752 -0.0050  0.1028
   15CHTO  C104 5999   6.438   3.208   1.408  0.5934  0.6423  0.4254
   15CHTO  H191 6000   6.383   3.299   1.383 -1.1560 -0.7829 -0.9709
   15CHTO  C108 6001   6.564   3.208   1.321  0.0529 -0.0454  0.4075
   15CHTO   O71 6002   6.522   3.208   1.184  0.2289 -0.3552  1.0356
   15CHTO  H171 6003   6.589   3.229   1.121 -0.1636 -1.3587  0.2716
   15CHTO   O62 6004   6.139   2.993   1.408 -0.6358  0.2199 -0.1864
   15CHTO   C91 6005   6.086   3.016   1.273  0.7025 -0.1513  0.7538
   15CHTO  H178 6006   6.135   3.104   1.230 -1.1344  1.0990  1.1555
   15CHTO   C92 6007   5.931   3.052   1.288  1.0090  0.2258  0.2314
   15CHTO  H179 6008   5.918   3.132   1.362 -2.5722  0.9780 -1.0961
   15CHTO   O66 6009   5.887   3.113   1.167 -0.3137  0.3506 -0.2072
   15CHTO  H166 6010   5.793   3.117   1.162 -0.3867 -1.1084 -0.0065
   15CHTO   C93 6011   5.843   2.921   1.325  0.7500  0.5490 -0.2519
   15CHTO  H180 6012   5.740   2.931   1.286  0.3701  0.0485  0.6051
   15CHTO   N16 6013   5.827   2.897   1.470  0.0716  0.7064  0.3775
   15CHTO  H172 6014   5.725   2.919   1.494 -0.2024  0.6371 -0.6753
   15CHTO  H173 6015   5.859   2.798   1.499  0.3203  0.7470  0.2497
   15CHTO   C94 6016   5.907   2.801   1.251  0.4939 -0.1587  0.8852
   15CHTO  H181 6017   5.983   2.752   1.312  0.5886  0.2540  1.1006
   15CHTO   O61 6018   5.977   2.847   1.129 -0.4658 -0.0786 -0.2213
   15CHTO   C95 6019   6.100   2.907   1.165  0.3642 -0.2434  1.1072
   15CHTO  H182 6020   6.163   2.827   1.203 -0.3666 -0.4692  1.8838
   15CHTO  C106 6021   6.171   2.968   1.041 -0.6810 -0.2103 -1.2506
   15CHTO   O69 6022   6.305   2.985   1.068 -0.1875  0.1018 -0.6797
   15CHTO  H169 6023   6.358   3.017   0.997 -0.1806  3.3492  0.7203
   15CHTO   O63 6024   5.801   2.700   1.205  0.1578  0.6464  0.2231
   15CHTO   C96 6025   5.852   2.547   1.208 -0.9461 -0.4670  0.5036
   15CHTO  H183 6026   5.910   2.530   1.299  2.0285 -2.7530 -1.7240
   15CHTO   C98 6027   5.950   2.498   1.088 -0.3154 -0.3987 -0.7290
   15CHTO  H185 6028   5.913   2.533   0.990  0.1414 -2.9832 -1.8577
   15CHTO   O67 6029   6.075   2.575   1.109 -0.2387  0.0037  0.9569
   15CHTO  H167 6030   6.110   2.572   1.196  0.6422  0.0184  0.6034
   15CHTO  C102 6031   5.977   2.339   1.087 -0.1861  0.1805  0.8553
   15CHTO  H189 6032   6.050   2.318   1.167  0.1641  1.9969  1.0347
   15CHTO   N18 6033   6.034   2.290   0.961  0.0598 -0.3199  0.0014
   15CHTO  H176 6034   6.133   2.331   0.949 -0.2949  0.4651 -0.2739
   15CHTO  H177 6035   6.050   2.184   0.975 -1.0154 -0.2774  1.6819
   15CHTO  C105 6036   5.854   2.256   1.128 -0.3849  0.0208 -0.0478
   15CHTO  H192 6037   5.779   2.262   1.049 -0.5555  0.4793  0.1493
   15CHTO   O65 6038   5.778   2.322   1.235 -1.0281  0.4259 -0.1341
   15CHTO  C100 6039   5.731   2.452   1.202 -0.3959  0.5363  0.5536
   15CHTO  H187 6040   5.694   2.456   1.099 -0.6136  2.2180  0.6804
   15CHTO  C107 6041   5.619   2.489   1.308 -0.0599  0.1044 -0.3579
   15CHTO   O70 6042   5.511   2.400   1.307  0.4265 -0.3578 -0.1732
   15CHTO  H170 6043   5.536   2.311   1.293 -1.0046 -0.7678 -0.1988
   15CHTO   O57 6044   5.922   2.100   1.175 -0.0389 -0.6050 -0.1434
   15CHTO   C85 6045   5.932   2.068   1.315  0.0042  0.1852 -0.2989
   15CHTO  H157 6046   5.915   2.161   1.373  0.9564 -0.0938  0.4438
   15CHTO   C83 6047   6.077   2.023   1.345  0.4798  0.0401  0.6734
   15CHTO  H155 6048   6.141   2.105   1.314  0.6289 -1.0689 -2.1267
   15CHTO   O56 6049   6.114   1.912   1.263 -0.3043 -0.2585 -0.5822
   15CHTO  H135 6050   6.079   1.919   1.176 -0.0119 -0.3131 -0.7074
   15CHTO   C81 6051   6.091   2.003   1.499  0.1699 -0.1575 -0.2765
   15CHTO  H153 6052   6.050   2.093   1.546 -1.5497 -1.1158  0.1082
   15CHTO   N14 6053   6.227   1.977   1.545  0.0004  0.2857 -0.3098
   15CHTO  H141 6054   6.230   1.995   1.650 -0.1376  2.0515 -0.5940
   15CHTO  H142 6055   6.301   2.038   1.497 -0.7146  0.4422 -1.2382
   15CHTO   C79 6056   5.987   1.887   1.542  0.1003  0.6856  1.0714
   15CHTO  H151 6057   5.990   1.880   1.651  0.4426  0.5210  1.0541
   15CHTO   O52 6058   5.855   1.920   1.500  0.4612 -0.6281 -0.5417
   15CHTO   C86 6059   5.831   1.955   1.359 -0.5777  0.2369 -0.3833
   15CHTO  H158 6060   5.835   1.860   1.301 -0.8563  0.0038 -0.0207
   15CHTO   C90 6061   5.677   2.001   1.352 -0.5754  0.3503 -0.7446
   15CHTO   O60 6062   5.575   1.906   1.366 -0.0471 -0.1848 -0.5990
   15CHTO  H138 6063   5.601   1.826   1.325 -2.8539 -1.4411 -0.0990
   15CHTO   O50 6064   6.032   1.759   1.484 -0.3390 -0.1371  0.2588
   15CHTO   C73 6065   6.015   1.619   1.514  0.5509 -0.1605 -0.4261
   15CHTO  H145 6066   5.909   1.598   1.538  0.1744  0.8732 -1.1246
   15CHTO   C74 6067   6.106   1.571   1.638  0.1518 -0.1680  0.2919
   15CHTO  H146 6068   6.082   1.629   1.728 -0.5368  0.2146 -0.1281
   15CHTO   O54 6069   6.055   1.436   1.662  0.0671  0.5101  0.4928
   15CHTO  H133 6070   6.096   1.386   1.730 -0.5118  0.6801  0.9693
   15CHTO   C75 6071   6.257   1.582   1.588 -0.7067  0.1013 -0.1951
   15CHTO  H147 6072   6.284   1.684   1.560 -0.7658 -0.3503 -1.9210
   15CHTO   N13 6073   6.360   1.543   1.688  0.3917  0.0650 -0.6550
   15CHTO  H139 6074   6.326   1.539   1.790  0.4907  2.2470 -0.5077
   15CHTO  H140 6075   6.435   1.621   1.685  1.0777 -0.5707 -0.3099
   15CHTO   C76 6076   6.273   1.497   1.457  0.2238 -0.1335 -0.0818
   15CHTO  H148 6077   6.261   1.394   1.489  0.0714 -0.3369 -0.7749
   15CHTO   O49 6078   6.178   1.556   1.351 -0.1964 -0.1608 -0.4847
   15CHTO   C77 6079   6.043   1.537   1.386  0.3018 -0.7612 -0.1222
   15CHTO  H149 6080   6.041   1.430   1.407 -0.2823 -1.1383 -2.0412
   15CHTO   C88 6081   5.949   1.578   1.273 -0.4979 -0.1059  0.5873
   15CHTO   O58 6082   5.965   1.494   1.171  0.1448 -0.0949  0.1585
   15CHTO  H136 6083   5.901   1.513   1.105  2.3218 -1.4676 -2.4836
   15CHTO   O51 6084   6.416   1.524   1.395  0.5769  0.2786  0.6900
   15CHTO   C78 6085   6.441   1.488   1.254  0.7941  0.1982  0.6733
   15CHTO  H150 6086   6.343   1.470   1.205  0.5869  0.0378  1.1487
   15CHTO   C80 6087   6.527   1.363   1.249 -0.4899  0.1465  0.2517
   15CHTO  H152 6088   6.619   1.386   1.305 -1.0252  1.4002  0.6286
   15CHTO   O55 6089   6.453   1.265   1.315 -0.2710 -0.4169  0.2257
   15CHTO  H134 6090   6.509   1.195   1.344 -1.2460 -2.6743 -3.0397
   15CHTO   C84 6091   6.562   1.316   1.100  0.3829  0.4336 -0.1487
   15CHTO  H156 6092   6.472   1.279   1.051 -0.9262  1.5640  1.3415
   15CHTO   N15 6093   6.650   1.197   1.085  0.1264 -0.2050  0.1924
   15CHTO  H143 6094   6.601   1.119   1.030 -0.4921  0.1579  0.2147
   15CHTO  H144 6095   6.673   1.159   1.182  3.5831 -2.2324 -1.3336
   15CHTO   C87 6096   6.625   1.438   1.034 -0.5998  0.7663  0.7234
   15CHTO  H159 6097   6.723   1.457   1.079 -0.3444 -2.1854  1.5003
   15CHTO   O53 6098   6.527   1.575   1.047 -0.4890 -0.4201  0.6365
   15CHTO   C82 6099   6.508   1.606   1.183  0.1958 -0.2378  0.0302
   15CHTO  H154 6100   6.601   1.618   1.238 -1.0232 -1.8654  2.5538
   15CHTO   C89 6101   6.436   1.739   1.201  0.0245 -0.8753 -0.3391
   15CHTO   O59 6102   6.498   1.852   1.143 -0.4969  0.2992 -0.4381
   15CHTO  H137 6103   6.540   1.903   1.209  0.3347  0.0507 -0.7719
   15CHTO   O45 6104   6.677   1.408   0.868 -0.0590  0.3580  0.2638
   15CHTO   C67 6105   6.783   1.500   0.823 -0.2158 -0.0243  0.7783
   15CHTO  H124 6106   6.790   1.588   0.888 -0.0189  1.4712 -1.2208
   15CHTO   C65 6107   6.924   1.427   0.834 -1.0565  0.3696  0.3745
   15CHTO  H122 6108   6.900   1.323   0.811 -0.9536  0.6393 -0.9373
   15CHTO   O44 6109   6.977   1.443   0.967  0.6855  0.7039  0.1367
   15CHTO  H102 6110   6.949   1.372   1.022 -0.4988  1.6940  0.8486
   15CHTO   C63 6111   7.015   1.468   0.714 -0.2117  0.0012 -0.2612
   15CHTO  H120 6112   6.988   1.418   0.622  1.1495 -0.2811 -0.5038
   15CHTO   N11 6113   7.160   1.448   0.728 -0.2927  0.1253  0.5288
   15CHTO  H108 6114   7.188   1.462   0.831 -0.4086 -0.0069  0.5785
   15CHTO  H109 6115   7.183   1.346   0.711 -0.3910  0.0610  0.7773
   15CHTO   C61 6116   6.986   1.624   0.677 -0.5186  0.9779 -0.8145
   15CHTO  H118 6117   7.054   1.639   0.592  0.2213  2.1046 -0.0423
   15CHTO   O40 6118   6.849   1.650   0.636 -0.5325 -0.3712  0.4826
   15CHTO   C68 6119   6.741   1.557   0.674 -0.7441 -0.2258 -0.2044
   15CHTO  H125 6120   6.727   1.475   0.600 -1.2885 -1.6715  1.4628
   15CHTO   C72 6121   6.609   1.643   0.685  0.0979  0.2596 -0.4196
   15CHTO   O48 6122   6.551   1.677   0.558  0.0625  0.1227  0.1959
   15CHTO  H105 6123   6.462   1.646   0.564 -0.3904  1.3367 -0.0953
   15CHTO   O38 6124   7.018   1.708   0.787  0.0194  0.6746  0.2242
   15CHTO   C55 6125   7.040   1.841   0.741 -0.4089  0.1080  0.6468
   15CHTO  H112 6126   6.991   1.865   0.645  2.4205  2.4503 -0.2864
   15CHTO   C56 6127   7.197   1.866   0.738  0.0271 -0.2177 -0.1547
   15CHTO  H113 6128   7.243   1.834   0.832  1.4783 -0.2445 -0.8594
   15CHTO   O42 6129   7.247   1.774   0.642  0.0371  0.2030  0.1605
   15CHTO  H100 6130   7.339   1.761   0.654  0.0684  1.0806  0.8504
   15CHTO   C57 6131   7.235   2.019   0.711  0.6296  0.1205 -0.5035
   15CHTO  H114 6132   7.200   2.056   0.615  1.4911 -0.2473 -0.9609
   15CHTO   N10 6133   7.380   2.049   0.726  0.3612  0.2166  0.0478
   15CHTO  H106 6134   7.388   2.147   0.771  0.2954  0.8687 -1.3252
   15CHTO  H107 6135   7.421   1.974   0.792 -2.2803  0.6643  2.2814
   15CHTO   C58 6136   7.154   2.099   0.817  0.2444 -0.1951  1.0494
   15CHTO  H115 6137   7.198   2.081   0.917  0.8536 -0.0474  0.8110
   15CHTO   O37 6138   7.016   2.071   0.812  0.3913  0.4382  0.3990
   15CHTO   C59 6139   6.979   1.935   0.845  0.1735 -0.6387  0.1203
   15CHTO  H116 6140   7.012   1.913   0.946 -1.4834  0.1421  0.8424
   15CHTO   C70 6141   6.824   1.919   0.855  0.2142 -0.3403  0.1479
   15CHTO   O46 6142   6.749   2.010   0.936  0.2272 -0.1148 -0.3738
   15CHTO  H103 6143   6.676   1.963   0.971  1.7771 -1.4325  1.1823
   15CHTO   O39 6144   7.159   2.259   0.788 -0.0333  0.0871 -0.3435
   15CHTO   C60 6145   7.112   2.343   0.899 -0.1308 -0.5029 -0.1229
   15CHTO  H117 6146   7.080   2.279   0.982  0.6307 -1.4405 -0.5460
   15CHTO   C62 6147   7.237   2.416   0.958  0.3320 -0.2253  0.4594
   15CHTO  H119 6148   7.317   2.340   0.973  0.3140 -0.0523  1.4049
   15CHTO   O43 6149   7.301   2.508   0.863 -0.0812  0.3732 -0.2454
   15CHTO  H101 6150   7.337   2.462   0.791  0.0536 -1.0792  0.7375
   15CHTO   C66 6151   7.194   2.474   1.090  0.3518 -0.1930 -0.6018
   15CHTO  H123 6152   7.134   2.405   1.150  3.0869 -0.1816  2.3069
   15CHTO   N12 6153   7.309   2.512   1.181  0.1225  0.2225  0.2429
   15CHTO  H110 6154   7.365   2.597   1.143  0.9797  0.8754  2.8324
   15CHTO  H111 6155   7.277   2.534   1.282  1.7619  2.8170  0.2627
   15CHTO   C69 6156   7.083   2.589   1.062  0.1246 -0.3313 -1.1228
   15CHTO  H126 6157   7.119   2.688   1.027  0.4673 -0.2307 -0.4773
   15CHTO   O41 6158   6.962   2.528   0.982 -0.3146 -0.6308 -0.3009
   15CHTO   C64 6159   7.000   2.445   0.868 -0.5523  0.8851 -0.0169
   15CHTO  H121 6160   7.037   2.512   0.787  0.5973 -0.4492 -0.6348
   15CHTO   C71 6161   6.874   2.375   0.801  0.5457 -0.0799  0.4870
   15CHTO   O47 6162   6.803   2.477   0.730  0.3750  0.0796  0.4532
   15CHTO  H104 6163   6.711   2.458   0.730  0.4932 -0.4960 -0.0212
   15CHTO   O34 6164   7.016   2.624   1.207 -0.3103 -0.0495 -0.7420
   15CHTO   C49 6165   6.961   2.683   1.316  0.0365  0.7232  0.1355
   15CHTO   H91 6166   7.039   2.672   1.392  0.4249  0.2260 -0.3297
   15CHTO   C47 6167   6.833   2.604   1.341  0.8241 -0.2382 -0.1307
   15CHTO   H89 6168   6.804   2.651   1.438 -2.5057 -0.0987 -1.1306
   15CHTO   O33 6169   6.864   2.465   1.368 -0.3285 -0.6404  0.0120
   15CHTO   H70 6170   6.792   2.428   1.415 -2.5457  3.4565  0.1381
   15CHTO   C45 6171   6.722   2.621   1.223 -0.4334  0.7140 -0.2263
   15CHTO   H87 6172   6.738   2.534   1.158  1.4445  1.5271 -0.8464
   15CHTO    N8 6173   6.589   2.616   1.289 -0.3614  0.2016  0.1124
   15CHTO   H75 6174   6.603   2.622   1.396  1.1167  0.4343 -0.0819
   15CHTO   H76 6175   6.508   2.679   1.256  1.4484  1.8633 -1.2137
   15CHTO   C43 6176   6.752   2.751   1.131  0.3500 -0.0888  0.0249
   15CHTO   H85 6177   6.832   2.720   1.063 -0.8694  0.9279 -1.9189
   15CHTO   O29 6178   6.798   2.856   1.220 -0.0686  0.1509 -0.4510
   15CHTO   C50 6179   6.920   2.833   1.280 -0.0187  0.2028 -0.0155
   15CHTO   H92 6180   7.000   2.874   1.215 -1.9109  1.7001 -1.4608
   15CHTO   C54 6181   6.923   2.921   1.400  0.0633 -0.6004  0.2497
   15CHTO   O36 6182   6.806   2.921   1.478 -0.3297  0.4393  0.2921
   15CHTO   H72 6183   6.781   2.836   1.509 -4.3745 -0.1611 -4.0622
   15CHTO   O27 6184   6.650   2.802   1.047 -0.3887  0.1703  0.2102
   15CHTO   C37 6185   6.633   2.734   0.920  0.3008 -0.3343  0.2734
   15CHTO   H79 6186   6.714   2.659   0.914  0.5834  0.0974 -1.7711
   15CHTO   C38 6187   6.488   2.666   0.895  0.3276 -0.1051  0.2837
   15CHTO   H80 6188   6.407   2.738   0.915 -0.5474 -0.5716 -1.4406
   15CHTO   O31 6189   6.487   2.564   0.999 -0.5125  0.3009 -0.3548
   15CHTO   H68 6190   6.409   2.512   1.009  0.1223 -0.1057  3.2527
   15CHTO   C39 6191   6.475   2.604   0.751 -0.9960 -0.5148 -0.1158
   15CHTO   H81 6192   6.524   2.507   0.747 -1.5741 -0.8996  1.6460
   15CHTO    N7 6193   6.331   2.560   0.718  0.1532  0.4537 -0.1398
   15CHTO   H73 6194   6.310   2.458   0.689 -1.3923  1.3278 -2.2401
   15CHTO   H74 6195   6.251   2.611   0.770 -0.8767  0.9747 -2.1697
   15CHTO   C40 6196   6.523   2.704   0.639 -0.2469  0.0250  1.0615
   15CHTO   H82 6197   6.450   2.785   0.639 -0.3042 -0.0192 -0.5051
   15CHTO   O26 6198   6.656   2.750   0.677 -0.4122 -0.0539 -0.6656
   15CHTO   C41 6199   6.650   2.835   0.793 -0.3123 -0.1527  0.0555
   15CHTO   H83 6200   6.560   2.898   0.785  0.5083  1.0862  0.5255
   15CHTO   C52 6201   6.781   2.916   0.801  0.7040  0.2438 -0.7165
   15CHTO   O35 6202   6.798   2.994   0.905  0.2383 -0.5389  0.3165
   15CHTO   H71 6203   6.762   2.953   0.981  0.6593 -2.3740 -0.4521
   15CHTO   O28 6204   6.538   2.641   0.510 -0.3208  0.7439 -0.4675
   15CHTO   C42 6205   6.580   2.715   0.392  0.1451  0.0772 -0.0410
   15CHTO   H84 6206   6.593   2.631   0.323  0.5816  2.1431 -2.5311
   15CHTO   C44 6207   6.718   2.781   0.383  0.6277 -0.0794 -0.1233
   15CHTO   H86 6208   6.732   2.854   0.463 -0.1370 -2.0215  1.8266
   15CHTO   O32 6209   6.815   2.674   0.390  0.0051 -0.0126 -0.1183
   15CHTO   H69 6210   6.870   2.687   0.464 -0.3267 -2.8632  0.6928
   15CHTO   C48 6211   6.733   2.859   0.247  1.1156  0.1418  0.1047
   15CHTO   H90 6212   6.735   2.797   0.158 -0.2667  0.6145 -0.2666
   15CHTO    N9 6213   6.856   2.940   0.243  0.2264  0.4190  0.1079
   15CHTO   H77 6214   6.856   3.010   0.325  0.9527 -0.4250  0.8438
   15CHTO   H78 6215   6.942   2.875   0.236  0.1523  0.3301  0.0336
   15CHTO   C51 6216   6.619   2.949   0.225  0.7662 -0.7185 -0.8583
   15CHTO   H93 6217   6.613   3.012   0.313 -0.4905 -2.0362  0.0138
   15CHTO   O30 6218   6.507   2.865   0.214  0.2598  0.2527  0.1737
   15CHTO   C46 6219   6.456   2.802   0.332  0.3258  0.1345 -0.1004
   15CHTO   H88 6220   6.423   2.878   0.404 -2.2442  0.4872 -1.6212
   15CHTO   C53 6221   6.330   2.719   0.281 -0.0281  0.5770 -0.6864
   15CHTO   O72 6222   6.273   2.639   0.388  0.3249 -0.7365  0.9329
   15CHTO  H199 6223   6.223   2.567   0.355  0.7730 -0.4236 -0.4664
   15CHTO   O22 6224   6.616   3.025   0.104 -0.2266  0.0233 -0.0756
   15CHTO   C31 6225   6.540   3.154   0.088 -0.2794  0.5337  0.4998
   15CHTO   H59 6226   6.530   3.166  -0.022 -1.2031  2.8636  0.7974
   15CHTO   C29 6227   6.400   3.160   0.149  0.2182 -0.0152 -0.2359
   15CHTO   H57 6228   6.414   3.147   0.257 -2.7054 -1.1824  0.0338
   15CHTO   O21 6229   6.317   3.047   0.102  0.2586 -0.3295 -0.3273
   15CHTO   H37 6230   6.348   2.960   0.116  2.4023  0.3247 -0.8734
   15CHTO   C27 6231   6.341   3.305   0.130 -0.5510 -0.9386 -0.4601
   15CHTO   H55 6232   6.319   3.327   0.024  0.9394  0.3725 -0.5168
   15CHTO    N5 6233   6.216   3.318   0.206 -0.3845 -0.7262  0.2700
   15CHTO   H43 6234   6.233   3.379   0.293 -1.5548 -0.1860  0.1361
   15CHTO   H44 6235   6.178   3.223   0.240 -0.6691 -1.0919 -1.0420
   15CHTO   C25 6236   6.452   3.409   0.185  0.7998 -0.4323 -0.0696
   15CHTO   H53 6237   6.463   3.389   0.293  2.4553  0.5086 -0.0506
   15CHTO   O17 6238   6.572   3.390   0.104  0.0185 -0.1320 -0.1286
   15CHTO   C32 6239   6.635   3.264   0.133  0.9630 -0.6796 -0.3057
   15CHTO   H60 6240   6.656   3.250   0.239  0.3944 -1.0009 -0.2333
   15CHTO   C36 6241   6.771   3.268   0.044 -0.2727  0.4992 -0.3036
   15CHTO   O25 6242   6.854   3.389   0.059 -0.0310  0.2320  0.9175
   15CHTO   H40 6243   6.892   3.395   0.145 -2.1678 -0.6228  1.9433
   15CHTO   O15 6244   6.420   3.554   0.178  0.2915 -0.5766 -0.3592
   15CHTO   C19 6245   6.442   3.654   0.275  0.1795 -0.0143  0.6479
   15CHTO   H47 6246   6.419   3.741   0.212 -1.6935 -1.9382 -1.4144
   15CHTO   C20 6247   6.337   3.650   0.391  0.4969  0.2147  0.3485
   15CHTO   H48 6248   6.345   3.558   0.451  1.6347  1.1617  1.6863
   15CHTO   O19 6249   6.203   3.654   0.335 -0.7644  0.4862  0.1752
   15CHTO   H35 6250   6.141   3.627   0.401 -0.4019  2.0116  1.1501
   15CHTO   C21 6251   6.372   3.770   0.490 -0.1798  0.3980  0.3003
   15CHTO   H49 6252   6.348   3.866   0.445 -0.6815  0.0051 -0.2735
   15CHTO    N4 6253   6.293   3.770   0.614  0.0621 -0.3351  0.4239
   15CHTO   H41 6254   6.328   3.834   0.694  3.0882 -1.0522 -0.2251
   15CHTO   H42 6255   6.190   3.786   0.586  0.3729  1.1687  0.0984
   15CHTO   C22 6256   6.526   3.771   0.526  0.2817  0.2259  0.5573
   15CHTO   H50 6257   6.547   3.677   0.576 -1.3427  0.2146  1.2670
   15CHTO   O14 6258   6.616   3.774   0.409 -0.4716  0.1518  0.0901
   15CHTO   C23 6259   6.594   3.664   0.315 -0.5699  0.2423  0.1138
   15CHTO   H51 6260   6.630   3.576   0.371  1.4256  0.9164 -0.0800
   15CHTO   C34 6261   6.679   3.686   0.182  0.4292 -0.2888  0.0981
   15CHTO   O23 6262   6.823   3.689   0.209 -0.1965 -0.4856  0.1950
   15CHTO   H38 6263   6.850   3.608   0.247  0.8611  0.9222  2.5268
   15CHTO   O16 6264   6.563   3.880   0.612 -0.6189  0.1732 -0.1930
   15CHTO   C24 6265   6.594   3.845   0.759 -0.2451 -0.5949  0.5691
   15CHTO   H52 6266   6.553   3.748   0.786 -1.0478 -0.1219  1.0821
   15CHTO   C26 6267   6.544   3.954   0.858 -0.2063 -0.2098  0.2711
   15CHTO   H54 6268   6.602   4.046   0.839  0.0348 -0.6774 -1.2992
   15CHTO   O20 6269   6.405   3.976   0.834 -0.1174  0.6993 -0.2464
   15CHTO   H36 6270   6.397   4.016   0.750  0.4680  0.7414 -0.2810
   15CHTO   C30 6271   6.586   3.925   1.004  0.2865 -0.2918  0.6072
   15CHTO   H58 6272   6.538   3.832   1.037 -0.4923 -1.0165 -2.3979
   15CHTO    N6 6273   6.543   4.041   1.093 -0.3673 -0.4698 -0.4395
   15CHTO   H45 6274   6.591   4.135   1.071 -1.9626  0.2169 -1.0209
   15CHTO   H46 6275   6.555   4.021   1.199 -0.4412  1.2312 -0.0904
   15CHTO   C33 6276   6.740   3.895   1.006  0.3182  0.1949  0.3255
   15CHTO   H61 6277   6.794   3.989   0.984  0.7553 -0.5546 -1.9792
   15CHTO   O18 6278   6.775   3.796   0.912  0.1666  0.5040 -0.3782
   15CHTO   C28 6279   6.749   3.836   0.777 -0.2453 -0.2264  0.1142
   15CHTO   H56 6280   6.795   3.934   0.770  1.7450 -0.8856  2.9539
   15CHTO   C35 6281   6.826   3.731   0.680  0.0190  0.2828  0.1405
   15CHTO   O24 6282   6.968   3.750   0.647 -0.0944  0.1691  0.3783
   15CHTO   H39 6283   7.009   3.672   0.615  0.8272  0.9793 -0.4675
   15CHTO    O9 6284   6.792   3.870   1.134  0.6512  0.0671  0.1980
   15CHTO   C13 6285   6.964   3.878   1.136 -0.1497 -0.2860 -0.2129
   15CHTO   H26 6286   6.996   3.950   1.057 -0.1466 -1.1730 -1.0301
   15CHTO   C11 6287   7.023   3.729   1.111 -0.6298 -0.7720 -0.0239
   15CHTO   H24 6288   7.001   3.701   1.007  0.8985  0.2873 -0.6610
   15CHTO    O8 6289   6.951   3.643   1.198  0.3735  0.1415  0.1360
   15CHTO    H3 6290   6.971   3.555   1.171  1.7627  0.1172  1.1940
   15CHTO    C9 6291   7.175   3.728   1.144  0.9847 -0.4118 -0.1801
   15CHTO   H22 6292   7.216   3.811   1.085  0.0794  0.5671  0.5465
   15CHTO    N2 6293   7.242   3.611   1.097 -0.3176 -0.4724 -0.6459
   15CHTO   H10 6294   7.273   3.557   1.185 -0.5312 -1.1358 -0.9750
   15CHTO   H11 6295   7.175   3.555   1.033  1.4669 -3.7422  0.2038
   15CHTO    C7 6296   7.205   3.772   1.299 -0.1461 -0.2946 -0.3656
   15CHTO   H20 6297   7.293   3.839   1.289 -0.7495  0.3425 -1.4388
   15CHTO    O4 6298   7.106   3.853   1.359  0.0525 -0.1689  0.3352
   15CHTO   C14 6299   7.019   3.945   1.283  0.5266 -0.4618 -0.1589
   15CHTO   H27 6300   7.060   4.040   1.243  1.5042 -1.7115 -2.1848
   15CHTO   C18 6301   6.897   3.987   1.366 -1.0321 -0.4262 -0.6345
   15CHTO   O13 6302   6.930   4.103   1.438 -0.4949  0.4589  0.5009
   15CHTO    H7 6303   6.910   4.099   1.530  0.8929 -0.1169  0.7813
   15CHTO    O2 6304   7.235   3.653   1.402  0.1541  0.4271 -0.0339
   15CHTO    C1 6305   7.365   3.652   1.459 -0.3214  0.3378 -0.9536
   15CHTO   H14 6306   7.413   3.750   1.439  0.4093  0.0352 -0.6849
   15CHTO    C2 6307   7.456   3.543   1.386  0.4499 -0.7634  0.4934
   15CHTO   H15 6308   7.388   3.458   1.371 -1.7038  1.1875 -1.1332
   15CHTO    O6 6309   7.498   3.597   1.262 -0.9100 -0.9795  0.0814
   15CHTO    H1 6310   7.533   3.682   1.281 -2.8330 -0.5278  1.8317
   15CHTO    C3 6311   7.588   3.498   1.475  0.3405  0.3291 -0.0178
   15CHTO   H16 6312   7.669   3.570   1.457  0.4396 -0.6523 -3.9938
   15CHTO    N1 6313   7.638   3.361   1.428 -0.2049  0.1975  0.1831
   15CHTO    H8 6314   7.715   3.378   1.355 -0.8763  0.4832 -0.4556
   15CHTO    H9 6315   7.662   3.283   1.500 -1.8018 -1.7004 -1.2957
   15CHTO    C4 6316   7.562   3.500   1.632 -0.1128 -0.1929 -0.2038
   15CHTO   H17 6317   7.515   3.405   1.661 -0.3217  0.4876  1.7354
   15CHTO    O1 6318   7.487   3.613   1.672  0.4380 -0.9571  0.7653
   15CHTO    C5 6319   7.349   3.625   1.612  0.0832 -0.5919 -0.5935
   15CHTO   H18 6320   7.287   3.535   1.620  0.0958 -0.5577 -0.0964
   15CHTO   C16 6321   7.284   3.744   1.679  1.1204  0.3792  0.0700
   15CHTO   O11 6322   7.272   3.717   1.821 -0.5699  0.0495 -0.0635
   15CHTO    H5 6323   7.208   3.763   1.871  0.5718  0.9358  0.6105
   15CHTO    O3 6324   7.685   3.504   1.705  0.4111  0.4014  0.5164
   15CHTO    C6 6325   7.685   3.469   1.847 -0.1401 -0.5316  0.4732
   15CHTO   H19 6326   7.586   3.462   1.893  0.0291 -3.3485  0.4788
   15CHTO    C8 6327   7.745   3.329   1.873 -0.3322 -0.3263  0.3040
   15CHTO   H21 6328   7.843   3.334   1.827 -0.2890  2.3365  0.5525
   15CHTO    O7 6329   7.654   3.232   1.816 -0.5525 -0.0075  0.3731
   15CHTO    H2 6330   7.680   3.218   1.726 -0.0668 -0.6954  0.6167
   15CHTO   C12 6331   7.772   3.305   2.024 -0.3590 -0.3168  0.8720
   15CHTO   H25 6332   7.673   3.309   2.075  0.4536 -0.6147  2.5323
   15CHTO    N3 6333   7.825   3.170   2.071  0.2550 -0.4886  0.1393
   15CHTO   H12 6334   7.928   3.181   2.101  0.0162  3.3167 -0.1421
   15CHTO   H13 6335   7.758   3.112   2.134 -0.6713 -1.1571 -1.4278
   15CHTO   C15 6336   7.854   3.425   2.080  0.6697  0.8714  0.1529
   15CHTO   H28 6337   7.954   3.429   2.037  0.2644 -3.0382 -1.3943
   15CHTO   O10 6338   7.873   3.423   2.247 -0.1256 -0.6229  0.3454
   15CHTO    H4 6339   7.918   3.346   2.276  0.5760  0.1511  1.3430
   15CHTO    O5 6340   7.785   3.548   2.060 -0.5510 -0.0934  0.0591
   15CHTO   C10 6341   7.760   3.580   1.920 -0.5043 -0.5486 -0.3434
   15CHTO   H23 6342   7.859   3.592   1.875 -0.6436 -0.6478 -0.6717
   15CHTO   C17 6343   7.705   3.718   1.902  0.9642  0.0813  0.0389
   15CHTO   O12 6344   7.574   3.728   1.961  1.2384  0.4881  0.6081
   15CHTO    H6 6345   7.510   3.679   1.913 -0.0501  0.9038  1.8570
   16CHTO  H203 6346   5.708   3.227   0.211 -1.8334 -1.0836  1.3236
   16CHTO   O82 6347   5.773   3.175   0.254  0.1328  0.1318 -0.0882
   16CHTO  C123 6348   5.791   3.206   0.391  0.3600 -0.5622 -0.0423
   16CHTO  H227 6349   5.695   3.187   0.441 -0.2476 -3.2344 -2.0883
   16CHTO   O77 6350   5.895   3.106   0.417 -0.1773 -0.0051  0.6428
   16CHTO  C118 6351   5.967   3.108   0.537 -0.4189 -0.1309  0.0737
   16CHTO  H222 6352   5.914   3.066   0.623  0.9715 -0.3994  0.8175
   16CHTO  C125 6353   6.085   3.005   0.499  0.1864 -0.3864 -0.2755
   16CHTO   O84 6354   6.185   3.043   0.406 -0.0263 -0.1410  0.4373
   16CHTO  H205 6355   6.208   3.133   0.420  1.1088 -0.2904 -0.4091
   16CHTO  C114 6356   6.012   3.252   0.573  0.3548  0.5236 -0.0644
   16CHTO  H218 6357   6.087   3.290   0.504  0.0875  0.2361 -0.5153
   16CHTO  C116 6358   5.905   3.368   0.551 -0.3671  0.3334  0.7949
   16CHTO  H220 6359   5.815   3.365   0.615 -1.5985 -1.5254 -0.9609
   16CHTO   O79 6360   5.970   3.493   0.564  0.0078  0.2748 -0.0083
   16CHTO  H201 6361   5.915   3.567   0.581 -0.2876  0.4386 -1.5866
   16CHTO  C120 6362   5.854   3.352   0.399 -0.4075  0.0134 -0.3276
   16CHTO  H224 6363   5.935   3.370   0.325  1.4606  0.5306  1.7958
   16CHTO   N21 6364   5.752   3.464   0.370  0.2208  0.1534  0.2744
   16CHTO  H211 6365   5.702   3.446   0.276 -1.7597  0.8423  1.1699
   16CHTO  H212 6366   5.810   3.555   0.367  1.2474 -0.5327 -1.5450
   16CHTO   O75 6367   6.074   3.244   0.707 -0.3430  0.2145 -0.2289
   16CHTO  C112 6368   6.217   3.321   0.708  0.1672  0.1031 -0.2139
   16CHTO  H216 6369   6.220   3.413   0.648 -0.1884  1.1741  1.3604
   16CHTO   O73 6370   6.319   3.230   0.671 -0.1175  0.2048 -0.1804
   16CHTO  C113 6371   6.443   3.288   0.635 -0.2842 -0.4551 -0.8628
   16CHTO  H217 6372   6.425   3.364   0.556  0.5591  0.4372 -0.2193
   16CHTO  C124 6373   6.531   3.187   0.572  0.0307 -0.1303 -0.7180
   16CHTO   O83 6374   6.639   3.230   0.488 -1.0647  0.0801 -0.0822
   16CHTO  H204 6375   6.617   3.227   0.397 -2.4369  0.1499  0.2431
   16CHTO  C109 6376   6.505   3.350   0.759  0.1429 -0.1968 -0.2216
   16CHTO  H213 6377   6.533   3.267   0.827  0.6731 -0.5856 -0.9105
   16CHTO  C110 6378   6.403   3.439   0.834  0.8422  0.7412  0.4024
   16CHTO  H214 6379   6.397   3.530   0.773  1.0354  0.4577 -0.0484
   16CHTO   O78 6380   6.455   3.474   0.966 -0.5722  0.8109  0.5172
   16CHTO  H200 6381   6.430   3.415   1.034  1.5371  1.8670  2.2520
   16CHTO  C111 6382   6.266   3.362   0.845  0.7782  0.0905  0.3183
   16CHTO  H215 6383   6.280   3.265   0.895 -1.7843  0.1217  1.1522
   16CHTO   N19 6384   6.163   3.446   0.923 -0.0185  0.1433 -0.3868
   16CHTO  H207 6385   6.188   3.484   1.021  1.6494 -0.3227 -0.6198
   16CHTO  H208 6386   6.066   3.398   0.921 -1.3644  2.6278  1.5236
   16CHTO   O74 6387   6.621   3.435   0.736 -0.1247  0.3319  0.0629
   16CHTO  C115 6388   6.772   3.361   0.751 -0.6216  0.2865 -0.5601
   16CHTO  H219 6389   6.764   3.253   0.740 -1.4624  0.3874 -0.9705
   16CHTO   O76 6390   6.871   3.412   0.625  0.1857 -0.1404  0.1325
   16CHTO  C122 6391   7.000   3.352   0.627 -0.0184 -0.2530  0.2189
   16CHTO  H226 6392   7.059   3.402   0.550 -0.8745 -2.5549 -1.9986
   16CHTO  C126 6393   6.971   3.202   0.569 -0.1911  0.3462  0.2147
   16CHTO   O85 6394   6.952   3.196   0.425  0.0110  0.1862  0.5020
   16CHTO  H206 6395   6.874   3.235   0.391 -0.1328 -2.1419 -2.0276
   16CHTO  C121 6396   7.073   3.361   0.763  0.7538 -0.4824 -0.6101
   16CHTO  H225 6397   7.155   3.286   0.753  0.6891 -0.8342  1.3899
   16CHTO   O81 6398   7.119   3.501   0.782 -0.3385 -0.0734 -0.4571
   16CHTO  H202 6399   7.197   3.506   0.731 -0.7701  0.2932 -1.0844
   16CHTO  C119 6400   6.979   3.319   0.878  0.6397  0.3875  0.4151
   16CHTO  H223 6401   6.973   3.211   0.869 -2.9587  0.4886  0.7763
   16CHTO  C117 6402   6.843   3.398   0.885  0.2290 -0.1064 -0.1966
   16CHTO  H221 6403   6.853   3.507   0.891 -1.8308  0.1755 -1.2095
   16CHTO   N20 6404   6.760   3.364   1.006 -0.3078  0.0565 -0.7393
   16CHTO  H209 6405   6.698   3.446   1.038 -0.9460 -0.8209  0.3161
   16CHTO  H210 6406   6.695   3.279   0.995 -0.8339  0.5334 -1.3466
   16CHTO   O80 6407   7.057   3.332   1.025  0.3513  0.0525 -0.7415
   16CHTO  C103 6408   7.111   3.204   1.104  0.1912 -0.0332 -0.0178
   16CHTO  H190 6409   7.028   3.134   1.111  0.1474 -0.2930 -2.6108
   16CHTO  C101 6410   7.243   3.137   1.049 -0.3724 -0.9474  0.6891
   16CHTO  H188 6411   7.331   3.201   1.053 -0.3636 -0.8073 -1.2057
   16CHTO   O68 6412   7.215   3.098   0.905 -0.3845 -0.9916 -0.2619
   16CHTO  H168 6413   7.275   3.031   0.879 -0.5390 -0.9115 -0.8471
   16CHTO   C99 6414   7.276   3.009   1.143  0.2681 -0.1374 -0.3837
   16CHTO  H186 6415   7.194   2.934   1.148 -0.8107  0.9254 -1.7103
   16CHTO   N17 6416   7.394   2.918   1.108  0.1492 -0.5485 -0.0845
   16CHTO  H174 6417   7.450   2.937   1.018  1.2537 -1.0234  0.4952
   16CHTO  H175 6418   7.366   2.813   1.104 -0.3181 -0.3891 -1.1883
   16CHTO   C97 6419   7.291   3.067   1.281  0.1206  1.0775 -0.2105
   16CHTO  H184 6420   7.383   3.125   1.267 -0.5274  1.8575 -1.2704
   16CHTO   O64 6421   7.177   3.146   1.322  0.5906  0.1660  0.0708
   16CHTO  C104 6422   7.143   3.260   1.242 -0.1223  0.7030  0.7008
   16CHTO  H191 6423   7.223   3.333   1.234 -0.4342  1.1000  1.2097
   16CHTO  C108 6424   7.027   3.337   1.312  0.2439 -0.2534 -0.1305
   16CHTO   O71 6425   7.063   3.399   1.440 -0.4125 -0.1294  0.3988
   16CHTO  H171 6426   6.995   3.455   1.470 -0.6300  0.1822 -0.6482
   16CHTO   O62 6427   7.299   2.965   1.387 -0.3577  0.2002 -0.6038
   16CHTO   C91 6428   7.351   3.003   1.515  0.1913  0.1749  0.0141
   16CHTO  H178 6429   7.428   3.079   1.500  1.1461 -0.7259  0.3206
   16CHTO   C92 6430   7.432   2.881   1.562  0.1769 -0.8103 -0.0132
   16CHTO  H179 6431   7.480   2.850   1.468  0.3333 -3.2392  0.8249
   16CHTO   O66 6432   7.531   2.918   1.661  0.1554 -0.3497  0.2555
   16CHTO  H166 6433   7.623   2.905   1.651  0.2992 -0.8931  2.0337
   16CHTO   C93 6434   7.335   2.768   1.629 -0.5535  0.4151 -0.0691
   16CHTO  H180 6435   7.395   2.726   1.711 -0.5921 -0.7081 -0.6073
   16CHTO   N16 6436   7.313   2.649   1.546  0.4831 -0.3455 -0.5276
   16CHTO  H172 6437   7.280   2.672   1.446  0.9931 -0.7430 -0.7899
   16CHTO  H173 6438   7.235   2.591   1.592 -0.4828  0.4658 -1.1206
   16CHTO   C94 6439   7.200   2.822   1.684  0.3405  0.0828 -0.0369
   16CHTO  H181 6440   7.124   2.817   1.605 -0.1233 -4.0033  0.5587
   16CHTO   O61 6441   7.218   2.958   1.730 -0.4440 -0.5006  0.2170
   16CHTO   C95 6442   7.244   3.054   1.622 -0.0550  0.5991  0.1156
   16CHTO  H182 6443   7.149   3.076   1.572 -0.0188  0.1326 -0.1637
   16CHTO  C106 6444   7.290   3.191   1.685  0.2484 -0.2609  0.0468
   16CHTO   O69 6445   7.311   3.282   1.572 -0.5709  0.1557 -0.2401
   16CHTO  H169 6446   7.246   3.350   1.566  0.4393  1.2927  1.4910
   16CHTO   O63 6447   7.158   2.727   1.822  0.0233  0.2277  0.2357
   16CHTO   C96 6448   7.043   2.602   1.788  1.1403  0.7083  0.4366
   16CHTO  H183 6449   7.089   2.528   1.722  0.6087 -0.1686  1.0402
   16CHTO   C98 6450   6.919   2.657   1.707 -0.3232 -0.0780 -0.5028
   16CHTO  H185 6451   6.949   2.701   1.610 -2.5398 -0.4078 -1.3645
   16CHTO   O67 6452   6.829   2.555   1.659  0.4079  0.2164 -0.5324
   16CHTO  H167 6453   6.862   2.508   1.585 -0.9465  0.4167 -1.2725
   16CHTO  C102 6454   6.843   2.757   1.794  0.0280  0.4002  0.1092
   16CHTO  H189 6455   6.752   2.776   1.735  2.0033  2.2662 -2.4737
   16CHTO   N18 6456   6.902   2.891   1.812  0.1941 -0.0683 -0.2286
   16CHTO  H176 6457   7.010   2.887   1.814  0.1378 -1.3800  0.5066
   16CHTO  H177 6458   6.875   2.964   1.737  2.2024  1.4752  0.4845
   16CHTO  C105 6459   6.804   2.687   1.929  0.1074  0.1055 -0.3415
   16CHTO  H192 6460   6.858   2.738   2.008 -1.0682  1.1739 -0.2203
   16CHTO   O65 6461   6.850   2.546   1.938 -0.0113 -0.1228  0.3774
   16CHTO  C100 6462   6.989   2.537   1.923  0.9179 -0.3298 -0.3744
   16CHTO  H187 6463   7.028   2.600   2.004  2.9866  2.3281 -3.3080
   16CHTO  C107 6464   7.037   2.387   1.941 -0.4984 -0.0725 -0.4864
   16CHTO   O70 6465   7.176   2.366   1.915 -0.4184 -0.0817  0.4947
   16CHTO  H170 6466   7.225   2.427   1.967  0.6163  1.1342 -1.8181
   16CHTO   O57 6467   6.630   2.700   1.925 -0.5835 -0.0974  0.0939
   16CHTO   C85 6468   6.569   2.819   1.955 -0.2350 -0.4516  0.8562
   16CHTO  H157 6469   6.635   2.898   1.914 -1.3817  0.6510  1.1006
   16CHTO   C83 6470   6.561   2.861   2.107  0.9737  0.0900 -0.6091
   16CHTO  H155 6471   6.664   2.880   2.136  0.8776  0.5549 -0.5788
   16CHTO   O56 6472   6.511   2.746   2.181  0.3876  0.5999 -0.2854
   16CHTO  H135 6473   6.417   2.746   2.187  0.3891  0.7394 -0.2436
   16CHTO   C81 6474   6.481   2.996   2.107 -1.0657  0.0358 -0.4406
   16CHTO  H153 6475   6.538   3.072   2.052  0.2403 -0.2904  0.4322
   16CHTO   N14 6476   6.482   3.047   2.247  0.2861 -0.0084 -0.2416
   16CHTO  H141 6477   6.437   3.144   2.250  1.4845  0.5572 -0.1917
   16CHTO  H142 6478   6.583   3.051   2.282  0.2603  0.7075 -0.2578
   16CHTO   C79 6479   6.346   2.991   2.040  0.9626  0.6340  0.0769
   16CHTO  H151 6480   6.294   3.087   2.049 -0.4715 -0.1087 -0.2981
   16CHTO   O52 6481   6.357   2.956   1.904 -0.5049  0.2621 -0.7821
   16CHTO   C86 6482   6.427   2.825   1.891 -0.2286 -0.7794 -0.1290
   16CHTO  H158 6483   6.364   2.749   1.942 -1.8831 -0.5672 -1.8095
   16CHTO   C90 6484   6.430   2.787   1.739  0.2110  0.3329  0.3907
   16CHTO   O60 6485   6.523   2.862   1.660 -0.3472  0.2912  0.4264
   16CHTO  H138 6486   6.488   2.944   1.632 -2.7435 -0.6403  0.5244
   16CHTO   O50 6487   6.256   2.894   2.105 -0.6820  0.6532  0.1506
   16CHTO   C73 6488   6.146   2.815   2.157 -0.8320  0.5456  0.0264
   16CHTO  H145 6489   6.176   2.737   2.229  1.3074  3.4528  2.3856
   16CHTO   C74 6490   6.061   2.753   2.046 -0.6402 -0.1335 -0.3371
   16CHTO  H146 6491   6.129   2.688   1.990  0.3130 -0.0442  0.6885
   16CHTO   O54 6492   5.962   2.663   2.092 -0.0501  0.0981  0.8066
   16CHTO  H133 6493   5.992   2.603   2.158  0.1654  0.5212  1.0938
   16CHTO   C75 6494   5.996   2.865   1.954 -0.4368 -0.4354 -0.1837
   16CHTO  H147 6495   6.073   2.926   1.905 -0.2719 -0.0294  0.5740
   16CHTO   N13 6496   5.919   2.819   1.837  0.3107 -0.6369 -0.7115
   16CHTO  H139 6497   5.920   2.711   1.826  0.3749 -0.6549 -0.5369
   16CHTO  H140 6498   5.959   2.850   1.742 -0.1030  0.9813 -0.3715
   16CHTO   C76 6499   5.923   2.964   2.041  0.3425 -0.3000 -0.1112
   16CHTO  H148 6500   5.837   2.907   2.076  1.4652 -1.6081  0.6023
   16CHTO   O49 6501   6.002   3.009   2.158 -0.2303  0.2874  0.1769
   16CHTO   C77 6502   6.048   2.901   2.236  0.2549 -0.0810 -0.6476
   16CHTO  H149 6503   5.977   2.838   2.291 -0.1101  1.6112  0.9019
   16CHTO   C88 6504   6.123   2.969   2.355 -0.0284 -0.1128  0.2940
   16CHTO   O58 6505   6.020   3.042   2.461 -0.0138  0.0719  0.3852
   16CHTO  H136 6506   6.029   3.006   2.547  2.7156 -2.2999 -0.8138
   16CHTO   O51 6507   5.891   3.113   1.963  0.2181 -0.5454  0.4201
   16CHTO   C78 6508   5.833   3.228   2.068  0.2272  0.5721  0.6375
   16CHTO  H150 6509   5.850   3.188   2.170  0.2927 -1.6362 -0.2160
   16CHTO   C80 6510   5.689   3.270   2.044 -0.5200  0.4909  0.3761
   16CHTO  H152 6511   5.672   3.305   1.940  0.0072 -0.4752 -0.0508
   16CHTO   O55 6512   5.613   3.151   2.055  0.0574  0.7786  0.3106
   16CHTO  H134 6513   5.650   3.072   2.022  0.8801  0.0355  2.9223
   16CHTO   C84 6514   5.643   3.383   2.142  0.2458  0.8321  0.8891
   16CHTO  H156 6515   5.650   3.345   2.244 -2.2107 -1.6671  0.2024
   16CHTO   N15 6516   5.495   3.413   2.122 -0.7883 -0.5944  0.2457
   16CHTO  H143 6517   5.479   3.516   2.145 -0.4046 -1.0069  2.4759
   16CHTO  H144 6518   5.470   3.395   2.019 -0.1418 -1.2658  0.2000
   16CHTO   C87 6519   5.731   3.504   2.129 -0.0774 -0.0348  0.1882
   16CHTO  H159 6520   5.716   3.565   2.040 -3.0748 -0.2799  0.4760
   16CHTO   O53 6521   5.882   3.470   2.123  0.3751 -0.0274  0.6298
   16CHTO   C82 6522   5.919   3.355   2.046 -0.4620 -0.0131  0.6736
   16CHTO  H154 6523   5.906   3.386   1.943 -0.8483  0.5277  0.8815
   16CHTO   C89 6524   6.067   3.325   2.074  0.0017 -0.1221 -0.2279
   16CHTO   O59 6525   6.145   3.430   2.024  0.0099  0.1304 -0.0419
   16CHTO  H137 6526   6.196   3.410   1.949 -0.6418 -2.1024  0.0708
   16CHTO   O45 6527   5.687   3.619   2.253  0.1714 -0.6543 -0.4918
   16CHTO   C67 6528   5.787   3.711   2.286 -0.1046  0.1970 -0.5367
   16CHTO  H124 6529   5.873   3.698   2.220  0.7098  1.1780  0.3040
   16CHTO   C65 6530   5.743   3.866   2.268 -0.2898  0.6147 -0.4871
   16CHTO  H122 6531   5.643   3.872   2.310 -0.1808  0.9906 -0.2826
   16CHTO   O44 6532   5.749   3.897   2.126  0.6074  0.4002 -0.4519
   16CHTO  H102 6533   5.835   3.875   2.096  0.7169 -1.1740  0.9004
   16CHTO   C63 6534   5.817   3.964   2.363  0.1989 -0.6086 -0.3668
   16CHTO  H120 6535   5.770   3.967   2.462  0.9092  0.2606 -0.0390
   16CHTO   N11 6536   5.806   4.109   2.324  0.2651  0.3248  0.4287
   16CHTO  H108 6537   5.904   4.153   2.319  0.5326 -0.4729 -2.3164
   16CHTO  H109 6538   5.769   4.124   2.225 -0.7746 -0.4296  0.6979
   16CHTO   C61 6539   5.961   3.910   2.390 -0.1256  0.2011 -0.5092
   16CHTO  H118 6540   6.006   3.969   2.472  1.0924 -1.7366  0.2685
   16CHTO   O40 6541   5.955   3.775   2.441  0.2550  0.2693  0.3943
   16CHTO   C68 6542   5.841   3.694   2.430 -0.1410  0.5110  0.2654
   16CHTO  H125 6543   5.773   3.739   2.506 -0.7443  0.3623 -0.1836
   16CHTO   C72 6544   5.882   3.548   2.473  0.0077  0.6511 -0.5487
   16CHTO   O48 6545   5.782   3.446   2.455  0.3212  0.1295  0.0906
   16CHTO  H105 6546   5.752   3.433   2.367 -1.7443 -1.4357  0.9895
   16CHTO   O38 6547   6.051   3.898   2.273 -0.6437  0.4414  0.2125
   16CHTO   C55 6548   6.195   3.903   2.309 -0.5984 -0.4947 -0.8847
   16CHTO  H112 6549   6.211   3.869   2.413 -0.3187  2.9762  0.2791
   16CHTO   C56 6550   6.248   4.044   2.291 -0.3369 -0.2906 -0.7134
   16CHTO  H113 6551   6.214   4.079   2.192  2.8854 -1.9559 -2.4889
   16CHTO   O42 6552   6.193   4.133   2.389 -0.0680 -0.5342 -0.4967
   16CHTO  H100 6553   6.210   4.106   2.477  1.9415 -0.7719 -0.9216
   16CHTO   C57 6554   6.408   4.049   2.291  0.4018  0.4149 -0.1372
   16CHTO  H114 6555   6.429   4.016   2.393  0.2452  1.3210  0.1920
   16CHTO   N10 6556   6.467   4.183   2.269  0.5091 -0.3330 -0.2186
   16CHTO  H106 6557   6.518   4.204   2.363  0.0549 -2.9358  0.6527
   16CHTO  H107 6558   6.544   4.190   2.193  1.7452 -1.2151  0.9264
   16CHTO   C58 6559   6.457   3.941   2.188  0.7091  0.3461 -0.8587
   16CHTO  H115 6560   6.412   3.957   2.088 -3.2479  0.0843  0.7892
   16CHTO   O37 6561   6.409   3.817   2.240  0.2843 -0.0733  0.2433
   16CHTO   C59 6562   6.272   3.799   2.225  0.1620  0.2749 -0.5301
   16CHTO  H116 6563   6.236   3.796   2.122 -1.1142 -2.0116 -0.0593
   16CHTO   C70 6564   6.242   3.654   2.277 -0.0770  0.5680 -0.6725
   16CHTO   O46 6565   6.346   3.568   2.237  0.2574 -0.1292 -0.4565
   16CHTO  H103 6566   6.418   3.564   2.297  0.5484 -3.1178 -0.9062
   16CHTO   O39 6567   6.618   3.942   2.183  0.4531 -0.4193 -0.1319
   16CHTO   C60 6568   6.679   3.849   2.086 -0.4015  0.1251  0.1885
   16CHTO  H117 6569   6.611   3.802   2.016  1.0797  0.4957 -1.5510
   16CHTO   C62 6570   6.776   3.926   1.988 -0.1135  0.4223  0.0896
   16CHTO  H119 6571   6.717   4.012   1.950 -0.2642  0.4268  0.3343
   16CHTO   O43 6572   6.884   3.980   2.061 -0.2536  0.5929 -0.1188
   16CHTO  H101 6573   6.915   4.050   2.007  0.8640  0.4094  0.2589
   16CHTO   C66 6574   6.829   3.829   1.872 -0.4376  0.4007 -0.3566
   16CHTO  H123 6575   6.740   3.775   1.838  0.4029 -0.8290 -0.6349
   16CHTO   N12 6576   6.885   3.884   1.749 -0.1699  0.8500 -0.1358
   16CHTO  H110 6577   6.927   3.802   1.693  0.4142  1.2548 -0.2998
   16CHTO  H111 6578   6.958   3.959   1.773  0.3593  0.5254 -0.7330
   16CHTO   C69 6579   6.919   3.722   1.938 -0.3388  0.6508  0.4834
   16CHTO  H126 6580   7.003   3.773   1.990 -0.0546  1.3876 -0.6731
   16CHTO   O41 6581   6.826   3.646   2.041 -0.0744  0.5962  0.5563
   16CHTO   C64 6582   6.763   3.733   2.154 -0.0607 -0.2703 -0.4560
   16CHTO  H121 6583   6.838   3.773   2.225  0.0650 -1.3059  0.0028
   16CHTO   C71 6584   6.678   3.642   2.245  0.0170 -0.4106  0.2293
   16CHTO   O47 6585   6.767   3.537   2.294  0.1254 -0.5729 -0.0258
   16CHTO  H104 6586   6.744   3.452   2.260  1.1058 -1.2806  1.0468
   16CHTO   O34 6587   6.969   3.605   1.841  0.1468  0.0977 -0.6513
   16CHTO   C49 6588   7.057   3.487   1.880  0.0626 -1.3392  0.1601
   16CHTO   H91 6589   7.145   3.501   1.816  0.0450 -1.9954 -0.0168
   16CHTO   C47 6590   6.989   3.355   1.846 -0.4776  0.1441  0.4943
   16CHTO   H89 6591   7.069   3.282   1.869 -0.0539  0.4553 -0.0035
   16CHTO   O33 6592   6.959   3.348   1.703 -1.0586  0.3765  0.2327
   16CHTO   H70 6593   6.899   3.418   1.684 -0.8851  0.2435 -0.8336
   16CHTO   C45 6594   6.867   3.337   1.952 -0.0503  0.1717  0.1626
   16CHTO   H87 6595   6.804   3.427   1.954  1.5389  1.3619 -1.7537
   16CHTO    N8 6596   6.781   3.224   1.921  0.6255  0.1990 -0.3941
   16CHTO   H75 6597   6.741   3.231   1.820  2.0383  1.6641 -0.8742
   16CHTO   H76 6598   6.831   3.130   1.932 -0.5475 -0.3088  0.7177
   16CHTO   C43 6599   6.938   3.316   2.096 -0.1609 -0.3193 -0.3987
   16CHTO   H85 6600   6.859   3.305   2.170  1.1257 -0.3210  0.9930
   16CHTO   O29 6601   7.013   3.441   2.118 -1.0212 -0.4577  0.7287
   16CHTO   C50 6602   7.114   3.489   2.026  0.2389  0.1180  0.8336
   16CHTO   H92 6603   7.156   3.589   2.044  1.2220 -0.5965  2.6718
   16CHTO   C54 6604   7.244   3.408   2.056  0.1248  0.5692 -0.1241
   16CHTO   O36 6605   7.353   3.457   1.976  1.1694  0.0823  0.6513
   16CHTO   H72 6606   7.346   3.494   1.890 -3.4048 -0.2885  0.7232
   16CHTO   O27 6607   7.028   3.201   2.100  0.1885 -0.4382 -0.3926
   16CHTO   C37 6608   7.064   3.097   2.194  0.1015  0.1016  0.5043
   16CHTO   H79 6609   7.123   3.137   2.278  1.2767  0.7669 -0.6168
   16CHTO   C38 6610   6.940   3.036   2.264 -0.4614  0.0183 -0.9489
   16CHTO   H80 6611   6.874   2.998   2.185  0.1535  0.2710 -1.5958
   16CHTO   O31 6612   6.871   3.139   2.336  0.0006 -0.0895 -0.2765
   16CHTO   H68 6613   6.792   3.105   2.371 -0.8593  0.5248 -1.5860
   16CHTO   C39 6614   6.979   2.916   2.365  0.0690  0.0600 -0.1570
   16CHTO   H81 6615   7.009   2.962   2.460  3.5088  1.1670 -1.7316
   16CHTO    N7 6616   6.854   2.836   2.391 -0.4350 -0.3580  0.3362
   16CHTO   H73 6617   6.782   2.868   2.316 -0.8549  0.0595  0.9099
   16CHTO   H74 6618   6.811   2.874   2.482  0.9862  0.5787  0.6241
   16CHTO   C40 6619   7.087   2.816   2.307  0.2179 -0.2890 -0.0543
   16CHTO   H82 6620   7.041   2.736   2.249 -1.4858  2.4769 -2.6479
   16CHTO   O26 6621   7.188   2.888   2.221  0.2491  0.1631 -0.2949
   16CHTO   C41 6622   7.149   2.992   2.120  0.0553 -0.0288 -0.2773
   16CHTO   H83 6623   7.094   2.934   2.045 -1.4957  0.0860  0.7657
   16CHTO   C52 6624   7.278   3.056   2.061 -0.3687  0.2933  0.1283
   16CHTO   O35 6625   7.358   2.954   1.989  0.5465 -0.2559 -0.0364
   16CHTO   H71 6626   7.340   2.955   1.897 -2.0584 -0.7394  0.4256
   16CHTO   O28 6627   7.168   2.779   2.417  0.2742 -0.3423 -0.1358
   16CHTO   C42 6628   7.197   2.635   2.447  0.5803  0.0366 -0.1620
   16CHTO   H84 6629   7.297   2.638   2.491  0.0707 -1.6187  1.1269
   16CHTO   C44 6630   7.214   2.535   2.325 -1.0335  0.0678 -0.1830
   16CHTO   H86 6631   7.129   2.547   2.257 -0.9333 -1.6351 -0.6320
   16CHTO   O32 6632   7.330   2.588   2.257  0.1671 -0.8088  0.1717
   16CHTO   H69 6633   7.380   2.520   2.216  0.5386 -0.4581  0.0356
   16CHTO   C48 6634   7.227   2.382   2.361  0.5586  0.1396 -0.4972
   16CHTO   H90 6635   7.312   2.373   2.429 -0.4033 -1.1751  0.5450
   16CHTO    N9 6636   7.244   2.292   2.244 -0.3993 -0.8509 -0.0262
   16CHTO   H77 6637   7.340   2.302   2.197 -0.6232 -0.1902 -0.3545
   16CHTO   H78 6638   7.170   2.299   2.165 -1.2843 -0.6102  0.8079
   16CHTO   C51 6639   7.111   2.341   2.454  0.3710  0.0795  0.3119
   16CHTO   H93 6640   7.013   2.347   2.405 -0.0481  0.9839  1.2461
   16CHTO   O30 6641   7.119   2.427   2.570 -0.2098 -0.2645 -0.0081
   16CHTO   C46 6642   7.097   2.577   2.550 -0.1726 -0.8671  0.2263
   16CHTO   H88 6643   6.999   2.583   2.501  0.0376  0.5494 -0.0242
   16CHTO   C53 6644   7.103   2.653   2.686  0.5580 -0.2447  0.3166
   16CHTO   O72 6645   7.019   2.777   2.690 -0.5295  0.1187  0.0120
   16CHTO  H199 6646   6.958   2.777   2.618  0.2786  0.4891 -0.6908
   16CHTO   O22 6647   7.130   2.205   2.507 -0.4799 -0.6331 -0.2664
   16CHTO   C31 6648   7.024   2.132   2.575  0.4903 -0.3296  0.6551
   16CHTO   H59 6649   7.064   2.032   2.601  0.9573 -0.7293 -1.4832
   16CHTO   C29 6650   6.974   2.190   2.709 -0.6134  0.9832  0.3334
   16CHTO   H57 6651   6.926   2.288   2.691  1.1576  1.9124  0.5427
   16CHTO   O21 6652   7.079   2.211   2.800 -0.2374 -0.0368 -0.9604
   16CHTO   H37 6653   7.038   2.243   2.879 -0.9875  0.8167 -1.6827
   16CHTO   C27 6654   6.863   2.089   2.767  0.0642 -0.0700  0.2671
   16CHTO   H55 6655   6.911   1.993   2.788  2.4804  0.1321 -3.7947
   16CHTO    N5 6656   6.795   2.148   2.888 -0.8472  1.2340  0.5589
   16CHTO   H43 6657   6.847   2.115   2.977 -1.1211  1.3808  0.7745
   16CHTO   H44 6658   6.783   2.255   2.880  3.9558  2.0285  2.2338
   16CHTO   C25 6659   6.756   2.048   2.656  0.3128  0.1360  0.3507
   16CHTO   H53 6660   6.696   2.138   2.639  0.7026 -0.2424 -3.3747
   16CHTO   O17 6661   6.821   2.012   2.534 -0.3534 -0.0980 -0.1494
   16CHTO   C32 6662   6.903   2.114   2.482 -0.5344  0.4815 -0.0481
   16CHTO   H60 6663   6.852   2.208   2.464  0.2559  1.1032  0.9566
   16CHTO   C36 6664   6.942   2.051   2.338  0.6380 -1.2507 -0.0549
   16CHTO   O25 6665   6.836   2.037   2.244 -0.4159 -0.4166 -0.0093
   16CHTO   H40 6666   6.877   2.004   2.166  0.6850  0.3004  0.2388
   16CHTO   O15 6667   6.666   1.927   2.694  0.6956 -0.3054  0.3938
   16CHTO   C19 6668   6.521   1.930   2.712 -0.0112  0.3016 -0.5135
   16CHTO   H47 6669   6.499   2.026   2.761 -2.5261 -1.3915  1.8003
   16CHTO   C20 6670   6.448   1.918   2.576  0.2687  0.5230  0.7356
   16CHTO   H48 6671   6.483   1.833   2.515  1.3839  0.5936  1.2640
   16CHTO   O19 6672   6.475   2.039   2.504 -0.8144 -0.0338 -0.6850
   16CHTO   H35 6673   6.407   2.104   2.510  1.3460  2.1929  0.5680
   16CHTO   C21 6674   6.290   1.905   2.591  0.0433 -0.0125  0.2002
   16CHTO   H49 6675   6.258   1.997   2.640 -0.7055 -0.6827  0.9806
   16CHTO    N4 6676   6.217   1.873   2.463  0.3143  0.5656 -0.8427
   16CHTO   H41 6677   6.193   1.770   2.443  0.7815  0.2764  0.0768
   16CHTO   H42 6678   6.124   1.929   2.468 -0.2763 -0.3990 -0.7909
   16CHTO   C22 6679   6.256   1.804   2.705 -1.2718 -0.0179 -0.1661
   16CHTO   H50 6680   6.280   1.703   2.672 -3.8141 -0.4642 -0.7676
   16CHTO   O14 6681   6.325   1.837   2.832 -0.0827  0.2019  0.0717
   16CHTO   C23 6682   6.468   1.821   2.812 -0.1250 -0.2507  0.1018
   16CHTO   H51 6683   6.490   1.717   2.781 -1.4539 -1.3503  2.6300
   16CHTO   C34 6684   6.535   1.834   2.952  0.7667 -0.7791 -0.2307
   16CHTO   O23 6685   6.515   1.962   3.005 -0.2800 -0.0615 -0.1498
   16CHTO   H38 6686   6.522   2.032   2.943 -0.5569 -2.0140 -2.4760
   16CHTO   O16 6687   6.116   1.819   2.737  0.4454 -0.2360 -0.6569
   16CHTO   C24 6688   6.050   1.712   2.811  0.2731  0.2450  0.2821
   16CHTO   H52 6689   6.119   1.628   2.827  1.0346  0.2971 -2.4667
   16CHTO   C26 6690   5.928   1.668   2.723  0.1596  0.0838  0.3269
   16CHTO   H54 6691   5.867   1.756   2.694 -1.0428 -0.5532  0.8751
   16CHTO   O20 6692   5.972   1.605   2.599 -0.9616  0.3817 -0.1383
   16CHTO   H36 6693   5.896   1.563   2.563 -0.9575 -1.1929  1.5879
   16CHTO   C30 6694   5.843   1.562   2.804 -0.1228 -0.4904 -0.0351
   16CHTO   H58 6695   5.902   1.472   2.826  2.4136  1.4767  1.5220
   16CHTO    N6 6696   5.723   1.516   2.730 -0.7785  0.4819 -0.0227
   16CHTO   H45 6697   5.669   1.450   2.795  0.7200  0.6152  1.3940
   16CHTO   H46 6698   5.659   1.597   2.696 -0.8700  0.9474  1.2270
   16CHTO   C33 6699   5.819   1.610   2.950  0.3152 -0.1368  0.3603
   16CHTO   H61 6700   5.749   1.695   2.952  2.3298  1.5898 -0.6424
   16CHTO   O18 6701   5.942   1.650   3.008  0.9601 -0.3477 -0.2587
   16CHTO   C28 6702   6.007   1.759   2.954 -0.6558 -0.2646 -0.5034
   16CHTO   H56 6703   5.939   1.844   2.941 -1.1641 -1.0668 -3.4691
   16CHTO   C35 6704   6.118   1.789   3.054  0.4387 -0.6167  0.2951
   16CHTO   O24 6705   6.218   1.693   3.080  0.3195 -0.0466  0.5021
   16CHTO   H39 6706   6.180   1.607   3.085 -1.1478  0.5413 -0.3500
   16CHTO    O9 6707   5.761   1.504   3.031 -0.6691 -0.5967 -0.0219
   16CHTO   C13 6708   5.658   1.567   3.153 -0.3107  0.2350 -0.0145
   16CHTO   H26 6709   5.584   1.639   3.113 -0.5756 -0.6263 -1.1146
   16CHTO   C11 6710   5.759   1.627   3.262 -0.3992 -1.3774 -0.2152
   16CHTO   H24 6711   5.807   1.722   3.232  0.4871 -1.6667  0.2623
   16CHTO    O8 6712   5.866   1.532   3.282  0.9485  0.3006  0.6516
   16CHTO    H3 6713   5.831   1.457   3.326  1.0786 -0.3148 -0.3094
   16CHTO    C9 6714   5.677   1.650   3.389  0.4188  0.4068 -0.5750
   16CHTO   H22 6715   5.591   1.712   3.358 -2.3149 -2.8015  0.3530
   16CHTO    N2 6716   5.754   1.738   3.483  0.1234  0.0318 -0.3387
   16CHTO   H10 6717   5.847   1.687   3.503 -0.1680 -0.1851  0.4626
   16CHTO   H11 6718   5.699   1.739   3.575 -1.4174 -3.2196 -1.1457
   16CHTO    C7 6719   5.622   1.514   3.451  0.4136 -0.4825 -0.1080
   16CHTO   H20 6720   5.561   1.554   3.535  2.0725  0.3461  0.7254
   16CHTO    O4 6721   5.549   1.435   3.352 -0.3271  0.5140  0.0075
   16CHTO   C14 6722   5.574   1.436   3.209 -0.1739 -0.0224  0.4200
   16CHTO   H27 6723   5.475   1.440   3.159 -1.0191  2.4422  2.2192
   16CHTO   C18 6724   5.637   1.306   3.172  1.1029  0.2124  0.4284
   16CHTO   O13 6725   5.612   1.256   3.045 -0.0617  0.2400  0.5313
   16CHTO    H7 6726   5.532   1.292   3.011 -0.4334  0.2710  1.4154
   16CHTO    O2 6727   5.726   1.416   3.527  0.5743  0.1038 -0.2608
   16CHTO    C1 6728   5.659   1.307   3.593  0.1194 -0.2159  0.7056
   16CHTO   H14 6729   5.577   1.274   3.526  0.2708  1.8558 -0.5155
   16CHTO    C2 6730   5.598   1.350   3.732 -0.4442 -0.4072 -0.5252
   16CHTO   H15 6731   5.671   1.412   3.786 -2.7496  0.9990  1.0618
   16CHTO    O6 6732   5.489   1.440   3.701 -0.4531  0.5910  0.8396
   16CHTO    H1 6733   5.408   1.409   3.737 -0.8072  1.1843  0.5590
   16CHTO    C3 6734   5.553   1.218   3.818  0.6134 -0.0243 -0.1265
   16CHTO   H16 6735   5.455   1.181   3.784  2.2933 -3.1645 -1.7367
   16CHTO    N1 6736   5.523   1.264   3.960  0.2220  0.1931 -0.4392
   16CHTO    H8 6737   5.477   1.188   4.022  0.0422  0.8186  0.2114
   16CHTO    H9 6738   5.595   1.332   4.003 -1.2209  1.1972  0.4763
   16CHTO    C4 6739   5.655   1.098   3.805  0.4723 -0.3470 -0.0582
   16CHTO   H17 6740   5.742   1.116   3.868 -0.4911  0.4491  1.0487
   16CHTO    O1 6741   5.686   1.077   3.671 -0.0793  0.2448 -0.0384
   16CHTO    C5 6742   5.759   1.189   3.612 -0.1721 -0.0230 -0.4145
   16CHTO   H18 6743   5.841   1.232   3.670 -2.8316  2.1310  1.9157
   16CHTO   C16 6744   5.816   1.161   3.473  0.3404  0.1287 -0.0909
   16CHTO   O11 6745   5.923   1.070   3.467  0.1509  0.0977  0.1293
   16CHTO    H5 6746   5.956   1.060   3.380 -1.2647  0.7286 -0.4981
   16CHTO    O3 6747   5.596   0.977   3.849 -0.2944  0.4806  0.3795
   16CHTO    C6 6748   5.680   0.867   3.897  0.4424 -0.1846  0.5358
   16CHTO   H19 6749   5.637   0.769   3.877 -0.1555  0.1005  0.4095
   16CHTO    C8 6750   5.819   0.856   3.831  0.2288  0.1499 -0.4890
   16CHTO   H21 6751   5.874   0.950   3.843  0.2543  0.2875 -1.6298
   16CHTO    O7 6752   5.791   0.849   3.693 -0.1446  0.1710  0.1098
   16CHTO    H2 6753   5.858   0.799   3.650 -1.1828 -1.6829  0.6104
   16CHTO   C12 6754   5.896   0.737   3.903 -0.4443  0.8227 -0.3828
   16CHTO   H25 6755   5.840   0.645   3.877  2.4592 -1.9245  2.6390
   16CHTO    N3 6756   6.038   0.727   3.854  0.0455  0.1586 -0.4338
   16CHTO   H12 6757   6.063   0.635   3.804  1.7972  0.1472  0.4008
   16CHTO   H13 6758   6.076   0.821   3.818 -0.7678  0.4776 -0.4727
   16CHTO   C15 6759   5.886   0.760   4.061  0.4616  0.0775 -0.5002
   16CHTO   H28 6760   5.935   0.850   4.097  0.4890  0.1271 -0.6593
   16CHTO   O10 6761   5.949   0.648   4.155  0.4093  0.0002 -0.0866
   16CHTO    H4 6762   5.923   0.670   4.242  1.9877  0.6153  0.2617
   16CHTO    O5 6763   5.752   0.764   4.106  0.0318 -0.5055 -0.0305
   16CHTO   C10 6764   5.688   0.874   4.050  0.7965 -0.1762 -0.2095
   16CHTO   H23 6765   5.733   0.966   4.086  1.3759 -0.2894 -0.6375
   16CHTO   C17 6766   5.556   0.877   4.121  0.3544 -0.0638  0.1037
   16CHTO   O12 6767   5.546   0.893   4.265  0.6220  0.6272  0.9901
   16CHTO    H6 6768   5.454   0.887   4.284  0.2851 -0.4817 -0.9148
   17CHTO  H203 6769   6.374   3.951  -0.222  0.0384  0.7897 -1.1562
   17CHTO   O82 6770   6.384   4.029  -0.170 -0.5248  0.0494  0.0906
   17CHTO  C123 6771   6.257   4.089  -0.152 -0.1896  0.0662 -0.5552
   17CHTO  H227 6772   6.200   4.031  -0.077  1.1875 -1.7954 -0.9083
   17CHTO   O77 6773   6.289   4.219  -0.094 -0.5109  0.4246  0.1864
   17CHTO  C118 6774   6.166   4.292  -0.070 -0.2513  0.8957 -0.3513
   17CHTO  H222 6775   6.097   4.242  -0.001 -0.0590  0.3385 -0.5586
   17CHTO  C125 6776   6.205   4.429  -0.012 -0.1163  0.3998 -0.3162
   17CHTO   O84 6777   6.248   4.410   0.123  0.4258 -0.0427  0.0094
   17CHTO  H205 6778   6.171   4.384   0.169 -0.8023 -2.2129 -3.1870
   17CHTO  C114 6779   6.108   4.330  -0.205 -0.0294  0.4591  0.0693
   17CHTO  H218 6780   6.185   4.383  -0.260  0.6657  0.4830  1.0555
   17CHTO  C116 6781   6.072   4.205  -0.283  0.4662 -0.4597 -1.1957
   17CHTO  H220 6782   5.984   4.158  -0.233  0.3419  0.9760 -0.0272
   17CHTO   O79 6783   6.024   4.244  -0.417  0.3463 -0.9750  0.4001
   17CHTO  H201 6784   6.004   4.335  -0.412 -0.0985 -1.1200  1.4702
   17CHTO  C120 6785   6.182   4.100  -0.283 -0.1502 -0.0172  0.1997
   17CHTO  H224 6786   6.254   4.144  -0.356 -1.2167  0.3879 -0.6239
   17CHTO   N21 6787   6.147   3.970  -0.333  0.5937 -0.1325 -0.2741
   17CHTO  H211 6788   6.079   3.979  -0.417 -1.5930  0.6070  1.5216
   17CHTO  H212 6789   6.103   3.912  -0.253  0.5542  1.2308  0.7010
   17CHTO   O75 6790   5.987   4.412  -0.180 -0.7755  0.1508 -0.1885
   17CHTO  C112 6791   5.953   4.525  -0.285 -0.9667 -0.3857 -0.2845
   17CHTO  H216 6792   5.900   4.479  -0.369  0.9171 -2.5657 -0.3215
   17CHTO   O73 6793   6.075   4.587  -0.320  0.3891  0.7573 -0.2547
   17CHTO  C113 6794   6.060   4.688  -0.417  0.1345  0.3627  0.1467
   17CHTO  H217 6795   6.017   4.638  -0.507 -1.5101  0.2496  0.9764
   17CHTO  C124 6796   6.198   4.722  -0.475 -0.3958 -0.2237  0.5214
   17CHTO   O83 6797   6.277   4.610  -0.514 -0.0111  0.5041 -0.3715
   17CHTO  H204 6798   6.227   4.531  -0.512 -0.1011  0.5501 -0.6507
   17CHTO  C109 6799   5.988   4.816  -0.361  0.5101 -0.5110 -0.4815
   17CHTO  H213 6800   6.051   4.844  -0.276  0.4379  0.3439 -0.7089
   17CHTO  C110 6801   5.854   4.766  -0.301  0.2815 -0.1281  1.0358
   17CHTO  H214 6802   5.784   4.759  -0.385  0.4544 -0.8912  0.9530
   17CHTO   O78 6803   5.809   4.872  -0.223  0.2122 -0.1019 -0.1186
   17CHTO  H200 6804   5.719   4.855  -0.204  0.2823  2.0085  2.4405
   17CHTO  C111 6805   5.857   4.628  -0.217 -0.5874  0.3326  0.3269
   17CHTO  H215 6806   5.894   4.643  -0.115  0.4338 -2.9149  0.4862
   17CHTO   N19 6807   5.723   4.573  -0.205  0.3567  1.0295  0.8347
   17CHTO  H207 6808   5.684   4.543  -0.301 -1.0830 -0.2922  1.8022
   17CHTO  H208 6809   5.713   4.515  -0.114  0.8272  0.3579  0.4606
   17CHTO   O74 6810   5.981   4.933  -0.449  0.0263  0.1892 -0.4587
   17CHTO  C115 6811   6.066   5.077  -0.401 -0.1759 -0.5728  0.4155
   17CHTO  H219 6812   6.061   5.092  -0.293 -1.9696 -0.0820  0.2732
   17CHTO   O76 6813   6.244   5.071  -0.442  0.0593 -0.1063  0.2799
   17CHTO  C122 6814   6.271   5.092  -0.578  0.2095 -0.2312 -0.0521
   17CHTO  H226 6815   6.225   5.007  -0.627  0.4820  0.5363 -1.6874
   17CHTO  C126 6816   6.430   5.070  -0.589 -0.0477 -0.3452  0.1886
   17CHTO   O85 6817   6.499   5.167  -0.510 -0.4156 -0.6226  0.0637
   17CHTO  H206 6818   6.586   5.176  -0.544 -0.4293  0.2750  0.2468
   17CHTO  C121 6819   6.210   5.235  -0.623 -0.8478  0.3385 -0.9752
   17CHTO  H225 6820   6.296   5.304  -0.637 -2.0619  1.8906 -0.9422
   17CHTO   O81 6821   6.151   5.221  -0.749  0.4710  0.3848 -0.3256
   17CHTO  H202 6822   6.215   5.208  -0.816  2.3454  1.4344  1.2185
   17CHTO  C119 6823   6.109   5.303  -0.521 -0.7739  0.6756  0.7815
   17CHTO  H223 6824   6.170   5.318  -0.432  1.1214 -0.1302 -0.3598
   17CHTO  C117 6825   5.999   5.199  -0.474 -0.0800 -0.0655  0.5040
   17CHTO  H221 6826   5.941   5.154  -0.554  1.2741  0.2686 -0.6767
   17CHTO   N20 6827   5.902   5.263  -0.375 -0.0701 -0.4551 -0.1458
   17CHTO  H209 6828   5.825   5.198  -0.337  0.0463  0.2066  1.2617
   17CHTO  H210 6829   5.850   5.337  -0.434 -0.5146 -2.0363 -1.7689
   17CHTO   O80 6830   6.070   5.447  -0.565  0.1872  0.1552 -0.4466
   17CHTO  C103 6831   6.160   5.571  -0.540 -0.2027  0.4970 -0.2711
   17CHTO  H190 6832   6.258   5.545  -0.500 -1.0050 -2.7217 -0.2885
   17CHTO  C101 6833   6.184   5.659  -0.667 -0.1909  0.6796  0.0283
   17CHTO  H188 6834   6.088   5.702  -0.697  0.5918  1.7841 -0.9085
   17CHTO   O68 6835   6.233   5.591  -0.787  0.9662  0.3101 -0.4645
   17CHTO  H168 6836   6.218   5.499  -0.776  1.3351  0.1607 -1.1894
   17CHTO   C99 6837   6.283   5.776  -0.617  0.0116  0.3751 -0.1934
   17CHTO  H186 6838   6.375   5.729  -0.574  0.5737  0.4002 -1.3425
   17CHTO   N17 6839   6.326   5.881  -0.727  0.3290 -0.4348  0.0429
   17CHTO  H174 6840   6.367   5.973  -0.687 -0.3241 -0.3563  0.5509
   17CHTO  H175 6841   6.258   5.904  -0.808 -0.7208  0.6701  1.2088
   17CHTO   C97 6842   6.207   5.853  -0.504 -0.4569 -0.3386 -0.5547
   17CHTO  H184 6843   6.123   5.913  -0.541 -0.6538 -0.2445  0.0458
   17CHTO   O64 6844   6.171   5.768  -0.397  0.1304  0.3368 -0.0481
   17CHTO  C104 6845   6.088   5.654  -0.432  0.6680 -0.1776 -0.1888
   17CHTO  H191 6846   5.992   5.681  -0.475  0.0742 -1.7756  0.0782
   17CHTO  C108 6847   6.060   5.578  -0.298  0.2327  0.6035  0.2433
   17CHTO   O71 6848   5.968   5.649  -0.216  0.4853 -0.0948  0.8411
   17CHTO  H171 6849   5.912   5.592  -0.169 -0.9903  0.1672 -0.5575
   17CHTO   O62 6850   6.294   5.947  -0.433  0.5294  0.3760 -0.2759
   17CHTO   C91 6851   6.227   6.059  -0.366 -0.5098 -0.6451  0.0693
   17CHTO  H178 6852   6.136   6.081  -0.422 -0.3976 -2.7428 -0.9947
   17CHTO   C92 6853   6.310   6.190  -0.376  0.6681 -0.0888 -0.5809
   17CHTO  H179 6854   6.354   6.203  -0.476 -1.5897 -2.7950 -2.0029
   17CHTO   O66 6855   6.230   6.310  -0.354  0.3967  0.2366  0.0205
   17CHTO  H166 6856   6.162   6.304  -0.290 -1.9811  2.3712 -2.1538
   17CHTO   C93 6857   6.431   6.197  -0.281 -0.2997  0.5831 -0.7060
   17CHTO  H180 6858   6.463   6.302  -0.274 -0.3612  0.5585 -0.0334
   17CHTO   N16 6859   6.554   6.118  -0.313  0.1686  0.1344  0.8256
   17CHTO  H172 6860   6.634   6.155  -0.250  1.1982 -0.2415 -0.2320
   17CHTO  H173 6861   6.544   6.015  -0.284 -3.1300  0.7903  2.2277
   17CHTO   C94 6862   6.384   6.150  -0.126 -0.2771 -0.2997  0.1960
   17CHTO  H181 6863   6.429   6.057  -0.093 -1.2884  0.1852  3.0889
   17CHTO   O61 6864   6.241   6.130  -0.123  0.3433 -0.3405 -0.3334
   17CHTO   C95 6865   6.190   6.039  -0.216 -0.6491  0.6325 -1.1971
   17CHTO  H182 6866   6.213   5.938  -0.183  1.4968  2.2146  2.3016
   17CHTO  C106 6867   6.035   6.027  -0.200  0.5419  0.5932 -0.1012
   17CHTO   O69 6868   5.996   5.988  -0.069  0.2119  0.1758  0.2782
   17CHTO  H169 6869   6.017   5.897  -0.058  1.9692  0.4439 -0.6349
   17CHTO   O63 6870   6.438   6.265  -0.027  0.5953  0.1043  0.6636
   17CHTO   C96 6871   6.320   6.342   0.068 -0.4978 -0.2215 -0.1706
   17CHTO  H183 6872   6.236   6.271   0.066  3.0930 -4.6883 -1.1995
   17CHTO   C98 6873   6.272   6.483   0.017  0.1286  0.1218  0.1120
   17CHTO  H185 6874   6.360   6.546  -0.000  1.5714 -1.9454 -0.3042
   17CHTO   O67 6875   6.210   6.466  -0.111  0.0556 -0.1984 -0.3112
   17CHTO  H167 6876   6.238   6.532  -0.172  0.0286  1.0521  0.9884
   17CHTO  C102 6877   6.177   6.550   0.129 -0.0058  0.6177  0.1314
   17CHTO  H189 6878   6.089   6.485   0.142  0.4739  0.0674  0.6825
   17CHTO   N18 6879   6.125   6.682   0.084 -0.4301  0.6873 -0.1588
   17CHTO  H176 6880   6.026   6.686   0.127 -1.1684  2.3158 -1.9242
   17CHTO  H177 6881   6.101   6.669  -0.021  0.7368 -1.0559 -0.2297
   17CHTO  C105 6882   6.250   6.551   0.264 -0.3041 -0.1155 -0.4896
   17CHTO  H192 6883   6.341   6.611   0.255  0.7063 -1.3688  0.9250
   17CHTO   O65 6884   6.285   6.414   0.305  0.1103 -0.1500  0.3512
   17CHTO  C100 6885   6.378   6.350   0.215 -0.1422 -0.4538 -0.1989
   17CHTO  H187 6886   6.467   6.414   0.219  0.5421 -1.3646 -0.7570
   17CHTO  C107 6887   6.426   6.221   0.270  0.1378  0.5831 -0.0139
   17CHTO   O70 6888   6.332   6.123   0.293  0.0227  0.1135  0.1760
   17CHTO  H170 6889   6.302   6.086   0.212 -2.2826  1.4132  0.3871
   17CHTO   O57 6890   6.171   6.583   0.373 -0.3705  0.2009 -0.6676
   17CHTO   C85 6891   6.217   6.680   0.466 -0.1991  1.0391  0.0785
   17CHTO  H157 6892   6.270   6.757   0.406  0.3121  0.2977 -0.4344
   17CHTO   C83 6893   6.307   6.610   0.574  0.1558  0.5973  0.2922
   17CHTO  H155 6894   6.402   6.570   0.537  0.8603  1.4024  1.1926
   17CHTO   O56 6895   6.238   6.499   0.630  1.0134 -0.3391  0.0318
   17CHTO  H135 6896   6.300   6.434   0.657  0.3332 -2.0613 -2.4917
   17CHTO   C81 6897   6.345   6.723   0.680 -0.8067  0.5843  0.1667
   17CHTO  H153 6898   6.410   6.791   0.625 -0.8794  0.5737  0.0672
   17CHTO   N14 6899   6.429   6.665   0.793  0.6249 -0.2863 -0.2974
   17CHTO  H141 6900   6.373   6.594   0.850 -1.4104  1.1085 -0.4806
   17CHTO  H142 6901   6.454   6.749   0.853  1.9427 -1.0698  0.2749
   17CHTO   C79 6902   6.218   6.803   0.741  0.3006  0.2747  0.4801
   17CHTO  H151 6903   6.256   6.896   0.783  1.6111  0.5287 -1.2305
   17CHTO   O52 6904   6.132   6.847   0.638 -0.1013 -0.2972 -0.0180
   17CHTO   C86 6905   6.099   6.745   0.542 -0.2224 -0.0092 -0.7977
   17CHTO  H158 6906   6.045   6.666   0.598  0.1432  0.3183  0.0151
   17CHTO   C90 6907   5.998   6.799   0.440 -0.5216  0.3759  0.4072
   17CHTO   O60 6908   5.868   6.826   0.498 -0.2447 -0.2372  0.1851
   17CHTO  H138 6909   5.814   6.752   0.480 -1.2236  0.7446 -1.0484
   17CHTO   O50 6910   6.149   6.750   0.857  0.7126  0.2668  0.0832
   17CHTO   C73 6911   6.076   6.822   0.963 -0.0432  0.3549  0.2085
   17CHTO  H145 6912   6.063   6.926   0.929  0.6692  0.1654 -0.6868
   17CHTO   C74 6913   6.154   6.817   1.101  0.2539 -0.3659  0.6663
   17CHTO  H146 6914   6.244   6.871   1.066 -1.2228 -0.2618 -3.3150
   17CHTO   O54 6915   6.084   6.905   1.193  0.2084 -0.2213 -0.3080
   17CHTO  H133 6916   6.141   6.952   1.250  0.1614 -0.8792  0.2918
   17CHTO   C75 6917   6.183   6.670   1.126  0.6681  0.4881 -0.1223
   17CHTO  H147 6918   6.252   6.631   1.051 -0.6070 -0.5959 -0.7426
   17CHTO   N13 6919   6.256   6.639   1.251 -0.0423  0.0101  0.0753
   17CHTO  H139 6920   6.343   6.702   1.255  0.8015 -1.0214 -1.4957
   17CHTO  H140 6921   6.198   6.656   1.340  0.6151  1.0076  0.3230
   17CHTO   C76 6922   6.049   6.580   1.111  0.9187 -0.0244 -0.3382
   17CHTO  H148 6923   5.992   6.595   1.203  2.3026  1.2969  0.3296
   17CHTO   O49 6924   5.968   6.617   0.998 -0.6583 -0.0158  0.1896
   17CHTO   C77 6925   5.937   6.754   0.979 -0.0571  0.3017 -0.2234
   17CHTO  H149 6926   5.883   6.805   1.059 -2.2562 -1.9916 -0.1889
   17CHTO   C88 6927   5.845   6.765   0.860  0.3776 -0.1264 -0.1669
   17CHTO   O58 6928   5.818   6.904   0.805 -0.7581  0.8917 -0.4010
   17CHTO  H136 6929   5.860   6.975   0.850  1.3226 -0.8962  0.5641
   17CHTO   O51 6930   6.096   6.420   1.083  0.4355  0.2856 -0.5322
   17CHTO   C78 6931   5.967   6.335   1.060  0.0897  0.7032 -0.3872
   17CHTO  H150 6932   5.880   6.403   1.042 -1.0461 -0.3811  0.8823
   17CHTO   C80 6933   5.936   6.240   1.172 -0.5948 -0.1011 -0.3127
   17CHTO  H152 6934   6.028   6.187   1.204 -1.2539  0.5639  2.8561
   17CHTO   O55 6935   5.902   6.324   1.290  0.2880  0.0325 -0.5198
   17CHTO  H134 6936   5.971   6.387   1.303  0.6190 -0.8328  2.2070
   17CHTO   C84 6937   5.822   6.138   1.121  0.1034 -0.5684  0.0219
   17CHTO  H156 6938   5.737   6.202   1.097  1.0359  0.4517 -0.5865
   17CHTO   N15 6939   5.785   6.054   1.245 -0.2932  0.0985 -0.5488
   17CHTO  H143 6940   5.732   6.113   1.317  0.4280  0.9931 -0.7406
   17CHTO  H144 6941   5.729   5.965   1.224  0.4308 -0.7935  1.1760
   17CHTO   C87 6942   5.866   6.060   0.998 -0.1658 -0.0695 -0.2345
   17CHTO  H159 6943   5.949   5.993   1.018 -0.1285  0.4205  1.2647
   17CHTO   O53 6944   5.904   6.160   0.890 -0.3557  0.2167  0.8544
   17CHTO   C82 6945   6.005   6.255   0.929 -0.0569  0.3361 -0.5760
   17CHTO  H154 6946   6.100   6.203   0.941 -0.8588 -1.5933 -2.2992
   17CHTO   C89 6947   6.016   6.342   0.811  0.0877  0.4758  0.4825
   17CHTO   O59 6948   5.901   6.427   0.782 -0.7437  0.4185  0.2980
   17CHTO  H137 6949   5.915   6.475   0.703 -1.1260  0.3590  0.1931
   17CHTO   O45 6950   5.758   5.968   0.943  0.2820  0.7020  0.0229
   17CHTO   C67 6951   5.796   5.833   0.901  0.4524 -1.0565  0.7302
   17CHTO  H124 6952   5.901   5.809   0.920  0.7940  0.6531  1.0321
   17CHTO   C65 6953   5.711   5.735   0.986  0.2678  0.2062  0.6595
   17CHTO  H122 6954   5.712   5.768   1.090 -0.5399  2.2605  0.0350
   17CHTO   O44 6955   5.771   5.605   0.986 -0.5400 -0.2317 -0.3185
   17CHTO  H102 6956   5.733   5.530   0.943  0.7177 -1.8451  1.2960
   17CHTO   C63 6957   5.554   5.738   0.934  0.2696 -0.6923  0.3331
   17CHTO  H120 6958   5.513   5.838   0.946 -0.2604 -0.2989 -3.7449
   17CHTO   N11 6959   5.464   5.670   1.025  0.1615  0.3348 -0.3072
   17CHTO  H108 6960   5.475   5.713   1.123  1.8049  2.2103 -1.2758
   17CHTO  H109 6961   5.363   5.663   0.992  0.5647 -0.6883 -1.3272
   17CHTO   C61 6962   5.552   5.716   0.779  0.4453  0.6166 -0.1977
   17CHTO  H118 6963   5.449   5.744   0.750 -0.4005 -1.2803  0.8673
   17CHTO   O40 6964   5.635   5.807   0.711  0.1904  0.1878  0.4475
   17CHTO   C68 6965   5.775   5.809   0.748 -0.7151 -0.2643  0.2724
   17CHTO  H125 6966   5.824   5.899   0.705  1.1496 -1.5697 -0.3741
   17CHTO   C72 6967   5.857   5.684   0.694 -0.7711 -0.6304 -0.4406
   17CHTO   O48 6968   5.996   5.707   0.690 -0.5093  0.3678  0.1036
   17CHTO  H105 6969   6.045   5.627   0.693  0.0994  0.7474  0.4416
   17CHTO   O38 6970   5.582   5.579   0.747  1.2338 -0.1097 -0.2445
   17CHTO   C55 6971   5.523   5.509   0.634 -0.0771 -0.3162 -0.6032
   17CHTO  H112 6972   5.576   5.418   0.602  2.6967  1.4301 -1.1432
   17CHTO   C56 6973   5.494   5.608   0.509  0.6768  0.4066 -0.7184
   17CHTO  H113 6974   5.426   5.690   0.538 -1.6707 -2.3951  1.9103
   17CHTO   O42 6975   5.618   5.658   0.460 -0.2623  0.1383 -0.8361
   17CHTO  H100 6976   5.659   5.707   0.528  2.4256 -1.4975 -1.2291
   17CHTO   C57 6977   5.416   5.525   0.394 -0.3620 -0.0241 -0.2526
   17CHTO  H114 6978   5.484   5.443   0.373 -0.8300 -0.8246  1.2891
   17CHTO   N10 6979   5.382   5.602   0.278  0.6269 -0.2710 -0.2468
   17CHTO  H106 6980   5.397   5.555   0.182 -1.3104  2.1241 -1.7875
   17CHTO  H107 6981   5.424   5.701   0.284 -0.1779 -0.0747  2.5887
   17CHTO   C58 6982   5.286   5.472   0.465 -0.3262 -0.0380 -0.0120
   17CHTO  H115 6983   5.222   5.556   0.497 -1.3737  0.0002 -2.0664
   17CHTO   O37 6984   5.316   5.382   0.573  0.0199  0.3449 -0.3813
   17CHTO   C59 6985   5.382   5.449   0.681  0.7063  0.2276  0.7554
   17CHTO  H116 6986   5.318   5.526   0.721  0.1651 -0.1485  0.6149
   17CHTO   C70 6987   5.407   5.362   0.812 -0.4533  0.2992 -0.2543
   17CHTO   O46 6988   5.291   5.313   0.865 -0.2198 -0.0005  0.5929
   17CHTO  H103 6989   5.238   5.376   0.910  0.2959 -0.1441  1.4231
   17CHTO   O39 6990   5.207   5.377   0.381  0.0659  1.0715 -0.3208
   17CHTO   C60 6991   5.065   5.403   0.378 -0.5070  0.2630  0.1280
   17CHTO  H117 6992   5.036   5.488   0.440  1.9671 -0.5129  2.4200
   17CHTO   C62 6993   5.023   5.436   0.230 -0.2113 -0.3291  0.7420
   17CHTO  H119 6994   5.085   5.523   0.198 -0.5583  0.8079  3.0654
   17CHTO   O43 6995   5.058   5.336   0.127  0.1420  0.4542  0.0639
   17CHTO  H101 6996   5.150   5.315   0.130  0.1297  0.5200  1.7047
   17CHTO   C66 6997   4.871   5.479   0.233 -0.2809 -0.2413 -0.8941
   17CHTO  H123 6998   4.866   5.566   0.298  0.1625 -1.1180  0.3321
   17CHTO   N12 6999   4.821   5.526   0.099  0.0437  0.2213 -0.1826
   17CHTO  H110 7000   4.866   5.623   0.081 -0.1983  0.5355  0.8668
   17CHTO  H111 7001   4.849   5.462   0.016  1.1471 -0.7546  0.9216
   17CHTO   C69 7002   4.789   5.355   0.291 -0.1045 -0.1661  0.1375
   17CHTO  H126 7003   4.806   5.263   0.232  0.7305 -2.3523  3.6316
   17CHTO   O41 7004   4.836   5.310   0.428 -0.3014  0.0569  0.5669
   17CHTO   C64 7005   4.977   5.283   0.422  0.1778 -0.3175 -0.1481
   17CHTO  H121 7006   4.994   5.196   0.356 -0.7397  0.1022 -0.9351
   17CHTO   C71 7007   5.014   5.243   0.560  0.1523 -0.5927 -0.5657
   17CHTO   O47 7008   4.933   5.134   0.605 -0.2228 -0.3118  0.2561
   17CHTO  H104 7009   4.846   5.168   0.615 -0.5001 -1.2866  1.1447
   17CHTO   O34 7010   4.647   5.385   0.297 -0.0571  0.1073  0.1816
   17CHTO   C49 7011   4.542   5.473   0.398 -0.2504  0.3340  0.1237
   17CHTO   H91 7012   4.555   5.579   0.375 -1.4618  0.5707  0.4627
   17CHTO   C47 7013   4.564   5.462   0.553  0.1557 -0.1391 -0.2564
   17CHTO   H89 7014   4.505   5.543   0.601  1.9136 -0.0278  1.7660
   17CHTO   O33 7015   4.697   5.475   0.609  0.6888  0.2000  0.4629
   17CHTO   H70 7016   4.745   5.528   0.548 -0.2409 -0.5757 -0.9784
   17CHTO   C45 7017   4.498   5.322   0.604 -0.7766 -0.0255  0.6053
   17CHTO   H87 7018   4.589   5.263   0.626  0.2865  1.4881  0.3858
   17CHTO    N8 7019   4.424   5.345   0.729  0.5607 -0.9219 -0.6477
   17CHTO   H75 7020   4.470   5.416   0.797 -0.7321  1.5530 -2.2779
   17CHTO   H76 7021   4.414   5.248   0.774 -0.8460 -0.1273  0.7830
   17CHTO   C43 7022   4.430   5.240   0.488  0.6458 -0.0800 -0.4930
   17CHTO   H85 7023   4.513   5.210   0.424  1.6978  1.5591  0.0832
   17CHTO   O29 7024   4.337   5.321   0.421 -0.4435  0.3086 -0.3535
   17CHTO   C50 7025   4.394   5.441   0.359  0.8404 -0.5298 -0.4271
   17CHTO   H92 7026   4.394   5.438   0.249 -0.1699  2.3440 -0.5530
   17CHTO   C54 7027   4.303   5.560   0.393 -0.1653  0.2670  0.3751
   17CHTO   O36 7028   4.334   5.681   0.330 -0.1571 -0.2550 -0.6946
   17CHTO   H72 7029   4.401   5.727   0.378  0.5780 -0.7289 -1.2689
   17CHTO   O27 7030   4.374   5.114   0.526 -0.1499  0.3599  0.2599
   17CHTO   C37 7031   4.401   4.978   0.483  0.4131  0.8211  0.2611
   17CHTO   H79 7032   4.339   4.907   0.540  0.7513  0.3840  0.0810
   17CHTO   C38 7033   4.373   4.951   0.327 -0.0263  0.4283 -0.6599
   17CHTO   H80 7034   4.409   5.036   0.267 -0.6050  1.7562  0.8261
   17CHTO   O31 7035   4.233   4.955   0.320  0.3159 -0.2187  0.5691
   17CHTO   H68 7036   4.198   4.952   0.233  0.0065 -1.0713  0.7184
   17CHTO   C39 7037   4.430   4.819   0.277 -0.1207 -0.6144 -0.1983
   17CHTO   H81 7038   4.398   4.731   0.333  0.2255 -0.0756  0.8447
   17CHTO    N7 7039   4.395   4.786   0.136  0.2360 -0.3825  0.2909
   17CHTO   H73 7040   4.487   4.751   0.092  0.3898  1.8665 -1.3094
   17CHTO   H74 7041   4.325   4.705   0.120 -3.0497  2.5884 -0.9779
   17CHTO   C40 7042   4.583   4.826   0.302  0.2647 -0.0431  0.1823
   17CHTO   H82 7043   4.635   4.907   0.251  0.2480 -0.1081  0.0612
   17CHTO   O26 7044   4.608   4.827   0.440  0.1952  0.0428  0.1006
   17CHTO   C41 7045   4.549   4.943   0.506  0.0285  0.2188 -0.0160
   17CHTO   H83 7046   4.615   5.029   0.486  0.0902  0.0068 -0.7525
   17CHTO   C52 7047   4.582   4.922   0.663  0.8736  0.0306 -0.2491
   17CHTO   O35 7048   4.739   4.941   0.703  0.3245  0.2750 -0.0757
   17CHTO   H71 7049   4.755   5.033   0.693  2.2477  0.0600  0.7320
   17CHTO   O28 7050   4.655   4.701   0.275  0.4421 -0.0022  0.3135
   17CHTO   C42 7051   4.806   4.699   0.256  0.5903  0.2511  0.2740
   17CHTO   H84 7052   4.824   4.592   0.255 -0.8528 -0.0020 -0.6341
   17CHTO   C44 7053   4.893   4.761   0.366  0.1219  0.0669 -0.1195
   17CHTO   H86 7054   4.858   4.862   0.386 -2.2884 -0.7391  0.0291
   17CHTO   O32 7055   4.882   4.686   0.484 -0.5602  0.5979  0.0302
   17CHTO   H69 7056   4.905   4.595   0.486  0.0951  0.7607  2.5995
   17CHTO   C48 7057   5.043   4.770   0.322 -0.1689  0.3608 -0.1234
   17CHTO   H90 7058   5.088   4.670   0.317  1.0850  0.8799  0.3668
   17CHTO    N9 7059   5.132   4.851   0.416  0.2502  0.4110  0.0684
   17CHTO   H77 7060   5.110   4.848   0.521  2.1570 -2.9661  0.4649
   17CHTO   H78 7061   5.238   4.843   0.401  0.3419  0.0145  0.8828
   17CHTO   C51 7062   5.058   4.829   0.175  0.1431  0.2133 -0.1249
   17CHTO   H93 7063   5.025   4.932   0.171  1.1045  0.5332  0.1040
   17CHTO   O30 7064   4.985   4.743   0.090 -0.1426  0.4144 -0.2009
   17CHTO   C46 7065   4.845   4.754   0.110 -0.5283  0.5500  0.2087
   17CHTO   H88 7066   4.817   4.859   0.097  0.7227  0.8467 -0.0994
   17CHTO   C53 7067   4.787   4.671  -0.001  0.3118 -0.0697  0.0820
   17CHTO   O72 7068   4.827   4.713  -0.131 -0.0548 -0.4981  0.1591
   17CHTO  H199 7069   4.752   4.703  -0.186 -0.7505  0.0123  1.0114
   17CHTO   O22 7070   5.193   4.821   0.133  0.6309  0.2433  0.0681
   17CHTO   C31 7071   5.231   4.925   0.029  0.3320  0.1995  0.1142
   17CHTO   H59 7072   5.329   4.887  -0.005  0.6108  2.2886 -1.5025
   17CHTO   C29 7073   5.140   4.935  -0.097 -0.0456  0.2135 -0.0628
   17CHTO   H57 7074   5.040   4.964  -0.062 -0.5108 -1.9595  0.4749
   17CHTO   O21 7075   5.122   4.804  -0.158  0.2527  0.1220  0.3314
   17CHTO   H37 7076   5.206   4.777  -0.191 -0.3654  0.2309 -1.4298
   17CHTO   C27 7077   5.195   5.046  -0.199 -0.4459 -0.5249  0.3767
   17CHTO   H55 7078   5.294   5.019  -0.240 -1.1610 -1.3374 -0.8423
   17CHTO    N5 7079   5.100   5.062  -0.311 -0.1081  0.5635  0.0521
   17CHTO   H43 7080   5.150   5.140  -0.366  0.1811 -0.1362 -0.6808
   17CHTO   H44 7081   4.999   5.092  -0.284 -0.6849 -1.2221 -0.0266
   17CHTO   C25 7082   5.219   5.168  -0.123  0.4363 -0.4973  1.1244
   17CHTO   H53 7083   5.128   5.206  -0.075 -0.0323 -1.3653  0.9368
   17CHTO   O17 7084   5.318   5.146  -0.021 -0.0111 -0.7772  0.0078
   17CHTO   C32 7085   5.270   5.066   0.084  0.5471 -0.3506 -0.3121
   17CHTO   H60 7086   5.179   5.113   0.121  0.8148 -0.1899  0.1526
   17CHTO   C36 7087   5.369   5.056   0.207  0.1224 -0.0708  0.7049
   17CHTO   O25 7088   5.380   5.195   0.245 -0.0566  0.3845 -0.6205
   17CHTO   H40 7089   5.399   5.209   0.335 -1.8748 -0.5432 -0.0704
   17CHTO   O15 7090   5.270   5.283  -0.218  0.3093 -0.5567 -0.0499
   17CHTO   C19 7091   5.291   5.425  -0.200 -0.1829  0.8713  0.2702
   17CHTO   H47 7092   5.335   5.456  -0.295  1.0576 -0.3847  0.4170
   17CHTO   C20 7093   5.164   5.507  -0.165 -0.7326 -0.7045  0.2684
   17CHTO   H48 7094   5.125   5.494  -0.063  1.4555  0.9162  1.3691
   17CHTO   O19 7095   5.061   5.464  -0.253 -0.2904  0.6794  0.0314
   17CHTO   H35 7096   4.975   5.485  -0.221 -0.3785  1.4268 -0.6529
   17CHTO   C21 7097   5.188   5.663  -0.169 -0.3690 -1.0069  0.1113
   17CHTO   H49 7098   5.229   5.697  -0.264  1.0229 -0.5234  0.8784
   17CHTO    N4 7099   5.063   5.740  -0.153 -0.1965 -0.0308 -0.0083
   17CHTO   H41 7100   5.069   5.799  -0.063 -0.8795  1.4894 -0.9472
   17CHTO   H42 7101   5.070   5.814  -0.232  1.5454  0.0346  0.1840
   17CHTO   C22 7102   5.297   5.693  -0.063  0.6271  0.8189 -0.2428
   17CHTO   H50 7103   5.254   5.694   0.037  0.7797 -1.8876 -0.1065
   17CHTO   O14 7104   5.411   5.606  -0.088 -0.0283  0.0912  0.1102
   17CHTO   C23 7105   5.401   5.463  -0.091 -0.1444  0.2971 -0.1685
   17CHTO   H51 7106   5.372   5.422   0.006  0.2732 -1.5835 -0.8299
   17CHTO   C34 7107   5.539   5.404  -0.110 -0.3830 -0.1126  0.1746
   17CHTO   O23 7108   5.614   5.425   0.008 -0.6979 -0.3863 -0.1809
   17CHTO   H38 7109   5.678   5.493  -0.002 -1.1568 -0.0240 -0.7467
   17CHTO   O16 7110   5.350   5.818  -0.102  0.0034  0.4821  0.1908
   17CHTO   C24 7111   5.407   5.915   0.011  0.5653  0.0768  0.3069
   17CHTO   H52 7112   5.385   5.875   0.110 -0.6676 -0.2845 -0.1108
   17CHTO   C26 7113   5.338   6.056  -0.016  0.1133  0.2376  0.1718
   17CHTO   H54 7114   5.344   6.080  -0.124 -2.0610 -1.8816 -0.4596
   17CHTO   O20 7115   5.205   6.028   0.014 -0.4251  0.2822  0.2311
   17CHTO   H36 7116   5.153   6.105   0.003 -0.7633  0.3910  2.4266
   17CHTO   C30 7117   5.401   6.173   0.066  0.3294  0.4430  0.4309
   17CHTO   H58 7118   5.382   6.150   0.172 -3.2381 -2.4133 -0.7488
   17CHTO    N6 7119   5.335   6.299   0.031  0.0662  0.3104  0.1793
   17CHTO   H45 7120   5.285   6.337   0.120 -1.0011 -1.5193  0.3856
   17CHTO   H46 7121   5.395   6.379  -0.010 -0.1210 -1.3254 -3.4365
   17CHTO   C33 7122   5.558   6.175   0.045  0.2711 -0.5716 -0.0952
   17CHTO   H61 7123   5.583   6.196  -0.060 -1.2617  1.5572 -0.0540
   17CHTO   O18 7124   5.596   6.035   0.084  0.2309 -0.0257  0.1385
   17CHTO   C28 7125   5.553   5.927   0.004  0.1979  0.1768 -0.3410
   17CHTO   H56 7126   5.582   5.947  -0.099 -1.4436 -1.9855 -1.2846
   17CHTO   C35 7127   5.634   5.801   0.043  0.3011  0.0059  0.0513
   17CHTO   O24 7128   5.760   5.801  -0.018 -0.0350 -0.0672 -0.1289
   17CHTO   H39 7129   5.814   5.735   0.022  1.8026  0.6244 -1.4104
   17CHTO    O9 7130   5.633   6.278   0.117  0.0176 -0.1124  0.2077
   17CHTO   C13 7131   5.785   6.286   0.091  0.3225  0.4768  0.1459
   17CHTO   H26 7132   5.815   6.255  -0.011 -2.0612 -2.0055  0.1389
   17CHTO   C11 7133   5.862   6.192   0.201 -0.1292 -0.3894  0.5696
   17CHTO   H24 7134   5.940   6.143   0.141 -0.7629 -0.1889 -0.4282
   17CHTO    O8 7135   5.778   6.095   0.256 -0.2394 -0.5158  0.1015
   17CHTO    H3 7136   5.712   6.069   0.195 -0.1022  0.0176 -0.2773
   17CHTO    C9 7137   5.943   6.273   0.300 -0.3351  0.0518  0.5609
   17CHTO   H22 7138   6.032   6.305   0.243 -0.6741 -0.2851 -0.1650
   17CHTO    N2 7139   6.003   6.202   0.413 -0.2065 -0.1427  0.1350
   17CHTO   H10 7140   6.067   6.265   0.474 -0.7428  0.4906  0.0618
   17CHTO   H11 7141   6.056   6.112   0.389  1.3256  1.2221 -1.8236
   17CHTO    C7 7142   5.854   6.395   0.348 -0.2415  0.3354  0.0333
   17CHTO   H20 7143   5.921   6.446   0.420  0.1131  0.2330 -0.2221
   17CHTO    O4 7144   5.829   6.484   0.237  0.3217  0.0458  1.0211
   17CHTO   C14 7145   5.821   6.441   0.098  0.7974  0.6646 -1.5635
   17CHTO   H27 7146   5.922   6.462   0.056  1.2128  2.3224  0.1865
   17CHTO   C18 7147   5.727   6.538   0.025 -0.2675 -0.1252 -0.4357
   17CHTO   O13 7148   5.603   6.563   0.097  0.4202 -0.4169 -0.3281
   17CHTO    H7 7149   5.564   6.484   0.129  0.8022 -0.1845  0.7592
   17CHTO    O2 7150   5.717   6.345   0.397  0.2984 -0.1617 -0.4378
   17CHTO    C1 7151   5.683   6.334   0.534  0.8411 -0.1794  0.2978
   17CHTO   H14 7152   5.771   6.328   0.602  0.2895 -1.4219  0.9223
   17CHTO    C2 7153   5.601   6.199   0.560 -0.4636 -0.7033 -0.5372
   17CHTO   H15 7154   5.519   6.206   0.487  0.4149  0.5511 -1.4445
   17CHTO    O6 7155   5.690   6.090   0.537 -0.5654 -0.5150 -0.1638
   17CHTO    H1 7156   5.643   6.013   0.564 -0.4324 -0.2100  0.9676
   17CHTO    C3 7157   5.541   6.197   0.710 -0.6608 -0.3053  0.6230
   17CHTO   H16 7158   5.622   6.177   0.782  0.5975 -0.3733 -0.7889
   17CHTO    N1 7159   5.443   6.086   0.718 -0.5324 -0.1014 -0.7480
   17CHTO    H8 7160   5.343   6.124   0.709 -1.6680 -2.4574  1.0519
   17CHTO    H9 7161   5.455   6.031   0.811 -2.1554 -0.4454 -0.7304
   17CHTO    C4 7162   5.472   6.331   0.749 -0.7730 -0.3184  0.4786
   17CHTO   H17 7163   5.376   6.332   0.698 -1.3888  2.9900  1.6097
   17CHTO    O1 7164   5.556   6.442   0.711  0.2468 -0.6154  0.5796
   17CHTO    C5 7165   5.581   6.447   0.572  0.4554  0.9717 -0.0235
   17CHTO   H18 7166   5.496   6.441   0.505  0.4128 -1.9414  0.2225
   17CHTO   C16 7167   5.643   6.582   0.553  0.7661 -0.2395  0.4217
   17CHTO   O11 7168   5.633   6.622   0.412  0.2046  0.1619  0.0779
   17CHTO    H5 7169   5.707   6.668   0.377 -0.7672  0.3097 -1.8858
   17CHTO    O3 7170   5.434   6.345   0.890 -0.5801 -0.5360  0.4184
   17CHTO    C6 7171   5.362   6.474   0.913  0.4033 -0.7638 -0.0756
   17CHTO   H19 7172   5.379   6.549   0.836  3.1306 -0.7521  0.4865
   17CHTO    C8 7173   5.205   6.450   0.921 -0.1497  0.1452 -0.5612
   17CHTO   H21 7174   5.183   6.371   0.992 -0.1543  0.2855 -0.4066
   17CHTO    O7 7175   5.168   6.414   0.790  0.1968  0.3026  0.1594
   17CHTO    H2 7176   5.076   6.411   0.775  0.4290 -1.0216 -1.0918
   17CHTO   C12 7177   5.121   6.573   0.967 -0.0352  0.1645 -0.3146
   17CHTO   H25 7178   5.120   6.639   0.878  3.0486 -4.0755 -3.7584
   17CHTO    N3 7179   4.984   6.531   1.009 -0.2962 -0.2183  0.2977
   17CHTO   H12 7180   4.994   6.442   1.070  0.1066 -0.3279  0.0717
   17CHTO   H13 7181   4.920   6.607   1.051 -0.3057  0.1489 -0.3793
   17CHTO   C15 7182   5.191   6.639   1.086 -0.2537  0.6487 -0.4629
   17CHTO   H28 7183   5.174   6.587   1.180  2.8589 -1.0342 -0.7608
   17CHTO   O10 7184   5.137   6.773   1.091  0.3954  0.1603  0.0331
   17CHTO    H4 7185   5.045   6.789   1.085  0.4425  0.9525  1.4460
   17CHTO    O5 7186   5.335   6.666   1.064 -0.0043  0.0091 -0.7902
   17CHTO   C10 7187   5.410   6.539   1.048 -0.5759  0.7605 -0.2569
   17CHTO   H23 7188   5.399   6.484   1.142  1.3504 -0.9958 -1.0139
   17CHTO   C17 7189   5.553   6.577   1.045  0.1465  0.3409 -0.3853
   17CHTO   O12 7190   5.649   6.472   1.060 -0.0282  0.3037 -0.1740
   17CHTO    H6 7191   5.673   6.479   1.151 -2.3671  4.1289  0.2759
   18CHTO  H203 7192   6.795   7.365   1.343 -1.6237 -3.2356  0.0161
   18CHTO   O82 7193   6.832   7.340   1.261 -0.4656  0.2997 -0.6422
   18CHTO  C123 7194   6.771   7.224   1.211 -0.5810 -0.6617 -0.0677
   18CHTO  H227 7195   6.681   7.205   1.272 -0.5823 -0.1354  0.0975
   18CHTO   O77 7196   6.741   7.264   1.073 -0.3470 -0.0326 -0.0817
   18CHTO  C118 7197   6.700   7.165   0.982  0.5470 -0.4360  0.2860
   18CHTO  H222 7198   6.601   7.127   1.008  0.3287  0.1169  0.2729
   18CHTO  C125 7199   6.700   7.238   0.840 -0.4924  0.2720 -0.5212
   18CHTO   O84 7200   6.825   7.299   0.812  0.3624 -0.2208 -0.4319
   18CHTO  H205 7201   6.877   7.241   0.760  0.9519  0.7942 -1.0076
   18CHTO  C114 7202   6.800   7.049   0.981 -0.2046  0.5476  0.0161
   18CHTO  H218 7203   6.897   7.082   0.944 -0.3541  2.1102  0.9853
   18CHTO  C116 7204   6.817   6.986   1.128 -0.1242 -0.6809 -0.5104
   18CHTO  H220 7205   6.720   6.952   1.170  0.2918 -0.1117  0.9311
   18CHTO   O79 7206   6.909   6.873   1.117 -0.5298  0.0290  0.1244
   18CHTO  H201 7207   6.932   6.835   1.200  0.7308  1.0127  0.2296
   18CHTO  C120 7208   6.874   7.103   1.217  0.6370 -0.6711  0.0511
   18CHTO  H224 7209   6.973   7.131   1.177  0.6382 -2.2795 -1.0928
   18CHTO   N21 7210   6.897   7.048   1.356  0.0090 -0.0200 -0.2702
   18CHTO  H211 7211   6.983   7.093   1.404  0.6251  0.0135 -1.4039
   18CHTO  H212 7212   6.884   6.941   1.355 -0.4456  0.0247  0.2715
   18CHTO   O75 7213   6.752   6.950   0.893  0.3347  0.3788 -0.1037
   18CHTO  C112 7214   6.863   6.914   0.773 -0.4235 -0.1639 -0.5161
   18CHTO  H216 7215   6.961   6.906   0.823  0.2559  0.7249 -1.6578
   18CHTO   O73 7216   6.867   7.018   0.678 -0.6358 -0.1686 -0.1203
   18CHTO  C113 7217   6.966   7.012   0.577  0.3021  0.2422  0.5596
   18CHTO  H217 7218   7.062   7.030   0.629  0.1511 -3.1472  2.1319
   18CHTO  C124 7219   6.954   7.127   0.479  0.0182 -0.1602  0.5597
   18CHTO   O83 7220   6.955   7.261   0.532  0.2684 -0.3212  0.4211
   18CHTO  H204 7221   6.884   7.277   0.590 -0.5625  0.0905 -0.7000
   18CHTO  C109 7222   6.953   6.885   0.489  0.1198  0.5928  0.2097
   18CHTO  H213 7223   6.859   6.900   0.433  1.1272  1.6087 -1.2202
   18CHTO  C110 7224   6.935   6.757   0.584 -0.1692  0.1829 -0.8132
   18CHTO  H214 7225   7.034   6.737   0.625 -0.1843  2.4331  0.3669
   18CHTO   O78 7226   6.905   6.641   0.502  0.3801 -0.0307 -0.4605
   18CHTO  H200 7227   6.893   6.663   0.411  0.3455  1.2709 -0.1520
   18CHTO  C111 7228   6.832   6.780   0.696  0.3803 -0.1282  0.1634
   18CHTO  H215 7229   6.732   6.791   0.651  0.9173  0.6284 -0.8485
   18CHTO   N19 7230   6.826   6.665   0.785  0.0816  0.1961  0.4043
   18CHTO  H207 7231   6.919   6.644   0.834  1.2892  0.3910 -1.7493
   18CHTO  H208 7232   6.750   6.680   0.861 -0.2169 -0.1338  0.1755
   18CHTO   O74 7233   7.060   6.882   0.391 -0.2852  0.2647 -0.3231
   18CHTO  C115 7234   7.029   6.821   0.252  0.6362  0.6224 -0.2594
   18CHTO  H219 7235   6.973   6.728   0.263  1.4248  0.3712  1.9625
   18CHTO   O76 7236   6.926   6.924   0.160  0.1022  0.4092  0.3559
   18CHTO  C122 7237   6.998   7.045   0.123  0.2966 -0.3119 -0.2515
   18CHTO  H226 7238   7.017   7.097   0.217  0.0304 -0.9329  0.1502
   18CHTO  C126 7239   6.901   7.140   0.042  0.4525  0.4339 -0.5912
   18CHTO   O85 7240   6.808   7.194   0.132 -0.6418  0.9006 -0.5418
   18CHTO  H206 7241   6.820   7.287   0.133 -1.0996  0.9514  0.8531
   18CHTO  C121 7242   7.128   7.013   0.046  0.9062  0.0009  0.2201
   18CHTO  H225 7243   7.127   7.050  -0.059 -1.4854 -2.2593 -0.6183
   18CHTO   O81 7244   7.237   7.077   0.103 -0.4292  0.4033  0.6133
   18CHTO  H202 7245   7.230   7.169   0.092  0.5562  0.2587 -1.3368
   18CHTO  C119 7246   7.160   6.860   0.033 -0.6295 -0.2126 -0.2303
   18CHTO  H223 7247   7.077   6.807  -0.015 -1.0716 -0.7864  1.1121
   18CHTO  C117 7248   7.168   6.794   0.179  0.2402 -0.3069  0.5787
   18CHTO  H221 7249   7.245   6.832   0.246  0.1810 -1.1245  1.1125
   18CHTO   N20 7250   7.192   6.644   0.175 -0.3545 -0.0258 -0.0821
   18CHTO  H209 7251   7.177   6.607   0.075  0.1257  0.3574 -0.2997
   18CHTO  H210 7252   7.295   6.618   0.195 -0.3466  0.2721  0.2820
   18CHTO   O80 7253   7.278   6.842  -0.080 -0.2389 -0.0365 -0.7087
   18CHTO  C103 7254   7.245   6.775  -0.235  0.0359  0.4036  0.4415
   18CHTO  H190 7255   7.341   6.751  -0.281 -0.3898 -1.5845  0.5251
   18CHTO  C101 7256   7.164   6.645  -0.237 -0.3581  0.1278  0.3958
   18CHTO  H188 7257   7.063   6.658  -0.196  0.4285  0.4829  2.2581
   18CHTO   O68 7258   7.244   6.539  -0.154  0.5392 -0.4970 -0.8943
   18CHTO  H168 7259   7.335   6.562  -0.152  0.3115  0.4455 -0.9697
   18CHTO   C99 7260   7.144   6.603  -0.392  0.0759  0.5399 -0.0860
   18CHTO  H186 7261   7.243   6.594  -0.442  0.0837  0.8161 -0.1223
   18CHTO   N17 7262   7.089   6.462  -0.407 -0.0372 -0.2585  0.1246
   18CHTO  H174 7263   7.147   6.390  -0.350 -1.3165 -1.9903 -0.6955
   18CHTO  H175 7264   7.100   6.440  -0.512 -0.7614 -0.6379  0.1287
   18CHTO   C97 7265   7.071   6.718  -0.463  0.2187  0.1560  0.0427
   18CHTO  H184 7266   6.971   6.721  -0.417 -0.2077 -1.5179 -0.7518
   18CHTO   O64 7267   7.140   6.841  -0.454  0.0895 -0.2705  0.1755
   18CHTO  C104 7268   7.176   6.882  -0.326 -0.0793  0.1304  0.4275
   18CHTO  H191 7269   7.085   6.917  -0.278 -1.2815 -1.5823 -0.5810
   18CHTO  C108 7270   7.274   7.001  -0.340 -0.5198  0.4760 -0.1328
   18CHTO   O71 7271   7.402   6.962  -0.398 -0.1273  0.2055 -0.4747
   18CHTO  H171 7272   7.457   6.958  -0.322  0.0822  0.7354 -0.5944
   18CHTO   O62 7273   7.064   6.701  -0.612  0.0186 -0.6944  0.4178
   18CHTO   C91 7274   6.934   6.696  -0.670 -0.3358 -0.1021  0.0283
   18CHTO  H178 7275   6.863   6.657  -0.598 -0.9210  1.6096  0.4054
   18CHTO   C92 7276   6.942   6.607  -0.788 -0.0076  0.1051  0.3175
   18CHTO  H179 7277   7.028   6.631  -0.852  0.6479 -0.0603  1.1283
   18CHTO   O66 7278   6.978   6.472  -0.739  0.0746  0.2354 -0.2283
   18CHTO  H166 7279   6.934   6.441  -0.663  0.9489 -2.5367 -0.7988
   18CHTO   C93 7280   6.814   6.615  -0.879  0.5783 -0.4612 -0.1509
   18CHTO  H180 7281   6.724   6.569  -0.835 -0.5068  1.0710 -0.7175
   18CHTO   N16 7282   6.813   6.536  -1.004  0.2164  0.5000  0.0869
   18CHTO  H172 7283   6.838   6.433  -0.983  0.7477  0.5552 -0.2867
   18CHTO  H173 7284   6.885   6.575  -1.074  0.6127  0.7791  0.6433
   18CHTO   C94 7285   6.775   6.769  -0.911 -0.4477 -0.1223  0.4260
   18CHTO  H181 7286   6.856   6.814  -0.968  0.4118 -0.4379  1.3935
   18CHTO   O61 7287   6.755   6.827  -0.785 -0.2649 -0.3545 -0.8080
   18CHTO   C95 7288   6.875   6.842  -0.699 -0.0315 -0.0959  0.7708
   18CHTO  H182 7289   6.951   6.900  -0.752 -0.7488 -0.8812 -1.1871
   18CHTO  C106 7290   6.847   6.921  -0.575  0.1005  0.3725  1.0046
   18CHTO   O69 7291   6.758   6.868  -0.479  0.4832  0.1627 -0.4924
   18CHTO  H169 7292   6.668   6.873  -0.505  0.5514  0.4508 -0.6653
   18CHTO   O63 7293   6.628   6.790  -0.998 -0.3082  0.3765 -0.0157
   18CHTO   C96 7294   6.576   6.929  -1.036 -0.0625  0.7225  0.4047
   18CHTO  H183 7295   6.480   6.922  -1.086 -0.3954 -0.2988  1.1621
   18CHTO   C98 7296   6.672   7.009  -1.134 -0.7535 -0.4424  0.4784
   18CHTO  H185 7297   6.775   7.025  -1.097 -0.4884  3.3155 -1.6536
   18CHTO   O67 7298   6.690   6.924  -1.247 -0.3435 -0.3720  0.1042
   18CHTO  H167 7299   6.765   6.957  -1.292 -0.0766  0.3602  1.0745
   18CHTO  C102 7300   6.604   7.144  -1.179 -0.6894  0.5890 -0.0462
   18CHTO  H189 7301   6.511   7.117  -1.232 -1.9116  3.0558  0.7760
   18CHTO   N18 7302   6.681   7.232  -1.271  0.1713  0.4092  0.1019
   18CHTO  H176 7303   6.635   7.258  -1.365  0.0643 -2.0577 -0.5456
   18CHTO  H177 7304   6.714   7.324  -1.226 -1.9957  0.3646  1.8854
   18CHTO  C105 7305   6.545   7.218  -1.061  0.2297  0.3411 -0.1614
   18CHTO  H192 7306   6.619   7.285  -1.016 -0.9458  0.2242  2.0326
   18CHTO   O65 7307   6.485   7.140  -0.954  0.0217 -0.8961 -0.4737
   18CHTO  C100 7308   6.554   7.022  -0.917  0.0563  0.1791  0.0292
   18CHTO  H187 7309   6.654   7.050  -0.880  0.5714 -2.3607  0.6903
   18CHTO  C107 7310   6.476   6.959  -0.800 -0.0884  0.1693  0.1570
   18CHTO   O70 7311   6.457   7.047  -0.686 -0.3228  0.1254  0.2934
   18CHTO  H170 7312   6.407   6.999  -0.622  1.0627 -1.5243  0.1603
   18CHTO   O57 7313   6.421   7.309  -1.123 -0.1292 -0.6712 -1.1243
   18CHTO   C85 7314   6.362   7.431  -1.075  0.1656  1.2901 -0.4852
   18CHTO  H157 7315   6.443   7.506  -1.087 -0.0292  2.0004  2.3306
   18CHTO   C83 7316   6.331   7.428  -0.922  0.4376 -0.0305  0.0613
   18CHTO  H155 7317   6.424   7.405  -0.871  1.5381  0.6412 -1.5846
   18CHTO   O56 7318   6.238   7.321  -0.893  0.4127 -0.7345 -0.0256
   18CHTO  H135 7319   6.237   7.281  -0.809 -0.5354 -1.6456 -0.4528
   18CHTO   C81 7320   6.287   7.574  -0.882 -0.1472 -0.3720 -0.4837
   18CHTO  H153 7321   6.370   7.641  -0.904  0.4502 -0.9638 -0.0491
   18CHTO   N14 7322   6.263   7.588  -0.738 -0.0659  0.2023 -0.4236
   18CHTO  H141 7323   6.345   7.560  -0.676 -0.6040 -2.4692 -0.8865
   18CHTO  H142 7324   6.173   7.539  -0.707 -0.6139  0.0280 -2.2204
   18CHTO   C79 7325   6.167   7.632  -0.969  1.0293 -0.1560 -0.1362
   18CHTO  H151 7326   6.166   7.738  -0.942 -1.8672 -0.6319  1.8427
   18CHTO   O52 7327   6.188   7.609  -1.112 -0.0907 -0.3002 -0.3352
   18CHTO   C86 7328   6.231   7.476  -1.148 -0.8168  0.4895  0.2832
   18CHTO  H158 7329   6.150   7.401  -1.140 -0.5930  0.2474  0.2559
   18CHTO   C90 7330   6.248   7.491  -1.286  0.0033  0.4314  0.4030
   18CHTO   O60 7331   6.371   7.556  -1.318  0.1603  0.0179 -0.1440
   18CHTO  H138 7332   6.441   7.496  -1.299  0.0578 -1.1104 -3.1469
   18CHTO   O50 7333   6.031   7.589  -0.941  0.1398  0.3855  0.3149
   18CHTO   C73 7334   5.887   7.603  -0.969 -0.3694  1.0502  0.2344
   18CHTO  H145 7335   5.859   7.572  -1.071 -0.8595  2.5794 -0.1035
   18CHTO   C74 7336   5.847   7.744  -0.945  0.5252 -0.5863  1.1027
   18CHTO  H146 7337   5.898   7.812  -1.014 -1.1733  2.3964  2.6780
   18CHTO   O54 7338   5.710   7.766  -0.995 -0.3978  0.1100  0.1143
   18CHTO  H133 7339   5.667   7.830  -0.942  2.1650  0.8222  1.4249
   18CHTO   C75 7340   5.873   7.779  -0.785  0.6508  0.5827 -0.3449
   18CHTO  H147 7341   5.982   7.783  -0.768  0.4339 -0.5346  1.3797
   18CHTO   N13 7342   5.830   7.918  -0.759 -0.0513  0.1604 -0.1968
   18CHTO  H139 7343   5.829   7.923  -0.651  1.3923  0.7212 -0.2005
   18CHTO  H140 7344   5.732   7.924  -0.803  0.1204  0.2245 -0.5655
   18CHTO   C76 7345   5.814   7.670  -0.689 -0.1591 -0.6781 -0.6611
   18CHTO  H148 7346   5.706   7.685  -0.695 -0.1137 -0.4318 -0.8839
   18CHTO   O49 7347   5.851   7.536  -0.728 -0.7521 -1.0765  0.3513
   18CHTO   C77 7348   5.826   7.499  -0.868 -0.5760  0.0687  0.1140
   18CHTO  H149 7349   5.720   7.488  -0.891 -0.7691 -0.4917  1.2471
   18CHTO   C88 7350   5.897   7.362  -0.880 -0.0143 -0.2277 -0.0410
   18CHTO   O58 7351   5.918   7.323  -1.027  0.0602 -0.1306  0.1691
   18CHTO  H136 7352   5.982   7.374  -1.073  0.4965 -2.0632 -1.4599
   18CHTO   O51 7353   5.876   7.687  -0.550  0.9696  0.2429  0.0213
   18CHTO   C78 7354   5.782   7.623  -0.434  0.0784 -0.2760 -1.0271
   18CHTO  H150 7355   5.738   7.524  -0.458 -1.0759 -0.1702  0.5880
   18CHTO   C80 7356   5.672   7.717  -0.387  0.0801  0.3752  0.8609
   18CHTO  H152 7357   5.721   7.811  -0.353 -0.9093  1.3919 -0.4426
   18CHTO   O55 7358   5.587   7.747  -0.498  0.3392 -0.5608  0.5495
   18CHTO  H134 7359   5.638   7.766  -0.574  0.2551 -2.7877 -0.0938
   18CHTO   C84 7360   5.582   7.663  -0.266  0.3569  0.5272 -0.1622
   18CHTO  H156 7361   5.530   7.573  -0.299  1.1889 -0.1491  0.3502
   18CHTO   N15 7362   5.479   7.765  -0.219  0.4705  0.0279 -0.3349
   18CHTO  H143 7363   5.533   7.850  -0.183  0.6471 -0.2308  0.0184
   18CHTO  H144 7364   5.422   7.789  -0.306  0.2325  1.3791  0.1939
   18CHTO   C87 7365   5.676   7.632  -0.144  0.1408 -0.4174  0.4353
   18CHTO  H159 7366   5.714   7.727  -0.106  1.2290 -1.8962  3.1619
   18CHTO   O53 7367   5.792   7.546  -0.196  0.3374  0.3413  0.4259
   18CHTO   C82 7368   5.872   7.590  -0.310  0.6275 -0.0655 -0.5516
   18CHTO  H154 7369   5.928   7.678  -0.277 -0.8664  2.0855 -3.4039
   18CHTO   C89 7370   5.975   7.479  -0.343 -0.2737  0.1289 -0.4380
   18CHTO   O59 7371   5.919   7.350  -0.361  0.7279  0.9398 -0.4360
   18CHTO  H137 7372   5.983   7.283  -0.343 -3.1162 -2.4316  1.7492
   18CHTO   O45 7373   5.601   7.565  -0.030  0.4294  0.4210 -0.2345
   18CHTO   C67 7374   5.673   7.584   0.095  0.2501 -0.4346 -0.5322
   18CHTO  H124 7375   5.773   7.624   0.077 -0.4532  1.6785  0.0702
   18CHTO   C65 7376   5.602   7.699   0.192  0.1577  0.0553 -0.4615
   18CHTO  H122 7377   5.501   7.719   0.158  0.5926  0.2360 -1.6529
   18CHTO   O44 7378   5.682   7.821   0.182  0.1234 -0.3454  0.0595
   18CHTO  H102 7379   5.766   7.808   0.220 -1.6193 -1.2809  3.7976
   18CHTO   C63 7380   5.578   7.638   0.337  0.1049 -1.2522 -0.1783
   18CHTO  H120 7381   5.500   7.562   0.329  0.9884 -2.3921  1.8359
   18CHTO   N11 7382   5.514   7.739   0.438 -0.0491  0.1728  0.0297
   18CHTO  H108 7383   5.417   7.775   0.412  0.3530  0.5283 -1.0087
   18CHTO  H109 7384   5.587   7.815   0.456 -1.0694  1.1651  0.0373
   18CHTO   C61 7385   5.714   7.569   0.385  0.3899  0.1612 -0.4423
   18CHTO  H118 7386   5.693   7.525   0.484  0.4100  1.4114  0.1315
   18CHTO   O40 7387   5.751   7.461   0.304  0.1408  0.3742  0.0722
   18CHTO   C68 7388   5.690   7.444   0.173 -0.2014 -0.4068 -0.0570
   18CHTO  H125 7389   5.589   7.404   0.194 -0.9296  1.8126  0.9220
   18CHTO   C72 7390   5.775   7.348   0.097  0.1489  0.3888 -0.1787
   18CHTO   O48 7391   5.791   7.224   0.168  0.7944 -0.3874  0.0449
   18CHTO  H105 7392   5.812   7.249   0.256  1.5548  0.0528 -0.2509
   18CHTO   O38 7393   5.823   7.669   0.377 -0.4017 -0.2610 -0.4053
   18CHTO   C55 7394   5.947   7.631   0.436  0.1650 -0.3872 -0.2721
   18CHTO  H112 7395   5.950   7.521   0.426 -0.6696 -0.5993  1.6261
   18CHTO   C56 7396   5.949   7.678   0.585 -0.0999 -0.1036 -0.3795
   18CHTO  H113 7397   5.909   7.781   0.584 -1.1228 -0.5054 -1.5202
   18CHTO   O42 7398   5.855   7.595   0.658  0.5158 -0.0837  0.0355
   18CHTO  H100 7399   5.785   7.649   0.688 -0.4830  0.6967 -3.4489
   18CHTO   C57 7400   6.093   7.671   0.635 -0.2198 -0.1157 -0.0385
   18CHTO  H114 7401   6.115   7.565   0.647 -0.8262 -0.1340  1.0262
   18CHTO   N10 7402   6.102   7.727   0.773 -0.0662 -0.4521  0.1098
   18CHTO  H106 7403   6.116   7.834   0.769 -1.5919 -0.2026  1.1210
   18CHTO  H107 7404   6.023   7.708   0.844  1.1276 -3.9053  0.6121
   18CHTO   C58 7405   6.191   7.738   0.537 -0.0704 -0.6078 -0.3875
   18CHTO  H115 7406   6.166   7.846   0.530 -0.7089 -0.5637  2.1488
   18CHTO   O37 7407   6.181   7.680   0.404 -0.1299  0.1090  0.0610
   18CHTO   C59 7408   6.054   7.692   0.340  0.1488 -0.2800 -0.1146
   18CHTO  H116 7409   6.038   7.798   0.321 -0.1420 -0.1701  0.6914
   18CHTO   C70 7410   6.075   7.619   0.205  0.4090  0.4186 -0.1082
   18CHTO   O46 7411   6.186   7.667   0.123  0.3028  0.5693  0.4421
   18CHTO  H103 7412   6.202   7.759   0.131 -3.1551  1.2644  0.0962
   18CHTO   O39 7413   6.357   7.731   0.577 -0.1236  0.3225 -0.5730
   18CHTO   C60 7414   6.416   7.608   0.527 -0.5035 -0.1506  0.0292
   18CHTO  H117 7415   6.336   7.534   0.533 -1.0291  0.4873  1.0008
   18CHTO   C62 7416   6.489   7.636   0.393 -0.1491  0.1959  0.9203
   18CHTO  H119 7417   6.412   7.701   0.346  0.2011 -1.4457 -2.0281
   18CHTO   O43 7418   6.606   7.722   0.413  0.1383 -0.0483  0.2049
   18CHTO  H101 7419   6.667   7.672   0.462 -1.1552  0.0583  1.9663
   18CHTO   C66 7420   6.502   7.491   0.324  0.2055 -0.4602 -0.2418
   18CHTO  H123 7421   6.408   7.435   0.328  0.9728 -1.7503  0.0351
   18CHTO   N12 7422   6.536   7.511   0.182  0.2665  0.4338 -0.0645
   18CHTO  H110 7423   6.480   7.461   0.104  1.6565  1.4389 -1.7230
   18CHTO  H111 7424   6.563   7.614   0.161 -1.2958  0.7848 -0.4253
   18CHTO   C69 7425   6.607   7.399   0.397  0.5492 -0.8045  0.2100
   18CHTO  H126 7426   6.710   7.438   0.379  0.5531 -0.9134 -0.0086
   18CHTO   O41 7427   6.592   7.414   0.566 -0.7521 -0.0115 -0.1268
   18CHTO   C64 7428   6.532   7.550   0.624 -0.1739 -0.1717  0.4023
   18CHTO  H121 7429   6.613   7.624   0.643  1.6632 -1.8105 -0.9836
   18CHTO   C71 7430   6.475   7.509   0.766 -0.2310  0.0701  0.7086
   18CHTO   O47 7431   6.443   7.618   0.853 -0.1155  0.0713 -0.2151
   18CHTO  H104 7432   6.521   7.669   0.859  0.6362 -1.0523 -0.1295
   18CHTO   O34 7433   6.590   7.252   0.327  0.1055 -0.2903 -0.9511
   18CHTO   C49 7434   6.517   7.106   0.271 -0.0399  0.1410 -0.4788
   18CHTO   H91 7435   6.590   7.073   0.197 -1.5559 -0.5933 -1.7025
   18CHTO   C47 7436   6.384   7.109   0.198 -0.4743 -0.3313  1.0046
   18CHTO   H89 7437   6.359   7.013   0.149  1.3881  0.5278 -1.7012
   18CHTO   O33 7438   6.400   7.207   0.094 -0.1965  0.2838 -0.2569
   18CHTO   H70 7439   6.316   7.236   0.063 -0.9568 -3.0307 -1.5240
   18CHTO   C45 7440   6.268   7.158   0.303 -0.7983  0.6551  0.2619
   18CHTO   H87 7441   6.254   7.266   0.292 -0.5638  0.5472 -1.3137
   18CHTO    N8 7442   6.136   7.096   0.257 -0.1870  0.2712 -0.1421
   18CHTO   H75 7443   6.133   6.993   0.289 -0.7628  1.0679  2.4578
   18CHTO   H76 7444   6.141   7.113   0.150  1.8933  0.6244 -0.0138
   18CHTO   C43 7445   6.312   7.129   0.454 -0.1532 -0.6548 -1.0096
   18CHTO   H85 7446   6.370   7.215   0.487 -1.3213 -0.3737  0.3807
   18CHTO   O29 7447   6.386   7.005   0.474  0.4672 -0.3411  0.3361
   18CHTO   C50 7448   6.507   7.012   0.395  0.8581  0.9006 -0.1367
   18CHTO   H92 7449   6.595   7.025   0.459 -0.3009  2.5480  1.1794
   18CHTO   C54 7450   6.542   6.873   0.342  0.1992  0.1389  0.1484
   18CHTO   O36 7451   6.572   6.774   0.434  0.4732  0.0883  0.5465
   18CHTO   H72 7452   6.662   6.760   0.455  0.8799  0.4507 -0.9005
   18CHTO   O27 7453   6.196   7.140   0.543 -0.8711  0.3615  0.1354
   18CHTO   C37 7454   6.131   7.163   0.666  0.2552  0.1264  0.1403
   18CHTO   H79 7455   6.094   7.070   0.710  1.9898 -0.9031 -0.5228
   18CHTO   C38 7456   6.235   7.206   0.780 -0.0596  0.2103  0.2277
   18CHTO   H80 7457   6.272   7.307   0.756  0.4954 -0.2122 -0.6941
   18CHTO   O31 7458   6.349   7.116   0.778 -0.0615  0.2679  0.0978
   18CHTO   H68 7459   6.335   7.040   0.831 -1.3509 -0.1233 -0.8021
   18CHTO   C39 7460   6.163   7.217   0.919  0.2863 -0.3351  0.0831
   18CHTO   H81 7461   6.122   7.118   0.935 -2.0004  1.0896  3.5050
   18CHTO    N7 7462   6.247   7.254   1.036 -0.1553  0.3837 -0.5557
   18CHTO   H73 7463   6.227   7.353   1.073  0.0033  0.1844  0.0770
   18CHTO   H74 7464   6.237   7.173   1.108  2.3559  0.4660 -0.0621
   18CHTO   C40 7465   6.040   7.321   0.906 -0.6317  0.0965  0.1110
   18CHTO   H82 7466   6.089   7.418   0.904  1.8899 -1.1606 -1.8080
   18CHTO   O26 7467   5.960   7.299   0.790  0.1439  0.0174  0.1848
   18CHTO   C41 7468   6.020   7.274   0.661 -0.3225  0.5899 -0.3486
   18CHTO   H83 7469   6.070   7.366   0.626  0.4935  0.8051  1.3229
   18CHTO   C52 7470   5.897   7.244   0.577 -0.0158  0.2158  0.1777
   18CHTO   O35 7471   5.933   7.229   0.442 -0.3039  0.2661  0.2183
   18CHTO   H71 7472   5.872   7.254   0.375 -0.0628  1.6804  0.5129
   18CHTO   O28 7473   5.963   7.329   1.023 -0.7848  0.0844  0.2906
   18CHTO   C42 7474   5.820   7.287   1.041 -0.1935  0.2067  0.7729
   18CHTO   H84 7475   5.814   7.305   1.148 -0.6725 -1.7063  1.0730
   18CHTO   C44 7476   5.788   7.138   1.029  0.0978  0.9854 -0.4895
   18CHTO   H86 7477   5.802   7.107   0.925  2.2629  0.8855 -0.1801
   18CHTO   O32 7478   5.877   7.051   1.108  0.2051  0.2790 -0.2653
   18CHTO   H69 7479   5.826   6.983   1.148  0.1943  0.0379 -0.6954
   18CHTO   C48 7480   5.637   7.118   1.054  0.4872 -0.0167  0.3039
   18CHTO   H90 7481   5.605   7.160   1.149  1.4418  2.6492 -0.5023
   18CHTO    N9 7482   5.593   6.972   1.045  0.4473 -0.0897  0.0603
   18CHTO   H77 7483   5.486   6.969   1.054  0.2843  1.2206 -1.2216
   18CHTO   H78 7484   5.641   6.921   1.127 -2.3380 -1.6416  0.7633
   18CHTO   C51 7485   5.561   7.210   0.951 -0.6514  0.2666  0.2025
   18CHTO   H93 7486   5.605   7.196   0.852 -1.0584  0.2216  0.0283
   18CHTO   O30 7487   5.581   7.341   0.997 -0.4662  0.1827  0.6024
   18CHTO   C46 7488   5.719   7.390   0.970 -0.0605  0.1830  0.0605
   18CHTO   H88 7489   5.729   7.401   0.863 -1.4381 -0.8919 -0.1914
   18CHTO   C53 7490   5.716   7.526   1.040 -0.2955 -0.7531 -0.1846
   18CHTO   O72 7491   5.833   7.600   1.003  0.2759 -0.8989 -0.3985
   18CHTO  H199 7492   5.850   7.662   1.072 -0.2734 -1.1833 -0.0044
   18CHTO   O22 7493   5.418   7.199   0.936  0.4178 -0.6071  0.0634
   18CHTO   C31 7494   5.358   7.184   0.800  0.2901  0.0740  0.1541
   18CHTO   H59 7495   5.248   7.190   0.812 -0.0629  1.7973 -3.3158
   18CHTO   C29 7496   5.397   7.293   0.701  0.4012  0.5124  0.2763
   18CHTO   H57 7497   5.507   7.295   0.701  0.4452 -0.7692  2.2716
   18CHTO   O21 7498   5.354   7.418   0.765 -0.6702 -0.5023 -0.5575
   18CHTO   H37 7499   5.431   7.457   0.802 -2.1917  0.2748  1.9121
   18CHTO   C27 7500   5.345   7.264   0.556 -0.7927 -0.1990  0.3241
   18CHTO   H55 7501   5.235   7.259   0.559 -0.8078 -0.2671 -0.2958
   18CHTO    N5 7502   5.382   7.362   0.453 -0.1418 -0.1341  0.3865
   18CHTO   H43 7503   5.488   7.353   0.437  0.0166  0.3327  1.0965
   18CHTO   H44 7504   5.317   7.364   0.367 -1.1494  2.5747  1.1474
   18CHTO   C25 7505   5.395   7.121   0.509 -0.3831 -0.1424 -0.1009
   18CHTO   H53 7506   5.502   7.116   0.531 -0.4724 -1.4470  0.0587
   18CHTO   O17 7507   5.325   7.029   0.608 -0.4578 -0.8919  0.6332
   18CHTO   C32 7508   5.379   7.042   0.740  0.0575  0.1508  0.5840
   18CHTO   H60 7509   5.484   7.015   0.737  0.0089 -0.0642  0.8051
   18CHTO   C36 7510   5.314   6.931   0.825  0.0688  0.1844 -0.0576
   18CHTO   O25 7511   5.360   6.804   0.795  0.3215 -0.8959 -0.2681
   18CHTO   H40 7512   5.300   6.742   0.831  0.3019 -0.4032  0.5663
   18CHTO   O15 7513   5.352   7.069   0.365 -0.5889 -0.0557  0.0651
   18CHTO   C19 7514   5.367   7.041   0.225  0.7340  0.1486 -0.2667
   18CHTO   H47 7515   5.314   6.945   0.218 -1.0585  1.1391 -0.6838
   18CHTO   C20 7516   5.306   7.154   0.138  0.5306  0.1259  0.2524
   18CHTO   H48 7517   5.359   7.249   0.152 -0.9730  1.1585 -0.8893
   18CHTO   O19 7518   5.166   7.162   0.166  0.1014  0.6636 -0.1571
   18CHTO   H35 7519   5.124   7.241   0.139 -1.9505 -0.9301 -1.7781
   18CHTO   C21 7520   5.339   7.140  -0.024  0.2814  0.0878  0.4269
   18CHTO   H49 7521   5.275   7.060  -0.059 -0.3091  1.3117 -1.3540
   18CHTO    N4 7522   5.291   7.263  -0.092 -0.4568 -0.3922 -0.6962
   18CHTO   H41 7523   5.208   7.241  -0.157 -1.6666 -2.4539  1.4584
   18CHTO   H42 7524   5.266   7.345  -0.026 -1.9569  0.2639 -2.0562
   18CHTO   C22 7525   5.484   7.106  -0.049 -0.2642 -0.2987 -0.2182
   18CHTO   H50 7526   5.550   7.192  -0.058 -2.4111  1.4732  0.3652
   18CHTO   O14 7527   5.532   7.004   0.043  0.0493 -0.2437 -0.7045
   18CHTO   C23 7528   5.513   7.026   0.186 -0.5707 -0.0798  0.0967
   18CHTO   H51 7529   5.572   7.115   0.211 -0.0744 -1.0259  2.4128
   18CHTO   C34 7530   5.572   6.904   0.258  0.1792  0.1282  0.6722
   18CHTO   O23 7531   5.707   6.879   0.227  0.0641  0.0974  0.4917
   18CHTO   H38 7532   5.743   6.798   0.259  2.2829  0.1271 -1.8355
   18CHTO   O16 7533   5.495   7.037  -0.178 -0.1108  0.0425  0.0766
   18CHTO   C24 7534   5.603   7.120  -0.282  0.0155 -0.7182  0.5529
   18CHTO   H52 7535   5.643   7.210  -0.235 -0.0531 -1.3387  1.8317
   18CHTO   C26 7536   5.536   7.157  -0.418  0.3842  0.3117 -0.4150
   18CHTO   H54 7537   5.480   7.068  -0.453  1.0364 -0.2817  0.0488
   18CHTO   O20 7538   5.434   7.248  -0.387 -0.3371  0.1598  0.7071
   18CHTO   H36 7539   5.471   7.331  -0.363  1.8979 -0.0248 -1.9179
   18CHTO   C30 7540   5.629   7.203  -0.536  0.2917  0.8830 -0.0105
   18CHTO   H58 7541   5.658   7.306  -0.512  1.2168 -0.2356  3.9353
   18CHTO    N6 7542   5.556   7.217  -0.665 -0.6184 -0.2842  0.0659
   18CHTO   H45 7543   5.516   7.125  -0.705  2.4978 -2.1756  1.0732
   18CHTO   H46 7544   5.483   7.296  -0.677  0.2266  0.1770 -2.1983
   18CHTO   C33 7545   5.750   7.107  -0.540 -0.5693  0.4107  0.6792
   18CHTO   H61 7546   5.719   7.006  -0.569 -1.1161  0.3286  1.5439
   18CHTO   O18 7547   5.813   7.105  -0.415  0.1874 -0.0030 -0.0208
   18CHTO   C28 7548   5.733   7.038  -0.313 -0.0185  0.0865 -0.7215
   18CHTO   H56 7549   5.706   6.939  -0.350  3.3103 -0.8774 -0.7786
   18CHTO   C35 7550   5.821   7.017  -0.179 -0.2811  0.0883 -0.1409
   18CHTO   O24 7551   5.919   6.907  -0.188 -0.1070 -0.2792  0.2318
   18CHTO   H39 7552   6.004   6.929  -0.156 -0.4457  0.5151  0.6133
   18CHTO    O9 7553   5.844   7.145  -0.643 -0.2068  0.5864 -0.3167
   18CHTO   C13 7554   5.930   7.011  -0.719  0.0418  0.0312  0.2597
   18CHTO   H26 7555   5.907   7.023  -0.827  0.3177  0.7538  0.2810
   18CHTO   C11 7556   5.894   6.859  -0.668 -0.0477  0.1719 -0.6648
   18CHTO   H24 7557   5.790   6.838  -0.697 -0.7173  0.4906  1.3857
   18CHTO    O8 7558   5.900   6.841  -0.525 -0.2498 -0.2029 -0.4206
   18CHTO    H3 7559   5.841   6.773  -0.499 -1.4350  1.1793  0.6347
   18CHTO    C9 7560   5.995   6.762  -0.743  0.8395 -0.3355 -0.0493
   18CHTO   H22 7561   5.992   6.789  -0.850 -3.1783 -1.5264 -0.3107
   18CHTO    N2 7562   5.954   6.623  -0.743  0.0169 -0.1256 -0.2677
   18CHTO   H10 7563   5.927   6.591  -0.643 -1.0484  1.3191 -0.0829
   18CHTO   H11 7564   6.018   6.549  -0.789  0.7759 -0.2210  0.9307
   18CHTO    C7 7565   6.141   6.785  -0.699  0.0213  0.4934 -0.3063
   18CHTO   H20 7566   6.204   6.727  -0.769  2.1510 -0.6792  2.4842
   18CHTO    O4 7567   6.176   6.925  -0.711  0.9108  0.0033  0.5067
   18CHTO   C14 7568   6.085   7.038  -0.692 -0.0581 -0.0388 -0.5102
   18CHTO   H27 7569   6.115   7.117  -0.764  1.5085 -1.0406 -0.9869
   18CHTO   C18 7570   6.111   7.098  -0.551  0.4882  0.1864 -0.7533
   18CHTO   O13 7571   6.237   7.167  -0.549  0.1951  0.4339 -0.2953
   18CHTO    H7 7572   6.224   7.260  -0.543  0.2860  0.3556  1.4531
   18CHTO    O2 7573   6.168   6.741  -0.555  0.2670 -0.0814  0.2365
   18CHTO    C1 7574   6.303   6.723  -0.514 -0.0163 -0.4152  0.1540
   18CHTO   H14 7575   6.365   6.805  -0.555 -0.3383 -1.2024 -1.9533
   18CHTO    C2 7576   6.366   6.593  -0.566  0.0651  0.8673  0.5070
   18CHTO   H15 7577   6.302   6.513  -0.527 -1.1647  1.0746 -1.0327
   18CHTO    O6 7578   6.359   6.578  -0.708 -0.3893  0.1800  0.3359
   18CHTO    H1 7579   6.399   6.499  -0.739  1.4871  1.4898 -0.6837
   18CHTO    C3 7580   6.514   6.581  -0.513  0.1558 -0.3598 -0.6058
   18CHTO   H16 7581   6.571   6.662  -0.561  0.0448  0.3293  0.4066
   18CHTO    N1 7582   6.582   6.455  -0.547  0.1923 -0.6599 -0.8063
   18CHTO    H8 7583   6.655   6.488  -0.620  0.7087  3.2827  1.3388
   18CHTO    H9 7584   6.638   6.437  -0.456 -0.0904 -0.0823 -0.5161
   18CHTO    C4 7585   6.522   6.608  -0.352 -0.0580 -0.7866 -0.0143
   18CHTO   H17 7586   6.482   6.521  -0.299  0.7779 -1.8627 -1.1364
   18CHTO    O1 7587   6.448   6.731  -0.314  0.3698  0.1639  0.2154
   18CHTO    C5 7588   6.308   6.734  -0.361  0.1271  0.1815 -0.4488
   18CHTO   H18 7589   6.261   6.646  -0.317 -0.0745  0.1047 -0.8225
   18CHTO   C16 7590   6.234   6.852  -0.292  0.1400 -0.3747 -1.1388
   18CHTO   O11 7591   6.314   6.973  -0.305  0.3918 -0.2619 -0.3933
   18CHTO    H5 7592   6.294   7.009  -0.389 -0.3788  0.4257  0.0706
   18CHTO    O3 7593   6.648   6.640  -0.290  0.2554 -0.5461 -0.3499
   18CHTO    C6 7594   6.667   6.595  -0.150 -0.4604  0.0419  0.2118
   18CHTO   H19 7595   6.573   6.567  -0.104 -0.6198 -0.0889 -0.1882
   18CHTO    C8 7596   6.754   6.468  -0.143  0.2431 -0.2771 -0.8429
   18CHTO   H21 7597   6.849   6.481  -0.194  0.3787 -0.3893 -0.6229
   18CHTO    O7 7598   6.682   6.358  -0.215 -0.2259  0.4810 -0.4864
   18CHTO    H2 7599   6.602   6.330  -0.175 -0.5081  0.7225 -0.8832
   18CHTO   C12 7600   6.782   6.420   0.008 -0.1537  0.0861  0.0577
   18CHTO   H25 7601   6.682   6.391   0.047 -0.3118 -0.3243 -0.6404
   18CHTO    N3 7602   6.881   6.306   0.011  0.6353 -0.1794  0.0819
   18CHTO   H12 7603   6.980   6.346   0.024  0.6508 -0.5317  1.0567
   18CHTO   H13 7604   6.858   6.236   0.090 -3.0190  0.7430 -0.0866
   18CHTO   C15 7605   6.822   6.543   0.098  0.2792 -0.6542 -0.1458
   18CHTO   H28 7606   6.925   6.577   0.092 -0.0905  0.4066 -0.7242
   18CHTO   O10 7607   6.799   6.515   0.222 -0.4791 -0.5913 -0.2780
   18CHTO    H4 7608   6.847   6.442   0.254  0.3621 -0.3535 -0.9794
   18CHTO    O5 7609   6.730   6.655   0.080 -0.4001  0.3779 -0.0804
   18CHTO   C10 7610   6.738   6.701  -0.060  0.1140 -0.4628 -0.3481
   18CHTO   H23 7611   6.844   6.708  -0.083  0.8145  1.1154  2.9313
   18CHTO   C17 7612   6.674   6.839  -0.072  0.1571  0.6612  0.5549
   18CHTO   O12 7613   6.717   6.907  -0.194 -0.1307  0.1465 -0.1522
   18CHTO    H6 7614   6.809   6.922  -0.178  0.3776 -1.7465 -1.1288
   19CHTO  H203 7615   6.996   8.079   1.326 -1.9576 -0.7053  1.8081
   19CHTO   O82 7616   6.971   8.012   1.265  0.3322 -0.0545  0.0611
   19CHTO  C123 7617   6.827   7.985   1.259 -0.7809  0.0667 -0.2117
   19CHTO  H227 7618   6.777   8.071   1.212 -1.3698  0.2978  0.8066
   19CHTO   O77 7619   6.818   7.858   1.176  0.0106 -0.4397  0.4990
   19CHTO  C118 7620   6.682   7.826   1.145 -0.4500  0.5462 -0.0361
   19CHTO  H222 7621   6.640   7.902   1.078 -1.9851  1.5235  1.9493
   19CHTO  C125 7622   6.669   7.689   1.072  0.0591 -0.5459  0.5235
   19CHTO   O84 7623   6.757   7.696   0.959  0.2238 -0.2237  0.7957
   19CHTO  H205 7624   6.715   7.647   0.891 -0.6259 -0.9175  1.7985
   19CHTO  C114 7625   6.599   7.813   1.272  0.6951  0.3738 -0.0522
   19CHTO  H218 7626   6.632   7.724   1.326  0.5279 -0.1838 -0.8711
   19CHTO  C116 7627   6.614   7.938   1.365 -0.1827 -0.2178  0.5839
   19CHTO  H220 7628   6.564   8.031   1.330  1.5090  0.8411  0.9095
   19CHTO   O79 7629   6.536   7.911   1.481  0.3431  0.4859 -0.4028
   19CHTO  H201 7630   6.444   7.917   1.469 -0.1085  0.1316  2.5978
   19CHTO  C120 7631   6.765   7.975   1.398 -0.3291  0.2113  0.3225
   19CHTO  H224 7632   6.816   7.898   1.461  3.6491 -0.4178 -3.4148
   19CHTO   N21 7633   6.769   8.102   1.476  0.1609 -0.1404 -0.4403
   19CHTO  H211 7634   6.789   8.178   1.401  1.4073  0.4906  0.5043
   19CHTO  H212 7635   6.853   8.110   1.543 -1.2669 -2.1087  1.6302
   19CHTO   O75 7636   6.465   7.809   1.221  0.1167 -0.1109 -0.5362
   19CHTO  C112 7637   6.361   7.720   1.315  0.9457  0.0945 -0.1396
   19CHTO  H216 7638   6.325   7.776   1.402 -2.2240  0.7815 -1.8583
   19CHTO   O73 7639   6.437   7.605   1.355 -0.2024 -0.4226  0.1081
   19CHTO  C113 7640   6.370   7.533   1.460 -0.0790 -1.0295 -0.3127
   19CHTO  H217 7641   6.352   7.601   1.546  0.5411 -0.3359 -0.7327
   19CHTO  C124 7642   6.470   7.432   1.522  0.3224  0.4026  0.2944
   19CHTO   O83 7643   6.561   7.379   1.429  0.6021 -0.1102  0.3365
   19CHTO  H204 7644   6.642   7.426   1.434  0.0596  0.7622  1.0593
   19CHTO  C109 7645   6.231   7.474   1.399  0.1524 -0.3296 -0.5948
   19CHTO  H213 7646   6.259   7.403   1.320  0.4462 -0.8493 -0.0327
   19CHTO  C110 7647   6.146   7.589   1.338  0.1659 -0.0787 -0.2895
   19CHTO  H214 7648   6.101   7.657   1.410 -0.4884 -0.1601 -0.6221
   19CHTO   O78 7649   6.027   7.527   1.276 -0.3891 -0.0767  0.4935
   19CHTO  H200 7650   5.953   7.577   1.303  0.2808  1.2401 -0.0546
   19CHTO  C111 7651   6.236   7.662   1.232 -0.6281  0.3926 -0.0157
   19CHTO  H215 7652   6.270   7.592   1.154 -0.4652 -0.6572  0.9823
   19CHTO   N19 7653   6.168   7.774   1.162 -0.4697 -0.0538  0.0092
   19CHTO  H207 7654   6.242   7.820   1.099 -0.1975  1.7383  1.6064
   19CHTO  H208 7655   6.071   7.739   1.129 -0.1977 -1.0971  0.2871
   19CHTO   O74 7656   6.170   7.397   1.514  0.4893 -0.2420  0.1873
   19CHTO  C115 7657   6.105   7.288   1.459  0.5407 -0.4312 -0.3551
   19CHTO  H219 7658   6.046   7.313   1.370 -0.6951 -0.9103  0.3119
   19CHTO   O76 7659   6.206   7.173   1.406 -0.3412  0.3691  0.0610
   19CHTO  C122 7660   6.270   7.103   1.516 -0.0088  0.7089  0.0541
   19CHTO  H226 7661   6.328   7.179   1.569 -2.1327  1.8447  0.8443
   19CHTO  C126 7662   6.383   6.999   1.464 -0.2885  0.1484  0.3250
   19CHTO   O85 7663   6.498   7.058   1.408 -0.0833 -0.5210 -0.4670
   19CHTO  H206 7664   6.513   7.143   1.445  1.2107 -0.9033 -0.1076
   19CHTO  C121 7665   6.164   7.039   1.617  0.4556 -0.5561  0.6622
   19CHTO  H225 7666   6.169   6.929   1.625  1.0304 -0.4461  1.8739
   19CHTO   O81 7667   6.185   7.088   1.743  0.0068 -0.7104 -0.5659
   19CHTO  H202 7668   6.195   7.022   1.809  2.6472  0.3355  0.1497
   19CHTO  C119 7669   6.017   7.076   1.573  0.4154  0.0661  0.4310
   19CHTO  H223 7670   5.997   7.030   1.476  1.1151  0.0154  0.3036
   19CHTO  C117 7671   6.000   7.231   1.559  0.0423 -0.2455  0.3422
   19CHTO  H221 7672   6.029   7.285   1.649 -0.1645  1.1106 -0.3850
   19CHTO   N20 7673   5.862   7.270   1.527 -0.3865  0.0832  0.0606
   19CHTO  H209 7674   5.850   7.377   1.514  1.8810  0.5546  1.5943
   19CHTO  H210 7675   5.804   7.221   1.603 -0.1697 -2.2779 -1.2470
   19CHTO   O80 7676   5.912   7.011   1.665  0.8845  0.4619 -0.3038
   19CHTO  C103 7677   5.890   6.860   1.664 -0.2363  0.0731  0.2275
   19CHTO  H190 7678   5.976   6.801   1.633 -2.6698 -2.3696 -2.1826
   19CHTO  C101 7679   5.854   6.807   1.813 -0.5410  0.6174  0.5281
   19CHTO  H188 7680   5.763   6.854   1.849 -2.5087 -1.5959 -1.4165
   19CHTO   O68 7681   5.972   6.845   1.899 -0.0620  0.1928 -0.6186
   19CHTO  H168 7682   5.936   6.894   1.971  0.1188  1.1262 -1.1483
   19CHTO   C99 7683   5.837   6.650   1.818 -0.5626 -0.0984  0.7166
   19CHTO  H186 7684   5.934   6.616   1.776 -0.4888  1.5217 -0.5139
   19CHTO   N17 7685   5.795   6.594   1.949 -0.4217 -0.7089 -0.0621
   19CHTO  H174 7686   5.864   6.521   1.990 -0.2994 -0.4183  0.2516
   19CHTO  H175 7687   5.774   6.658   2.034 -2.5321 -0.2118 -0.9345
   19CHTO   C97 7688   5.729   6.608   1.716  0.2099 -0.1137 -0.6436
   19CHTO  H184 7689   5.628   6.637   1.747  1.0062  2.2320 -0.1479
   19CHTO   O64 7690   5.764   6.664   1.591  0.0068 -0.2722  0.0475
   19CHTO  C104 7691   5.765   6.812   1.585 -1.0020  0.1600  0.7430
   19CHTO  H191 7692   5.675   6.857   1.627 -2.6732  0.1837 -2.6753
   19CHTO  C108 7693   5.769   6.863   1.443  0.2980 -0.1289 -0.0566
   19CHTO   O71 7694   5.882   6.812   1.366 -0.0778  0.2401  0.0640
   19CHTO  H171 7695   5.930   6.890   1.346  0.7149 -0.5115 -1.0248
   19CHTO   O62 7696   5.735   6.471   1.697  0.0646 -0.0140 -0.4103
   19CHTO   C91 7697   5.610   6.402   1.668 -0.3828 -0.4082 -0.1180
   19CHTO  H178 7698   5.522   6.462   1.692  0.3739  1.0368 -0.8454
   19CHTO   C92 7699   5.595   6.285   1.764 -0.1757 -0.0225 -0.0134
   19CHTO  H179 7700   5.690   6.233   1.777  0.5399  0.9806 -1.1156
   19CHTO   O66 7701   5.570   6.332   1.893  0.0114 -0.1846 -1.0170
   19CHTO  H166 7702   5.495   6.389   1.886 -1.0759 -1.4320  0.1392
   19CHTO   C93 7703   5.480   6.188   1.715  0.6196 -0.4580 -0.5609
   19CHTO  H180 7704   5.382   6.235   1.733  1.4210  1.3408 -0.8157
   19CHTO   N16 7705   5.480   6.059   1.796  0.3601  0.3600  0.0895
   19CHTO  H172 7706   5.440   5.978   1.736  4.9604  0.0759 -2.8215
   19CHTO  H173 7707   5.416   6.073   1.882  0.7806 -0.9551  0.6351
   19CHTO   C94 7708   5.490   6.148   1.563  0.8113  0.3383  0.7248
   19CHTO  H181 7709   5.579   6.089   1.543  0.6026  1.1222 -2.7702
   19CHTO   O61 7710   5.497   6.270   1.493  0.3531 -0.0433  0.0052
   19CHTO   C95 7711   5.605   6.348   1.521 -0.0575 -0.3929  0.4328
   19CHTO  H182 7712   5.696   6.292   1.500  2.0247  3.2127 -0.5003
   19CHTO  C106 7713   5.599   6.454   1.412 -0.9587 -0.2763  0.3752
   19CHTO   O69 7714   5.490   6.543   1.422 -0.2150 -0.9579  0.0775
   19CHTO  H169 7715   5.500   6.617   1.365 -0.7828  1.3930  2.9241
   19CHTO   O63 7716   5.352   6.083   1.503  0.2867  0.0850  0.2297
   19CHTO   C96 7717   5.383   5.980   1.378  0.5399  0.1729 -0.1948
   19CHTO  H183 7718   5.465   5.918   1.412  1.3556  0.7661 -1.0776
   19CHTO   C98 7719   5.426   6.049   1.252  0.1216  0.4670 -1.0337
   19CHTO  H185 7720   5.505   6.124   1.271  1.4172 -1.3532  1.0820
   19CHTO   O67 7721   5.494   5.945   1.178  0.1747  0.3289 -0.1745
   19CHTO  H167 7722   5.510   5.974   1.090  1.6876  2.3026  0.7294
   19CHTO  C102 7723   5.300   6.116   1.175  0.2037  0.1145  0.5347
   19CHTO  H189 7724   5.324   6.125   1.068 -0.2490  2.3320  0.5926
   19CHTO   N18 7725   5.258   6.247   1.224 -0.8957  0.2526 -0.1690
   19CHTO  H176 7726   5.157   6.233   1.258 -1.4151  0.5619 -1.5649
   19CHTO  H177 7727   5.328   6.277   1.300  1.6626 -0.7109 -2.0550
   19CHTO  C105 7728   5.188   6.006   1.164  0.6922 -0.4306 -0.2491
   19CHTO  H192 7729   5.093   6.042   1.204  0.3434 -2.4603  0.7967
   19CHTO   O65 7730   5.211   5.882   1.229  0.2490 -0.2810 -0.2160
   19CHTO  C100 7731   5.248   5.883   1.368 -0.8016 -0.4894  0.2119
   19CHTO  H187 7732   5.167   5.942   1.413  0.6810  1.6934  0.0743
   19CHTO  C107 7733   5.270   5.747   1.436  0.1844 -0.4086 -0.1401
   19CHTO   O70 7734   5.290   5.769   1.573  0.0283 -0.0180 -0.0299
   19CHTO  H170 7735   5.217   5.740   1.625 -0.7803  2.8504  0.5465
   19CHTO   O57 7736   5.182   5.980   1.017 -0.3701 -0.0122 -0.2886
   19CHTO   C85 7737   5.063   5.897   0.969  0.2892  0.0176  0.6466
   19CHTO  H157 7738   5.007   5.863   1.059 -1.9009 -3.7052 -1.9938
   19CHTO   C83 7739   5.114   5.762   0.904  0.4782 -0.3313  0.1011
   19CHTO  H155 7740   5.162   5.708   0.986  0.9390 -0.3968 -0.2073
   19CHTO   O56 7741   5.216   5.792   0.806 -0.3659  0.4176 -0.4110
   19CHTO  H135 7742   5.189   5.844   0.732 -0.1427  0.2278 -0.6288
   19CHTO   C81 7743   4.990   5.679   0.866  0.3091 -0.9198 -0.2486
   19CHTO  H153 7744   4.926   5.659   0.951 -0.8630 -0.3864 -0.9960
   19CHTO   N14 7745   5.018   5.544   0.816  0.0290  0.3508  0.2220
   19CHTO  H141 7746   4.931   5.500   0.772 -0.6587  0.5691  1.3540
   19CHTO  H142 7747   5.041   5.493   0.907 -0.4969  0.6693  0.5279
   19CHTO   C79 7748   4.907   5.766   0.758 -0.0283  0.4087 -0.1551
   19CHTO  H151 7749   4.817   5.709   0.736 -0.7262  1.3438  0.2406
   19CHTO   O52 7750   4.868   5.892   0.823 -0.0443 -0.1399  0.7315
   19CHTO   C86 7751   4.975   5.972   0.870  0.4891 -0.4318 -0.8124
   19CHTO  H158 7752   5.042   6.003   0.787  2.9257 -1.7199  0.6099
   19CHTO   C90 7753   4.915   6.102   0.936 -0.4519 -0.1654 -0.2085
   19CHTO   O60 7754   4.891   6.198   0.835 -0.0100  0.5583 -0.3452
   19CHTO  H138 7755   4.825   6.253   0.872 -1.2517 -0.8968 -0.3373
   19CHTO   O50 7756   4.971   5.777   0.624 -0.2573 -0.6087  0.0842
   19CHTO   C73 7757   4.934   5.783   0.487  0.2144  0.1487  0.4191
   19CHTO  H145 7758   4.884   5.688   0.461  2.0059 -0.5115 -0.7752
   19CHTO   C74 7759   5.058   5.811   0.397 -0.8392  0.6713 -0.2621
   19CHTO  H146 7760   5.123   5.725   0.417 -2.8890 -0.6261  0.9326
   19CHTO   O54 7761   5.023   5.809   0.260 -0.3215  0.2420 -0.2742
   19CHTO  H133 7762   4.945   5.859   0.244 -0.7252 -0.4541 -0.4977
   19CHTO   C75 7763   5.125   5.942   0.446  0.0572 -0.7320 -0.3212
   19CHTO  H147 7764   5.141   5.927   0.554  0.6217 -0.1675 -0.3216
   19CHTO   N13 7765   5.261   5.968   0.388 -0.6095  0.3172  0.4141
   19CHTO  H139 7766   5.330   5.902   0.439 -0.5597  0.3031  0.3275
   19CHTO  H140 7767   5.287   6.067   0.422 -0.4067 -0.1921  1.7772
   19CHTO   C76 7768   5.019   6.064   0.450  0.7563 -0.8813 -0.0742
   19CHTO  H148 7769   5.001   6.086   0.345 -0.0416  0.8529  0.4117
   19CHTO   O49 7770   4.889   6.017   0.510 -0.4577 -0.1619  0.0841
   19CHTO   C77 7771   4.835   5.895   0.461 -0.2402  1.0110 -0.2794
   19CHTO  H149 7772   4.820   5.900   0.353  1.4690  3.1345 -0.4428
   19CHTO   C88 7773   4.698   5.885   0.528 -0.1437 -0.7841 -0.3268
   19CHTO   O58 7774   4.626   5.784   0.476  0.3283 -0.0351  0.0965
   19CHTO  H136 7775   4.537   5.782   0.506  0.0423 -0.4912 -0.7389
   19CHTO   O51 7776   5.083   6.187   0.536  0.4324  0.5236 -0.6841
   19CHTO   C78 7777   5.053   6.331   0.461  0.1111 -0.2073 -0.6507
   19CHTO  H150 7778   5.016   6.321   0.357 -2.1854  3.3829 -0.2245
   19CHTO   C80 7779   5.181   6.418   0.459  0.1121 -0.0499 -0.4054
   19CHTO  H152 7780   5.224   6.421   0.561  2.5155 -0.3421 -1.3595
   19CHTO   O55 7781   5.272   6.353   0.371  1.0744  0.7274 -0.4304
   19CHTO  H134 7782   5.238   6.372   0.286  0.9750 -0.5467 -0.6916
   19CHTO   C84 7783   5.155   6.571   0.421  0.6427  0.3930  0.4717
   19CHTO  H156 7784   5.111   6.567   0.322 -0.4175 -1.3657  0.9950
   19CHTO   N15 7785   5.273   6.655   0.432 -0.4646 -1.2032 -0.5070
   19CHTO  H143 7786   5.287   6.723   0.514  2.6237 -0.8634 -1.2631
   19CHTO  H144 7787   5.298   6.702   0.339 -2.0929  0.8763  0.0555
   19CHTO   C87 7788   5.041   6.624   0.514 -0.9141  0.1801  0.3223
   19CHTO  H159 7789   5.071   6.614   0.618  0.3912 -2.1319 -0.2457
   19CHTO   O53 7790   4.913   6.539   0.496 -0.5828 -0.2150 -0.2746
   19CHTO   C82 7791   4.944   6.398   0.536 -0.4946  1.2036  1.1146
   19CHTO  H154 7792   4.967   6.399   0.643  1.5531 -2.6855  0.7908
   19CHTO   C89 7793   4.810   6.323   0.521  0.5003  0.5856 -0.2448
   19CHTO   O59 7794   4.771   6.292   0.384 -0.0185  0.0351 -0.1532
   19CHTO  H137 7795   4.719   6.361   0.347  0.7716 -0.6895 -2.7054
   19CHTO   O45 7796   4.996   6.795   0.496  0.5654  0.1950 -0.0436
   19CHTO   C67 7797   4.889   6.843   0.580 -0.5544  0.1543  0.5276
   19CHTO  H124 7798   4.848   6.762   0.640 -0.9966 -0.0576 -0.0472
   19CHTO   C65 7799   4.957   6.954   0.671 -0.2182 -0.7972 -0.2386
   19CHTO  H122 7800   5.044   6.984   0.611 -0.7614  0.3840 -0.4551
   19CHTO   O44 7801   5.003   6.880   0.781 -0.0764  0.0607  0.5058
   19CHTO  H102 7802   5.085   6.912   0.812  0.7125 -0.8487 -0.5897
   19CHTO   C63 7803   4.873   7.083   0.690  0.6907  0.3177  0.0552
   19CHTO  H120 7804   4.876   7.144   0.601 -0.3268  1.3450  0.7111
   19CHTO   N11 7805   4.937   7.185   0.790 -0.0372 -0.0185 -0.1921
   19CHTO  H108 7806   4.872   7.211   0.871 -2.4415 -1.2040 -1.6854
   19CHTO  H109 7807   4.955   7.277   0.738  0.7513 -0.5173 -0.8214
   19CHTO   C61 7808   4.713   7.042   0.707  0.1466  0.0100 -0.4797
   19CHTO  H118 7809   4.653   7.131   0.683  0.2160 -0.0982 -1.0680
   19CHTO   O40 7810   4.671   6.933   0.615 -0.3815  0.2126  0.1346
   19CHTO   C68 7811   4.768   6.901   0.505  0.7680  0.9460  0.4177
   19CHTO  H125 7812   4.796   6.993   0.448  0.1277 -0.3497 -2.0627
   19CHTO   C72 7813   4.715   6.809   0.400  1.1343  0.8065 -0.2040
   19CHTO   O48 7814   4.590   6.860   0.344  0.0836 -0.1380  0.2017
   19CHTO  H105 7815   4.569   6.822   0.261  0.1331 -1.2738  0.7044
   19CHTO   O38 7816   4.690   6.992   0.847 -0.6817  0.1299  0.2521
   19CHTO   C55 7817   4.561   6.941   0.890 -0.4572  0.3060  0.4946
   19CHTO  H112 7818   4.493   6.941   0.804 -1.0777 -0.0542  0.9815
   19CHTO   C56 7819   4.510   7.035   1.018 -0.2330 -0.0195  0.3484
   19CHTO  H113 7820   4.586   7.031   1.097  0.1102  2.6944  0.1999
   19CHTO   O42 7821   4.500   7.170   0.969  0.0428 -0.2607 -0.3054
   19CHTO  H100 7822   4.466   7.232   1.030 -0.4909  0.6481 -1.5052
   19CHTO   C57 7823   4.370   6.979   1.066  0.4369 -0.6585 -0.1797
   19CHTO  H114 7824   4.302   6.988   0.981  0.6815  1.4989 -0.1663
   19CHTO   N10 7825   4.315   7.062   1.172 -0.2210 -0.1967  0.5108
   19CHTO  H106 7826   4.346   7.031   1.270  1.7428  0.2572  0.0625
   19CHTO  H107 7827   4.207   7.066   1.166 -0.2900  0.9766  2.1865
   19CHTO   C58 7828   4.379   6.833   1.103 -0.2342 -0.6083 -0.3319
   19CHTO  H115 7829   4.431   6.823   1.200  1.6448 -1.1391 -1.3712
   19CHTO   O37 7830   4.443   6.750   0.999 -0.1601  0.5609  0.7171
   19CHTO   C59 7831   4.570   6.794   0.943 -0.7288 -0.1116 -0.8472
   19CHTO  H116 7832   4.639   6.791   1.027 -1.2244  0.6306 -0.4058
   19CHTO   C70 7833   4.609   6.693   0.842 -0.3581  0.8560  0.2628
   19CHTO   O46 7834   4.540   6.688   0.714 -0.4261 -0.8055  0.1134
   19CHTO  H103 7835   4.517   6.770   0.676  0.2064 -0.6771  0.0057
   19CHTO   O39 7836   4.221   6.777   1.125 -0.0997  0.5445  0.4470
   19CHTO   C60 7837   4.157   6.729   0.998 -0.0650 -0.0849 -0.7087
   19CHTO  H117 7838   4.212   6.778   0.918  1.1128  2.3101  1.5045
   19CHTO   C62 7839   4.173   6.573   0.979 -0.0262 -0.8617  0.0704
   19CHTO  H119 7840   4.282   6.555   0.991  0.2267  2.0331  2.6531
   19CHTO   O43 7841   4.094   6.499   1.075 -0.2406 -0.3028 -0.0592
   19CHTO  H101 7842   4.005   6.499   1.044 -0.4771 -0.6885  0.6131
   19CHTO   C66 7843   4.118   6.540   0.834 -0.3527 -0.3138  0.2499
   19CHTO  H123 7844   4.163   6.601   0.756 -0.5004  0.6478  0.9066
   19CHTO   N12 7845   4.138   6.397   0.800 -0.2925 -0.3520 -0.5941
   19CHTO  H110 7846   4.046   6.341   0.792 -0.4789  0.0479 -1.3177
   19CHTO  H111 7847   4.208   6.395   0.718 -0.0387 -1.4290 -0.3570
   19CHTO   C69 7848   3.969   6.583   0.824 -0.1363 -0.1076  0.2532
   19CHTO  H126 7849   3.907   6.533   0.901  1.4041 -4.7146 -1.3333
   19CHTO   O41 7850   3.960   6.755   0.860  0.3024  0.1613 -0.5699
   19CHTO   C64 7851   4.010   6.778   0.998 -1.0474 -0.2189  0.2342
   19CHTO  H121 7852   3.962   6.712   1.073  0.9365 -0.8114  1.0161
   19CHTO   C71 7853   3.992   6.923   1.037 -0.7045  0.0469 -0.0498
   19CHTO   O47 7854   4.035   7.016   0.940  0.5619  0.0880 -0.6751
   19CHTO  H104 7855   3.959   7.060   0.906 -0.9320 -1.8658  0.0078
   19CHTO   O34 7856   3.905   6.555   0.695  0.0177  0.3676  0.0747
   19CHTO   C49 7857   3.819   6.544   0.596 -0.1398  0.8637  0.5264
   19CHTO   H91 7858   3.722   6.521   0.640 -0.4821 -0.5997 -0.9298
   19CHTO   C47 7859   3.839   6.419   0.510  0.7692  0.8602 -0.3893
   19CHTO   H89 7860   3.754   6.398   0.442  1.1614 -1.1355 -0.3079
   19CHTO   O33 7861   3.839   6.305   0.600  0.5830 -0.0406 -0.0725
   19CHTO   H70 7862   3.846   6.220   0.560  0.1481  0.4136 -1.1544
   19CHTO   C45 7863   3.980   6.428   0.431 -0.5118  0.5517 -0.5937
   19CHTO   H87 7864   4.060   6.387   0.494 -1.4795  0.8014  0.8330
   19CHTO    N8 7865   3.970   6.341   0.311  0.1905 -0.6132 -0.2843
   19CHTO   H75 7866   4.068   6.304   0.285  0.6171  1.4127 -1.7599
   19CHTO   H76 7867   3.927   6.388   0.223 -1.3600 -0.5560  0.4944
   19CHTO   C43 7868   4.019   6.581   0.398  0.6755  0.0159 -0.4911
   19CHTO   H85 7869   4.067   6.608   0.492  0.5721 -1.7242  0.0632
   19CHTO   O29 7870   3.903   6.667   0.374  0.9051  0.0819 -0.0186
   19CHTO   C50 7871   3.820   6.671   0.497  0.3873 -0.6254 -0.1509
   19CHTO   H92 7872   3.857   6.754   0.558  0.6720  1.0544 -2.5330
   19CHTO   C54 7873   3.672   6.720   0.465  0.4982 -0.4068 -0.5525
   19CHTO   O36 7874   3.669   6.855   0.405  0.1126  0.1314 -0.4593
   19CHTO   H72 7875   3.617   6.903   0.467  1.0547  1.8768 -0.9992
   19CHTO   O27 7876   4.126   6.587   0.304  0.2462 -0.7975  0.2529
   19CHTO   C37 7877   4.234   6.568   0.207  1.3556  0.2190  0.4619
   19CHTO   H79 7878   4.223   6.472   0.155 -0.1731  1.4760 -1.5815
   19CHTO   C38 7879   4.217   6.678   0.100 -0.0545  0.1278  0.5956
   19CHTO   H80 7880   4.218   6.778   0.147  2.2778  0.8204 -0.8199
   19CHTO   O31 7881   4.086   6.666   0.049 -0.0804  0.1072  0.6818
   19CHTO   H68 7882   4.015   6.677   0.110 -0.8430 -1.6582  0.1444
   19CHTO   C39 7883   4.325   6.672  -0.016 -0.3068 -0.4327 -0.4329
   19CHTO   H81 7884   4.323   6.574  -0.065 -0.9703  0.1422 -1.5938
   19CHTO    N7 7885   4.313   6.767  -0.130  0.3567 -0.0701  0.4564
   19CHTO   H73 7886   4.318   6.870  -0.096 -1.1503  0.0487  0.3578
   19CHTO   H74 7887   4.229   6.745  -0.194  0.7845 -1.7525  0.4655
   19CHTO   C40 7888   4.466   6.689   0.055  0.8822 -0.3146  0.2069
   19CHTO   H82 7889   4.483   6.790   0.092 -1.4286  0.9294 -1.9617
   19CHTO   O26 7890   4.475   6.588   0.158 -0.8971 -0.5164  0.4235
   19CHTO   C41 7891   4.377   6.588   0.267  0.1092 -0.6588 -0.7222
   19CHTO   H83 7892   4.376   6.685   0.318 -1.2623 -0.9428 -0.2035
   19CHTO   C52 7893   4.410   6.484   0.381  0.5547  0.4231 -0.2720
   19CHTO   O35 7894   4.442   6.365   0.321  0.1415  0.5211 -0.3160
   19CHTO   H71 7895   4.526   6.348   0.358 -0.3228  1.7182  1.3631
   19CHTO   O28 7896   4.570   6.644  -0.036 -0.2609  0.1623  0.1782
   19CHTO   C42 7897   4.701   6.705  -0.026 -0.9548  0.2182  0.1688
   19CHTO   H84 7898   4.707   6.741   0.076  0.8418 -0.4561  0.3221
   19CHTO   C44 7899   4.719   6.829  -0.119 -0.5486  1.1414 -0.9746
   19CHTO   H86 7900   4.687   6.800  -0.219  0.8659 -0.1348 -1.0754
   19CHTO   O32 7901   4.622   6.922  -0.071  0.1038  0.2166 -0.2931
   19CHTO   H69 7902   4.626   7.006  -0.112  1.8964 -0.3771 -1.3855
   19CHTO   C48 7903   4.858   6.887  -0.122  0.8346  0.0959 -0.2351
   19CHTO   H90 7904   4.883   6.919  -0.021 -1.0759 -0.4256  0.4319
   19CHTO    N9 7905   4.875   7.001  -0.215 -0.2511 -1.0351  0.3549
   19CHTO   H77 7906   4.784   7.059  -0.215 -0.3478 -1.1763  1.6847
   19CHTO   H78 7907   4.955   7.064  -0.179  1.4584 -0.6938 -3.6882
   19CHTO   C51 7908   4.958   6.769  -0.158 -0.0018 -0.4892  0.8106
   19CHTO   H93 7909   4.934   6.731  -0.258 -0.1017  0.1988  0.5697
   19CHTO   O30 7910   4.949   6.668  -0.055  0.0775 -0.0599  0.0255
   19CHTO   C46 7911   4.812   6.597  -0.053 -0.4370 -0.1222 -0.2627
   19CHTO   H88 7912   4.786   6.549  -0.147 -0.1766 -1.1754  0.1965
   19CHTO   C53 7913   4.807   6.502   0.063 -0.7462 -0.8202 -0.7728
   19CHTO   O72 7914   4.908   6.399   0.065 -0.2732  0.0989  0.1214
   19CHTO  H199 7915   4.996   6.428   0.080 -0.4452 -0.2508  1.9203
   19CHTO   O22 7916   5.097   6.811  -0.144 -0.2764 -0.3555 -0.7937
   19CHTO   C31 7917   5.213   6.734  -0.204  0.1580 -0.4812 -0.0463
   19CHTO   H59 7918   5.185   6.627  -0.211 -1.6897  0.1089 -1.9101
   19CHTO   C29 7919   5.252   6.787  -0.347  0.4373  0.8584  0.2288
   19CHTO   H57 7920   5.258   6.897  -0.343  0.1630  0.8969 -0.3722
   19CHTO   O21 7921   5.138   6.771  -0.433  0.2121 -0.5444 -0.1064
   19CHTO   H37 7922   5.070   6.834  -0.423  0.8195  0.5348 -2.3890
   19CHTO   C27 7923   5.376   6.724  -0.409 -0.1611 -0.8575  0.1342
   19CHTO   H55 7924   5.347   6.622  -0.437  3.5967 -1.6201 -1.2531
   19CHTO    N5 7925   5.427   6.788  -0.535  0.3009 -0.5036 -0.4693
   19CHTO   H43 7926   5.504   6.720  -0.566 -0.6363 -1.3537 -0.9397
   19CHTO   H44 7927   5.471   6.885  -0.515 -1.7027  0.3771 -0.2212
   19CHTO   C25 7928   5.481   6.716  -0.298 -0.3255 -0.7178  0.3153
   19CHTO   H53 7929   5.520   6.816  -0.275 -0.9486 -0.6936  1.2539
   19CHTO   O17 7930   5.447   6.667  -0.163  0.1160 -0.0018  0.3623
   19CHTO   C32 7931   5.339   6.740  -0.113  0.0519 -0.0272  0.1823
   19CHTO   H60 7932   5.357   6.847  -0.096 -0.5979  0.6229 -2.8809
   19CHTO   C36 7933   5.317   6.669   0.014 -0.6155  0.3505 -0.0821
   19CHTO   O25 7934   5.237   6.750   0.101  0.5460 -0.3980 -0.0421
   19CHTO   H40 7935   5.231   6.706   0.184 -2.4423  1.0033  0.5695
   19CHTO   O15 7936   5.604   6.614  -0.349  0.1661 -0.1848 -0.1014
   19CHTO   C19 7937   5.634   6.472  -0.342  0.4110 -1.0220  0.6559
   19CHTO   H47 7938   5.652   6.458  -0.234 -1.2151  1.7735  1.3396
   19CHTO   C20 7939   5.523   6.376  -0.384  0.0154  0.0238 -0.0952
   19CHTO   H48 7940   5.495   6.391  -0.489 -0.6985  3.8254  0.5770
   19CHTO   O19 7941   5.403   6.394  -0.311  0.4086  0.2726  0.0925
   19CHTO   H35 7942   5.343   6.324  -0.326  0.5549  0.3057 -0.6518
   19CHTO   C21 7943   5.564   6.222  -0.368  1.1173 -0.5035  0.2731
   19CHTO   H49 7944   5.583   6.204  -0.262  1.8931 -1.8780 -0.0835
   19CHTO    N4 7945   5.462   6.125  -0.414  0.0644 -0.2743  0.7657
   19CHTO   H41 7946   5.366   6.142  -0.369 -0.2095  0.2333  0.0048
   19CHTO   H42 7947   5.447   6.141  -0.520  2.2523  0.6655  0.5656
   19CHTO   C22 7948   5.705   6.201  -0.435  0.1265  0.1651 -0.1051
   19CHTO   H50 7949   5.701   6.215  -0.543  2.8091  1.9107  0.0071
   19CHTO   O14 7950   5.796   6.298  -0.378 -0.1628 -0.8442 -0.2473
   19CHTO   C23 7951   5.770   6.435  -0.413 -0.7239  0.3075  0.0006
   19CHTO   H51 7952   5.761   6.436  -0.523  0.8124  1.5039 -0.1256
   19CHTO   C34 7953   5.882   6.524  -0.363 -0.5993  0.4329 -0.2202
   19CHTO   O23 7954   6.008   6.483  -0.415  0.0003 -0.3606  0.8119
   19CHTO   H38 7955   6.014   6.391  -0.399 -1.0733 -0.7510 -0.8789
   19CHTO   O16 7956   5.773   6.072  -0.405  0.4582  0.0503  0.0075
   19CHTO   C24 7957   5.810   5.961  -0.505 -0.1528  1.1368  0.1785
   19CHTO   H52 7958   5.905   5.914  -0.480  0.7846  2.1509 -1.3735
   19CHTO   C26 7959   5.840   6.005  -0.649  0.4334  0.1348  0.6539
   19CHTO   H54 7960   5.765   6.075  -0.691  2.2741 -0.6002 -4.1115
   19CHTO   O20 7961   5.957   6.088  -0.646 -0.1469 -0.0446 -0.4258
   19CHTO   H36 7962   6.026   6.038  -0.607  0.1123 -0.1486 -1.0139
   19CHTO   C30 7963   5.865   5.886  -0.749 -0.9513 -0.0809 -0.7154
   19CHTO   H58 7964   5.971   5.858  -0.740 -1.0627  0.0923  1.2920
   19CHTO    N6 7965   5.853   5.929  -0.889 -0.8382 -0.1861 -0.5020
   19CHTO   H45 7966   5.855   6.036  -0.902 -0.7590  0.1839  2.2499
   19CHTO   H46 7967   5.939   5.889  -0.942 -0.6873 -0.4520 -0.0558
   19CHTO   C33 7968   5.758   5.768  -0.724  0.0646 -0.0607  0.6646
   19CHTO   H61 7969   5.656   5.793  -0.757 -0.5345  0.2988  2.7122
   19CHTO   O18 7970   5.760   5.742  -0.589 -0.0393 -0.3407  0.6007
   19CHTO   C28 7971   5.700   5.850  -0.508 -0.2491  0.4153 -0.0744
   19CHTO   H56 7972   5.609   5.885  -0.556 -0.2507  1.4112  0.6315
   19CHTO   C35 7973   5.670   5.799  -0.368  0.0093  0.3178  0.5897
   19CHTO   O24 7974   5.579   5.688  -0.369 -0.5857  0.1461  0.6805
   19CHTO   H39 7975   5.560   5.656  -0.283 -2.3450 -2.2447 -0.5287
   19CHTO    O9 7976   5.791   5.646  -0.797  0.3058  0.1949  0.2422
   19CHTO   C13 7977   5.658   5.560  -0.815 -0.8704 -0.5086  0.5087
   19CHTO   H26 7978   5.595   5.619  -0.885 -0.0977 -1.2603 -0.8454
   19CHTO   C11 7979   5.580   5.513  -0.686  0.2533 -0.4225 -0.3237
   19CHTO   H24 7980   5.539   5.604  -0.640  0.4439 -0.8176  0.6280
   19CHTO    O8 7981   5.662   5.458  -0.579  0.0855  0.3885  0.2350
   19CHTO    H3 7982   5.604   5.441  -0.507 -1.8036 -0.2090 -1.3734
   19CHTO    C9 7983   5.456   5.434  -0.734 -0.5404  1.1030  0.2753
   19CHTO   H22 7984   5.404   5.496  -0.808 -3.0664 -0.8569  0.3207
   19CHTO    N2 7985   5.346   5.418  -0.636 -0.2343 -0.1806  0.4476
   19CHTO   H10 7986   5.319   5.316  -0.614 -0.4490 -0.3192 -0.4416
   19CHTO   H11 7987   5.270   5.489  -0.665 -0.4139 -0.5613 -0.0109
   19CHTO    C7 7988   5.505   5.306  -0.802  0.0480 -0.7047 -0.1687
   19CHTO   H20 7989   5.416   5.268  -0.855 -0.8688 -2.0130  2.2169
   19CHTO    O4 7990   5.609   5.327  -0.897 -0.5005 -0.7658 -0.4282
   19CHTO   C14 7991   5.710   5.428  -0.901  0.0972 -0.3105 -0.5310
   19CHTO   H27 7992   5.720   5.447  -1.010  2.0396 -1.2002 -0.5283
   19CHTO   C18 7993   5.842   5.358  -0.854  0.2240  0.2695  0.2217
   19CHTO   O13 7994   5.823   5.296  -0.730 -0.0365  0.2537 -0.6008
   19CHTO    H7 7995   5.758   5.229  -0.733  0.8910 -0.7808  1.4667
   19CHTO    O2 7996   5.571   5.205  -0.669 -0.1458 -0.1325 -0.4203
   19CHTO    C1 7997   5.524   5.072  -0.667 -0.5558  0.5640  0.5039
   19CHTO   H14 7998   5.611   5.004  -0.671  0.0206  1.3092  0.2633
   19CHTO    C2 7999   5.413   5.028  -0.780 -0.0572 -0.5964 -0.4586
   19CHTO   H15 8000   5.341   5.110  -0.785  1.9725  1.3005  0.4890
   19CHTO    O6 8001   5.476   5.018  -0.907  0.1330 -0.0885  0.3473
   19CHTO    H1 8002   5.568   5.035  -0.904  0.1572 -0.0522 -0.5659
   19CHTO    C3 8003   5.331   4.893  -0.749  0.8328  0.5289  0.5852
   19CHTO   H16 8004   5.400   4.813  -0.776 -1.9374 -0.6696 -3.3993
   19CHTO    N1 8005   5.212   4.885  -0.839  0.2274  0.5828  0.7532
   19CHTO    H8 8006   5.126   4.935  -0.797  0.6649  0.8951  1.2819
   19CHTO    H9 8007   5.232   4.912  -0.942  0.9069 -3.7779 -0.3896
   19CHTO    C4 8008   5.303   4.878  -0.592 -0.0157  0.5074 -0.3164
   19CHTO   H17 8009   5.219   4.943  -0.568  0.1267  1.1641 -1.5728
   19CHTO    O1 8010   5.416   4.913  -0.517 -0.2614 -0.5984  0.2166
   19CHTO    C5 8011   5.467   5.045  -0.530  0.0097 -0.4262 -0.3936
   19CHTO   H18 8012   5.384   5.114  -0.515 -1.0743 -1.5487 -0.9937
   19CHTO   C16 8013   5.569   5.060  -0.420 -0.5371  0.1994 -0.0937
   19CHTO   O11 8014   5.508   5.079  -0.289  0.1170 -0.2118 -0.4201
   19CHTO    H5 8015   5.534   5.013  -0.228 -1.1092 -0.0961  0.2256
   19CHTO    O3 8016   5.273   4.737  -0.562 -0.4010 -0.3050 -0.6974
   19CHTO    C6 8017   5.182   4.692  -0.452  0.4003 -0.1198 -0.2633
   19CHTO   H19 8018   5.165   4.770  -0.378 -2.2488 -1.7786  0.9720
   19CHTO    C8 8019   5.057   4.635  -0.521 -0.0720  0.4535  0.3903
   19CHTO   H21 8020   5.091   4.558  -0.590 -0.9546  0.7735 -0.4161
   19CHTO    O7 8021   4.993   4.745  -0.584  0.7496 -0.2931 -0.6692
   19CHTO    H2 8022   4.938   4.717  -0.655 -1.0336  3.4073 -0.8294
   19CHTO   C12 8023   4.959   4.568  -0.421 -0.0639 -0.3060  0.1804
   19CHTO   H25 8024   4.930   4.652  -0.356  2.0579  0.5449  0.0713
   19CHTO    N3 8025   4.835   4.509  -0.493 -0.2946 -0.2196  0.2551
   19CHTO   H12 8026   4.747   4.517  -0.431 -0.3366  1.6372 -0.0103
   19CHTO   H13 8027   4.812   4.545  -0.592 -0.5157  0.8450  0.6831
   19CHTO   C15 8028   5.036   4.467  -0.330  0.1429 -0.6236 -0.5146
   19CHTO   H28 8029   5.062   4.373  -0.379  2.6660 -0.4976  0.5218
   19CHTO   O10 8030   4.950   4.427  -0.193 -0.3267 -0.1367  0.1342
   19CHTO    H4 8031   4.931   4.503  -0.142 -1.1432 -1.2110  1.4462
   19CHTO    O5 8032   5.148   4.533  -0.268 -0.3160 -0.4525  0.5378
   19CHTO   C10 8033   5.240   4.574  -0.371  0.1744  0.0798  0.1709
   19CHTO   H23 8034   5.255   4.497  -0.447  3.2040  0.9443 -0.1745
   19CHTO   C17 8035   5.376   4.602  -0.309  0.2486  0.4703  0.1813
   19CHTO   O12 8036   5.370   4.689  -0.198 -0.3854  0.1964 -0.0704
   19CHTO    H6 8037   5.456   4.723  -0.180 -0.5076  0.2213  0.4912
   20CHTO  H203 8038   5.308   0.644   5.905  0.0212  0.2008 -0.0914
   20CHTO   O82 8039   5.308   0.737   5.917 -0.0626  0.1910 -0.0162
   20CHTO  C123 8040   5.223   0.794   5.817  0.0767  0.2660 -0.5754
   20CHTO  H227 8041   5.135   0.729   5.813 -0.9558  1.5031  1.2083
   20CHTO   O77 8042   5.179   0.923   5.876 -0.3927 -0.3487  0.5006
   20CHTO  C118 8043   5.117   1.025   5.787  0.0575 -0.2446 -1.1022
   20CHTO  H222 8044   5.018   0.989   5.754  0.5981 -0.2633 -2.7236
   20CHTO  C125 8045   5.097   1.165   5.863  0.2128 -0.5764  0.4207
   20CHTO   O84 8046   4.987   1.162   5.953 -0.6515 -0.2676  0.3874
   20CHTO  H205 8047   4.987   1.247   5.993 -0.2340 -0.1016  0.0321
   20CHTO  C114 8048   5.210   1.045   5.667  0.4161  0.6685 -0.2077
   20CHTO  H218 8049   5.306   1.084   5.703  1.5961 -1.6696 -0.7325
   20CHTO  C116 8050   5.227   0.913   5.586 -0.7873 -0.3693  0.1033
   20CHTO  H220 8051   5.128   0.876   5.554 -0.1944 -1.6497 -0.3264
   20CHTO   O79 8052   5.301   0.955   5.471 -0.8287  0.4431  0.1913
   20CHTO  H201 8053   5.319   0.877   5.423 -0.0240 -0.0568  1.2849
   20CHTO  C120 8054   5.300   0.800   5.677 -0.3596 -0.2762  0.4234
   20CHTO  H224 8055   5.405   0.828   5.702 -0.3969 -0.8959  1.2990
   20CHTO   N21 8056   5.322   0.670   5.601  0.1965 -0.2075 -0.3758
   20CHTO  H211 8057   5.348   0.677   5.496  3.7009 -1.1302  0.3722
   20CHTO  H212 8058   5.392   0.610   5.658 -1.5228  0.4753  2.5170
   20CHTO   O75 8059   5.142   1.142   5.582 -0.6532 -0.9356 -0.4292
   20CHTO  C112 8060   5.237   1.260   5.520 -0.5002  0.3483 -0.9969
   20CHTO  H216 8061   5.274   1.231   5.421 -0.9837  0.4007 -1.1948
   20CHTO   O73 8062   5.346   1.285   5.612  0.1587 -0.1292 -0.1432
   20CHTO  C113 8063   5.443   1.381   5.571 -0.8624  0.0993 -0.3406
   20CHTO  H217 8064   5.501   1.340   5.486 -1.7285 -0.3021 -0.7460
   20CHTO  C124 8065   5.550   1.402   5.681  0.4411 -0.0005 -0.3147
   20CHTO   O83 8066   5.603   1.289   5.741 -0.3803 -0.3210  0.2312
   20CHTO  H204 8067   5.666   1.320   5.803  1.1169 -0.3925 -1.1973
   20CHTO  C109 8068   5.379   1.518   5.542  0.0971  0.3994  0.0515
   20CHTO  H213 8069   5.347   1.563   5.637  0.9864  1.0486  0.0429
   20CHTO  C110 8070   5.253   1.508   5.449  0.8349 -0.1164  0.6406
   20CHTO  H214 8071   5.293   1.480   5.352  0.3313  1.4619 -0.0249
   20CHTO   O78 8072   5.187   1.633   5.443  0.1903 -0.5576 -0.5261
   20CHTO  H200 8073   5.156   1.642   5.355  2.5327 -2.0117 -1.5465
   20CHTO  C111 8074   5.152   1.394   5.495 -0.4768 -0.1631  0.3366
   20CHTO  H215 8075   5.105   1.423   5.590  1.3224  3.0701  0.3136
   20CHTO   N19 8076   5.041   1.367   5.399 -0.4337  1.2635  0.4316
   20CHTO  H207 8077   5.033   1.261   5.385 -0.2573  1.3111 -0.0277
   20CHTO  H208 8078   5.083   1.397   5.304  0.8832 -1.0955  0.2558
   20CHTO   O74 8079   5.484   1.596   5.487 -0.3906  0.1045  0.6539
   20CHTO  C115 8080   5.476   1.760   5.507 -0.3854 -0.3848  0.3881
   20CHTO  H219 8081   5.372   1.789   5.521 -1.3431 -2.3818 -2.0934
   20CHTO   O76 8082   5.562   1.810   5.638  0.1529  0.1396  0.1595
   20CHTO  C122 8083   5.704   1.782   5.633 -0.5752  0.8278  0.1921
   20CHTO  H226 8084   5.731   1.679   5.657 -2.9954  0.2060  0.3605
   20CHTO  C126 8085   5.777   1.872   5.728  0.4654 -0.7681  0.3471
   20CHTO   O85 8086   5.759   1.830   5.864  0.6178 -0.2924  0.4249
   20CHTO  H206 8087   5.672   1.856   5.888  1.7100  1.1390  2.9713
   20CHTO  C121 8088   5.766   1.793   5.489 -0.0777  0.6233 -0.4855
   20CHTO  H225 8089   5.872   1.823   5.495 -0.0822  0.3885  1.0972
   20CHTO   O81 8090   5.772   1.660   5.426  0.8356  0.0156  0.1031
   20CHTO  H202 8091   5.825   1.671   5.349  0.0349 -1.5230 -0.6791
   20CHTO  C119 8092   5.680   1.892   5.403  0.3022  0.9183 -0.1332
   20CHTO  H223 8093   5.671   1.989   5.452 -0.4757  0.6783  0.1963
   20CHTO  C117 8094   5.537   1.836   5.383  0.2072  0.7323  0.4033
   20CHTO  H221 8095   5.543   1.754   5.311  1.0584 -0.6763  2.0566
   20CHTO   N20 8096   5.439   1.938   5.329 -0.1997 -0.2573  0.3619
   20CHTO  H209 8097   5.480   2.031   5.367  0.2912 -1.4622  2.9266
   20CHTO  H210 8098   5.341   1.921   5.373  0.2210 -2.7279  0.4200
   20CHTO   O80 8099   5.749   1.946   5.258  0.4588 -0.3483 -0.4039
   20CHTO  C103 8100   5.787   2.087   5.243 -0.2311 -0.2973  0.4860
   20CHTO  H190 8101   5.715   2.149   5.296 -1.0510 -2.5708  2.1120
   20CHTO  C101 8102   5.934   2.141   5.277 -0.0264 -0.7359 -0.2993
   20CHTO  H188 8103   6.008   2.082   5.223  2.7854  0.5773  2.0080
   20CHTO   O68 8104   5.959   2.122   5.421  0.0684 -0.4587  0.4415
   20CHTO  H168 8105   5.954   2.030   5.437  2.6259 -1.1094 -2.0406
   20CHTO   C99 8106   5.946   2.295   5.229  0.3100  0.0919  0.6267
   20CHTO  H186 8107   5.872   2.356   5.285  0.0629  0.0670  0.3345
   20CHTO   N17 8108   6.079   2.361   5.260  0.1956 -0.3068 -0.0738
   20CHTO  H174 8109   6.097   2.357   5.366 -0.7960 -1.9038  0.0524
   20CHTO  H175 8110   6.157   2.317   5.200  1.1001 -0.1800  0.9997
   20CHTO   C97 8111   5.904   2.301   5.080  0.3273 -0.4175 -0.4518
   20CHTO  H184 8112   5.976   2.238   5.026 -1.4427 -1.0401 -2.1355
   20CHTO   O64 8113   5.761   2.256   5.074 -0.0441 -0.2617 -0.1367
   20CHTO  C104 8114   5.761   2.114   5.091  0.6118 -0.3327  0.1169
   20CHTO  H191 8115   5.837   2.066   5.030  0.9402  0.5181 -0.1469
   20CHTO  C108 8116   5.628   2.061   5.037 -0.1125  0.3158  0.3516
   20CHTO   O71 8117   5.623   2.058   4.894 -0.0912  0.0243  0.8006
   20CHTO  H171 8118   5.629   2.145   4.857  0.3017  0.3552  1.6411
   20CHTO   O62 8119   5.900   2.429   5.022 -0.0602 -0.3427 -0.0145
   20CHTO   C91 8120   5.920   2.434   4.878 -0.1243  0.0258  0.0410
   20CHTO  H178 8121   5.926   2.331   4.843 -2.6862  0.1348 -0.7648
   20CHTO   C92 8122   6.060   2.494   4.857 -0.5955 -0.0754  0.0654
   20CHTO  H179 8123   6.067   2.596   4.897 -0.9008  0.8952 -2.2279
   20CHTO   O66 8124   6.156   2.416   4.930  0.1351  0.3685 -0.1192
   20CHTO  H166 8125   6.181   2.458   5.010 -0.7500  2.7080 -1.0449
   20CHTO   C93 8126   6.101   2.503   4.709  0.1110  0.2673 -0.1488
   20CHTO  H180 8127   6.106   2.397   4.680 -3.7765 -0.5042  1.6070
   20CHTO   N16 8128   6.241   2.554   4.691  0.3709  0.9930  0.9294
   20CHTO  H172 8129   6.258   2.553   4.585  0.3707  0.0795  0.9380
   20CHTO  H173 8130   6.313   2.481   4.727  1.1702  2.0660  1.5579
   20CHTO   C94 8131   5.993   2.573   4.627  0.2102  0.3569  0.1689
   20CHTO  H181 8132   5.988   2.681   4.644 -1.3152  1.0205 -4.0072
   20CHTO   O61 8133   5.853   2.528   4.645  0.3802  0.2195  0.5056
   20CHTO   C95 8134   5.808   2.502   4.780 -1.4591  0.6187 -1.0770
   20CHTO  H182 8135   5.787   2.594   4.835 -0.2899  0.1412  0.1959
   20CHTO  C106 8136   5.673   2.420   4.780 -0.1972  0.4888  0.0012
   20CHTO   O69 8137   5.569   2.487   4.715  0.2149 -0.5000  0.2027
   20CHTO  H169 8138   5.490   2.438   4.730 -0.6822 -0.0063 -2.7676
   20CHTO   O63 8139   6.032   2.550   4.477  0.3380 -0.2150  0.1385
   20CHTO   C96 8140   6.010   2.395   4.424 -0.3814 -0.0322 -0.9845
   20CHTO  H183 8141   6.010   2.331   4.512  0.4923 -1.6146 -2.0947
   20CHTO   C98 8142   6.123   2.353   4.336 -0.1797  0.2238  0.3685
   20CHTO  H185 8143   6.219   2.368   4.388  0.5661  2.6605 -1.5989
   20CHTO   O67 8144   6.107   2.214   4.322  0.0538  0.0751  0.4100
   20CHTO  H167 8145   6.103   2.193   4.231  2.1531  0.8607  0.1064
   20CHTO  C102 8146   6.117   2.428   4.185  0.0030 -0.3606  0.0534
   20CHTO  H189 8147   6.148   2.349   4.115  0.8145 -0.0911  0.1083
   20CHTO   N18 8148   6.219   2.532   4.170  0.1164 -1.0996 -0.3807
   20CHTO  H176 8149   6.270   2.539   4.266 -1.7394  1.1101  0.5018
   20CHTO  H177 8150   6.292   2.516   4.092  1.5071 -2.0275  1.0854
   20CHTO  C105 8151   5.975   2.465   4.150  1.0133 -0.3603  0.8275
   20CHTO  H192 8152   5.951   2.566   4.181  0.4175 -0.2441  0.0156
   20CHTO   O65 8153   5.879   2.374   4.205  0.3178  0.3748  0.1989
   20CHTO  C100 8154   5.868   2.385   4.348  0.8531 -0.5972  0.1349
   20CHTO  H187 8155   5.810   2.474   4.378  0.0817 -1.0991  0.1369
   20CHTO  C107 8156   5.799   2.266   4.418 -0.0051 -0.0895  0.3544
   20CHTO   O70 8157   5.679   2.209   4.370 -0.5755  0.2767  0.7171
   20CHTO  H170 8158   5.626   2.192   4.445 -1.5030  0.5259  0.1302
   20CHTO   O57 8159   5.969   2.471   3.988  0.6405  0.1232 -0.1583
   20CHTO   C85 8160   5.860   2.538   3.925 -1.1878  0.1446  0.3187
   20CHTO  H157 8161   5.841   2.621   3.996  2.3256  1.2036  0.1115
   20CHTO   C83 8162   5.723   2.463   3.928  0.8910 -0.2119 -0.4088
   20CHTO  H155 8163   5.689   2.442   4.029  1.9355 -0.5173 -0.1098
   20CHTO   O56 8164   5.744   2.331   3.883 -0.0816 -0.0862  0.1091
   20CHTO  H135 8165   5.660   2.291   3.877 -0.2819  0.5366 -1.5162
   20CHTO   C81 8166   5.625   2.559   3.858  0.3501  0.1391  0.3394
   20CHTO  H153 8167   5.624   2.653   3.914  1.1523  0.5415 -0.3089
   20CHTO   N14 8168   5.489   2.511   3.862  0.1578  0.2241  0.7765
   20CHTO  H141 8169   5.421   2.589   3.892 -1.8665 -0.7306 -1.1922
   20CHTO  H142 8170   5.460   2.483   3.763 -0.8653 -0.1210  1.1632
   20CHTO   C79 8171   5.673   2.596   3.709  0.4667 -0.6766 -0.4773
   20CHTO  H151 8172   5.597   2.661   3.667 -0.7473 -0.9639  1.2318
   20CHTO   O52 8173   5.803   2.668   3.708 -0.6303  0.2029  0.3563
   20CHTO   C86 8174   5.910   2.596   3.777  0.4296  0.4039 -0.5913
   20CHTO  H158 8175   5.938   2.517   3.704  0.0460 -0.6947  0.4502
   20CHTO   C90 8176   6.032   2.688   3.783  0.3798 -0.8826 -0.0737
   20CHTO   O60 8177   6.003   2.820   3.831  0.3009  0.1660  0.4158
   20CHTO  H138 8178   5.940   2.866   3.779  0.1144 -0.6357 -0.0714
   20CHTO   O50 8179   5.668   2.484   3.623  0.4960  0.2240  0.2031
   20CHTO   C73 8180   5.679   2.417   3.495  0.3768  0.3086 -0.9414
   20CHTO  H145 8181   5.782   2.381   3.480  1.4038  2.6392  0.2773
   20CHTO   C74 8182   5.632   2.516   3.382  0.4951 -0.3176 -0.5046
   20CHTO  H146 8183   5.695   2.606   3.388  1.0985 -0.7428 -0.4285
   20CHTO   O54 8184   5.665   2.457   3.253  0.2736  0.4939 -0.0926
   20CHTO  H133 8185   5.630   2.514   3.188  0.9917  1.6552  0.5203
   20CHTO   C75 8186   5.476   2.557   3.399 -0.3533 -0.0893 -0.1235
   20CHTO  H147 8187   5.459   2.600   3.499  1.1458  0.4967 -0.1030
   20CHTO   N13 8188   5.431   2.661   3.304 -0.6065  0.7336 -0.2155
   20CHTO  H139 8189   5.375   2.732   3.363  1.1808  0.7962  1.4622
   20CHTO  H140 8190   5.369   2.620   3.226  2.4955 -2.2175 -1.2702
   20CHTO   C76 8191   5.390   2.429   3.393 -1.0803  0.4067  0.0492
   20CHTO  H148 8192   5.401   2.396   3.289 -0.2721  0.2263  0.1863
   20CHTO   O49 8193   5.439   2.328   3.491  0.3935 -0.0744  0.0734
   20CHTO   C77 8194   5.582   2.296   3.488  0.4926 -0.5870 -0.7264
   20CHTO  H149 8195   5.611   2.240   3.399  0.0670 -0.5613 -0.8824
   20CHTO   C88 8196   5.596   2.197   3.605  0.1346 -0.8973  0.0157
   20CHTO   O58 8197   5.717   2.151   3.637 -0.7099 -0.3588  0.8206
   20CHTO  H136 8198   5.769   2.212   3.687 -1.5272  1.2691 -0.2835
   20CHTO   O51 8199   5.243   2.462   3.434 -0.6211 -0.0719 -0.0547
   20CHTO   C78 8200   5.134   2.349   3.365 -0.4028  0.5007 -0.4786
   20CHTO  H150 8201   5.179   2.267   3.304 -1.9171 -0.4312 -0.3683
   20CHTO   C80 8202   5.041   2.433   3.275  1.0293  0.3291 -1.1179
   20CHTO  H152 8203   5.023   2.529   3.326  0.4598 -0.3237 -0.0730
   20CHTO   O55 8204   5.105   2.456   3.147 -0.6581 -0.0349  0.2324
   20CHTO  H134 8205   5.112   2.379   3.094 -0.0375  0.6914 -0.7748
   20CHTO   C84 8206   4.897   2.370   3.245  0.3142  0.3430  0.0662
   20CHTO  H156 8207   4.894   2.284   3.178 -2.1818  0.9218 -0.6075
   20CHTO   N15 8208   4.803   2.462   3.182  0.3975  0.8783 -0.0935
   20CHTO  H143 8209   4.817   2.465   3.075 -2.5834  0.4940 -0.5389
   20CHTO  H144 8210   4.809   2.560   3.223  1.2884  1.1582 -0.8924
   20CHTO   C87 8211   4.841   2.332   3.389 -0.4262  0.0063 -0.2403
   20CHTO  H159 8212   4.845   2.412   3.463  0.7251 -1.7374  1.6745
   20CHTO   O53 8213   4.942   2.227   3.439 -0.0302 -0.6650  0.1258
   20CHTO   C82 8214   5.064   2.285   3.487 -0.0346 -0.4218  0.4452
   20CHTO  H154 8215   5.052   2.361   3.565  3.4250  4.5816 -3.5678
   20CHTO   C89 8216   5.144   2.170   3.556 -0.4667 -0.1732 -1.1196
   20CHTO   O59 8217   5.177   2.058   3.473 -0.0007 -0.0907  0.1951
   20CHTO  H137 8218   5.238   2.089   3.408 -2.4633 -0.1231 -2.2186
   20CHTO   O45 8219   4.691   2.264   3.393 -0.4963  0.0530 -0.0536
   20CHTO   C67 8220   4.625   2.275   3.520 -0.1515  0.1892  0.1085
   20CHTO  H124 8221   4.702   2.292   3.596 -0.1778  0.5298  0.0622
   20CHTO   C65 8222   4.526   2.391   3.537 -0.6773 -0.3039 -0.0269
   20CHTO  H122 8223   4.499   2.425   3.437 -2.3562  0.0794  0.5319
   20CHTO   O44 8224   4.601   2.495   3.601 -0.3448 -0.3708 -0.1489
   20CHTO  H102 8225   4.673   2.527   3.549 -0.1425 -0.2762  0.1858
   20CHTO   C63 8226   4.392   2.353   3.609 -0.1278 -0.5044 -0.3289
   20CHTO  H120 8227   4.332   2.291   3.542  2.5764 -0.5088 -2.8212
   20CHTO   N11 8228   4.294   2.458   3.630  0.3363  0.2295 -0.1549
   20CHTO  H108 8229   4.244   2.454   3.724 -1.0774  1.9375 -0.7992
   20CHTO  H109 8230   4.338   2.554   3.612 -0.8365  0.4840 -1.9031
   20CHTO   C61 8231   4.436   2.260   3.729  0.2233  0.5685  0.5215
   20CHTO  H118 8232   4.342   2.235   3.781 -0.5403  0.6627 -0.7842
   20CHTO   O40 8233   4.488   2.134   3.688  0.0158 -0.2657 -0.4333
   20CHTO   C68 8234   4.558   2.133   3.571  0.5370 -0.2153 -0.1683
   20CHTO  H125 8235   4.495   2.090   3.491  0.2728 -0.9307  0.4258
   20CHTO   C72 8236   4.675   2.031   3.591 -0.5030 -0.6151 -0.1316
   20CHTO   O48 8237   4.626   1.892   3.610 -0.2306  0.0688  1.0240
   20CHTO  H105 8238   4.542   1.900   3.652  0.4815  3.2824  2.0278
   20CHTO   O38 8239   4.527   2.332   3.818 -0.0003  0.2615  0.2199
   20CHTO   C55 8240   4.518   2.304   3.957  0.1339 -0.7341  0.1563
   20CHTO  H112 8241   4.459   2.211   3.967 -1.4382  0.3164  0.6854
   20CHTO   C56 8242   4.450   2.422   4.034 -0.0876  0.3318  0.3195
   20CHTO  H113 8243   4.510   2.513   4.018 -0.7003  0.8456  0.8929
   20CHTO   O42 8244   4.318   2.448   3.988 -0.2288  0.3482 -0.3529
   20CHTO  H100 8245   4.321   2.475   3.898  2.7204  2.5570  0.3326
   20CHTO   C57 8246   4.448   2.396   4.188  0.1696  0.0560  0.3742
   20CHTO  H114 8247   4.375   2.316   4.204  0.9660 -0.5564  1.0264
   20CHTO   N10 8248   4.409   2.518   4.267  0.0866 -0.4427  0.2677
   20CHTO  H106 8249   4.466   2.605   4.237  1.7026 -2.1003 -1.5776
   20CHTO  H107 8250   4.302   2.534   4.268  0.3005  1.0131  1.0523
   20CHTO   C58 8251   4.582   2.342   4.247  0.0923  0.5611  0.3747
   20CHTO  H115 8252   4.649   2.431   4.255 -1.4934  1.6674  1.7411
   20CHTO   O37 8253   4.640   2.239   4.161  0.3225 -0.4833  0.3269
   20CHTO   C59 8254   4.660   2.280   4.025 -1.1111  0.8572  0.4148
   20CHTO  H116 8255   4.724   2.368   4.025  2.4051 -1.5820  0.8695
   20CHTO   C70 8256   4.731   2.165   3.956 -0.9185  0.3204 -0.1319
   20CHTO   O46 8257   4.871   2.132   3.981  0.1755 -0.1406 -0.2133
   20CHTO  H103 8258   4.897   2.079   4.055  1.6149  2.1384  0.9758
   20CHTO   O39 8259   4.558   2.258   4.383  0.6890 -0.8554  0.6237
   20CHTO   C60 8260   4.668   2.235   4.473  0.1770 -0.1694  0.1659
   20CHTO  H117 8261   4.754   2.219   4.409  1.7210  0.7040  1.9795
   20CHTO   C62 8262   4.696   2.350   4.571 -0.1132 -0.5066  0.4041
   20CHTO  H119 8263   4.711   2.443   4.513 -0.4971 -1.4888 -1.3091
   20CHTO   O43 8264   4.586   2.381   4.660  0.3574  0.1240 -0.1410
   20CHTO  H101 8265   4.514   2.421   4.616  1.5719 -0.2647 -2.5443
   20CHTO   C66 8266   4.832   2.312   4.651 -0.4573 -0.3688  0.3363
   20CHTO  H123 8267   4.907   2.275   4.581 -3.0133 -1.4265 -1.9049
   20CHTO   N12 8268   4.875   2.432   4.725  0.4239  0.3440 -0.0810
   20CHTO  H110 8269   4.853   2.520   4.666 -1.5023  0.6868  1.1066
   20CHTO  H111 8270   4.965   2.428   4.784 -0.9722 -1.4019  2.0469
   20CHTO   C69 8271   4.807   2.183   4.736 -0.0064  0.0844  0.4805
   20CHTO  H126 8272   4.718   2.214   4.796  0.3422 -1.9808  2.1083
   20CHTO   O41 8273   4.759   2.055   4.625 -0.2997 -0.1985 -0.2145
   20CHTO   C64 8274   4.647   2.099   4.546 -0.6398  0.5548 -0.3634
   20CHTO  H121 8275   4.558   2.107   4.612  0.9219  0.2705  1.8367
   20CHTO   C71 8276   4.627   1.985   4.443  0.0112  0.7512 -0.6079
   20CHTO   O47 8277   4.567   1.869   4.504 -0.4435 -0.1105  0.1795
   20CHTO  H104 8278   4.600   1.794   4.460 -0.4243 -0.0178  0.0348
   20CHTO   O34 8279   4.921   2.135   4.817  0.6730  0.5532  0.7377
   20CHTO   C49 8280   5.040   2.101   4.924  0.1223  0.2937  0.8283
   20CHTO   H91 8281   5.007   2.103   5.028 -2.3928 -1.2586  0.0978
   20CHTO   C47 8282   5.157   2.203   4.908  0.5354 -0.0855  0.2945
   20CHTO   H89 8283   5.236   2.171   4.979  2.3670  1.5801 -0.9419
   20CHTO   O33 8284   5.110   2.328   4.952 -0.4219 -0.0052  0.3166
   20CHTO   H70 8285   5.180   2.386   4.973  0.3990 -1.4925  1.7228
   20CHTO   C45 8286   5.203   2.199   4.761 -0.6373 -0.0855  0.0820
   20CHTO   H87 8287   5.138   2.265   4.702  0.6446  1.3661  0.2324
   20CHTO    N8 8288   5.340   2.257   4.760  0.2521  0.1955  0.0821
   20CHTO   H75 8289   5.336   2.349   4.704 -1.7695  0.4688  0.6364
   20CHTO   H76 8290   5.400   2.195   4.695 -1.2492  1.8426 -3.0158
   20CHTO   C43 8291   5.179   2.058   4.690 -0.0585 -0.3267 -0.0512
   20CHTO   H85 8292   5.085   2.075   4.637 -0.3440 -0.7585  0.3091
   20CHTO   O29 8293   5.167   1.948   4.779  0.5034 -0.1794  0.5221
   20CHTO   C50 8294   5.089   1.958   4.899 -0.3344  0.0710  0.5405
   20CHTO   H92 8295   4.999   1.897   4.882 -1.0668  0.9539  1.2686
   20CHTO   C54 8296   5.161   1.899   5.017 -0.5244 -0.7341 -0.4049
   20CHTO   O36 8297   5.178   1.764   5.006  0.0604 -0.1171  0.6925
   20CHTO   H72 8298   5.260   1.731   5.038 -0.0353  0.7367  1.8615
   20CHTO   O27 8299   5.268   2.033   4.580 -0.4511  0.1686  0.6086
   20CHTO   C37 8300   5.269   1.936   4.475  0.4510 -0.2697  0.1490
   20CHTO   H79 8301   5.256   1.837   4.520  0.6316 -0.7560 -0.8698
   20CHTO   C38 8302   5.156   1.953   4.367 -0.2756 -0.1958  0.2394
   20CHTO   H80 8303   5.160   2.054   4.323 -0.2805  0.0852  0.8744
   20CHTO   O31 8304   5.037   1.921   4.442  0.5204 -0.3012 -0.1011
   20CHTO   H68 8305   4.983   1.996   4.456  1.4480  0.9314 -2.7772
   20CHTO   C39 8306   5.174   1.858   4.246  0.9001 -0.2795  0.9445
   20CHTO   H81 8307   5.163   1.754   4.275  0.7001 -1.0082 -1.6729
   20CHTO    N7 8308   5.062   1.871   4.147  0.0968  0.3309 -0.1503
   20CHTO   H73 8309   5.036   1.976   4.142 -0.8381  0.3308  3.1581
   20CHTO   H74 8310   4.985   1.799   4.172  2.4386 -1.8219  1.1608
   20CHTO   C40 8311   5.311   1.876   4.185  0.9227  0.3190  0.0889
   20CHTO   H82 8312   5.322   1.973   4.137 -1.0617  1.0744  1.1146
   20CHTO   O26 8313   5.410   1.856   4.285 -0.2106 -0.0131  0.2918
   20CHTO   C41 8314   5.404   1.939   4.405  0.0755 -0.9330  0.2664
   20CHTO   H83 8315   5.422   2.043   4.371 -2.1003 -0.6157  0.0108
   20CHTO   C52 8316   5.520   1.910   4.502 -0.0619  0.3449  0.2964
   20CHTO   O35 8317   5.534   1.761   4.524 -0.1855 -0.5354  0.0593
   20CHTO   H71 8318   5.617   1.733   4.558 -0.4566 -2.2900 -0.6673
   20CHTO   O28 8319   5.333   1.765   4.094 -0.2980 -0.9591 -0.0093
   20CHTO   C42 8320   5.465   1.727   4.040  0.4700 -0.4692 -0.6504
   20CHTO   H84 8321   5.431   1.648   3.973 -1.6639  0.0733 -0.2354
   20CHTO   C44 8322   5.576   1.664   4.134  0.4124  0.2615 -0.3672
   20CHTO   H86 8323   5.596   1.742   4.208  1.1408  0.4542 -0.7609
   20CHTO   O32 8324   5.517   1.556   4.210  0.2839 -0.0924 -0.7864
   20CHTO   H69 8325   5.423   1.561   4.209  0.1254 -1.1415  3.3100
   20CHTO   C48 8326   5.712   1.619   4.062  1.0014  0.1970  0.6121
   20CHTO   H90 8327   5.685   1.541   3.991  0.0178 -0.2200  1.4273
   20CHTO    N9 8328   5.808   1.560   4.155 -0.7809 -0.1486  0.1150
   20CHTO   H77 8329   5.764   1.532   4.249 -1.3891  2.1099  0.5506
   20CHTO   H78 8330   5.860   1.476   4.112  1.3052  0.9149  0.4869
   20CHTO   C51 8331   5.779   1.739   3.980  0.6268 -0.2711 -0.7702
   20CHTO   H93 8332   5.806   1.813   4.054 -0.2095 -2.2425  1.5886
   20CHTO   O30 8333   5.677   1.784   3.892 -0.1294  0.1162  0.1417
   20CHTO   C46 8334   5.542   1.832   3.951  0.0487 -0.2231 -0.5347
   20CHTO   H88 8335   5.567   1.918   4.014 -0.8026  0.2070 -0.7783
   20CHTO   C53 8336   5.459   1.886   3.832 -0.1724 -0.7384  0.6963
   20CHTO   O72 8337   5.330   1.941   3.856  0.0839  0.1446 -0.2882
   20CHTO  H199 8338   5.266   1.875   3.876  0.9994 -0.1247  1.9050
   20CHTO   O22 8339   5.890   1.698   3.892  0.4626  0.0900  0.3629
   20CHTO   C31 8340   6.002   1.794   3.869 -0.0615 -0.2321  0.1065
   20CHTO   H59 8341   6.065   1.742   3.794 -0.6032  0.2288 -0.6774
   20CHTO   C29 8342   5.968   1.934   3.817  0.0386  0.1443 -0.3038
   20CHTO   H57 8343   5.889   1.976   3.882  0.5742 -0.4847  0.7829
   20CHTO   O21 8344   5.902   1.923   3.691  0.3050  0.1953  0.7013
   20CHTO   H37 8345   5.967   1.891   3.631  0.0627  0.2318  0.4162
   20CHTO   C27 8346   6.094   2.038   3.807  0.6294 -0.6454 -0.3313
   20CHTO   H55 8347   6.149   2.002   3.719  2.1645  0.7147  0.0469
   20CHTO    N5 8348   6.058   2.177   3.787 -0.0011  0.3338  1.2813
   20CHTO   H43 8349   6.148   2.232   3.765  0.2084 -1.2242 -2.1267
   20CHTO   H44 8350   5.992   2.191   3.703  1.6729 -4.4444 -1.0607
   20CHTO   C25 8351   6.202   2.023   3.925 -0.0817  0.0378  0.1685
   20CHTO   H53 8352   6.170   2.095   4.003 -1.3083 -0.7156  0.3733
   20CHTO   O17 8353   6.207   1.886   3.970  0.5122  0.0628 -0.1546
   20CHTO   C32 8354   6.091   1.811   3.995  0.7406  0.0267  0.0371
   20CHTO   H60 8355   6.028   1.860   4.068  4.0197  3.2244  0.8619
   20CHTO   C36 8356   6.121   1.676   4.056 -0.0456  0.4792 -0.0514
   20CHTO   O25 8357   6.207   1.679   4.170  0.3078 -0.3532  0.0248
   20CHTO   H40 8358   6.277   1.618   4.153 -0.5401 -1.6768  1.1784
   20CHTO   O15 8359   6.335   2.081   3.876  0.4120  0.1300 -0.1610
   20CHTO   C19 8360   6.478   2.053   3.908 -0.1255  0.3691 -0.0951
   20CHTO   H47 8361   6.531   2.084   3.817 -1.2845  1.2606 -0.4662
   20CHTO   C20 8362   6.527   2.127   4.030  0.2800  0.2340  0.2073
   20CHTO   H48 8363   6.472   2.097   4.120  1.3997 -2.3107  0.0871
   20CHTO   O19 8364   6.510   2.262   3.994  0.2541 -1.0886 -0.0772
   20CHTO   H35 8365   6.420   2.283   3.983  0.5292  0.6706  0.9501
   20CHTO   C21 8366   6.683   2.090   4.058 -0.1363 -0.3577  0.3539
   20CHTO   H49 8367   6.743   2.118   3.972 -0.7532 -0.8708 -0.2540
   20CHTO    N4 8368   6.738   2.158   4.178 -0.2197  0.1860 -0.1730
   20CHTO   H41 8369   6.816   2.229   4.155 -0.1271 -0.0906 -0.7124
   20CHTO   H42 8370   6.662   2.206   4.238  0.2674 -1.4957  1.8641
   20CHTO   C22 8371   6.687   1.933   4.063  0.1867  0.4639  0.4284
   20CHTO   H50 8372   6.624   1.896   4.145 -0.3398 -1.5104 -0.8300
   20CHTO   O14 8373   6.639   1.875   3.943  0.3383 -0.2633  0.0467
   20CHTO   C23 8374   6.499   1.899   3.923 -0.0858  0.2070 -0.1664
   20CHTO   H51 8375   6.440   1.859   4.007 -0.7748 -0.2584 -0.8552
   20CHTO   C34 8376   6.470   1.825   3.794 -0.3704  0.1258 -0.1678
   20CHTO   O23 8377   6.450   1.686   3.826  0.0572  0.3436 -0.4514
   20CHTO   H38 8378   6.394   1.678   3.901  1.1157 -0.4490  0.2732
   20CHTO   O16 8379   6.821   1.880   4.060 -0.1460  0.2694  0.0347
   20CHTO   C24 8380   6.861   1.764   4.158  0.2446  0.0932 -0.5710
   20CHTO   H52 8381   6.795   1.762   4.245  0.3318  1.6269 -0.4620
   20CHTO   C26 8382   7.009   1.794   4.199 -0.3308  0.4797  0.0737
   20CHTO   H54 8383   7.067   1.815   4.107 -2.5590 -0.0568 -1.5042
   20CHTO   O20 8384   7.011   1.916   4.280 -0.2391 -0.4085 -0.1194
   20CHTO   H36 8385   7.060   1.908   4.359  0.5609  2.8297 -0.2300
   20CHTO   C30 8386   7.077   1.675   4.280 -0.1276 -0.6346  0.3456
   20CHTO   H58 8387   7.058   1.683   4.389 -0.0612 -0.1174  0.3209
   20CHTO    N6 8388   7.223   1.670   4.259 -0.9056 -0.1146  0.0048
   20CHTO   H45 8389   7.274   1.682   4.354 -0.4018  0.9268 -0.3816
   20CHTO   H46 8390   7.250   1.576   4.214  1.0130  1.6964 -2.7850
   20CHTO   C33 8391   7.013   1.539   4.244  0.2159 -0.0054 -0.2573
   20CHTO   H61 8392   7.090   1.461   4.240  0.2471  0.0863 -1.8000
   20CHTO   O18 8393   6.952   1.539   4.116  0.0400 -0.2863  0.6394
   20CHTO   C28 8394   6.848   1.636   4.084 -0.0216 -0.0462  0.0394
   20CHTO   H56 8395   6.859   1.655   3.977 -0.4042  0.0270  0.0118
   20CHTO   C35 8396   6.714   1.567   4.114  0.4844 -0.2030  0.1721
   20CHTO   O24 8397   6.683   1.466   4.016 -0.0616 -0.1409  0.0938
   20CHTO   H39 8398   6.615   1.408   4.043  0.7092 -0.4556  1.4114
   20CHTO    O9 8399   6.926   1.495   4.343  0.5219  0.1491  0.1442
   20CHTO   C13 8400   6.980   1.376   4.448 -0.3110 -0.1893  0.6342
   20CHTO   H26 8401   7.089   1.389   4.468 -0.5567  0.4256  1.6106
   20CHTO   C11 8402   6.942   1.226   4.385  0.2726  0.1672 -0.1949
   20CHTO   H24 8403   7.040   1.186   4.357  1.1685  2.2386 -0.0810
   20CHTO    O8 8404   6.870   1.254   4.265  0.8895 -0.1171  0.2901
   20CHTO    H3 8405   6.929   1.283   4.198 -0.8418 -1.4343 -1.8536
   20CHTO    C9 8406   6.874   1.145   4.494 -0.0956  0.5695 -0.4817
   20CHTO   H22 8407   6.947   1.145   4.576  0.0995  0.5533 -0.6581
   20CHTO    N2 8408   6.849   1.005   4.453  0.4185 -0.1467  0.5291
   20CHTO   H10 8409   6.909   0.969   4.371 -1.2607 -2.2489  0.1669
   20CHTO   H11 8410   6.858   0.931   4.531  1.2315  0.7551  1.2938
   20CHTO    C7 8411   6.748   1.218   4.542  0.9934 -0.2311  0.2871
   20CHTO   H20 8412   6.705   1.178   4.636 -1.0410  1.7049  0.2305
   20CHTO    O4 8413   6.767   1.357   4.578  0.2089  0.7962  0.3733
   20CHTO   C14 8414   6.901   1.402   4.581 -0.0335 -0.7408  0.5015
   20CHTO   H27 8415   6.942   1.343   4.666  1.1616  2.2926  2.0835
   20CHTO   C18 8416   6.907   1.548   4.627 -0.0156 -0.1654 -0.0780
   20CHTO   O13 8417   7.044   1.578   4.657 -0.1342  0.0798 -0.1891
   20CHTO    H7 8418   7.096   1.579   4.579  0.0415 -2.5561 -0.1420
   20CHTO    O2 8419   6.633   1.208   4.428  0.3209 -0.1385 -0.6107
   20CHTO    C1 8420   6.499   1.203   4.481  0.0226 -0.2235 -0.6741
   20CHTO   H14 8421   6.496   1.258   4.577  0.4171 -1.7727  0.2402
   20CHTO    C2 8422   6.450   1.060   4.518 -0.9153 -0.4299 -0.0577
   20CHTO   H15 8423   6.456   0.997   4.428  3.0844  0.1498 -0.2684
   20CHTO    O6 8424   6.524   1.000   4.628 -0.3511  0.3194  0.0570
   20CHTO    H1 8425   6.548   0.911   4.610 -0.6533 -0.1665  2.0308
   20CHTO    C3 8426   6.301   1.063   4.563 -0.1857  0.0782  0.3987
   20CHTO   H16 8427   6.310   1.102   4.666 -0.1996  0.8268  0.1180
   20CHTO    N1 8428   6.241   0.919   4.575  0.4808 -0.5919 -0.1466
   20CHTO    H8 8429   6.147   0.929   4.626 -0.4491 -0.1633 -1.8980
   20CHTO    H9 8430   6.307   0.854   4.630  1.0509 -1.9388 -2.3456
   20CHTO    C4 8431   6.204   1.161   4.483 -0.0225 -0.7555 -0.7732
   20CHTO   H17 8432   6.163   1.112   4.395 -0.7285 -2.3268  0.3994
   20CHTO    O1 8433   6.265   1.281   4.451  0.3564  0.0256  0.4150
   20CHTO    C5 8434   6.394   1.274   4.390  0.6762  0.3517 -0.5105
   20CHTO   H18 8435   6.384   1.218   4.297  0.3519 -0.8624  0.2538
   20CHTO   C16 8436   6.420   1.421   4.354  0.2571 -0.2550  0.4418
   20CHTO   O11 8437   6.554   1.453   4.318 -0.1509 -0.3831  0.9651
   20CHTO    H5 8438   6.581   1.537   4.349 -0.7859  0.5025 -0.8448
   20CHTO    O3 8439   6.095   1.198   4.571  0.1427 -0.0275 -0.0087
   20CHTO    C6 8440   5.983   1.276   4.509 -0.0764 -0.3824  0.3298
   20CHTO   H19 8441   6.006   1.302   4.406 -0.2554 -2.9778 -0.3987
   20CHTO    C8 8442   5.852   1.185   4.515  0.4797  0.1465  0.5762
   20CHTO   H21 8443   5.824   1.165   4.618 -0.7339 -0.2267  0.1854
   20CHTO    O7 8444   5.878   1.055   4.462 -0.2382 -0.1178  0.3549
   20CHTO    H2 8445   5.905   1.067   4.373  2.7532 -0.0667  1.2388
   20CHTO   C12 8446   5.737   1.268   4.442  0.2883  0.5361  0.2641
   20CHTO   H25 8447   5.770   1.294   4.339 -2.0808 -0.6974 -0.8393
   20CHTO    N3 8448   5.609   1.197   4.429  0.0396  0.2213 -0.4740
   20CHTO   H12 8449   5.577   1.177   4.530  0.0925  2.5778  0.0419
   20CHTO   H13 8450   5.622   1.104   4.376 -2.4916 -0.0760 -0.6403
   20CHTO   C15 8451   5.719   1.406   4.517  0.2335  0.4322 -0.4097
   20CHTO   H28 8452   5.676   1.397   4.616 -0.8688 -0.0186 -0.9262
   20CHTO   O10 8453   5.637   1.509   4.448 -0.5038  0.5673 -0.0155
   20CHTO    H4 8454   5.631   1.586   4.502 -0.4445 -0.6295  1.7141
   20CHTO    O5 8455   5.841   1.475   4.520  0.0420 -0.6868  0.1705
   20CHTO   C10 8456   5.940   1.406   4.589 -0.0664 -0.5937 -0.5506
   20CHTO   H23 8457   5.899   1.374   4.685  2.4848 -1.0691  0.4051
   20CHTO   C17 8458   6.065   1.492   4.614  0.4999 -0.5440  0.0887
   20CHTO   O12 8459   6.129   1.539   4.492 -0.0833 -0.2285  0.7565
   20CHTO    H6 8460   6.198   1.600   4.508 -0.6720  0.8174 -0.5285
   21GLOH   H03 8461   8.663   3.575   3.765 -0.6404  0.0739 -1.5560
   21GLOH    O1 8462   8.588   3.626   3.800 -0.1337  0.1068 -0.5343
   21GLOH    C1 8463   8.505   3.553   3.891 -0.4735 -0.3939 -0.1196
   21GLOH   H02 8464   8.552   3.539   3.988  1.4399  0.8541 -0.8398
   21GLOH   H08 8465   8.489   3.451   3.855 -0.8620 -0.3505 -0.0756
   21GLOH    C2 8466   8.364   3.616   3.895  0.5204  0.9995  0.1428
   21GLOH   H04 8467   8.373   3.724   3.912  0.0968  1.0423  0.0953
   21GLOH    O2 8468   8.296   3.587   3.767 -0.5525 -0.3179 -0.7304
   21GLOH   H05 8469   8.312   3.494   3.744  3.3294 -0.0453  0.5789
   21GLOH    C3 8470   8.294   3.548   4.020  0.1621 -0.2652 -0.3170
   21GLOH   H06 8471   8.288   3.439   4.011 -1.7499 -0.1630 -0.5246
   21GLOH   H07 8472   8.191   3.583   4.031  0.9725  1.9357  0.4722
   21GLOH    O3 8473   8.366   3.579   4.141  0.1170 -0.5693 -0.3867
   21GLOH   H01 8474   8.364   3.675   4.161 -1.1361 -0.6226 -0.2590
   22GLOH   H03 8475   1.800   3.898   3.716  1.3894 -1.7131  0.5330
   22GLOH    O1 8476   1.742   3.827   3.682 -0.5448  0.3018 -0.5018
   22GLOH    C1 8477   1.626   3.899   3.632  0.5029  0.8052 -0.5913
   22GLOH   H02 8478   1.654   3.970   3.554  0.1508  2.3755  0.6765
   22GLOH   H08 8479   1.574   3.954   3.711 -0.3170 -1.2106  0.3004
   22GLOH    C2 8480   1.528   3.799   3.572  1.3278  0.3058 -0.2326
   22GLOH   H04 8481   1.510   3.727   3.654 -0.4004  1.7267  0.6623
   22GLOH    O2 8482   1.415   3.874   3.521  0.1515  0.0173  0.2635
   22GLOH   H05 8483   1.349   3.804   3.508  1.5799 -1.3142  0.0794
   22GLOH    C3 8484   1.610   3.711   3.470 -0.6571 -0.2309  0.0745
   22GLOH   H06 8485   1.532   3.648   3.427 -1.3833 -0.2668  1.4065
   22GLOH   H07 8486   1.674   3.641   3.524 -0.1042  0.9993  1.0478
   22GLOH    O3 8487   1.673   3.786   3.367  0.2501 -0.1419 -0.2308
   22GLOH   H01 8488   1.763   3.805   3.398  0.8175 -1.0563 -1.2971
   23GLOH   H03 8489   9.865   6.703   1.115 -0.7243 -1.3369 -0.1257
   23GLOH    O1 8490   9.816   6.712   1.030 -0.0875 -0.0507 -0.3674
   23GLOH    C1 8491   9.867   6.818   0.943 -0.2019 -0.0209  0.4288
   23GLOH   H02 8492   9.829   6.809   0.841  1.5876  0.3801 -0.2858
   23GLOH   H08 8493   9.972   6.799   0.924 -0.2298  1.6639 -1.6160
   23GLOH    C2 8494   9.850   6.958   1.005 -0.2655  0.0606 -0.1889
   23GLOH   H04 8495   9.871   6.956   1.113 -2.6132  2.8276  0.3427
   23GLOH    O2 8496   9.926   7.064   0.939 -0.3444 -0.1778 -0.1038
   23GLOH   H05 8497   9.882   7.150   0.947  2.1870  0.9974  2.0862
   23GLOH    C3 8498   9.698   6.997   0.984  0.2698 -0.0754  1.0584
   23GLOH   H06 8499   9.639   6.911   1.014 -1.1515  1.1830  1.9458
   23GLOH   H07 8500   9.686   7.023   0.878  0.2729 -6.6831 -0.8194
   23GLOH    O3 8501   9.673   7.111   1.066  0.3723  0.2847  0.6536
   23GLOH   H01 8502   9.589   7.153   1.038  0.5917  0.6764  0.5836
   24GLOH   H03 8503   7.562   1.647   4.659 -1.0541 -0.0370 -1.4746
   24GLOH    O1 8504   7.568   1.742   4.680  0.7137 -0.4253 -0.0840
   24GLOH    C1 8505   7.467   1.824   4.616  1.1255 -0.8820 -0.8011
   24GLOH   H02 8506   7.432   1.902   4.683  0.5741 -2.9906  1.4383
   24GLOH   H08 8507   7.380   1.764   4.589 -0.5255  0.6079  1.0423
   24GLOH    C2 8508   7.509   1.882   4.485  0.2953  0.9293  0.0249
   24GLOH   H04 8509   7.597   1.945   4.503  1.3564 -0.7072  0.6332
   24GLOH    O2 8510   7.567   1.782   4.400  0.1949 -0.2714 -0.3995
   24GLOH   H05 8511   7.663   1.792   4.417 -0.1002 -0.3433  1.4318
   24GLOH    C3 8512   7.402   1.963   4.415 -0.5991  0.0607 -0.3831
   24GLOH   H06 8513   7.318   1.895   4.407 -0.0477 -0.5984 -0.5964
   24GLOH   H07 8514   7.432   1.995   4.315 -0.8026  1.0513 -0.1355
   24GLOH    O3 8515   7.353   2.070   4.499  0.0337 -0.0887 -0.3143
   24GLOH   H01 8516   7.416   2.143   4.484 -0.3704  0.1248 -0.9864
   25GLOH   H03 8517   7.670   9.154   2.209  1.8786 -1.4236  0.0314
   25GLOH    O1 8518   7.722   9.221   2.162  0.3939 -0.1475  0.1771
   25GLOH    C1 8519   7.818   9.287   2.247  0.6406  0.0490  0.3144
   25GLOH   H02 8520   7.769   9.310   2.342  0.1423 -1.1136  0.3525
   25GLOH   H08 8521   7.850   9.386   2.216  1.0948 -0.3292 -0.4312
   25GLOH    C2 8522   7.942   9.204   2.269 -0.1193 -0.1348  0.4660
   25GLOH   H04 8523   8.014   9.250   2.338 -0.3979 -2.4394  2.3624
   25GLOH    O2 8524   7.920   9.070   2.320 -0.1939  0.0595 -0.3325
   25GLOH   H05 8525   7.839   9.023   2.292 -1.2379  1.3451  0.4849
   25GLOH    C3 8526   8.013   9.200   2.133  0.0949 -0.0403 -0.0145
   25GLOH   H06 8527   7.941   9.175   2.056 -2.6501  2.6968  1.5541
   25GLOH   H07 8528   8.088   9.120   2.132  1.3474  1.1091 -3.5460
   25GLOH    O3 8529   8.075   9.330   2.101 -0.7157  0.1077  0.1624
   25GLOH   H01 8530   8.066   9.329   2.004  0.3275  1.8706  0.0363
   26GLOH   H03 8531   7.499   9.025   1.015  1.2751  0.1498  1.4700
   26GLOH    O1 8532   7.559   9.006   0.940 -0.3231 -0.1050  0.2332
   26GLOH    C1 8533   7.691   8.996   0.997  0.8251  0.4730  0.1730
   26GLOH   H02 8534   7.742   9.092   0.988 -1.1402  1.4767 -0.4794
   26GLOH   H08 8535   7.746   8.918   0.944  0.3973  1.1886 -1.3654
   26GLOH    C2 8536   7.688   8.961   1.145 -0.3264 -0.0537 -0.3666
   26GLOH   H04 8537   7.637   8.865   1.161 -1.9591  0.7807 -0.4402
   26GLOH    O2 8538   7.817   8.952   1.202 -0.3941  0.5023  0.2764
   26GLOH   H05 8539   7.841   8.858   1.201 -2.0635  0.0377  1.0513
   26GLOH    C3 8540   7.599   9.060   1.220 -0.3585  0.1984 -0.0101
   26GLOH   H06 8541   7.648   9.157   1.215 -0.8190  0.4712  0.7019
   26GLOH   H07 8542   7.597   9.028   1.324  0.4010 -0.9271 -0.3239
   26GLOH    O3 8543   7.468   9.060   1.167  0.3454  0.2060  0.3993
   26GLOH   H01 8544   7.421   9.132   1.212  0.8680  0.5474  0.3982
   27GLOH   H03 8545   8.447   6.028   4.130 -1.1779 -0.2282  0.7261
   27GLOH    O1 8546   8.457   5.968   4.055 -1.0144  0.5022  0.1610
   27GLOH    C1 8547   8.496   6.035   3.935 -0.4564 -0.0299 -0.6325
   27GLOH   H02 8548   8.526   5.957   3.863  1.9238 -0.1947  0.4782
   27GLOH   H08 8549   8.587   6.091   3.957  0.1707 -1.7431  1.3708
   27GLOH    C2 8550   8.386   6.120   3.877  0.7184 -0.4684  0.7227
   27GLOH   H04 8551   8.369   6.206   3.943  0.9114  0.9443 -1.0001
   27GLOH    O2 8552   8.433   6.182   3.754 -0.3480 -0.1663 -0.1513
   27GLOH   H05 8553   8.379   6.262   3.743  1.1244  1.0556  1.3321
   27GLOH    C3 8554   8.254   6.051   3.851  0.0400 -0.7000  0.2423
   27GLOH   H06 8555   8.231   6.002   3.946  1.3752  0.9733  1.4690
   27GLOH   H07 8556   8.264   5.971   3.778  0.8044 -0.2976 -0.0987
   27GLOH    O3 8557   8.141   6.135   3.821  1.1041 -0.0992  0.6610
   27GLOH   H01 8558   8.071   6.078   3.785 -0.9074  2.2067  0.7848
   28GLOH   H03 8559   8.423   6.406   3.347  3.7069 -1.2889 -0.5293
   28GLOH    O1 8560   8.380   6.321   3.326  0.2518  0.2709 -0.1082
   28GLOH    C1 8561   8.443   6.272   3.204  0.2141 -0.0477  0.0729
   28GLOH   H02 8562   8.422   6.331   3.114 -0.5983  0.9798  0.9233
   28GLOH   H08 8563   8.398   6.175   3.185 -2.2078  1.0838 -0.2160
   28GLOH    C2 8564   8.596   6.271   3.195 -0.0337 -0.3922 -0.4426
   28GLOH   H04 8565   8.620   6.193   3.121  2.7451 -2.1920  2.2168
   28GLOH    O2 8566   8.656   6.395   3.161  0.3324 -0.2530 -0.3456
   28GLOH   H05 8567   8.667   6.458   3.234  0.4389 -0.4680 -0.1770
   28GLOH    C3 8568   8.659   6.217   3.321 -0.8819 -0.2015  0.2046
   28GLOH   H06 8569   8.762   6.204   3.286 -1.5196 -0.2301 -1.7519
   28GLOH   H07 8570   8.617   6.118   3.338  2.9166 -2.2226 -1.4324
   28GLOH    O3 8571   8.637   6.300   3.437  0.4943  0.1695 -0.0973
   28GLOH   H01 8572   8.681   6.247   3.506 -1.9545 -1.7456  0.0570
   29GLOH   H03 8573   4.515   3.673   3.847 -1.2265 -2.4478  0.3774
   29GLOH    O1 8574   4.541   3.655   3.939  0.5009 -0.2522  0.3505
   29GLOH    C1 8575   4.500   3.754   4.034  0.0934 -0.0371  0.7631
   29GLOH   H02 8576   4.553   3.844   4.004 -1.3336 -0.4708 -3.3396
   29GLOH   H08 8577   4.531   3.716   4.132 -1.6074 -0.2753  1.2341
   29GLOH    C2 8578   4.346   3.779   4.041 -0.4446  0.3412  0.2101
   29GLOH   H04 8579   4.309   3.799   3.940 -1.0096  0.3949  0.4240
   29GLOH    O2 8580   4.284   3.654   4.079 -0.2633 -0.2527 -0.3543
   29GLOH   H05 8581   4.279   3.608   3.994 -1.6254 -0.3746 -0.2185
   29GLOH    C3 8582   4.312   3.889   4.143 -0.0630  0.4466 -0.0395
   29GLOH   H06 8583   4.374   3.872   4.231  0.1507  0.2780 -0.2233
   29GLOH   H07 8584   4.205   3.871   4.155  0.2391 -0.3819  1.5918
   29GLOH    O3 8585   4.351   4.019   4.096  0.1012 -0.0930  0.1402
   29GLOH   H01 8586   4.282   4.058   4.038  1.6129  0.5735 -1.2490
   30GLOH   H03 8587   0.674   3.736   4.062  0.7643 -0.0766  2.3886
   30GLOH    O1 8588   0.642   3.825   4.086 -0.5725  0.1332  0.0271
   30GLOH    C1 8589   0.701   3.924   4.002 -0.3858 -0.6040 -0.0859
   30GLOH   H02 8590   0.684   3.899   3.897 -1.8962 -0.7127  0.1649
   30GLOH   H08 8591   0.804   3.951   4.025 -0.6836  1.3711 -0.9059
   30GLOH    C2 8592   0.624   4.055   4.025  0.3565 -0.4320 -0.0569
   30GLOH   H04 8593   0.613   4.086   4.130  0.5061 -0.3978 -0.0533
   30GLOH    O2 8594   0.679   4.173   3.955  0.6281 -0.4052 -0.2852
   30GLOH   H05 8595   0.667   4.157   3.860  1.9623 -0.5658 -0.4318
   30GLOH    C3 8596   0.481   4.044   3.972  0.8751 -0.5053 -0.0567
   30GLOH   H06 8597   0.425   3.970   4.030  2.9007 -1.9169  0.1540
   30GLOH   H07 8598   0.493   3.997   3.874 -0.4991  0.2241 -0.5788
   30GLOH    O3 8599   0.399   4.167   3.974  0.2359  0.3694  0.2757
   30GLOH   H01 8600   0.454   4.233   3.929  0.7445 -0.7183 -0.7139
   31GLOH   H03 8601   4.842   4.396   2.092 -0.8638 -0.0663  0.8764
   31GLOH    O1 8602   4.852   4.336   2.168  0.7618 -0.5133  0.3382
   31GLOH    C1 8603   4.728   4.305   2.228 -0.6673  0.3412  0.6017
   31GLOH   H02 8604   4.684   4.391   2.278 -2.5133  0.5589 -1.3244
   31GLOH   H08 8605   4.745   4.222   2.297 -1.2040 -0.2650  0.0137
   31GLOH    C2 8606   4.629   4.256   2.125  0.2141  0.0501 -0.3023
   31GLOH   H04 8607   4.546   4.209   2.179  1.3551 -0.1889  1.3090
   31GLOH    O2 8608   4.590   4.372   2.043  0.6048  0.5736  0.0469
   31GLOH   H05 8609   4.672   4.419   2.020  1.0367 -0.4134 -0.4115
   31GLOH    C3 8610   4.693   4.149   2.034 -0.9201 -0.4198 -0.4148
   31GLOH   H06 8611   4.747   4.078   2.096  0.5792  0.4643 -0.6946
   31GLOH   H07 8612   4.774   4.189   1.973 -0.8917 -0.5389 -0.4558
   31GLOH    O3 8613   4.603   4.075   1.947 -0.2821 -0.7380 -0.7333
   31GLOH   H01 8614   4.530   4.135   1.924  1.2112  0.0886 -3.5820
   32GLOH   H03 8615   9.939   1.928   3.084 -0.0817 -0.5823  0.2005
   32GLOH    O1 8616   9.881   1.919   3.006  0.4461  0.9761 -0.3937
   32GLOH    C1 8617   9.874   2.044   2.938 -0.2146 -0.4898 -0.4015
   32GLOH   H02 8618   9.937   2.041   2.849 -0.9735 -0.8240 -0.9347
   32GLOH   H08 8619   9.920   2.122   2.999 -1.6835  0.5870 -0.6527
   32GLOH    C2 8620   9.728   2.081   2.900  1.0446  0.3503 -0.8412
   32GLOH   H04 8621   9.702   2.010   2.820  0.7977 -2.2951  1.5231
   32GLOH    O2 8622   9.639   2.058   3.007 -0.0679 -0.5161 -0.1667
   32GLOH   H05 8623   9.675   1.989   3.064 -1.0585 -0.4019  0.6152
   32GLOH    C3 8624   9.730   2.224   2.840 -0.2349  0.4013 -0.1234
   32GLOH   H06 8625   9.741   2.290   2.926  0.2204 -0.4284  0.4577
   32GLOH   H07 8626   9.627   2.245   2.814  0.2555  3.5112  0.2514
   32GLOH    O3 8627   9.822   2.239   2.733 -0.2475 -0.3012 -0.2431
   32GLOH   H01 8628   9.774   2.207   2.655  2.9528 -1.8862 -1.6370
   33GLOH   H03 8629   2.774   1.132   3.776 -1.1796 -0.7456 -0.8825
   33GLOH    O1 8630   2.718   1.207   3.803  0.0503 -0.1536  0.1080
   33GLOH    C1 8631   2.707   1.301   3.688  0.6907 -0.0758 -0.2493
   33GLOH   H02 8632   2.802   1.335   3.646  0.5481  0.3521 -0.2257
   33GLOH   H08 8633   2.667   1.399   3.716  0.5851 -0.7042  1.8537
   33GLOH    C2 8634   2.624   1.247   3.576  1.0364  0.5712  0.0162
   33GLOH   H04 8635   2.630   1.307   3.484  1.9271  0.2218 -0.1578
   33GLOH    O2 8636   2.682   1.124   3.534 -0.3536 -0.1432 -0.7149
   33GLOH   H05 8637   2.775   1.136   3.509 -0.2528 -1.1013 -0.8138
   33GLOH    C3 8638   2.471   1.235   3.601  0.0204  0.5351 -0.5002
   33GLOH   H06 8639   2.455   1.179   3.693 -2.8054  0.3410 -1.0797
   33GLOH   H07 8640   2.431   1.170   3.523 -0.5333  0.3399 -0.0598
   33GLOH    O3 8641   2.401   1.358   3.613 -0.3602  0.9558  0.2695
   33GLOH   H01 8642   2.370   1.390   3.526  0.8306 -0.4391 -0.6903
   34GLOH   H03 8643   6.627   9.389   0.866 -2.5734  0.9694 -0.6648
   34GLOH    O1 8644   6.646   9.400   0.771  0.8541  0.1311 -0.1418
   34GLOH    C1 8645   6.576   9.497   0.696 -0.3200 -0.0634 -0.3741
   34GLOH   H02 8646   6.602   9.483   0.591  0.4823 -1.5254 -0.0057
   34GLOH   H08 8647   6.619   9.591   0.731 -1.9377 -0.3252  2.4428
   34GLOH    C2 8648   6.423   9.501   0.708 -0.1661 -0.8828  0.3678
   34GLOH   H04 8649   6.389   9.398   0.691 -2.8817  0.1900 -1.0100
   34GLOH    O2 8650   6.381   9.552   0.837 -0.3844 -0.3652  0.0249
   34GLOH   H05 8651   6.448   9.619   0.860  1.2317 -1.7684 -0.5039
   34GLOH    C3 8652   6.358   9.573   0.585  0.8262 -0.2311  0.3947
   34GLOH   H06 8653   6.253   9.592   0.606  0.5560 -1.4054  0.1328
   34GLOH   H07 8654   6.365   9.502   0.503  0.6311 -2.6022  2.3555
   34GLOH    O3 8655   6.416   9.695   0.545  0.3033 -0.2647 -0.5495
   34GLOH   H01 8656   6.386   9.770   0.599 -0.0963  1.0619 -2.5490
   35GLOH   H03 8657   5.016   2.457   2.850 -2.0502  0.3371 -1.5248
   35GLOH    O1 8658   5.032   2.548   2.882  0.1154 -0.4335 -0.2688
   35GLOH    C1 8659   5.173   2.566   2.860  0.1313 -0.1571 -0.3280
   35GLOH   H02 8660   5.205   2.516   2.769 -0.8729 -0.7068 -0.3786
   35GLOH   H08 8661   5.230   2.513   2.937  1.0129 -1.4416 -1.8348
   35GLOH    C2 8662   5.212   2.718   2.854  0.2947  0.1457 -1.0654
   35GLOH   H04 8663   5.321   2.727   2.844  0.4867 -0.9944 -0.1199
   35GLOH    O2 8664   5.153   2.794   2.747  0.2008  0.5531  0.4693
   35GLOH   H05 8665   5.146   2.738   2.668 -1.6381  2.0828 -0.5044
   35GLOH    C3 8666   5.185   2.782   2.991 -0.4087 -0.1651 -0.5345
   35GLOH   H06 8667   5.215   2.886   2.988 -2.7263  0.5335 -0.3467
   35GLOH   H07 8668   5.246   2.726   3.061 -0.1400 -2.0198 -2.2094
   35GLOH    O3 8669   5.039   2.773   3.027 -0.5203 -0.3555  0.3918
   35GLOH   H01 8670   5.005   2.686   3.000  0.7738 -1.0551  0.9354
   36GLOH   H03 8671   4.888   7.949   1.241  0.7995  0.0919  0.6065
   36GLOH    O1 8672   4.943   7.871   1.219  0.5146  0.2417 -0.6835
   36GLOH    C1 8673   4.900   7.828   1.090  0.1021 -0.1589 -0.1257
   36GLOH   H02 8674   4.827   7.747   1.098 -1.1387  0.7969 -1.4303
   36GLOH   H08 8675   4.987   7.791   1.035 -0.1793  0.8078 -1.2614
   36GLOH    C2 8676   4.837   7.936   0.990 -0.4978  0.4475  0.3714
   36GLOH   H04 8677   4.916   8.010   0.971  0.5463 -0.6240  0.5405
   36GLOH    O2 8678   4.783   7.878   0.866 -0.0399 -0.0518 -0.2220
   36GLOH   H05 8679   4.697   7.843   0.894  0.2228  0.5416  1.3592
   36GLOH    C3 8680   4.721   7.997   1.073 -0.1030 -0.4051  0.1290
   36GLOH   H06 8681   4.637   7.931   1.091 -1.3695  0.7550 -1.4188
   36GLOH   H07 8682   4.683   8.080   1.014 -2.0720 -1.4319 -0.0679
   36GLOH    O3 8683   4.772   8.056   1.193 -0.2207 -0.2444  0.5542
   36GLOH   H01 8684   4.776   8.154   1.190  0.9133 -0.3099  0.0238
   37GLOH   H03 8685   2.712   2.738   3.365 -4.1846 -0.9150 -1.2999
   37GLOH    O1 8686   2.707   2.817   3.307 -0.3991  0.4750  0.1564
   37GLOH    C1 8687   2.842   2.857   3.268  0.2937  0.0169  0.4690
   37GLOH   H02 8688   2.890   2.775   3.214  0.7477  0.9558 -0.5615
   37GLOH   H08 8689   2.902   2.879   3.357  1.1015 -1.2218  0.2388
   37GLOH    C2 8690   2.832   2.976   3.174  0.2300 -0.0199  0.0921
   37GLOH   H04 8691   2.763   2.948   3.093 -0.5228 -3.4887  1.8416
   37GLOH    O2 8692   2.782   3.084   3.252  0.0815  0.0055 -0.0931
   37GLOH   H05 8693   2.733   3.034   3.319 -0.3006 -1.4465 -1.4398
   37GLOH    C3 8694   2.963   3.008   3.107  0.1457 -0.4312 -1.0396
   37GLOH   H06 8695   3.032   3.049   3.181  1.5590 -2.0438 -1.4208
   37GLOH   H07 8696   2.948   3.092   3.039 -0.4646  0.2336 -0.0951
   37GLOH    O3 8697   3.021   2.894   3.036  0.1760  0.6317  0.5903
   37GLOH   H01 8698   3.103   2.920   2.991 -0.5881 -0.0809 -1.2822
   38GLOH   H03 8699   8.535   5.423   0.610 -0.0662 -0.4895  0.8255
   38GLOH    O1 8700   8.526   5.350   0.547 -0.2104  0.1903  0.0481
   38GLOH    C1 8701   8.463   5.398   0.424  0.2031  0.4238 -0.4713
   38GLOH   H02 8702   8.538   5.432   0.353 -0.9756 -0.0334 -1.9798
   38GLOH   H08 8703   8.396   5.483   0.435 -0.4586 -0.1796  0.3245
   38GLOH    C2 8704   8.398   5.282   0.344  0.6911  0.1571 -0.4154
   38GLOH   H04 8705   8.477   5.212   0.313  0.8047 -2.0600  4.3851
   38GLOH    O2 8706   8.310   5.200   0.424 -0.7647 -0.5202  0.5440
   38GLOH   H05 8707   8.368   5.130   0.460  2.6201  2.0512  0.3543
   38GLOH    C3 8708   8.320   5.335   0.217 -0.4737  0.3595 -0.0267
   38GLOH   H06 8709   8.245   5.409   0.243  2.6490  3.1404  1.2988
   38GLOH   H07 8710   8.268   5.254   0.164  0.5623  0.3977 -1.1353
   38GLOH    O3 8711   8.407   5.391   0.122 -0.0178  0.0225 -0.0865
   38GLOH   H01 8712   8.412   5.339   0.040 -1.0300  1.0299 -0.8031
   39GLOH   H03 8713   8.510   4.774   2.377 -0.2595  0.9607 -1.7273
   39GLOH    O1 8714   8.440   4.712   2.351 -0.0677 -0.1411  0.3296
   39GLOH    C1 8715   8.380   4.755   2.225 -0.8228  0.0796 -0.4916
   39GLOH   H02 8716   8.439   4.706   2.148 -0.0807 -1.4022  0.9905
   39GLOH   H08 8717   8.400   4.862   2.214 -0.1962  0.2728  2.1755
   39GLOH    C2 8718   8.230   4.730   2.207  0.0460  0.0152  0.2547
   39GLOH   H04 8719   8.180   4.810   2.263 -1.0023 -0.3366 -0.1643
   39GLOH    O2 8720   8.182   4.747   2.073  0.0912 -0.0420 -0.0634
   39GLOH   H05 8721   8.158   4.840   2.055 -2.0957 -0.6677 -0.6275
   39GLOH    C3 8722   8.193   4.588   2.265 -0.2582 -0.5028  0.6829
   39GLOH   H06 8723   8.266   4.510   2.244 -0.4811 -0.8300  1.1054
   39GLOH   H07 8724   8.095   4.557   2.229 -1.0517  0.7707  1.7274
   39GLOH    O3 8725   8.199   4.594   2.407  0.0540 -0.3679  0.0903
   39GLOH   H01 8726   8.289   4.631   2.419 -0.2190  0.4100 -0.2387
   40GLOH   H03 8727   3.041   6.675   0.624 -2.2633  1.2391 -1.0495
   40GLOH    O1 8728   3.016   6.581   0.620  0.1380  0.5357 -0.1934
   40GLOH    C1 8729   2.971   6.549   0.489 -0.2705  0.5940 -0.5222
   40GLOH   H02 8730   3.052   6.556   0.415  0.5633 -0.0046  0.3234
   40GLOH   H08 8731   2.885   6.613   0.470 -1.7107 -0.8253  1.0799
   40GLOH    C2 8732   2.920   6.402   0.478  0.1779 -0.2613 -0.4551
   40GLOH   H04 8733   2.853   6.385   0.564  1.5681 -0.0848  0.6758
   40GLOH    O2 8734   2.845   6.388   0.354 -0.5437 -0.0050  0.4022
   40GLOH   H05 8735   2.774   6.329   0.386  0.5180 -1.6410 -0.2017
   40GLOH    C3 8736   3.034   6.298   0.484  0.2678  0.5595 -0.9162
   40GLOH   H06 8737   3.095   6.292   0.394  0.7444 -4.3704 -0.4260
   40GLOH   H07 8738   2.988   6.200   0.494 -1.0842  1.1021 -1.6412
   40GLOH    O3 8739   3.121   6.327   0.593 -0.1494  0.0417  0.3189
   40GLOH   H01 8740   3.127   6.423   0.608  0.7555  0.3434 -1.7909
   41GLOH   H03 8741   8.338   3.842   0.430  1.6089 -1.9112 -1.2329
   41GLOH    O1 8742   8.365   3.915   0.371  0.1374 -0.4011 -0.0745
   41GLOH    C1 8743   8.458   3.869   0.271  0.1244  0.5159  0.4353
   41GLOH   H02 8744   8.512   3.780   0.304 -1.6884 -0.3772  1.0763
   41GLOH   H08 8745   8.530   3.948   0.256 -0.4113  0.8624 -0.3304
   41GLOH    C2 8746   8.403   3.852   0.127 -0.3033 -0.9390  0.2175
   41GLOH   H04 8747   8.297   3.823   0.127  0.3163 -3.3330 -1.6871
   41GLOH    O2 8748   8.402   3.973   0.050  0.0984  0.0564  0.0548
   41GLOH   H05 8749   8.352   3.952  -0.031  1.7941 -0.3060 -0.9450
   41GLOH    C3 8750   8.480   3.749   0.049  0.2580 -0.8414  0.1071
   41GLOH   H06 8751   8.587   3.767   0.049 -0.1405  1.6664 -0.1036
   41GLOH   H07 8752   8.450   3.753  -0.056  1.8615  0.1598 -0.3236
   41GLOH    O3 8753   8.462   3.613   0.094  0.4281  0.1743  0.2293
   41GLOH   H01 8754   8.367   3.610   0.116  0.5621  0.1893  0.8231
   42GLOH   H03 8755   5.122   4.274   0.547 -0.9273  0.7012 -0.3127
   42GLOH    O1 8756   5.187   4.231   0.488 -0.1135  0.5877  0.6678
   42GLOH    C1 8757   5.144   4.253   0.349  0.2426 -0.7170 -0.0902
   42GLOH   H02 8758   5.233   4.243   0.286  0.1285  1.6976 -0.6775
   42GLOH   H08 8759   5.117   4.358   0.340 -1.4649 -0.9294  2.1155
   42GLOH    C2 8760   5.033   4.159   0.299 -0.5964 -0.0848  0.3643
   42GLOH   H04 8761   5.009   4.198   0.199  1.4006  1.8836  0.6205
   42GLOH    O2 8762   5.072   4.019   0.292  0.1245  0.9071  0.1583
   42GLOH   H05 8763   5.123   4.017   0.375  0.4673 -1.6271 -0.0866
   42GLOH    C3 8764   4.908   4.169   0.376  0.5148  0.0693 -0.8062
   42GLOH   H06 8765   4.927   4.134   0.477  0.9081 -2.0872 -1.5998
   42GLOH   H07 8766   4.837   4.095   0.338  0.1543 -1.0272  1.9131
   42GLOH    O3 8767   4.858   4.304   0.368 -0.1386  0.3674  0.0307
   42GLOH   H01 8768   4.831   4.320   0.275 -2.2485 -0.0475  0.5335
   43GLOH   H03 8769   7.559   3.592   4.641  0.3886  2.3108 -4.2809
   43GLOH    O1 8770   7.500   3.525   4.601  0.3306 -0.2806 -0.1534
   43GLOH    C1 8771   7.440   3.447   4.699  0.3987  0.4115  0.8090
   43GLOH   H02 8772   7.389   3.510   4.772  0.7326  1.2322  0.3328
   43GLOH   H08 8773   7.518   3.408   4.765  0.4932 -2.5094 -0.9256
   43GLOH    C2 8774   7.358   3.335   4.637 -0.1785  0.3657 -0.1644
   43GLOH   H04 8775   7.430   3.255   4.613  0.2063  0.0576  1.9136
   43GLOH    O2 8776   7.268   3.275   4.737  0.3652  0.1578 -0.0998
   43GLOH   H05 8777   7.303   3.200   4.789  4.0110  1.9792  0.2696
   43GLOH    C3 8778   7.272   3.376   4.516  0.0726 -0.1463  0.1009
   43GLOH   H06 8779   7.196   3.444   4.554  1.1112  0.5513  0.9609
   43GLOH   H07 8780   7.225   3.285   4.480 -2.0496  0.1677  2.0211
   43GLOH    O3 8781   7.354   3.443   4.419 -0.3505 -0.5520  0.0290
   43GLOH   H01 8782   7.421   3.478   4.481  2.1054 -0.3132 -2.6791
   44GLOH   H03 8783   2.780   9.527   2.277 -1.1244  0.5882  1.0717
   44GLOH    O1 8784   2.725   9.454   2.243  0.0686  0.0868  0.1835
   44GLOH    C1 8785   2.689   9.470   2.107 -0.5162 -0.3964 -0.4335
   44GLOH   H02 8786   2.715   9.385   2.044 -1.2429 -2.5722  2.0961
   44GLOH   H08 8787   2.725   9.563   2.064  0.1716 -1.0182 -1.2353
   44GLOH    C2 8788   2.532   9.474   2.090 -0.2675 -0.0989  0.0322
   44GLOH   H04 8789   2.484   9.547   2.157  0.5234  1.7055 -1.3114
   44GLOH    O2 8790   2.507   9.510   1.951 -0.3266 -0.0239 -0.0284
   44GLOH   H05 8791   2.441   9.581   1.950 -0.0730  0.3990  4.5939
   44GLOH    C3 8792   2.474   9.336   2.126  0.0478  0.1745  0.3336
   44GLOH   H06 8793   2.496   9.313   2.231  0.7581 -0.9973 -0.0530
   44GLOH   H07 8794   2.512   9.250   2.071  0.1956 -0.0765  0.8211
   44GLOH    O3 8795   2.333   9.349   2.115  0.7190 -0.0554 -0.0009
   44GLOH   H01 8796   2.292   9.289   2.182 -0.8904  0.5657 -0.4043
   45GLOH   H03 8797   7.851   0.829   2.234  2.2405 -1.0049  0.8349
   45GLOH    O1 8798   7.887   0.850   2.146 -0.3374 -0.2509 -0.0793
   45GLOH    C1 8799   7.779   0.828   2.050 -0.1535  0.4134  0.2388
   45GLOH   H02 8800   7.722   0.918   2.025 -3.6273 -1.5064  0.8471
   45GLOH   H08 8801   7.708   0.756   2.091  0.0064  0.3881  0.4767
   45GLOH    C2 8802   7.851   0.779   1.924  0.3504 -0.0015  0.1899
   45GLOH   H04 8803   7.924   0.851   1.885  1.7105 -1.5436 -0.1936
   45GLOH    O2 8804   7.913   0.652   1.961  0.1926  0.3633  0.1025
   45GLOH   H05 8805   7.970   0.682   2.034  0.3267 -1.9229  0.9563
   45GLOH    C3 8806   7.740   0.758   1.821  0.4377  0.3809 -0.5217
   45GLOH   H06 8807   7.668   0.684   1.855  1.8968 -1.5055 -1.4187
   45GLOH   H07 8808   7.796   0.712   1.739  0.3505  0.7162 -0.7697
   45GLOH    O3 8809   7.678   0.881   1.781  0.1505  0.2584 -0.1109
   45GLOH   H01 8810   7.699   0.885   1.686  0.6869 -0.0116 -0.0104
   46GLOH   H03 8811   4.968   5.571   1.954 -0.5661 -0.3503 -1.4526
   46GLOH    O1 8812   4.900   5.563   2.023  0.3666 -0.2602 -0.4969
   46GLOH    C1 8813   4.794   5.656   1.998  0.6070 -0.7327  0.0871
   46GLOH   H02 8814   4.764   5.653   1.893 -0.5949  0.2290  0.3878
   46GLOH   H08 8815   4.819   5.760   2.017 -0.5580 -0.3583 -0.3825
   46GLOH    C2 8816   4.672   5.624   2.084 -0.1463 -1.1216  0.1917
   46GLOH   H04 8817   4.706   5.648   2.186  0.0384  0.9378 -0.3398
   46GLOH    O2 8818   4.557   5.711   2.067 -0.2944  0.1319 -0.2318
   46GLOH   H05 8819   4.528   5.749   2.151  2.3229  2.2355 -0.2213
   46GLOH    C3 8820   4.622   5.480   2.063 -0.5102 -0.3508  0.1893
   46GLOH   H06 8821   4.582   5.467   1.962  0.4855 -2.1984  0.0090
   46GLOH   H07 8822   4.533   5.465   2.125 -0.3023  0.7083  0.7565
   46GLOH    O3 8823   4.719   5.379   2.094  0.3691 -0.2457 -0.2919
   46GLOH   H01 8824   4.806   5.407   2.059 -0.3280  2.4894  0.0550
   47GLOH   H03 8825   0.002   4.818   1.538  0.7322 -2.2412 -1.2631
   47GLOH    O1 8826   0.091   4.851   1.518  0.2136  0.1356  0.1171
   47GLOH    C1 8827   0.148   4.790   1.401  0.2466 -0.1906 -0.2237
   47GLOH   H02 8828   0.120   4.830   1.303 -0.2111 -1.2547 -0.5302
   47GLOH   H08 8829   0.130   4.682   1.401 -0.3337 -0.1011  1.4005
   47GLOH    C2 8830   0.298   4.813   1.405 -0.6331 -0.3256 -0.5457
   47GLOH   H04 8831   0.359   4.739   1.458  1.1922  1.1341 -0.5769
   47GLOH    O2 8832   0.346   4.813   1.267  0.7067  0.1330 -0.2592
   47GLOH   H05 8833   0.275   4.791   1.205  0.1101  1.0547  0.0896
   47GLOH    C3 8834   0.337   4.948   1.478 -0.1952  0.1868 -0.1453
   47GLOH   H06 8835   0.282   5.030   1.431 -2.9639 -1.3006  0.3975
   47GLOH   H07 8836   0.441   4.973   1.458  0.5719 -0.9624  2.2937
   47GLOH    O3 8837   0.323   4.929   1.620 -0.0426 -0.6259 -0.4390
   47GLOH   H01 8838   0.267   4.850   1.635  0.7547 -1.0847  0.1284
   48GLOH   H03 8839   7.363   9.354   1.123  1.8387  1.7325  1.9402
   48GLOH    O1 8840   7.392   9.422   1.060  0.7048 -0.3173 -0.9309
   48GLOH    C1 8841   7.332   9.381   0.932  0.2304 -0.0393 -0.1802
   48GLOH   H02 8842   7.250   9.312   0.952  0.1401 -0.6097 -2.3459
   48GLOH   H08 8843   7.401   9.326   0.869  1.1548  0.7493  0.1350
   48GLOH    C2 8844   7.272   9.493   0.846  0.0557  0.4635  0.5542
   48GLOH   H04 8845   7.213   9.453   0.762  0.4656  1.9765 -0.4783
   48GLOH    O2 8846   7.178   9.572   0.917  0.0238 -0.2948 -0.0699
   48GLOH   H05 8847   7.125   9.522   0.982 -0.2655 -1.6798 -1.3435
   48GLOH    C3 8848   7.383   9.578   0.781  0.3626 -0.1485 -0.1430
   48GLOH   H06 8849   7.424   9.635   0.864  1.4084 -0.2670 -0.5620
   48GLOH   H07 8850   7.332   9.642   0.710 -2.1738 -1.5021  0.3975
   48GLOH    O3 8851   7.489   9.503   0.726  0.4992  0.3110  1.0944
   48GLOH   H01 8852   7.447   9.453   0.653 -0.7546 -0.6389  2.4405
   49GLOH   H03 8853   6.199   8.251   2.233 -1.4425 -0.5393  0.4541
   49GLOH    O1 8854   6.231   8.172   2.279 -0.7899 -0.1431  0.6930
   49GLOH    C1 8855   6.214   8.213   2.417 -0.1385 -0.7310  0.2152
   49GLOH   H02 8856   6.113   8.247   2.440  0.4136  1.2750 -0.2303
   49GLOH   H08 8857   6.279   8.294   2.448 -1.5584  0.8774 -0.9485
   49GLOH    C2 8858   6.252   8.099   2.514 -0.1450 -0.0056  0.0574
   49GLOH   H04 8859   6.247   8.139   2.616  0.6241 -0.3811  0.2493
   49GLOH    O2 8860   6.164   7.984   2.512 -0.1374 -0.0847  0.0444
   49GLOH   H05 8861   6.107   7.978   2.434 -3.4027  0.7452  2.2685
   49GLOH    C3 8862   6.400   8.056   2.497  0.5717 -0.1692 -0.0451
   49GLOH   H06 8863   6.413   7.989   2.413 -0.7968 -0.1487 -0.2777
   49GLOH   H07 8864   6.423   7.991   2.582 -2.4768  1.7879  2.4055
   49GLOH    O3 8865   6.483   8.175   2.495 -0.3392  0.2395  0.2321
   49GLOH   H01 8866   6.518   8.182   2.404  0.8381  2.6963  0.8250
   50GLOH   H03 8867   8.857   5.831   0.744  2.8624 -0.6803 -0.9896
   50GLOH    O1 8868   8.892   5.906   0.795 -0.4536  0.1246  0.2367
   50GLOH    C1 8869   8.827   5.910   0.923  0.4972 -0.4602 -0.1606
   50GLOH   H02 8870   8.725   5.875   0.905  1.3379 -2.9010 -0.3099
   50GLOH   H08 8871   8.816   6.009   0.966  1.6665  0.1321 -1.1824
   50GLOH    C2 8872   8.895   5.816   1.029 -0.1064  0.4988  0.3854
   50GLOH   H04 8873   8.994   5.858   1.053 -0.0520  0.4373  0.2688
   50GLOH    O2 8874   8.808   5.819   1.143  0.1069  0.3492 -0.2047
   50GLOH   H05 8875   8.868   5.811   1.220 -1.7298  1.3202  1.3523
   50GLOH    C3 8876   8.908   5.676   0.976  0.3735 -0.0685  0.3636
   50GLOH   H06 8877   8.977   5.681   0.892 -0.4566 -1.5921 -0.4165
   50GLOH   H07 8878   8.814   5.645   0.929  0.0800 -0.7000  1.3647
   50GLOH    O3 8879   8.966   5.576   1.061  0.1906  0.1646  0.3064
   50GLOH   H01 8880   8.989   5.502   1.002 -0.3237  1.5307 -1.6585
   51GLOH   H03 8881   1.786   6.501   4.189  3.8175  0.0385  0.3629
   51GLOH    O1 8882   1.795   6.429   4.124  0.6083 -0.3377  0.2309
   51GLOH    C1 8883   1.784   6.495   3.994 -0.0577 -0.8994 -0.1865
   51GLOH   H02 8884   1.751   6.598   4.010  0.9546 -0.5589 -0.2793
   51GLOH   H08 8885   1.695   6.449   3.951 -1.0213  1.8591 -1.2362
   51GLOH    C2 8886   1.909   6.473   3.904  0.1223 -0.3881  0.2972
   51GLOH   H04 8887   1.936   6.367   3.910 -0.1591 -0.4457  0.5020
   51GLOH    O2 8888   1.873   6.508   3.769 -0.3180  0.3268  0.1542
   51GLOH   H05 8889   1.949   6.498   3.710  1.0127  2.3237  1.4768
   51GLOH    C3 8890   2.032   6.562   3.938  0.5268 -0.4375 -0.0857
   51GLOH   H06 8891   2.064   6.532   4.037 -3.5558 -1.4987  1.0185
   51GLOH   H07 8892   2.000   6.665   3.954  0.0477 -0.6899  0.5812
   51GLOH    O3 8893   2.148   6.566   3.858  0.0812 -0.0821 -0.2655
   51GLOH   H01 8894   2.196   6.485   3.884  3.4600  2.0207  0.5018
   52GLOH   H03 8895   6.096   1.128   2.215 -0.4677 -2.2251 -0.2916
   52GLOH    O1 8896   6.020   1.164   2.165  0.0573  0.0214  0.4372
   52GLOH    C1 8897   5.907   1.190   2.255 -0.3313 -0.7036 -0.0633
   52GLOH   H02 8898   5.824   1.214   2.189 -0.3797  0.7476  0.5227
   52GLOH   H08 8899   5.921   1.267   2.331 -1.1800 -2.2260  1.6849
   52GLOH    C2 8900   5.877   1.061   2.341  0.2808 -0.1176 -0.5208
   52GLOH   H04 8901   5.844   0.972   2.284 -0.6573  0.2876 -0.6173
   52GLOH    O2 8902   5.997   1.026   2.417  0.0183 -0.1323  0.4106
   52GLOH   H05 8903   6.034   0.938   2.398  0.2898  0.4492 -1.8919
   52GLOH    C3 8904   5.755   1.098   2.424  0.1041  0.5182  0.3162
   52GLOH   H06 8905   5.728   1.017   2.492 -0.9268  0.8954  0.3577
   52GLOH   H07 8906   5.678   1.107   2.348  1.6389 -1.3287 -1.5358
   52GLOH    O3 8907   5.772   1.216   2.509 -0.4508  0.0914  0.1042
   52GLOH   H01 8908   5.830   1.176   2.577  1.7803  2.1885 -0.5249
   53GLOH   H03 8909   8.074   1.228   2.174  2.6520 -0.6513  1.9794
   53GLOH    O1 8910   8.102   1.304   2.120 -0.3636 -0.8408 -0.0086
   53GLOH    C1 8911   7.996   1.332   2.024 -0.0638  0.1166 -0.7557
   53GLOH   H02 8912   7.989   1.250   1.953  3.6338  0.1746 -1.2821
   53GLOH   H08 8913   8.020   1.421   1.965 -1.5164  1.2095  0.2694
   53GLOH    C2 8914   7.864   1.379   2.096 -0.1335 -0.0138 -0.6792
   53GLOH   H04 8915   7.878   1.480   2.137  1.0254 -0.0791 -0.9110
   53GLOH    O2 8916   7.771   1.392   1.986 -0.4476  0.8467 -0.9266
   53GLOH   H05 8917   7.768   1.309   1.934 -0.0443  0.9642 -1.1463
   53GLOH    C3 8918   7.818   1.265   2.187 -0.9618 -0.4607  0.5698
   53GLOH   H06 8919   7.718   1.289   2.223 -0.9761 -0.4067  0.4911
   53GLOH   H07 8920   7.882   1.270   2.276 -3.6637 -0.0985  2.5739
   53GLOH    O3 8921   7.826   1.135   2.122 -0.5118 -0.9480  0.1514
   53GLOH   H01 8922   7.787   1.076   2.190  0.9928  0.7899  2.6051
   54GLOH   H03 8923   3.094   7.234   0.039 -0.3672 -1.0486  0.7491
   54GLOH    O1 8924   3.156   7.180  -0.012 -0.0523  0.1500 -0.1674
   54GLOH    C1 8925   3.261   7.147   0.081 -0.3765  0.2735 -0.2400
   54GLOH   H02 8926   3.300   7.237   0.130  0.2469  0.4268 -1.0109
   54GLOH   H08 8927   3.355   7.112   0.039  1.0214  2.1921  1.1954
   54GLOH    C2 8928   3.218   7.057   0.197 -0.0654 -1.0179  0.0890
   54GLOH   H04 8929   3.126   7.100   0.239 -0.5745  0.9794 -2.9448
   54GLOH    O2 8930   3.203   6.930   0.150 -0.6105  0.0969  0.0515
   54GLOH   H05 8931   3.140   6.930   0.076 -0.0313 -1.0923 -0.4565
   54GLOH    C3 8932   3.317   7.059   0.313 -0.1539 -0.1144 -0.0324
   54GLOH   H06 8933   3.414   7.013   0.291 -1.5535 -2.0903 -2.3349
   54GLOH   H07 8934   3.273   6.996   0.390  3.0595 -0.9106  1.2407
   54GLOH    O3 8935   3.344   7.192   0.365  0.1042 -0.1360  0.1500
   54GLOH   H01 8936   3.429   7.221   0.326  0.2591  0.5728  0.9904
   55GLOH   H03 8937   3.771   2.243  -0.173 -0.4723  0.2594  0.2375
   55GLOH    O1 8938   3.804   2.280  -0.089  0.1343  0.1823  0.0356
   55GLOH    C1 8939   3.683   2.286  -0.002  0.7102 -0.4563 -0.0391
   55GLOH   H02 8940   3.638   2.187   0.004 -1.0932  0.3407 -0.2115
   55GLOH   H08 8941   3.611   2.359  -0.039  0.5910 -0.7026 -0.2965
   55GLOH    C2 8942   3.718   2.340   0.139  0.8927 -0.1354 -0.5333
   55GLOH   H04 8943   3.786   2.426   0.124  0.2510  0.7896  1.6979
   55GLOH    O2 8944   3.593   2.365   0.207  0.0962  0.4152 -0.0219
   55GLOH   H05 8945   3.594   2.452   0.251 -0.3842  1.3521 -1.8135
   55GLOH    C3 8946   3.802   2.246   0.225  0.1009 -0.4450 -0.4476
   55GLOH   H06 8947   3.746   2.161   0.265  1.9621 -1.6055 -0.2493
   55GLOH   H07 8948   3.839   2.310   0.305  0.9768  0.7881 -1.8280
   55GLOH    O3 8949   3.911   2.194   0.144  0.5212 -0.0633  0.1445
   55GLOH   H01 8950   3.901   2.240   0.058  1.1148 -1.6470 -0.7800
   56GLOH   H03 8951   8.373   5.326   1.016  1.7260  0.8183 -2.2839
   56GLOH    O1 8952   8.303   5.387   0.986  0.4244  0.3546 -0.2805
   56GLOH    C1 8953   8.206   5.396   1.093 -0.0779  0.1461  0.2763
   56GLOH   H02 8954   8.205   5.500   1.126  2.3212  0.5405 -0.8114
   56GLOH   H08 8955   8.219   5.327   1.176 -1.9590  0.9469  1.2757
   56GLOH    C2 8956   8.068   5.358   1.035 -0.2200  0.1028  0.1471
   56GLOH   H04 8957   8.075   5.257   0.990 -1.6718  0.0023  0.1270
   56GLOH    O2 8958   7.963   5.366   1.132 -0.1720  0.1706 -0.1847
   56GLOH   H05 8959   7.896   5.296   1.123 -0.2839  0.1222  0.8783
   56GLOH    C3 8960   8.041   5.445   0.909 -0.0721  0.1181 -0.3825
   56GLOH   H06 8961   8.056   5.552   0.925 -1.0001  0.4363 -1.5666
   56GLOH   H07 8962   7.939   5.431   0.871 -1.1764  3.0776  1.3099
   56GLOH    O3 8963   8.132   5.413   0.800 -0.2462  0.6500  0.3008
   56GLOH   H01 8964   8.218   5.399   0.843 -2.2281 -1.6048  3.7599
   57GLOH   H03 8965   1.475   6.469   1.018  0.0850  1.0722 -0.2396
   57GLOH    O1 8966   1.386   6.502   0.996 -0.1795  0.2019 -0.4514
   57GLOH    C1 8967   1.289   6.441   1.085 -0.5504  0.5535 -0.1466
   57GLOH   H02 8968   1.272   6.337   1.059 -0.2717  0.1401  1.2884
   57GLOH   H08 8969   1.190   6.487   1.077 -0.0762  1.7347  0.6786
   57GLOH    C2 8970   1.324   6.442   1.237 -0.2279  0.4163 -0.3535
   57GLOH   H04 8971   1.239   6.396   1.290 -2.3940  2.8970 -1.5669
   57GLOH    O2 8972   1.441   6.363   1.265 -0.6599 -0.9424  0.2417
   57GLOH   H05 8973   1.436   6.344   1.360 -1.6628 -0.1588  0.3583
   57GLOH    C3 8974   1.334   6.590   1.277  0.4682 -0.7132  0.0545
   57GLOH   H06 8975   1.435   6.624   1.253  0.7872  0.9514  3.4562
   57GLOH   H07 8976   1.314   6.584   1.384 -0.4183  0.3544 -0.0323
   57GLOH    O3 8977   1.234   6.679   1.224 -0.1717  0.1031  0.3294
   57GLOH   H01 8978   1.144   6.652   1.251 -0.0400 -0.0769  0.5891
   58GLOH   H03 8979   8.642   1.671   1.356  0.1117  0.4891 -0.1880
   58GLOH    O1 8980   8.588   1.609   1.305  0.4541 -0.0936  0.1587
   58GLOH    C1 8981   8.572   1.629   1.163 -0.4899 -0.4627  0.2980
   58GLOH   H02 8982   8.658   1.685   1.125 -1.9153  2.1143  0.7557
   58GLOH   H08 8983   8.480   1.684   1.143 -0.5480 -0.7123 -0.1357
   58GLOH    C2 8984   8.549   1.489   1.096  0.4621 -0.9349 -0.5903
   58GLOH   H04 8985   8.544   1.507   0.988 -2.2903 -2.0126 -0.6968
   58GLOH    O2 8986   8.653   1.390   1.105 -0.2362  0.0807 -0.1933
   58GLOH   H05 8987   8.738   1.424   1.137 -0.0359 -1.5243  1.0770
   58GLOH    C3 8988   8.416   1.437   1.155  0.2243  0.4234 -0.2243
   58GLOH   H06 8989   8.429   1.436   1.263  0.3435  0.0657 -0.2386
   58GLOH   H07 8990   8.407   1.331   1.129 -1.3088  0.7589 -1.1087
   58GLOH    O3 8991   8.291   1.505   1.100 -0.8497 -0.2568  0.0207
   58GLOH   H01 8992   8.233   1.499   1.178 -0.7024 -0.2685  0.1289
   59GLOH   H03 8993   5.140   9.444   1.957 -0.2763  0.5643  0.6892
   59GLOH    O1 8994   5.105   9.354   1.958 -0.0932  0.4730 -0.4004
   59GLOH    C1 8995   4.963   9.366   1.966  0.4952  0.2278  0.4637
   59GLOH   H02 8996   4.941   9.436   2.047 -1.5800  0.7584 -0.5278
   59GLOH   H08 8997   4.918   9.273   2.002 -0.3283  1.0316  1.5455
   59GLOH    C2 8998   4.900   9.414   1.836  0.2994  0.7473  0.2665
   59GLOH   H04 8999   4.937   9.349   1.755  0.2009  1.7757 -0.6089
   59GLOH    O2 9000   4.757   9.386   1.845  0.2793 -0.1253  0.0568
   59GLOH   H05 9001   4.718   9.455   1.902  1.7597  1.4307 -0.7734
   59GLOH    C3 9002   4.938   9.555   1.804  0.0971 -0.6376  0.0498
   59GLOH   H06 9003   4.936   9.616   1.894 -0.4715  2.7197 -2.1342
   59GLOH   H07 9004   4.865   9.604   1.740  1.4929  0.2459 -0.9067
   59GLOH    O3 9005   5.075   9.567   1.759 -0.5020  0.0386 -0.0691
   59GLOH   H01 9006   5.072   9.546   1.663  0.4307  1.5499 -0.4485
   60GLOH   H03 9007   9.077   8.475   1.792  1.5734 -0.3931  0.5575
   60GLOH    O1 9008   9.023   8.408   1.838 -0.1206 -0.0328 -0.8897
   60GLOH    C1 9009   8.991   8.307   1.747  0.5285 -0.2300  0.1544
   60GLOH   H02 9010   8.908   8.248   1.786  0.3830 -0.1954 -0.1078
   60GLOH   H08 9011   9.064   8.226   1.742 -1.8562 -2.3806 -1.0440
   60GLOH    C2 9012   8.953   8.338   1.603 -0.4445  0.0439  0.4107
   60GLOH   H04 9013   8.943   8.245   1.544 -0.0134 -1.0549  2.0233
   60GLOH    O2 9014   8.836   8.424   1.593 -0.1518  0.2356 -0.2677
   60GLOH   H05 9015   8.839   8.490   1.522 -4.3881  0.3549 -0.4332
   60GLOH    C3 9016   9.069   8.415   1.540  0.2676 -0.3217  0.1559
   60GLOH   H06 9017   9.048   8.520   1.558  0.8144  0.0234 -1.1188
   60GLOH   H07 9018   9.067   8.407   1.431  0.8633  0.1235  0.1112
   60GLOH    O3 9019   9.202   8.380   1.578 -0.5634  0.5757  0.2830
   60GLOH   H01 9020   9.253   8.409   1.500 -1.1954  2.1779  0.4302
   61GLOH   H03 9021   3.952   4.783   0.450 -0.5093 -2.0709 -0.8062
   61GLOH    O1 9022   3.992   4.755   0.534 -0.6169  0.2633  0.0671
   61GLOH    C1 9023   4.112   4.665   0.529  0.0134  0.2106  0.7061
   61GLOH   H02 9024   4.196   4.711   0.478 -0.3555 -1.7215 -1.7457
   61GLOH   H08 9025   4.082   4.581   0.465 -2.7682  0.1545  1.9884
   61GLOH    C2 9026   4.156   4.618   0.666 -0.9399 -0.4540  0.6684
   61GLOH   H04 9027   4.064   4.610   0.727 -0.5977  0.1399  1.2787
   61GLOH    O2 9028   4.220   4.488   0.653  0.8284 -0.0524 -0.2944
   61GLOH   H05 9029   4.190   4.423   0.719  1.8617 -0.8920 -0.6395
   61GLOH    C3 9030   4.246   4.733   0.723  0.2192 -0.0585  0.4662
   61GLOH   H06 9031   4.186   4.823   0.710 -1.4442 -1.4553 -2.2341
   61GLOH   H07 9032   4.337   4.738   0.662  0.7333 -0.1562  1.2195
   61GLOH    O3 9033   4.282   4.719   0.866  0.3704 -0.2675 -0.0732
   61GLOH   H01 9034   4.202   4.748   0.913  1.2591  1.2967  0.4984
   62GLOH   H03 9035   5.004   1.831   0.686  1.8872 -1.2090 -1.6459
   62GLOH    O1 9036   4.956   1.845   0.602 -0.4033 -0.1301 -0.2000
   62GLOH    C1 9037   4.885   1.725   0.563 -0.0031  0.2859  0.5411
   62GLOH   H02 9038   4.780   1.730   0.590 -0.5403  0.1499 -1.4428
   62GLOH   H08 9039   4.929   1.633   0.601  3.6797  0.9338 -1.8502
   62GLOH    C2 9040   4.884   1.713   0.410  0.3569  0.8782 -0.1193
   62GLOH   H04 9041   4.988   1.695   0.380  0.4684  1.5653 -0.1523
   62GLOH    O2 9042   4.809   1.593   0.384 -0.0806 -0.4452 -0.6293
   62GLOH   H05 9043   4.718   1.607   0.417  0.8807 -0.5875  2.1980
   62GLOH    C3 9044   4.829   1.833   0.336  0.0370 -0.4812  0.0453
   62GLOH   H06 9045   4.851   1.817   0.230  2.8208  3.4032 -0.0327
   62GLOH   H07 9046   4.878   1.922   0.376 -0.5951 -1.2489  2.6409
   62GLOH    O3 9047   4.687   1.860   0.340 -0.4606 -0.0466 -0.7268
   62GLOH   H01 9048   4.679   1.895   0.430  0.6365  0.4489 -0.8043
   63GLOH   H03 9049   7.758   5.355   3.399 -0.9898  1.1741 -0.4448
   63GLOH    O1 9050   7.708   5.382   3.478 -0.1015  0.2521  0.4601
   63GLOH    C1 9051   7.711   5.281   3.573  0.5983  0.2386  0.3164
   63GLOH   H02 9052   7.816   5.254   3.589  1.3234  2.3669 -0.6648
   63GLOH   H08 9053   7.657   5.198   3.529  1.7591  1.0094 -2.6778
   63GLOH    C2 9054   7.656   5.309   3.714  0.0698 -0.0600  0.2105
   63GLOH   H04 9055   7.547   5.312   3.700  0.2883 -1.8300 -2.3195
   63GLOH    O2 9056   7.665   5.190   3.790 -0.4761  0.0473  0.1289
   63GLOH   H05 9057   7.738   5.192   3.854  0.5329 -2.2972 -0.9174
   63GLOH    C3 9058   7.716   5.430   3.782  0.5523 -0.0607 -0.8799
   63GLOH   H06 9059   7.818   5.407   3.813  0.8429 -0.4213 -2.0784
   63GLOH   H07 9060   7.652   5.459   3.866  2.0785  0.5817  0.0875
   63GLOH    O3 9061   7.721   5.541   3.695 -0.0901 -0.1368 -0.4000
   63GLOH   H01 9062   7.725   5.516   3.601  0.7962  0.3589 -0.5004
   64GLOH   H03 9063   9.933   9.483   3.575 -0.0400 -0.8176  0.6911
   64GLOH    O1 9064   9.969   9.426   3.504  0.5110  0.6208 -0.2282
   64GLOH    C1 9065   9.863   9.382   3.414 -0.8219  1.1096 -1.1987
   64GLOH   H02 9066   9.775   9.428   3.459 -0.0469  0.6586  0.8375
   64GLOH   H08 9067   9.849   9.274   3.417 -1.0413  1.1632 -0.0710
   64GLOH    C2 9068   9.869   9.429   3.268  0.2223 -0.0922 -0.0825
   64GLOH   H04 9069   9.795   9.368   3.213  1.2483 -1.2571 -0.1933
   64GLOH    O2 9070   9.861   9.579   3.250 -0.5530 -0.4405  0.5049
   64GLOH   H05 9071   9.786   9.609   3.304 -0.2480  1.3552 -0.0331
   64GLOH    C3 9072   9.999   9.383   3.204 -0.5531 -1.0416 -0.1603
   64GLOH   H06 9073  10.080   9.440   3.249 -1.9654  1.4288 -0.6604
   64GLOH   H07 9074   9.994   9.420   3.101 -0.7796  1.9589  0.8838
   64GLOH    O3 9075  10.009   9.241   3.211  0.0376  0.6039  0.3069
   64GLOH   H01 9076  10.081   9.224   3.274 -0.2046  0.2485  0.4851
   65GLOH   H03 9077   2.951   2.323   2.815  1.8428 -0.0147  0.6885
   65GLOH    O1 9078   2.947   2.415   2.786  0.0539 -0.2609  0.0955
   65GLOH    C1 9079   3.077   2.449   2.736  0.4284  0.4908  0.4565
   65GLOH   H02 9080   3.095   2.551   2.701 -0.1623  0.1926 -0.7369
   65GLOH   H08 9081   3.089   2.392   2.643  0.3872 -0.0249  0.7670
   65GLOH    C2 9082   3.190   2.407   2.829 -0.1924 -0.0184  0.5291
   65GLOH   H04 9083   3.204   2.298   2.834  0.3756 -0.0444 -1.3011
   65GLOH    O2 9084   3.313   2.462   2.777  0.0511  0.6084  0.0313
   65GLOH   H05 9085   3.361   2.399   2.722 -1.5890  0.3614 -1.1565
   65GLOH    C3 9086   3.162   2.445   2.979 -0.2833 -0.4551  0.3355
   65GLOH   H06 9087   3.145   2.552   2.985  0.5387 -0.2892 -0.3125
   65GLOH   H07 9088   3.259   2.435   3.029 -0.3363  1.0446  0.7669
   65GLOH    O3 9089   3.057   2.371   3.042 -0.0311  0.5683 -0.2297
   65GLOH   H01 9090   3.085   2.281   3.068 -0.9358  0.5884  0.8752
   66GLOH   H03 9091   6.494   9.847   1.255  0.0485  1.6664 -0.6663
   66GLOH    O1 9092   6.463   9.818   1.168  0.3034 -0.4493 -0.0745
   66GLOH    C1 9093   6.381   9.925   1.116 -0.0618  0.5798 -0.7469
   66GLOH   H02 9094   6.402   9.924   1.009 -0.0968 -0.2508 -0.7468
   66GLOH   H08 9095   6.422  10.013   1.167  1.9858  0.7109 -2.5029
   66GLOH    C2 9096   6.233   9.904   1.138 -0.9579  0.2474 -0.8363
   66GLOH   H04 9097   6.219   9.915   1.246  0.8239  1.1775 -0.6680
   66GLOH    O2 9098   6.157  10.001   1.060  0.0133 -0.0189  0.3629
   66GLOH   H05 9099   6.116  10.055   1.130 -0.2377 -0.2922  0.4293
   66GLOH    C3 9100   6.190   9.761   1.092  0.1493 -0.0052 -0.6140
   66GLOH   H06 9101   6.204   9.743   0.985  3.7396 -0.4486 -0.1310
   66GLOH   H07 9102   6.084   9.751   1.115  0.2258  3.1161  1.4288
   66GLOH    O3 9103   6.269   9.662   1.163  0.1625  0.4385  0.0930
   66GLOH   H01 9104   6.359   9.698   1.163 -0.0213  0.8984  0.1373
   67GLOH   H03 9105   4.265   6.155   2.051  1.1512  0.4409 -1.1690
   67GLOH    O1 9106   4.336   6.099   2.088  0.6715  0.5002 -0.1479
   67GLOH    C1 9107   4.403   6.170   2.191  0.1747 -0.3374  0.3745
   67GLOH   H02 9108   4.325   6.205   2.258  0.0108  0.8194 -0.4065
   67GLOH   H08 9109   4.464   6.246   2.143  0.1614 -0.2808  0.4478
   67GLOH    C2 9110   4.496   6.080   2.279 -0.4475 -0.4319  0.0893
   67GLOH   H04 9111   4.579   6.043   2.217 -1.9979 -2.8747 -0.5940
   67GLOH    O2 9112   4.557   6.154   2.381 -0.2011  0.2045 -0.1429
   67GLOH   H05 9113   4.491   6.194   2.441 -0.4972  1.0241 -0.9882
   67GLOH    C3 9114   4.423   5.960   2.332  0.5425  0.1824 -0.0666
   67GLOH   H06 9115   4.353   5.985   2.411  0.7484  1.8962 -0.4093
   67GLOH   H07 9116   4.496   5.903   2.390 -0.1844 -0.6483  0.0501
   67GLOH    O3 9117   4.377   5.876   2.224 -0.0090  0.3837  0.1657
   67GLOH   H01 9118   4.356   5.930   2.146  1.7244 -0.4619 -0.9195
   68GLOH   H03 9119   0.298   7.703   4.494  1.9377  4.0007 -2.9988
   68GLOH    O1 9120   0.290   7.648   4.414  0.1574 -0.3159 -0.0560
   68GLOH    C1 9121   0.241   7.739   4.315 -0.3113  0.5658  0.6141
   68GLOH   H02 9122   0.133   7.749   4.316 -0.1609  2.3724  0.0343
   68GLOH   H08 9123   0.262   7.697   4.216  2.4416 -0.7638  1.6923
   68GLOH    C2 9124   0.292   7.880   4.330 -0.1703 -0.4133 -1.3708
   68GLOH   H04 9125   0.401   7.866   4.329 -0.3513 -1.9901 -0.5785
   68GLOH    O2 9126   0.239   7.969   4.231 -0.1235 -0.1983 -0.0911
   68GLOH   H05 9127   0.305   8.037   4.209  0.8050 -0.5874  1.4226
   68GLOH    C3 9128   0.257   7.931   4.470 -0.4663 -0.0575 -0.3560
   68GLOH   H06 9129   0.149   7.938   4.481 -0.5421 -0.9332 -0.4893
   68GLOH   H07 9130   0.301   8.031   4.474 -0.9935  0.1601 -0.0612
   68GLOH    O3 9131   0.320   7.848   4.572  0.3937 -0.0869 -0.0353
   68GLOH   H01 9132   0.288   7.897   4.650  2.3207  1.5998 -0.2576
   69GLOH   H03 9133   3.108   4.864   0.578 -2.3795  1.4715  0.6859
   69GLOH    O1 9134   3.100   4.823   0.665 -0.2531 -0.7515 -0.1197
   69GLOH    C1 9135   3.211   4.854   0.755 -0.0857 -0.3954 -0.0577
   69GLOH   H02 9136   3.211   4.816   0.857 -0.4773  1.2527  0.5649
   69GLOH   H08 9137   3.205   4.958   0.785  2.4353 -0.9766  2.5898
   69GLOH    C2 9138   3.349   4.830   0.686  0.1456 -0.3845  0.2671
   69GLOH   H04 9139   3.342   4.901   0.603 -0.4986 -0.9983 -0.2047
   69GLOH    O2 9140   3.466   4.852   0.772  0.3038 -0.1617  0.7080
   69GLOH   H05 9141   3.540   4.880   0.716 -1.1690  1.5833 -0.4551
   69GLOH    C3 9142   3.350   4.681   0.629 -0.2422  0.0746  0.0367
   69GLOH   H06 9143   3.443   4.674   0.573 -0.4696 -0.0177 -0.3294
   69GLOH   H07 9144   3.271   4.668   0.556 -0.5776  1.4088  0.1439
   69GLOH    O3 9145   3.342   4.584   0.735  0.5140 -0.1648 -0.3281
   69GLOH   H01 9146   3.369   4.500   0.693 -1.4444 -0.9286 -0.1360
   70GLOH   H03 9147   3.360   4.882   0.122 -0.6640 -1.9529 -0.3841
   70GLOH    O1 9148   3.345   4.902   0.028  0.0359 -0.2369 -0.1435
   70GLOH    C1 9149   3.252   5.015   0.020 -0.0094 -0.4244 -0.0098
   70GLOH   H02 9150   3.267   5.063  -0.077 -0.7856 -0.5244 -0.1797
   70GLOH   H08 9151   3.286   5.089   0.092  4.2382 -1.0668 -1.1942
   70GLOH    C2 9152   3.109   4.976   0.054 -0.7418  1.1129 -0.7530
   70GLOH   H04 9153   3.098   4.941   0.158 -0.4876  1.6271 -0.5542
   70GLOH    O2 9154   3.029   5.092   0.039  0.4912 -0.1166 -1.2207
   70GLOH   H05 9155   2.939   5.067   0.067  1.3888 -0.4644  1.5638
   70GLOH    C3 9156   3.058   4.860  -0.036 -0.4963  0.1443  0.4800
   70GLOH   H06 9157   3.137   4.785  -0.032  0.4961  1.0361 -1.8161
   70GLOH   H07 9158   3.079   4.910  -0.131 -0.5181  1.0410  0.9416
   70GLOH    O3 9159   2.927   4.811  -0.008  0.0392  0.0534 -0.1691
   70GLOH   H01 9160   2.888   4.768  -0.087  0.2556 -0.6863  0.1239
   71GLOH   H03 9161   3.597   3.804   3.241  1.5420  1.4600 -1.3125
   71GLOH    O1 9162   3.670   3.740   3.233  0.2876 -0.2140  0.1422
   71GLOH    C1 9163   3.779   3.823   3.173 -0.5444 -0.2270 -0.3137
   71GLOH   H02 9164   3.833   3.881   3.247 -0.5541  0.8698 -1.1608
   71GLOH   H08 9165   3.737   3.895   3.103  0.9152 -0.3316 -1.3188
   71GLOH    C2 9166   3.877   3.741   3.083 -0.8821 -0.1548 -0.1696
   71GLOH   H04 9167   3.929   3.665   3.142  0.4572  1.5888  0.9168
   71GLOH    O2 9168   3.803   3.688   2.967 -0.3287  0.2028  0.1460
   71GLOH   H05 9169   3.749   3.609   2.985 -0.8725  0.4968 -0.1947
   71GLOH    C3 9170   3.986   3.839   3.028  0.1034  0.0095 -0.5783
   71GLOH   H06 9171   3.954   3.884   2.935  0.2802 -0.6710 -0.9730
   71GLOH   H07 9172   4.065   3.773   2.994  0.2209  0.2504 -0.7722
   71GLOH    O3 9173   4.050   3.921   3.134  0.0404 -0.1630  0.4295
   71GLOH   H01 9174   3.997   4.000   3.155  0.3558 -0.2222  1.4715
   72GLOH   H03 9175   9.615   3.394   0.378 -0.9101 -1.6590 -1.0403
   72GLOH    O1 9176   9.700   3.358   0.345  0.3389 -0.1469  0.4092
   72GLOH    C1 9177   9.793   3.342   0.458 -0.0222 -0.6130 -0.9646
   72GLOH   H02 9178   9.765   3.249   0.508  0.5736 -1.1554 -1.6107
   72GLOH   H08 9179   9.790   3.425   0.528 -1.9072 -0.6738 -0.9350
   72GLOH    C2 9180   9.934   3.334   0.401 -0.3222  0.3373  0.1002
   72GLOH   H04 9181   9.929   3.258   0.322 -1.4537 -0.8672  1.3209
   72GLOH    O2 9182   9.984   3.453   0.339 -0.0168 -0.4862 -0.3389
   72GLOH   H05 9183   9.913   3.519   0.333 -0.7160 -1.3159 -1.3864
   72GLOH    C3 9184  10.034   3.295   0.517  0.3187 -0.3201  0.6463
   72GLOH   H06 9185  10.009   3.364   0.598  1.2802  0.2195  0.4877
   72GLOH   H07 9186  10.137   3.314   0.486 -0.8759  1.0496 -2.7070
   72GLOH    O3 9187  10.018   3.156   0.560 -0.4910  0.4473  0.4850
   72GLOH   H01 9188  10.056   3.163   0.649 -1.0711 -0.1620  0.7834
   73GLOH   H03 9189   1.867   7.838   3.713  0.4158  0.2315 -0.2379
   73GLOH    O1 9190   1.786   7.891   3.698  0.2181 -0.1824 -0.6435
   73GLOH    C1 9191   1.752   7.877   3.556  0.4401 -0.1201  0.2535
   73GLOH   H02 9192   1.651   7.907   3.529  0.1222 -0.9275  0.5162
   73GLOH   H08 9193   1.759   7.769   3.538 -1.3317 -0.2591  0.3264
   73GLOH    C2 9194   1.856   7.948   3.461 -0.0241  0.0651 -0.2252
   73GLOH   H04 9195   1.955   7.909   3.486  0.8489  2.1008 -0.3519
   73GLOH    O2 9196   1.827   7.907   3.328  0.8392 -0.1402 -0.1754
   73GLOH   H05 9197   1.903   7.864   3.285  1.1473 -0.8957  1.1128
   73GLOH    C3 9198   1.864   8.105   3.473 -0.5912  1.0111  1.0806
   73GLOH   H06 9199   1.896   8.124   3.575  1.3115 -0.1031  0.7219
   73GLOH   H07 9200   1.760   8.137   3.462 -1.0254 -0.2260  1.5592
   73GLOH    O3 9201   1.952   8.163   3.372 -0.1756  0.2641 -0.2743
   73GLOH   H01 9202   1.924   8.257   3.366  0.0030  0.4151  1.1803
   74GLOH   H03 9203   0.340   4.280   1.911 -0.2977  0.0336 -1.7496
   74GLOH    O1 9204   0.326   4.184   1.919 -0.0052  0.1117 -0.2636
   74GLOH    C1 9205   0.448   4.117   1.877 -0.3588 -0.3453 -0.4899
   74GLOH   H02 9206   0.440   4.011   1.904  1.1817  0.5207  3.7690
   74GLOH   H08 9207   0.530   4.161   1.933 -0.4746 -0.8777  0.1115
   74GLOH    C2 9208   0.474   4.124   1.721  0.0389  0.1488  0.1623
   74GLOH   H04 9209   0.458   4.231   1.698 -0.0859 -0.1862 -1.3854
   74GLOH    O2 9210   0.613   4.084   1.695 -0.0370 -0.5901 -0.0635
   74GLOH   H05 9211   0.673   4.149   1.735  0.0335 -2.2138  2.5531
   74GLOH    C3 9212   0.367   4.039   1.649  0.1085 -0.2294  0.0164
   74GLOH   H06 9213   0.403   4.027   1.546 -1.3305 -2.4506 -0.2755
   74GLOH   H07 9214   0.269   4.084   1.632 -0.3867 -1.6841 -1.1350
   74GLOH    O3 9215   0.349   3.904   1.690  0.6130 -0.3101 -0.1627
   74GLOH   H01 9216   0.254   3.883   1.695  0.5772 -0.2884 -0.6798
   75GLOH   H03 9217   9.605   0.362   3.012 -1.4753 -1.2508 -1.3406
   75GLOH    O1 9218   9.649   0.355   2.925  0.7010  0.2701 -0.4179
   75GLOH    C1 9219   9.595   0.236   2.862  0.2257  0.2898  0.0987
   75GLOH   H02 9220   9.490   0.222   2.886  0.5666  0.3513  1.6474
   75GLOH   H08 9221   9.641   0.149   2.909 -2.3196 -0.5314  1.1446
   75GLOH    C2 9222   9.600   0.221   2.709 -0.2304  0.0403 -0.0775
   75GLOH   H04 9223   9.574   0.116   2.692  0.8404 -0.3948  0.9753
   75GLOH    O2 9224   9.509   0.301   2.636  0.2535  0.5824  0.4549
   75GLOH   H05 9225   9.424   0.256   2.626 -0.1687  1.3741  0.4168
   75GLOH    C3 9226   9.746   0.239   2.659  0.2066  0.7573 -0.1600
   75GLOH   H06 9227   9.761   0.347   2.658  0.2714  0.8174  3.1651
   75GLOH   H07 9228   9.744   0.209   2.554 -0.3765 -0.4870  0.1979
   75GLOH    O3 9229   9.841   0.157   2.727 -0.0509  0.4616 -0.7126
   75GLOH   H01 9230   9.928   0.194   2.702  2.2369 -1.2833  4.0031
   76GLOH   H03 9231   4.338   9.881   3.559  1.3276 -0.4228 -0.9015
   76GLOH    O1 9232   4.347   9.976   3.578  0.2924 -0.5045  0.0172
   76GLOH    C1 9233   4.418   9.987   3.702 -0.2334 -0.1273  0.7673
   76GLOH   H02 9234   4.351   9.998   3.787 -0.7611 -0.6100  0.4171
   76GLOH   H08 9235   4.480  10.076   3.696  0.9890 -1.1430 -2.7119
   76GLOH    C2 9236   4.508   9.860   3.713  0.3388 -0.1252  0.5869
   76GLOH   H04 9237   4.570   9.853   3.622 -1.1702 -1.4070 -0.3636
   76GLOH    O2 9238   4.587   9.880   3.835 -0.0520  0.1135  0.1198
   76GLOH   H05 9239   4.680   9.902   3.818 -0.2817  1.4389  0.4589
   76GLOH    C3 9240   4.414   9.738   3.721 -0.4266 -0.0123 -0.3365
   76GLOH   H06 9241   4.340   9.765   3.796  1.7199  0.2404  1.7686
   76GLOH   H07 9242   4.471   9.654   3.760 -1.2874 -0.9750 -1.1278
   76GLOH    O3 9243   4.346   9.714   3.595  0.2252  0.4475  0.2357
   76GLOH   H01 9244   4.258   9.674   3.605  0.5164  0.1080  1.5921
   77GLOH   H03 9245   8.245   7.464   4.392  0.4462 -0.3408  0.5547
   77GLOH    O1 9246   8.173   7.474   4.328  0.7532 -0.5169  0.1771
   77GLOH    C1 9247   8.101   7.350   4.339 -0.6812 -0.3284  0.1469
   77GLOH   H02 9248   7.994   7.368   4.342 -0.4600  1.0889 -0.1989
   77GLOH   H08 9249   8.125   7.306   4.436  1.7888  2.1029  0.7074
   77GLOH    C2 9250   8.144   7.244   4.241 -0.7998 -0.0379  0.6452
   77GLOH   H04 9251   8.091   7.154   4.277 -0.3126 -0.5052  0.2101
   77GLOH    O2 9252   8.096   7.284   4.113 -0.0644 -0.4235  0.2695
   77GLOH   H05 9253   8.149   7.359   4.080  0.4898 -0.5346  0.8786
   77GLOH    C3 9254   8.292   7.212   4.248  0.4630 -0.4285 -0.1261
   77GLOH   H06 9255   8.361   7.295   4.234  0.3875 -0.6270 -1.7490
   77GLOH   H07 9256   8.319   7.137   4.174  1.5733 -0.5384  0.3806
   77GLOH    O3 9257   8.318   7.147   4.376  0.1001 -0.4570 -0.0164
   77GLOH   H01 9258   8.377   7.070   4.369  0.2144 -0.5796  2.0255
   78GLOH   H03 9259   7.612   0.384   3.919 -0.5820 -0.7541  3.0350
   78GLOH    O1 9260   7.590   0.478   3.932  0.1548  0.0527 -0.8233
   78GLOH    C1 9261   7.472   0.480   4.013  0.3172 -0.2761  0.0049
   78GLOH   H02 9262   7.447   0.378   4.044  0.7429 -0.7997 -1.3369
   78GLOH   H08 9263   7.399   0.511   3.938  1.9887  0.1155 -1.5223
   78GLOH    C2 9264   7.470   0.573   4.139  0.5694 -0.0709  0.4279
   78GLOH   H04 9265   7.556   0.557   4.206  1.3510 -2.9242 -1.2100
   78GLOH    O2 9266   7.484   0.711   4.098 -0.3436 -0.5223  0.1950
   78GLOH   H05 9267   7.543   0.754   4.163  0.4729 -0.4765 -0.5672
   78GLOH    C3 9268   7.339   0.546   4.216 -0.1317 -0.1919 -0.8267
   78GLOH   H06 9269   7.253   0.560   4.151 -1.9162  0.4894  1.6244
   78GLOH   H07 9270   7.333   0.622   4.294 -1.8076 -1.0949 -0.0513
   78GLOH    O3 9271   7.345   0.417   4.282 -0.3622  0.1956  0.2021
   78GLOH   H01 9272   7.293   0.356   4.226  1.3345  0.2698 -1.5075
   79GLOH   H03 9273   5.258   2.992   1.375 -1.1008 -0.3023 -0.8753
   79GLOH    O1 9274   5.324   2.932   1.335 -0.2223 -0.0037  0.0900
   79GLOH    C1 9275   5.437   3.006   1.296 -0.9108  0.2405  0.4861
   79GLOH   H02 9276   5.503   2.931   1.252 -0.5129  1.9621 -1.9347
   79GLOH   H08 9277   5.493   3.053   1.378  1.4357 -1.9980  0.2343
   79GLOH    C2 9278   5.404   3.103   1.182 -0.0223  0.3831  0.2922
   79GLOH   H04 9279   5.361   3.032   1.109  0.3589 -0.3326  0.7488
   79GLOH    O2 9280   5.309   3.203   1.210  0.0064  0.1172 -0.1664
   79GLOH   H05 9281   5.243   3.164   1.269  0.3046  1.9484  1.4276
   79GLOH    C3 9282   5.536   3.162   1.120  0.1534  0.3570  0.0174
   79GLOH   H06 9283   5.608   3.081   1.109 -0.8392 -0.5794  0.2685
   79GLOH   H07 9284   5.582   3.239   1.182  2.0917 -1.1845  0.5486
   79GLOH    O3 9285   5.523   3.220   0.992 -0.3316 -0.2554  0.0808
   79GLOH   H01 9286   5.474   3.302   1.009  1.1883  0.1992  2.7736
   80GLOH   H03 9287   4.534   8.731   3.506  0.1070 -0.1263  2.8912
   80GLOH    O1 9288   4.554   8.636   3.497  0.3854  0.2180 -0.8630
   80GLOH    C1 9289   4.676   8.629   3.574 -0.1712  1.1095 -0.1046
   80GLOH   H02 9290   4.701   8.525   3.591  1.8309  1.4600 -0.7547
   80GLOH   H08 9291   4.664   8.680   3.669  0.1181 -1.7244  1.4828
   80GLOH    C2 9292   4.793   8.702   3.505  0.9209 -0.6010 -0.6299
   80GLOH   H04 9293   4.754   8.757   3.418  0.0199 -0.4695 -0.1492
   80GLOH    O2 9294   4.839   8.803   3.599  0.3001  0.2148  0.0618
   80GLOH   H05 9295   4.878   8.764   3.679  2.8648  1.1297 -0.6855
   80GLOH    C3 9296   4.899   8.604   3.461 -0.0420  0.5426  0.4728
   80GLOH   H06 9297   4.928   8.548   3.550  0.8700 -1.0927 -0.8243
   80GLOH   H07 9298   4.985   8.662   3.428  1.6762 -0.4632  3.0239
   80GLOH    O3 9299   4.855   8.514   3.360 -0.4298  0.4348 -0.2023
   80GLOH   H01 9300   4.814   8.569   3.290  1.2547  4.3568  1.6878
   81GLOH   H03 9301   4.470   0.701   4.848  1.0555 -0.3131 -1.7290
   81GLOH    O1 9302   4.383   0.692   4.805  0.4427 -0.4379 -0.4948
   81GLOH    C1 9303   4.393   0.705   4.662 -0.4171 -0.2557 -0.4954
   81GLOH   H02 9304   4.402   0.606   4.616  0.3228 -0.3967 -0.0539
   81GLOH   H08 9305   4.490   0.754   4.646 -0.0095 -0.9113 -0.0589
   81GLOH    C2 9306   4.283   0.785   4.590 -0.0850  0.1054 -0.0148
   81GLOH   H04 9307   4.313   0.887   4.619 -0.2518  0.4027 -0.8756
   81GLOH    O2 9308   4.288   0.779   4.446  0.0960  0.3569  0.0579
   81GLOH   H05 9309   4.195   0.794   4.422  0.1273  3.0562  1.4836
   81GLOH    C3 9310   4.146   0.771   4.652 -0.2191  0.0639 -0.4754
   81GLOH   H06 9311   4.072   0.832   4.600 -0.0603  1.6037  1.0651
   81GLOH   H07 9312   4.137   0.809   4.754  0.1762  3.0396 -1.4925
   81GLOH    O3 9313   4.101   0.639   4.647 -0.3595 -0.1242  0.2367
   81GLOH   H01 9314   4.093   0.610   4.740 -0.7723  1.6979  0.7813
   82GLOH   H03 9315   2.149   9.015   1.141 -1.7879  0.1386  1.1221
   82GLOH    O1 9316   2.166   8.933   1.191  0.7886 -0.2561 -0.3284
   82GLOH    C1 9317   2.308   8.921   1.210 -0.0456 -0.3484 -0.8663
   82GLOH   H02 9318   2.369   8.906   1.121 -0.0356  1.1241 -1.1174
   82GLOH   H08 9319   2.333   8.831   1.266 -0.3686  1.0828  1.6513
   82GLOH    C2 9320   2.371   9.032   1.291  0.0763 -0.5883  0.1414
   82GLOH   H04 9321   2.468   8.991   1.323  0.1946 -1.2157 -0.9969
   82GLOH    O2 9322   2.389   9.147   1.204  0.6350 -0.1175 -0.5332
   82GLOH   H05 9323   2.300   9.172   1.173 -0.1700 -2.5480 -0.2961
   82GLOH    C3 9324   2.285   9.058   1.418 -0.2172 -0.6644  0.1637
   82GLOH   H06 9325   2.187   9.092   1.384  0.6769 -0.0755 -1.8706
   82GLOH   H07 9326   2.332   9.141   1.471 -0.1395 -1.1940  0.9287
   82GLOH    O3 9327   2.269   8.952   1.511 -0.6477 -0.5306 -0.1151
   82GLOH   H01 9328   2.324   8.976   1.588  0.0030 -0.7578 -0.5020
   83GLOH   H03 9329   1.724   5.299   2.820 -0.4544  2.1334 -0.6004
   83GLOH    O1 9330   1.684   5.319   2.906  0.3234 -0.3049  0.3843
   83GLOH    C1 9331   1.686   5.209   3.005 -0.7288  0.2923 -0.9722
   83GLOH   H02 9332   1.721   5.246   3.101 -0.0272 -2.7337  0.0011
   83GLOH   H08 9333   1.766   5.140   2.977 -0.9187  0.5868 -2.2921
   83GLOH    C2 9334   1.557   5.132   3.027 -0.5927 -0.1545  0.6029
   83GLOH   H04 9335   1.581   5.046   3.092 -0.4498 -0.7532 -0.2352
   83GLOH    O2 9336   1.454   5.214   3.085  0.5479 -0.0999 -0.0953
   83GLOH   H05 9337   1.470   5.307   3.066  1.7495 -0.6046 -1.6220
   83GLOH    C3 9338   1.510   5.083   2.888  0.6709  0.4516 -0.1642
   83GLOH   H06 9339   1.487   5.166   2.821  1.1742  1.2870  0.6935
   83GLOH   H07 9340   1.414   5.030   2.892  0.9265 -0.0639 -0.8537
   83GLOH    O3 9341   1.613   5.007   2.816 -0.7421 -0.2618 -0.0490
   83GLOH   H01 9342   1.638   4.927   2.865 -1.1828  0.0396  0.6788
   84GLOH   H03 9343   8.874   8.958   4.765  0.2515  0.4555  0.7828
   84GLOH    O1 9344   8.851   8.978   4.672  0.1967 -0.3227  0.6282
   84GLOH    C1 9345   8.934   9.095   4.638 -0.1484 -0.4068 -0.0862
   84GLOH   H02 9346   9.028   9.068   4.590 -0.6214 -0.9580 -0.7165
   84GLOH   H08 9347   8.961   9.138   4.735  0.0368  0.8680 -0.7025
   84GLOH    C2 9348   8.862   9.201   4.555 -0.0444  0.1061  0.0567
   84GLOH   H04 9349   8.786   9.242   4.623 -1.9208 -1.1950 -1.2119
   84GLOH    O2 9350   8.957   9.298   4.507  0.5981 -0.6053  0.4440
   84GLOH   H05 9351   8.938   9.383   4.552  0.8876 -1.0213  1.3559
   84GLOH    C3 9352   8.807   9.129   4.427 -0.0562  0.5128  0.2646
   84GLOH   H06 9353   8.896   9.086   4.380 -0.7374 -0.0873 -0.4869
   84GLOH   H07 9354   8.771   9.205   4.357 -1.0646  0.3314  0.5782
   84GLOH    O3 9355   8.707   9.029   4.463  0.2546 -0.3619  0.5192
   84GLOH   H01 9356   8.751   8.994   4.543  1.8148  0.9206  0.2588
   85GLOH   H03 9357   3.500   0.107   3.733  0.5943 -0.2893 -1.7060
   85GLOH    O1 9358   3.436   0.147   3.671 -0.3402  0.9803  0.0265
   85GLOH    C1 9359   3.451   0.295   3.668  0.1390  0.0262 -0.0843
   85GLOH   H02 9360   3.365   0.329   3.610 -1.0003  0.9064  2.0542
   85GLOH   H08 9361   3.540   0.312   3.607 -0.0561 -0.2250 -0.4448
   85GLOH    C2 9362   3.456   0.367   3.797  0.2763  0.2472  0.3312
   85GLOH   H04 9363   3.363   0.341   3.851 -1.4773  2.9008 -1.2840
   85GLOH    O2 9364   3.577   0.332   3.870  0.3649  0.8168 -0.5469
   85GLOH   H05 9365   3.655   0.363   3.820  0.6591  0.9268 -0.0200
   85GLOH    C3 9366   3.454   0.525   3.769 -0.0594 -0.7346 -0.2466
   85GLOH   H06 9367   3.476   0.576   3.862 -2.1496 -0.0592 -0.1069
   85GLOH   H07 9368   3.351   0.550   3.744 -0.1548 -0.9013 -0.0117
   85GLOH    O3 9369   3.540   0.568   3.663  0.3046 -0.4294  0.3511
   85GLOH   H01 9370   3.611   0.627   3.692 -1.5674  1.4434  1.2652
   86GLOH   H03 9371   9.240   4.049   0.336  1.2023 -0.4256 -0.2688
   86GLOH    O1 9372   9.282   4.130   0.369  0.0368  0.1051 -0.0513
   86GLOH    C1 9373   9.212   4.245   0.320  0.3970 -0.2025  0.3409
   86GLOH   H02 9374   9.184   4.229   0.216  0.4878 -2.4136  0.6171
   86GLOH   H08 9375   9.272   4.335   0.331 -0.4863  0.3721  0.5499
   86GLOH    C2 9376   9.075   4.259   0.401 -0.1477  0.6832 -0.8856
   86GLOH   H04 9377   9.007   4.339   0.370 -0.4132  0.6627 -0.3626
   86GLOH    O2 9378   8.998   4.139   0.380  0.5609 -0.1815  0.1703
   86GLOH   H05 9379   8.984   4.131   0.284 -1.3600  3.1541  0.0972
   86GLOH    C3 9380   9.095   4.274   0.555  0.3331 -0.2745  0.6840
   86GLOH   H06 9381   9.149   4.184   0.584  0.6964 -0.6637 -1.1513
   86GLOH   H07 9382   9.007   4.265   0.618  0.7461 -1.6364  1.0830
   86GLOH    O3 9383   9.173   4.392   0.584 -0.2626 -0.2203  0.6856
   86GLOH   H01 9384   9.111   4.460   0.616  0.5208  0.4113  0.8719
   87GLOH   H03 9385   8.867   2.000   3.229  0.6097  1.3246 -2.4911
   87GLOH    O1 9386   8.858   1.917   3.179 -0.3714  0.2756 -0.6377
   87GLOH    C1 9387   8.732   1.929   3.110 -0.3505 -0.5005 -0.1096
   87GLOH   H02 9388   8.737   1.990   3.020 -1.2540 -0.3645 -0.0696
   87GLOH   H08 9389   8.659   1.972   3.179  1.9676  1.1070  1.4237
   87GLOH    C2 9390   8.680   1.787   3.065 -0.3070  0.4094  0.2688
   87GLOH   H04 9391   8.667   1.725   3.155  0.4811  1.3087  1.0123
   87GLOH    O2 9392   8.556   1.795   2.995 -0.2095  0.0393  0.4859
   87GLOH   H05 9393   8.562   1.757   2.906  0.8180  0.1316  0.5138
   87GLOH    C3 9394   8.784   1.731   2.965 -0.8966 -0.2357  0.0984
   87GLOH   H06 9395   8.785   1.793   2.874  1.4249 -1.0308 -0.4375
   87GLOH   H07 9396   8.751   1.632   2.933 -0.8438  0.4816 -2.2631
   87GLOH    O3 9397   8.914   1.720   3.025  0.7829 -0.8695 -0.1340
   87GLOH   H01 9398   8.913   1.785   3.097 -2.0424 -0.6782 -0.2936
   88GLOH   H03 9399   5.327   5.023   1.252  0.0097 -0.6998 -0.3153
   88GLOH    O1 9400   5.230   5.030   1.251  0.0201 -0.4189  0.8340
   88GLOH    C1 9401   5.198   5.021   1.388  0.1239 -0.3939 -0.6770
   88GLOH   H02 9402   5.097   5.060   1.403  1.1365  2.2484 -0.3958
   88GLOH   H08 9403   5.265   5.075   1.455  1.2661 -0.5597 -1.6670
   88GLOH    C2 9404   5.190   4.880   1.446 -0.1073  0.0944 -0.3229
   88GLOH   H04 9405   5.285   4.829   1.422 -0.4406 -0.0856 -1.2541
   88GLOH    O2 9406   5.161   4.880   1.589 -0.2348  0.4530 -0.2971
   88GLOH   H05 9407   5.080   4.826   1.596  0.5185 -0.7846 -0.9922
   88GLOH    C3 9408   5.070   4.814   1.382 -0.4287 -0.0531 -0.1635
   88GLOH   H06 9409   4.972   4.847   1.416 -1.2705 -2.0108 -0.5896
   88GLOH   H07 9410   5.079   4.707   1.401  1.7097  0.0767 -0.2978
   88GLOH    O3 9411   5.091   4.834   1.243 -0.3850  0.5236 -0.1870
   88GLOH   H01 9412   5.140   4.917   1.230  0.0141  0.4160  0.6464
   89GLOH   H03 9413   7.107   8.398   2.863 -1.0563  0.7126  0.0146
   89GLOH    O1 9414   7.055   8.370   2.785 -0.8473 -0.1476  0.1712
   89GLOH    C1 9415   6.980   8.254   2.814  0.4677  0.0804 -0.5700
   89GLOH   H02 9416   7.038   8.185   2.875 -1.8654 -1.6024 -0.1732
   89GLOH   H08 9417   6.965   8.194   2.724  0.2659 -1.3781  0.4232
   89GLOH    C2 9418   6.835   8.287   2.862 -0.0739  0.1515 -0.3570
   89GLOH   H04 9419   6.786   8.362   2.799 -1.1286 -0.3037 -0.0793
   89GLOH    O2 9420   6.756   8.164   2.841 -0.0339  0.1235  0.3983
   89GLOH   H05 9421   6.807   8.106   2.782 -0.6912 -0.5143  0.4499
   89GLOH    C3 9422   6.837   8.336   3.010  0.3488 -0.3377  1.2746
   89GLOH   H06 9423   6.848   8.249   3.075  0.4774 -0.7673  0.6779
   89GLOH   H07 9424   6.740   8.380   3.032  0.2727  0.5742 -0.7228
   89GLOH    O3 9425   6.948   8.425   3.029  0.1869 -0.5240  0.0322
   89GLOH   H01 9426   6.978   8.438   3.121  0.8258  0.6799 -0.3403
   90GLOH   H03 9427   4.166   1.851   3.596  1.6238 -0.2190 -0.8733
   90GLOH    O1 9428   4.154   1.871   3.691  0.7480 -0.3267 -0.9580
   90GLOH    C1 9429   4.023   1.931   3.719 -0.4218  0.2857 -0.1757
   90GLOH   H02 9430   3.980   1.872   3.801 -0.9467  0.9139  0.0086
   90GLOH   H08 9431   3.953   1.916   3.636  0.3711  0.0475 -0.8032
   90GLOH    C2 9432   4.038   2.075   3.773  0.3446  0.7862 -0.5015
   90GLOH   H04 9433   4.115   2.131   3.719  0.5078  1.0134 -0.0417
   90GLOH    O2 9434   3.915   2.151   3.768  0.2849  0.4369 -0.4510
   90GLOH   H05 9435   3.873   2.133   3.682 -1.3614 -0.3104  0.4864
   90GLOH    C3 9436   4.086   2.058   3.919  0.0924  0.2624  0.2894
   90GLOH   H06 9437   4.006   2.019   3.982 -1.9034  1.7709 -1.2442
   90GLOH   H07 9438   4.125   2.153   3.953  0.7372 -0.5046  1.7267
   90GLOH    O3 9439   4.194   1.966   3.932 -0.0326  0.2138  0.5955
   90GLOH   H01 9440   4.176   1.921   3.848  1.1483  1.0186 -0.0922
   91GLOH   H03 9441   6.641   0.645   2.333  1.0330  1.4688  0.0830
   91GLOH    O1 9442   6.568   0.703   2.362  0.6236  0.6997  0.6139
   91GLOH    C1 9443   6.601   0.782   2.476  0.7240  0.5939 -0.7666
   91GLOH   H02 9444   6.670   0.861   2.449  2.3828 -0.7523 -0.5344
   91GLOH   H08 9445   6.645   0.721   2.555 -0.6301  0.5524 -0.0224
   91GLOH    C2 9446   6.467   0.850   2.511 -0.4832 -0.7786  0.4009
   91GLOH   H04 9447   6.379   0.784   2.510 -1.8028  0.9514 -1.5726
   91GLOH    O2 9448   6.473   0.912   2.639  0.8354 -0.1578  0.3094
   91GLOH   H05 9449   6.398   0.881   2.692  0.7329  0.3443  0.4563
   91GLOH    C3 9450   6.433   0.959   2.405 -0.5028  0.1387  0.5764
   91GLOH   H06 9451   6.521   1.018   2.378  0.9052 -1.7821  0.9164
   91GLOH   H07 9452   6.364   1.034   2.445  0.1268  0.8858  0.2730
   91GLOH    O3 9453   6.393   0.893   2.287  0.0962  0.3646 -0.0137
   91GLOH   H01 9454   6.423   0.801   2.297  0.0028  0.1273 -1.7127
   92GLOH   H03 9455   4.863   3.114   1.867 -0.0448 -1.3986 -0.4232
   92GLOH    O1 9456   4.862   3.128   1.770  0.1072  0.8062 -0.1363
   92GLOH    C1 9457   4.731   3.158   1.725 -0.0287  0.3340  0.6673
   92GLOH   H02 9458   4.686   3.066   1.687 -2.3980  1.3313  0.9598
   92GLOH   H08 9459   4.725   3.240   1.653  1.2919  0.6096  0.8556
   92GLOH    C2 9460   4.644   3.215   1.842  0.1148  0.0907 -0.4103
   92GLOH   H04 9461   4.544   3.219   1.797  0.6095 -0.9041 -1.6492
   92GLOH    O2 9462   4.629   3.118   1.946  0.4757  0.5784  0.3015
   92GLOH   H05 9463   4.535   3.128   1.970 -0.2134 -0.8578 -1.6826
   92GLOH    C3 9464   4.681   3.352   1.901 -0.7173 -0.0904  0.0132
   92GLOH   H06 9465   4.784   3.337   1.933 -0.7212  1.3133  0.7120
   92GLOH   H07 9466   4.628   3.380   1.992 -1.8594 -0.6227 -0.4740
   92GLOH    O3 9467   4.678   3.456   1.803 -0.2503 -0.4816  0.0457
   92GLOH   H01 9468   4.587   3.466   1.772 -0.1560  0.9637  0.1995
   93GLOH   H03 9469   3.107   9.263   0.302 -0.6168  0.3517 -4.5331
   93GLOH    O1 9470   3.168   9.188   0.290  0.0678  0.1685 -0.5404
   93GLOH    C1 9471   3.089   9.069   0.322  0.0811 -0.0965 -0.1229
   93GLOH   H02 9472   3.025   9.029   0.244 -0.1330 -0.9231  0.4690
   93GLOH   H08 9473   3.023   9.090   0.406 -0.1106 -1.3188  0.0396
   93GLOH    C2 9474   3.182   8.950   0.364 -0.0410 -0.6480 -0.2489
   93GLOH   H04 9475   3.240   8.991   0.448 -0.5773  1.3938 -0.8359
   93GLOH    O2 9476   3.103   8.834   0.407 -0.8767  0.6849 -0.5186
   93GLOH   H05 9477   3.173   8.776   0.442  0.4102  0.9417 -2.5586
   93GLOH    C3 9478   3.272   8.910   0.248  0.0980 -0.1003 -0.0385
   93GLOH   H06 9479   3.325   8.998   0.213  0.7297 -0.3872  0.1883
   93GLOH   H07 9480   3.201   8.881   0.170 -2.3818 -0.4531  2.2445
   93GLOH    O3 9481   3.356   8.799   0.287 -0.1315  0.4828 -0.3802
   93GLOH   H01 9482   3.353   8.732   0.216 -1.4132 -1.1679  1.1528
   94GLOH   H03 9483   7.272   3.972   0.459 -0.5729 -0.1383  0.6078
   94GLOH    O1 9484   7.232   4.060   0.448  0.2427  0.2246  0.4950
   94GLOH    C1 9485   7.318   4.160   0.500  0.0594  0.3196  0.3377
   94GLOH   H02 9486   7.416   4.139   0.456 -0.6388  2.8975 -2.6585
   94GLOH   H08 9487   7.333   4.141   0.606  3.0028  0.8376  0.0534
   94GLOH    C2 9488   7.284   4.300   0.463 -0.3919  0.4069  0.6289
   94GLOH   H04 9489   7.185   4.333   0.496  0.1892  2.1518  0.6601
   94GLOH    O2 9490   7.396   4.371   0.523  0.0132  0.0376  0.4453
   94GLOH   H05 9491   7.358   4.448   0.568 -3.4258 -2.3303  1.8546
   94GLOH    C3 9492   7.296   4.318   0.307 -0.3936  0.4163 -0.1003
   94GLOH   H06 9493   7.402   4.311   0.281  0.0167 -0.8424  1.7587
   94GLOH   H07 9494   7.262   4.418   0.283 -1.2565 -0.3124 -2.0084
   94GLOH    O3 9495   7.229   4.213   0.234 -0.2805 -0.5950 -0.2848
   94GLOH   H01 9496   7.236   4.141   0.300 -1.2603 -0.6395 -0.2242
   95GLOH   H03 9497   2.799   2.218   2.311 -0.5664  0.3702  0.0680
   95GLOH    O1 9498   2.866   2.149   2.327 -0.6843  0.3763  0.6037
   95GLOH    C1 9499   2.976   2.215   2.380 -0.1433 -0.2375  0.4393
   95GLOH   H02 9500   2.953   2.285   2.460 -0.8193 -1.9644  1.7783
   95GLOH   H08 9501   3.026   2.279   2.307  2.0229 -1.7285  0.5882
   95GLOH    C2 9502   3.082   2.116   2.435 -0.4180  0.2999 -0.2544
   95GLOH   H04 9503   3.158   2.096   2.358 -1.4441 -1.7301 -0.7619
   95GLOH    O2 9504   3.158   2.193   2.528  0.3426 -0.2541 -0.2894
   95GLOH   H05 9505   3.209   2.139   2.591  0.4486 -1.7817 -1.6314
   95GLOH    C3 9506   3.020   1.979   2.485 -0.1276 -0.2004 -0.3590
   95GLOH   H06 9507   2.949   1.940   2.412 -0.1816 -1.0694  0.1548
   95GLOH   H07 9508   2.962   1.994   2.576 -0.0116 -4.1598  0.4415
   95GLOH    O3 9509   3.124   1.886   2.504  0.2088  0.7850  0.9632
   95GLOH   H01 9510   3.078   1.802   2.521 -0.4622  1.2248  1.3200
   96GLOH   H03 9511   0.833   3.712   1.560 -0.9628 -0.9867 -0.9673
   96GLOH    O1 9512   0.876   3.742   1.477 -0.5319  0.3169 -0.2902
   96GLOH    C1 9513   0.845   3.639   1.384 -0.4111 -0.0738  0.0645
   96GLOH   H02 9514   0.772   3.669   1.308 -0.9208 -1.2424  0.0923
   96GLOH   H08 9515   0.811   3.550   1.435  1.2965  0.6641  2.5458
   96GLOH    C2 9516   0.968   3.611   1.285 -0.5962 -0.4210  0.1500
   96GLOH   H04 9517   1.024   3.539   1.347  0.4391  1.0859  1.0172
   96GLOH    O2 9518   0.921   3.548   1.164 -0.4904 -0.2596  0.7174
   96GLOH   H05 9519   0.956   3.458   1.152 -0.1000  0.1580 -1.7042
   96GLOH    C3 9520   1.050   3.741   1.252 -0.7824  0.0949 -0.0428
   96GLOH   H06 9521   1.003   3.801   1.175 -0.3874 -0.4865 -0.7447
   96GLOH   H07 9522   1.142   3.704   1.205  2.2015  3.7231  2.6322
   96GLOH    O3 9523   1.094   3.816   1.363 -0.3645  0.0058  0.4119
   96GLOH   H01 9524   1.045   3.801   1.445  0.2916  0.9325  0.9778
   97GLOH   H03 9525   2.799   5.612   3.015  0.0581  2.6188  2.2235
   97GLOH    O1 9526   2.809   5.662   2.932 -0.3775 -0.1161  0.4857
   97GLOH    C1 9527   2.681   5.687   2.871 -0.3133 -0.4518 -0.7819
   97GLOH   H02 9528   2.700   5.727   2.771 -1.6218 -1.6083 -1.5219
   97GLOH   H08 9529   2.617   5.762   2.917 -0.3827 -0.5860 -0.6609
   97GLOH    C2 9530   2.606   5.555   2.851  0.2672 -0.0957 -0.8320
   97GLOH   H04 9531   2.656   5.496   2.773  0.4354 -0.2465 -0.6103
   97GLOH    O2 9532   2.579   5.479   2.970  0.1807  0.0707  0.6422
   97GLOH   H05 9533   2.661   5.433   2.996  1.0987  2.2050  1.6260
   97GLOH    C3 9534   2.466   5.593   2.791  0.7596  0.6073  0.4230
   97GLOH   H06 9535   2.414   5.658   2.861  2.0830  0.9528  1.1162
   97GLOH   H07 9536   2.400   5.507   2.783  0.2665  1.0199  0.0528
   97GLOH    O3 9537   2.465   5.656   2.664  0.1621 -0.2866 -0.3511
   97GLOH   H01 9538   2.469   5.752   2.674  0.7928 -0.4412  0.9629
   98GLOH   H03 9539   4.220   7.481   4.438 -1.9900 -2.7767  2.4201
   98GLOH    O1 9540   4.142   7.477   4.380 -0.3116 -0.1928 -0.1590
   98GLOH    C1 9541   4.119   7.346   4.322 -0.5188 -0.6380  0.2197
   98GLOH   H02 9542   4.020   7.310   4.350 -0.3468 -1.1492  0.1883
   98GLOH   H08 9543   4.192   7.273   4.359  0.4644  1.1411  1.8773
   98GLOH    C2 9544   4.125   7.344   4.169 -0.2021  0.8501 -0.1102
   98GLOH   H04 9545   4.218   7.395   4.139  0.2126 -0.4869 -1.1318
   98GLOH    O2 9546   4.118   7.213   4.109  0.3833  0.2706 -0.4610
   98GLOH   H05 9547   4.205   7.193   4.071  0.6005 -2.3945  1.3750
   98GLOH    C3 9548   4.007   7.433   4.116  0.1486 -0.1447  0.3162
   98GLOH   H06 9549   3.923   7.392   4.171 -0.0069 -0.1427  0.0789
   98GLOH   H07 9550   3.989   7.417   4.010  1.2968 -1.1249  0.2632
   98GLOH    O3 9551   4.011   7.577   4.141 -0.6919 -0.5791  0.4671
   98GLOH   H01 9552   4.063   7.576   4.223  0.8693  0.1857 -0.5066
   99GLOH   H03 9553   3.618   6.962   3.755 -1.2908  0.2230  1.7119
   99GLOH    O1 9554   3.661   6.914   3.828 -0.0011 -0.1346  0.7434
   99GLOH    C1 9555   3.794   6.968   3.823 -0.4324 -0.1763 -0.0654
   99GLOH   H02 9556   3.785   7.074   3.800  0.3499 -0.2773 -0.8788
   99GLOH   H08 9557   3.853   6.928   3.740 -0.9687 -0.6238 -0.2361
   99GLOH    C2 9558   3.875   6.959   3.953  0.6954 -0.1055 -0.0716
   99GLOH   H04 9559   3.885   6.854   3.984 -2.1572 -0.6802 -0.9198
   99GLOH    O2 9560   4.007   7.015   3.937 -0.2749  0.2431  0.0284
   99GLOH   H05 9561   4.035   7.078   4.005  0.8816  1.1698 -1.2821
   99GLOH    C3 9562   3.799   7.032   4.067  0.1416 -0.3150  0.2378
   99GLOH   H06 9563   3.843   7.000   4.161 -2.4559  0.3094  1.7032
   99GLOH   H07 9564   3.696   6.996   4.073 -0.2061  0.7961  1.1348
   99GLOH    O3 9565   3.795   7.174   4.064 -0.2541  0.6690 -0.3202
   99GLOH   H01 9566   3.743   7.206   4.140 -0.6467 -0.2735 -0.1849
  100GLOH   H03 9567   5.113   0.880   1.436  0.3962 -0.6683 -1.8928
  100GLOH    O1 9568   5.097   0.788   1.464  0.2380 -0.1637 -0.2515
  100GLOH    C1 9569   5.059   0.713   1.349 -0.6346  0.6586  0.1108
  100GLOH   H02 9570   5.149   0.660   1.316  1.8008  4.2955  0.5706
  100GLOH   H08 9571   5.027   0.781   1.269 -1.2384 -1.8030 -1.8026
  100GLOH    C2 9572   4.954   0.605   1.385 -0.3939 -0.0557 -0.8096
  100GLOH   H04 9573   4.927   0.541   1.300 -0.9159 -1.0004  0.0590
  100GLOH    O2 9574   5.001   0.508   1.481  0.2828  0.8481  1.2163
  100GLOH   H05 9575   5.073   0.555   1.527 -0.3085  2.1190  0.8397
  100GLOH    C3 9576   4.826   0.678   1.434 -0.4174 -0.4969  0.5646
  100GLOH   H06 9577   4.849   0.740   1.521  0.4602 -0.6350  0.4379
  100GLOH   H07 9578   4.749   0.610   1.471 -1.4670  0.4081  0.0636
  100GLOH    O3 9579   4.764   0.759   1.334 -0.1951 -0.3909  0.2575
  100GLOH   H01 9580   4.767   0.850   1.369 -0.8163  0.3116 -1.4986
  101GLOH   H03 9581   3.798   4.614   4.613 -0.6210  0.0370 -1.3527
  101GLOH    O1 9582   3.796   4.711   4.624  0.0871 -0.1068  0.2619
  101GLOH    C1 9583   3.930   4.748   4.649 -0.8209  0.1485 -0.4495
  101GLOH   H02 9584   3.965   4.705   4.742  0.7810  1.9300 -0.1950
  101GLOH   H08 9585   3.940   4.855   4.669  2.5919 -0.3633  0.9794
  101GLOH    C2 9586   4.037   4.709   4.553  0.2852  0.2339  0.9958
  101GLOH   H04 9587   4.133   4.754   4.584  1.6440  0.7909 -3.6242
  101GLOH    O2 9588   4.052   4.567   4.529  0.5101 -0.3516 -0.0038
  101GLOH   H05 9589   4.136   4.539   4.568  0.9914  1.6256  0.4219
  101GLOH    C3 9590   4.016   4.771   4.416  0.1106 -0.8577 -0.5977
  101GLOH   H06 9591   3.908   4.771   4.401  0.1610 -0.7739 -0.9615
  101GLOH   H07 9592   4.066   4.710   4.341  0.5162  0.7092 -1.6346
  101GLOH    O3 9593   4.062   4.904   4.396 -0.4636 -0.7660 -0.5806
  101GLOH   H01 9594   4.159   4.910   4.386 -0.7238  0.1009 -3.2751
  102GLOH   H03 9595   2.922   9.558   2.480 -1.3580  0.8033  1.3699
  102GLOH    O1 9596   2.980   9.516   2.547 -0.2150 -0.2320 -0.2305
  102GLOH    C1 9597   2.922   9.391   2.592  0.2982 -1.1462  0.3211
  102GLOH   H02 9598   2.894   9.330   2.506  0.2051 -0.6529  0.0030
  102GLOH   H08 9599   2.831   9.410   2.648  1.6108  0.2277  2.0713
  102GLOH    C2 9600   3.018   9.316   2.689  0.1865  0.5399 -0.2035
  102GLOH   H04 9601   3.045   9.380   2.774 -1.2235 -0.3138  0.9146
  102GLOH    O2 9602   2.946   9.202   2.742 -0.2145 -0.2945 -0.2952
  102GLOH   H05 9603   2.855   9.227   2.764  0.6111  2.7830 -0.2380
  102GLOH    C3 9604   3.152   9.279   2.614 -0.0416 -0.4234  0.2675
  102GLOH   H06 9605   3.176   9.365   2.550 -1.2931 -0.6403 -0.5202
  102GLOH   H07 9606   3.139   9.190   2.553  0.1751 -1.3105  1.5044
  102GLOH    O3 9607   3.257   9.238   2.700  0.6037 -0.2328  0.2621
  102GLOH   H01 9608   3.298   9.317   2.740  0.5084  0.7900 -1.5765
  103GLOH   H03 9609   7.969   6.174   0.329 -0.2512  1.2439  1.0014
  103GLOH    O1 9610   7.969   6.239   0.257  0.4048  0.0637 -0.0893
  103GLOH    C1 9611   8.007   6.366   0.306 -0.1078 -0.0221  0.1083
  103GLOH   H02 9612   7.929   6.414   0.365 -0.6285  0.9230 -1.3323
  103GLOH   H08 9613   8.029   6.438   0.227 -1.4563  0.3929  0.1039
  103GLOH    C2 9614   8.123   6.342   0.404  0.5172  0.0864 -0.3200
  103GLOH   H04 9615   8.204   6.293   0.346 -0.5621  0.6171 -2.3287
  103GLOH    O2 9616   8.165   6.469   0.457 -0.2623 -0.7775  0.5061
  103GLOH   H05 9617   8.247   6.495   0.411 -0.5946  0.6174  0.6557
  103GLOH    C3 9618   8.083   6.246   0.517  0.2775 -0.1581  0.2204
  103GLOH   H06 9619   8.005   6.304   0.566  1.1687  1.6555 -0.4709
  103GLOH   H07 9620   8.166   6.233   0.586 -0.5709  0.6569  1.4048
  103GLOH    O3 9621   8.039   6.117   0.477  0.3060 -0.0920  0.1120
  103GLOH   H01 9622   8.030   6.052   0.550 -0.7265 -1.4664 -1.2020
  104GLOH   H03 9623   0.321   8.301  -0.060 -0.8892 -1.3712 -1.0932
  104GLOH    O1 9624   0.359   8.254   0.016 -0.3010  0.2115 -0.3875
  104GLOH    C1 9625   0.303   8.324   0.126 -0.2062 -0.8177  0.4341
  104GLOH   H02 9626   0.284   8.251   0.205 -1.3894 -0.2423  0.6872
  104GLOH   H08 9627   0.205   8.362   0.097 -0.7515 -1.8070  0.9595
  104GLOH    C2 9628   0.400   8.443   0.177  0.7349  0.4159 -0.5503
  104GLOH   H04 9629   0.453   8.480   0.087  1.8913 -0.3707 -0.2054
  104GLOH    O2 9630   0.324   8.549   0.234 -0.0757  0.3256  0.0879
  104GLOH   H05 9631   0.228   8.536   0.244 -0.1501 -0.5839 -1.5389
  104GLOH    C3 9632   0.510   8.387   0.270  0.7928 -0.1734  0.1477
  104GLOH   H06 9633   0.559   8.473   0.315  1.1262 -0.8877  1.1897
  104GLOH   H07 9634   0.577   8.320   0.216  0.1538 -1.4471  0.9094
  104GLOH    O3 9635   0.458   8.308   0.374  0.0675  0.2755 -0.2529
  104GLOH   H01 9636   0.523   8.317   0.447 -0.1395  0.3567 -0.0781
  105GLOH   H03 9637   1.141   2.144   1.186  0.1605 -1.0583  1.0404
  105GLOH    O1 9638   1.153   2.051   1.160  0.3827 -0.8042  0.2071
  105GLOH    C1 9639   1.136   1.982   1.285 -0.0233  0.1544  0.4030
  105GLOH   H02 9640   1.077   1.892   1.269 -0.5245  0.6777 -0.7459
  105GLOH   H08 9641   1.092   2.051   1.356 -2.4613 -2.3303  1.3708
  105GLOH    C2 9642   1.270   1.931   1.335  0.2790  0.3138  0.0880
  105GLOH   H04 9643   1.322   2.021   1.369  0.6718 -0.2838  1.0607
  105GLOH    O2 9644   1.258   1.841   1.444 -0.3250 -0.5453 -0.1847
  105GLOH   H05 9645   1.256   1.888   1.529  0.1208  1.4642 -1.2645
  105GLOH    C3 9646   1.342   1.848   1.226  0.3399 -0.2304 -0.0198
  105GLOH   H06 9647   1.272   1.771   1.195 -0.8233 -0.0462  2.0674
  105GLOH   H07 9648   1.429   1.792   1.261  1.3984  1.7920  0.6784
  105GLOH    O3 9649   1.368   1.938   1.117 -0.4715 -0.0305 -0.5938
  105GLOH   H01 9650   1.282   1.984   1.113  0.4680  1.9402  1.2418
  106GLOH   H03 9651   2.622   6.598   2.216 -1.3028  0.5272  0.9328
  106GLOH    O1 9652   2.695   6.635   2.269  0.0508 -0.1761 -0.4139
  106GLOH    C1 9653   2.820   6.564   2.244 -0.2957  0.3050  0.3867
  106GLOH   H02 9654   2.792   6.461   2.222  2.1016 -0.1358 -0.7922
  106GLOH   H08 9655   2.879   6.556   2.335 -0.8595  2.3511  0.9593
  106GLOH    C2 9656   2.900   6.627   2.128 -0.6396 -0.5039  0.1254
  106GLOH   H04 9657   2.933   6.728   2.156  1.6832 -0.6979 -1.7375
  106GLOH    O2 9658   3.009   6.546   2.095  0.3454 -0.3059 -0.0429
  106GLOH   H05 9659   3.078   6.610   2.072 -0.7137  0.1261 -2.0860
  106GLOH    C3 9660   2.811   6.649   2.001 -0.7702  0.0332 -0.5935
  106GLOH   H06 9661   2.729   6.717   2.026  0.0924  0.6677  0.5793
  106GLOH   H07 9662   2.765   6.553   1.978  1.3331 -0.8087 -1.4541
  106GLOH    O3 9663   2.888   6.703   1.889  0.6076  0.3118  0.3061
  106GLOH   H01 9664   2.902   6.796   1.914 -1.1425  0.0366  2.3448
  107GLOH   H03 9665   7.911   4.708   0.270 -0.7197  0.4661 -0.0032
  107GLOH    O1 9666   7.918   4.613   0.251 -0.2409  0.4174  0.4083
  107GLOH    C1 9667   7.800   4.549   0.306  0.1277 -0.4264 -0.4772
  107GLOH   H02 9668   7.786   4.448   0.269  3.2622 -1.3568  0.6655
  107GLOH   H08 9669   7.718   4.610   0.270  1.2424  0.1102 -2.1642
  107GLOH    C2 9670   7.802   4.551   0.457  0.0849 -0.4093 -0.0637
  107GLOH   H04 9671   7.877   4.479   0.495  0.1671 -0.1217  0.3241
  107GLOH    O2 9672   7.815   4.686   0.510  0.2157  0.4088 -0.4726
  107GLOH   H05 9673   7.876   4.693   0.585 -1.6249  2.7687  0.8758
  107GLOH    C3 9674   7.672   4.498   0.516  0.8591  0.1409 -0.2323
  107GLOH   H06 9675   7.593   4.571   0.498  1.7549  1.3037  0.4477
  107GLOH   H07 9676   7.678   4.492   0.624 -0.4483 -1.0129 -0.2139
  107GLOH    O3 9677   7.641   4.374   0.463  0.0639 -0.1674 -0.1557
  107GLOH   H01 9678   7.544   4.367   0.455  0.1137 -0.0485 -0.9352
  108GLOH   H03 9679   6.524   1.042   2.687  1.2000  0.2837 -0.4047
  108GLOH    O1 9680   6.539   1.135   2.710  0.1249  0.4135 -0.2221
  108GLOH    C1 9681   6.676   1.146   2.766 -0.0257 -0.5107  0.1032
  108GLOH   H02 9682   6.693   1.109   2.867  0.3015  0.8805  0.5668
  108GLOH   H08 9683   6.693   1.250   2.790  1.0034 -0.6877  0.1704
  108GLOH    C2 9684   6.794   1.093   2.682 -0.2501  0.2240  0.0240
  108GLOH   H04 9685   6.875   1.143   2.737  0.8686 -1.4253 -0.0911
  108GLOH    O2 9686   6.830   0.952   2.682  0.0941  0.8044 -0.3285
  108GLOH   H05 9687   6.837   0.923   2.775 -0.5193 -1.0929 -0.8351
  108GLOH    C3 9688   6.783   1.149   2.542  0.4830  0.0215 -0.1887
  108GLOH   H06 9689   6.738   1.069   2.483 -2.3594  1.4897 -0.1067
  108GLOH   H07 9690   6.885   1.174   2.512  0.2501  1.4911  0.2347
  108GLOH    O3 9691   6.724   1.280   2.540  0.3706  0.4616  0.9856
  108GLOH   H01 9692   6.790   1.352   2.540 -1.3995  2.1201 -0.3753
  109GLOH   H03 9693   3.110   2.645   0.913 -0.7433 -0.7990  1.9192
  109GLOH    O1 9694   3.136   2.551   0.921  0.6037 -0.6528 -0.1877
  109GLOH    C1 9695   3.162   2.522   1.066 -0.0696  0.9315 -0.5880
  109GLOH   H02 9696   3.080   2.456   1.093  0.3476  0.4148 -0.5884
  109GLOH   H08 9697   3.149   2.616   1.120 -1.3315  1.8184 -2.4075
  109GLOH    C2 9698   3.291   2.441   1.078 -0.4934  0.5241  0.0023
  109GLOH   H04 9699   3.364   2.505   1.027  0.1093  0.6328  0.9932
  109GLOH    O2 9700   3.337   2.433   1.210  0.2780  0.3054 -0.0727
  109GLOH   H05 9701   3.343   2.522   1.249  0.2017  0.2552  0.0528
  109GLOH    C3 9702   3.266   2.305   1.018  1.0841  0.0412  0.3312
  109GLOH   H06 9703   3.202   2.254   1.089  1.6469  0.5709  1.2357
  109GLOH   H07 9704   3.355   2.242   1.012 -1.3079 -3.6047  1.4229
  109GLOH    O3 9705   3.217   2.323   0.882  0.0355 -0.0662  0.4551
  109GLOH   H01 9706   3.168   2.406   0.871  0.0629 -0.2293 -1.0127
  110GLOH   H03 9707   5.516   9.522   1.374  0.0260 -2.3926 -0.0467
  110GLOH    O1 9708   5.586   9.528   1.307  0.2702  0.1351  0.3737
  110GLOH    C1 9709   5.654   9.658   1.317  0.0823  0.6069  0.5290
  110GLOH   H02 9710   5.715   9.652   1.407 -0.1251  2.3969  0.8120
  110GLOH   H08 9711   5.580   9.738   1.326  0.2555  0.8967 -0.5840
  110GLOH    C2 9712   5.738   9.698   1.194  0.8045  0.2569 -0.0194
  110GLOH   H04 9713   5.806   9.614   1.173 -2.3079 -2.3978  0.1119
  110GLOH    O2 9714   5.666   9.716   1.069 -0.0125 -0.5727 -0.1110
  110GLOH   H05 9715   5.733   9.727   0.999  0.3299  0.9271  0.4278
  110GLOH    C3 9716   5.815   9.828   1.230  0.5202 -0.1091 -0.7064
  110GLOH   H06 9717   5.745   9.903   1.264  0.2777 -0.5520 -0.2168
  110GLOH   H07 9718   5.877   9.867   1.149  0.1381  0.9093 -0.5114
  110GLOH    O3 9719   5.904   9.802   1.341  0.3817  0.1935 -0.1144
  110GLOH   H01 9720   5.907   9.886   1.390 -2.2472  0.0431  0.3594
  111GLOH   H03 9721   4.538   2.664   2.196  0.0880 -0.1977 -1.0509
  111GLOH    O1 9722   4.633   2.662   2.216 -0.1048 -0.1845 -0.0995
  111GLOH    C1 9723   4.705   2.636   2.099 -0.1468 -0.2861 -0.2731
  111GLOH   H02 9724   4.659   2.561   2.034 -1.1164  0.4377 -0.4316
  111GLOH   H08 9725   4.796   2.585   2.133  0.2895  1.4236  1.2143
  111GLOH    C2 9726   4.752   2.764   2.030  0.3012  0.7490 -1.1037
  111GLOH   H04 9727   4.658   2.822   2.024 -0.6658 -0.8277 -1.5238
  111GLOH    O2 9728   4.851   2.833   2.109  0.2824  0.0526 -0.7765
  111GLOH   H05 9729   4.884   2.905   2.053  2.4681 -0.2924  0.0166
  111GLOH    C3 9730   4.798   2.740   1.884 -0.2192 -0.0747  0.1978
  111GLOH   H06 9731   4.823   2.841   1.852 -2.4578  1.3602  2.8363
  111GLOH   H07 9732   4.713   2.706   1.825  0.8398  0.8630 -1.9272
  111GLOH    O3 9733   4.915   2.654   1.867  0.2782  0.0994  0.6068
  111GLOH   H01 9734   4.997   2.692   1.903  0.4193  0.8562 -0.4849
  112GLOH   H03 9735   8.234   8.014   3.927 -0.4946 -1.7081 -1.0029
  112GLOH    O1 9736   8.323   7.984   3.904  0.2950  0.3405 -0.6929
  112GLOH    C1 9737   8.295   7.845   3.892 -0.9987 -0.4232 -0.0103
  112GLOH   H02 9738   8.210   7.821   3.828  1.2056 -1.4067 -2.6776
  112GLOH   H08 9739   8.266   7.812   3.991 -3.4472 -0.5693 -0.7411
  112GLOH    C2 9740   8.414   7.751   3.848  0.1442 -0.1850 -0.4687
  112GLOH   H04 9741   8.368   7.651   3.846 -0.0501 -0.0744 -2.3790
  112GLOH    O2 9742   8.463   7.785   3.716  0.4438  0.3466 -0.2602
  112GLOH   H05 9743   8.429   7.876   3.716  0.9004  0.5161 -1.0245
  112GLOH    C3 9744   8.523   7.748   3.959  0.6519 -0.5814  0.1268
  112GLOH   H06 9745   8.463   7.730   4.048 -0.9204  0.2416 -0.7427
  112GLOH   H07 9746   8.561   7.849   3.971  1.2830 -1.1649  3.3956
  112GLOH    O3 9747   8.639   7.666   3.949 -0.3505 -0.0657  0.0060
  112GLOH   H01 9748   8.641   7.638   3.856 -0.6459  0.9727 -0.3229
  113GLOH   H03 9749   8.609   0.971   4.445  1.6231 -0.0534 -0.4486
  113GLOH    O1 9750   8.634   0.978   4.539 -0.2901  0.3030  0.0482
  113GLOH    C1 9751   8.576   0.872   4.612  0.4827  0.7090 -0.3546
  113GLOH   H02 9752   8.486   0.915   4.657 -0.4810 -0.4151 -1.1624
  113GLOH   H08 9753   8.646   0.821   4.678  0.4526  1.0325 -0.0695
  113GLOH    C2 9754   8.512   0.762   4.523 -0.0624  0.0312 -0.5088
  113GLOH   H04 9755   8.578   0.734   4.439  0.1060 -0.9559 -0.0592
  113GLOH    O2 9756   8.470   0.649   4.601  0.3434 -0.6078 -0.2182
  113GLOH   H05 9757   8.394   0.600   4.567  0.1176 -0.4611  0.0660
  113GLOH    C3 9758   8.388   0.817   4.454  0.1289  0.1681 -0.1188
  113GLOH   H06 9759   8.398   0.918   4.414 -0.2395  1.0753  2.0094
  113GLOH   H07 9760   8.312   0.825   4.532  2.4505  4.7309  1.8392
  113GLOH    O3 9761   8.345   0.735   4.340 -0.7077  0.0609 -1.3564
  113GLOH   H01 9762   8.411   0.742   4.269  0.7577 -0.4123 -0.0769
  114GLOH   H03 9763   7.256   9.919   2.551  0.6906  0.9251 -0.9689
  114GLOH    O1 9764   7.338   9.940   2.600  0.0707 -0.4172  0.6920
  114GLOH    C1 9765   7.451   9.846   2.581 -0.1675  0.4644 -0.2979
  114GLOH   H02 9766   7.538   9.894   2.536 -1.5538  2.0533 -1.3679
  114GLOH   H08 9767   7.427   9.769   2.508 -0.7643  0.9399 -0.6070
  114GLOH    C2 9768   7.496   9.782   2.716 -0.0030  0.0341  0.8523
  114GLOH   H04 9769   7.419   9.711   2.750  2.3249 -2.1760  1.6431
  114GLOH    O2 9770   7.617   9.705   2.708 -0.3857  0.1047  0.0227
  114GLOH   H05 9771   7.642   9.703   2.802 -1.0262 -2.5010  0.1902
  114GLOH    C3 9772   7.497   9.886   2.832 -0.2709 -0.1175  0.1712
  114GLOH   H06 9773   7.392   9.917   2.835 -0.4033 -0.5992  0.4254
  114GLOH   H07 9774   7.556   9.971   2.797 -0.8132 -0.7379 -2.3892
  114GLOH    O3 9775   7.529   9.853   2.964  0.1081 -0.0823 -0.1038
  114GLOH   H01 9776   7.620   9.820   2.962  0.2962  0.5023 -1.6265
  115GLOH   H03 9777   6.148   7.961   1.698 -0.2327 -0.9007  1.1788
  115GLOH    O1 9778   6.085   7.931   1.630  0.2809  0.3725  0.1184
  115GLOH    C1 9779   6.108   7.997   1.503 -0.6253 -0.3943  0.0586
  115GLOH   H02 9780   6.039   7.960   1.427 -1.5270  0.4982  0.4248
  115GLOH   H08 9781   6.209   7.991   1.463 -0.3905  1.3213  0.3444
  115GLOH    C2 9782   6.068   8.144   1.508  0.1251 -0.0711  0.5492
  115GLOH   H04 9783   6.147   8.183   1.574  1.7686 -1.8515 -0.3087
  115GLOH    O2 9784   6.082   8.207   1.378 -0.1794 -0.0221 -0.4854
  115GLOH   H05 9785   6.145   8.280   1.384  1.9069 -1.9596  2.9135
  115GLOH    C3 9786   5.918   8.154   1.563 -0.2115  0.0050  0.0184
  115GLOH   H06 9787   5.923   8.113   1.664  0.0114  0.3623  0.1515
  115GLOH   H07 9788   5.845   8.092   1.511  2.2713 -2.2952 -0.8706
  115GLOH    O3 9789   5.877   8.286   1.580  0.0463  0.2749  0.3113
  115GLOH   H01 9790   5.936   8.339   1.523  4.6529 -0.9620  3.6387
  116GLOH   H03 9791   3.331   9.684   0.345  1.2181 -0.3614  1.5936
  116GLOH    O1 9792   3.305   9.769   0.384  0.2710 -0.1801  0.5944
  116GLOH    C1 9793   3.228   9.745   0.500 -0.4923  0.4818  0.0269
  116GLOH   H02 9794   3.153   9.671   0.472  1.1073 -1.5016  0.8449
  116GLOH   H08 9795   3.167   9.825   0.542 -0.7966  0.1268  0.2740
  116GLOH    C2 9796   3.300   9.675   0.618 -0.7478 -0.3580 -0.4269
  116GLOH   H04 9797   3.333   9.575   0.585  0.4728  0.9534 -3.3440
  116GLOH    O2 9798   3.414   9.757   0.648 -0.0279 -0.2102  0.1203
  116GLOH   H05 9799   3.383   9.848   0.657  0.7118 -0.0027  0.6443
  116GLOH    C3 9800   3.219   9.659   0.744 -0.0803 -0.4477 -0.5508
  116GLOH   H06 9801   3.226   9.744   0.811 -0.2758 -0.8218 -0.0506
  116GLOH   H07 9802   3.262   9.572   0.794  1.1304  0.9854  0.9286
  116GLOH    O3 9803   3.079   9.627   0.715  0.0312  0.3534 -0.0996
  116GLOH   H01 9804   3.055   9.559   0.782  0.6095 -0.3061 -0.5532
  117GLOH   H03 9805   9.398   2.578   0.527 -2.2876  0.5364  1.4904
  117GLOH    O1 9806   9.407   2.675   0.534 -0.5784  0.5490 -0.3092
  117GLOH    C1 9807   9.460   2.714   0.409 -1.0754  0.4206 -0.6542
  117GLOH   H02 9808   9.569   2.713   0.404 -1.0953  0.5082 -1.2136
  117GLOH   H08 9809   9.442   2.820   0.394 -2.2877  0.4458  0.8546
  117GLOH    C2 9810   9.404   2.631   0.289  0.0707  0.0095 -0.9482
  117GLOH   H04 9811   9.299   2.658   0.273  0.1232 -0.1218 -1.5224
  117GLOH    O2 9812   9.488   2.670   0.175  0.6756 -0.3928 -0.1644
  117GLOH   H05 9813   9.471   2.757   0.136  2.6760 -0.5572 -1.4585
  117GLOH    C3 9814   9.424   2.482   0.326 -0.1638 -0.1445  0.0068
  117GLOH   H06 9815   9.531   2.464   0.326 -0.1433 -0.0200 -0.4134
  117GLOH   H07 9816   9.392   2.417   0.244  1.9696 -0.2065 -0.7971
  117GLOH    O3 9817   9.351   2.448   0.445 -0.2020 -0.3245  0.3716
  117GLOH   H01 9818   9.414   2.417   0.512 -1.0823  2.5267  2.6413
  118GLOH   H03 9819   1.881   9.358   0.106  0.6134 -1.3912  2.0188
  118GLOH    O1 9820   1.812   9.401   0.160 -0.3970  0.1739 -0.4528
  118GLOH    C1 9821   1.820   9.547   0.139  0.0667  0.0507 -0.4990
  118GLOH   H02 9822   1.878   9.569   0.049  1.5382 -0.8869  0.2050
  118GLOH   H08 9823   1.868   9.582   0.230  0.8964 -1.0895 -0.4877
  118GLOH    C2 9824   1.678   9.601   0.146  0.1621  0.9695  0.3240
  118GLOH   H04 9825   1.637   9.576   0.245  2.6485 -1.8179  0.6990
  118GLOH    O2 9826   1.674   9.741   0.134 -0.6478  0.4671 -0.1685
  118GLOH   H05 9827   1.720   9.761   0.051 -1.6466  1.7036 -0.4406
  118GLOH    C3 9828   1.585   9.541   0.033  0.0933 -0.0622 -0.8968
  118GLOH   H06 9829   1.566   9.435   0.047 -0.2500  0.2059  0.7625
  118GLOH   H07 9830   1.642   9.554  -0.059  1.9044  2.6763  0.5489
  118GLOH    O3 9831   1.459   9.609   0.025 -0.3510 -0.5765 -0.0309
  118GLOH   H01 9832   1.420   9.599   0.114  1.6053 -0.7232  0.8421
  119GLOH   H03 9833   6.090   0.228   3.891 -0.7489  0.7460 -2.0556
  119GLOH    O1 9834   6.172   0.276   3.872  0.0241  0.0570 -0.5634
  119GLOH    C1 9835   6.142   0.399   3.806 -0.0914  0.2088 -0.1293
  119GLOH   H02 9836   6.228   0.463   3.786  0.1693  0.3838  1.5008
  119GLOH   H08 9837   6.075   0.452   3.873 -1.3634 -0.3033 -0.9892
  119GLOH    C2 9838   6.072   0.384   3.667 -0.3765  0.1141 -0.2465
  119GLOH   H04 9839   5.974   0.335   3.666 -0.8534  1.0777 -1.8965
  119GLOH    O2 9840   6.044   0.504   3.604  0.4237  0.2237  0.3045
  119GLOH   H05 9841   6.122   0.549   3.567 -1.3042  2.5979 -0.5422
  119GLOH    C3 9842   6.154   0.299   3.576  0.0243 -0.1420 -0.1860
  119GLOH   H06 9843   6.118   0.295   3.474  0.5612 -1.3638 -0.3443
  119GLOH   H07 9844   6.149   0.195   3.611 -0.3459  0.2522  0.9527
  119GLOH    O3 9845   6.286   0.349   3.568 -0.4686  0.2110 -0.5315
  119GLOH   H01 9846   6.278   0.445   3.549  0.7219  0.9081  2.1811
  120GLOH   H03 9847   0.924   7.923   4.419  0.4694 -0.7035  0.9074
  120GLOH    O1 9848   0.873   7.989   4.469 -0.2317 -0.0846 -0.5843
  120GLOH    C1 9849   0.833   7.928   4.596 -0.5071 -0.4298  0.5060
  120GLOH   H02 9850   0.736   7.880   4.587  0.1541 -1.6992  0.0390
  120GLOH   H08 9851   0.824   8.004   4.674  0.4027  1.1872 -0.9162
  120GLOH    C2 9852   0.933   7.814   4.634 -0.2168 -0.7844 -0.0828
  120GLOH   H04 9853   1.037   7.850   4.641 -0.4986  0.6385 -2.3919
  120GLOH    O2 9854   0.900   7.754   4.759  0.0604 -0.5748 -0.9043
  120GLOH   H05 9855   0.967   7.684   4.767 -1.1410 -1.4047  2.5674
  120GLOH    C3 9856   0.927   7.704   4.528  0.4091  0.3003 -0.2951
  120GLOH   H06 9857   0.827   7.662   4.519 -0.4649  2.7440 -2.6274
  120GLOH   H07 9858   0.998   7.625   4.554  0.2822 -0.4190 -2.0568
  120GLOH    O3 9859   0.966   7.763   4.406 -0.3303  0.7323 -0.3231
  120GLOH   H01 9860   0.996   7.693   4.346 -1.3129  0.2169 -0.2315
  121ACOH    H4 9861   6.410   6.543   2.728  0.9372  1.0023  0.2909
  121ACOH    O2 9862   6.407   6.504   2.817  0.2136  0.1869 -0.0775
  121ACOH    C2 9863   6.437   6.606   2.904  0.1552 -0.5732 -0.3246
  121ACOH    O1 9864   6.473   6.723   2.878  0.6667  0.1057 -0.0497
  121ACOH    C1 9865   6.436   6.550   3.041  0.9816  0.1466 -0.0938
  121ACOH    H1 9866   6.528   6.494   3.058  0.1694 -1.0019  0.5754
  121ACOH    H2 9867   6.353   6.482   3.059  1.7703 -0.6959  0.3682
  121ACOH    H3 9868   6.423   6.635   3.109 -1.3043  0.1096 -0.4322
  122ACOH    H4 9869   7.796   6.315   1.530 -0.5984  0.2040  0.1580
  122ACOH    O2 9870   7.779   6.369   1.451  0.2579 -0.3543 -0.4261
  122ACOH    C2 9871   7.785   6.277   1.348 -0.3911 -0.1273  0.1398
  122ACOH    O1 9872   7.866   6.189   1.338  0.1519 -0.0534  0.2123
  122ACOH    C1 9873   7.712   6.330   1.232  0.8488  0.1784  0.0750
  122ACOH    H1 9874   7.648   6.413   1.262  0.6495 -0.0846  0.3890
  122ACOH    H2 9875   7.647   6.254   1.190  2.3315 -0.9839 -0.1365
  122ACOH    H3 9876   7.788   6.365   1.162  0.3629 -0.3649 -0.7312
  123ACOH    H4 9877   3.998   5.518   2.451  1.4396 -2.2707 -0.0243
  123ACOH    O2 9878   4.081   5.559   2.423  0.1037  0.5812  0.0101
  123ACOH    C2 9879   4.130   5.466   2.334 -0.1023  0.1031 -0.0673
  123ACOH    O1 9880   4.092   5.349   2.329 -0.0745  0.2165 -0.4696
  123ACOH    C1 9881   4.243   5.515   2.245  0.1435 -0.1117 -0.3188
  123ACOH    H1 9882   4.276   5.430   2.185  0.0882 -0.0360 -0.4570
  123ACOH    H2 9883   4.314   5.537   2.325 -1.3512  1.3156  0.6626
  123ACOH    H3 9884   4.216   5.605   2.190 -3.0836 -1.8047 -1.6167
  124ACOH    H4 9885   6.744   7.098   2.214  0.0803 -0.6212  0.3712
  124ACOH    O2 9886   6.787   7.022   2.170  0.7448  0.4055 -0.7958
  124ACOH    C2 9887   6.911   7.017   2.219 -0.2708  0.0652  0.8081
  124ACOH    O1 9888   6.949   7.061   2.324  0.4664  0.0700  0.1322
  124ACOH    C1 9889   6.998   6.934   2.134 -0.2126  0.1522 -0.2532
  124ACOH    H1 9890   6.933   6.909   2.050  0.2628 -0.7225 -0.3672
  124ACOH    H2 9891   7.028   6.843   2.188  1.8788  0.5352 -0.7212
  124ACOH    H3 9892   7.092   6.981   2.107  0.2865 -1.0619 -0.6865
  125ACOH    H4 9893   7.500   1.962   0.198  0.2943 -0.2630 -0.3255
  125ACOH    O2 9894   7.407   1.978   0.221  0.4322 -0.0558  0.0924
  125ACOH    C2 9895   7.359   1.878   0.287 -0.4291  0.1297  0.0897
  125ACOH    O1 9896   7.426   1.809   0.361  0.2542 -0.3541 -0.5267
  125ACOH    C1 9897   7.212   1.887   0.312  0.2524  0.1877  0.0566
  125ACOH    H1 9898   7.173   1.988   0.299 -4.9687 -1.5384  1.0881
  125ACOH    H2 9899   7.190   1.860   0.415 -0.9320  0.8962  0.0051
  125ACOH    H3 9900   7.178   1.806   0.247 -0.5682 -0.4461  1.2668
  126ACOH    H4 9901   5.288   1.723   3.216 -1.0383 -0.4980  0.8611
  126ACOH    O2 9902   5.283   1.778   3.296 -0.2036  0.3239  0.3510
  126ACOH    C2 9903   5.303   1.685   3.391 -0.2116 -0.3261  0.3094
  126ACOH    O1 9904   5.290   1.566   3.374 -0.5346  0.2121 -0.2622
  126ACOH    C1 9905   5.298   1.740   3.529 -0.7870  0.4229 -0.6266
  126ACOH    H1 9906   5.202   1.793   3.527 -0.7180  0.6614  1.6736
  126ACOH    H2 9907   5.376   1.809   3.561  0.4301 -1.1944 -0.0905
  126ACOH    H3 9908   5.291   1.669   3.611  1.6783  0.3458 -0.4558
  127ACOH    H4 9909   4.675   6.260   2.405  0.5150  0.1148 -0.2859
  127ACOH    O2 9910   4.739   6.332   2.415  0.2080  0.2732  0.5433
  127ACOH    C2 9911   4.718   6.383   2.538 -0.4327  0.2058 -0.0266
  127ACOH    O1 9912   4.636   6.343   2.615 -0.9447  0.2102 -0.6928
  127ACOH    C1 9913   4.799   6.503   2.563  0.2700 -0.1249  0.3026
  127ACOH    H1 9914   4.731   6.587   2.573  1.9116  1.5926 -2.3416
  127ACOH    H2 9915   4.867   6.526   2.481  0.1714 -1.3602 -0.1405
  127ACOH    H3 9916   4.850   6.499   2.659  0.3882  1.6336  0.3340
  128ACOH    H4 9917   4.286   3.577   2.818  2.2584  0.7727 -1.1529
  128ACOH    O2 9918   4.322   3.639   2.883  0.6649  0.4076  0.1011
  128ACOH    C2 9919   4.322   3.758   2.823  0.2281  0.3897  0.1685
  128ACOH    O1 9920   4.275   3.778   2.709  0.1337  0.6342 -0.0633
  128ACOH    C1 9921   4.348   3.870   2.913  0.0795 -0.4287  0.1646
  128ACOH    H1 9922   4.449   3.905   2.893 -0.4215 -0.8900 -3.5970
  128ACOH    H2 9923   4.333   3.846   3.018  0.2907  0.0471  0.3065
  128ACOH    H3 9924   4.281   3.953   2.890 -3.3438 -2.4618  2.3043
  132ACOH    H4 9925   7.995   4.298   3.454  0.2501 -1.3777  0.0032
  132ACOH    O2 9926   7.933   4.237   3.497  0.0248 -0.6465  0.7293
  132ACOH    C2 9927   8.005   4.163   3.584  0.1009  0.1551 -0.0428
  132ACOH    O1 9928   8.126   4.174   3.607  0.1347 -0.1617  0.1321
  132ACOH    C1 9929   7.912   4.087   3.673  0.3154 -0.3340 -1.1687
  132ACOH    H1 9930   7.824   4.146   3.697  1.1442  0.6075 -0.3598
  132ACOH    H2 9931   7.955   4.067   3.771 -0.0513 -0.9745 -1.1407
  132ACOH    H3 9932   7.898   3.992   3.622 -2.1570 -0.1413 -0.9145
  134ACOH    H4 9933   2.975   1.259   3.448 -1.6646  0.2030  0.8039
  134ACOH    O2 9934   2.981   1.182   3.506 -0.5978 -0.3021  0.0286
  134ACOH    C2 9935   3.104   1.128   3.509 -0.1758 -0.4356  0.1345
  134ACOH    O1 9936   3.137   1.033   3.577 -0.1596 -0.2633  0.5928
  134ACOH    C1 9937   3.213   1.196   3.431 -0.0677  0.1474 -0.2632
  134ACOH    H1 9938   3.258   1.125   3.362  0.0537 -0.3980  0.3720
  134ACOH    H2 9939   3.293   1.220   3.500  0.0663  0.3660 -0.4954
  134ACOH    H3 9940   3.174   1.280   3.375 -1.0801  1.3746  2.1875
  135ACOH    H4 9941   4.570   5.244   1.104 -0.2886  1.0815 -0.5103
  135ACOH    O2 9942   4.521   5.186   1.044 -0.4606  0.2891  0.3850
  135ACOH    C2 9943   4.407   5.149   1.098 -0.1317  0.1938 -0.2845
  135ACOH    O1 9944   4.365   5.186   1.209  0.5368 -0.3564  0.1394
  135ACOH    C1 9945   4.325   5.066   1.011 -0.3177 -0.1118 -0.1196
  135ACOH    H1 9946   4.228   5.107   0.985 -0.6184 -2.2393 -2.5538
  135ACOH    H2 9947   4.292   4.971   1.054 -0.8832 -1.3880 -3.2667
  135ACOH    H3 9948   4.379   5.048   0.918 -1.6717  0.0356 -0.9463
  138ACOH    H4 9949   4.606   3.112   3.592  3.5714 -1.3297 -1.5286
  138ACOH    O2 9950   4.663   3.117   3.671  0.4365  0.7064  0.6896
  138ACOH    C2 9951   4.590   3.089   3.777 -0.6151 -0.4964  0.1658
  138ACOH    O1 9952   4.475   3.052   3.789 -0.4511  0.1318  0.0488
  138ACOH    C1 9953   4.683   3.087   3.893  0.2691 -0.2844 -0.0876
  138ACOH    H1 9954   4.717   3.186   3.922 -0.1421 -0.6081  1.5353
  138ACOH    H2 9955   4.771   3.031   3.861 -0.3964  0.4656 -3.4234
  138ACOH    H3 9956   4.641   3.031   3.976 -0.5372  1.6786  0.8760
  139ACOH    H4 9957   6.615   6.713   3.380  0.4345 -0.9565 -1.8755
  139ACOH    O2 9958   6.520   6.723   3.361  0.0253 -0.3617  0.3224
  139ACOH    C2 9959   6.499   6.838   3.301  0.5232 -0.2580 -0.6155
  139ACOH    O1 9960   6.588   6.896   3.240  0.6953 -0.3198  0.0130
  139ACOH    C1 9961   6.358   6.889   3.290  0.3183  0.2899  0.2945
  139ACOH    H1 9962   6.352   6.992   3.324 -1.0376  0.6644 -1.0142
  139ACOH    H2 9963   6.285   6.826   3.341 -0.7304  1.3206  0.0842
  139ACOH    H3 9964   6.328   6.885   3.185  1.1055 -1.2270  0.1029
  140ACOH    H4 9965   5.485   1.966   1.685  0.0000 -0.5381 -0.3629
  140ACOH    O2 9966   5.560   2.024   1.663 -0.7085  0.4287 -0.2761
  140ACOH    C2 9967   5.522   2.147   1.700  0.7235 -0.5849  0.5320
  140ACOH    O1 9968   5.432   2.177   1.778 -0.0009  0.0189 -0.3846
  140ACOH    C1 9969   5.626   2.239   1.657  0.5729 -0.2328 -0.1502
  140ACOH    H1 9970   5.619   2.268   1.552 -1.8214  0.1466  0.0959
  140ACOH    H2 9971   5.724   2.197   1.677 -0.6364 -2.8390  0.5351
  140ACOH    H3 9972   5.622   2.328   1.719 -2.1119  1.1669 -2.2015
  144ACOH    H4 9973   3.850   5.670   1.260  0.7063  0.5042 -0.1652
  144ACOH    O2 9974   3.941   5.637   1.269  0.5098  0.0406  0.1438
  144ACOH    C2 9975   4.004   5.712   1.363 -0.1280 -0.3776 -0.0830
  144ACOH    O1 9976   3.955   5.811   1.414  0.4975  0.0122  0.5225
  144ACOH    C1 9977   4.145   5.667   1.385  0.2971  0.4736  0.2735
  144ACOH    H1 9978   4.163   5.672   1.493 -0.4131 -1.2525  0.4836
  144ACOH    H2 9979   4.222   5.731   1.342  2.9506 -1.9495  1.2225
  144ACOH    H3 9980   4.158   5.566   1.349  0.6147  0.5424  0.1956
  145ACOH    H4 9981   4.943   6.617   3.454 -0.1345 -0.0135  0.8974
  145ACOH    O2 9982   5.010   6.668   3.501  0.0363  0.4158  0.1921
  145ACOH    C2 9983   5.098   6.727   3.415  1.1357  0.3462 -0.0959
  145ACOH    O1 9984   5.146   6.671   3.320  0.4684 -0.0188  0.0440
  145ACOH    C1 9985   5.152   6.846   3.478  0.4728  0.1003 -0.1015
  145ACOH    H1 9986   5.136   6.839   3.586  0.6585 -3.6204 -0.2626
  145ACOH    H2 9987   5.088   6.924   3.436  0.8851  0.7763  0.5097
  145ACOH    H3 9988   5.257   6.868   3.457  1.0577 -1.4469  1.1465
  146ACOH    H4 9989   3.307   5.962   1.077  0.4856  0.6936 -1.1201
  146ACOH    O2 9990   3.329   6.029   1.144  0.4682 -0.3332 -0.0947
  146ACOH    C2 9991   3.299   6.148   1.098 -0.4555 -1.5878  1.1740
  146ACOH    O1 9992   3.246   6.173   0.992  0.4928 -0.6279 -0.1307
  146ACOH    C1 9993   3.297   6.245   1.208  0.1240  0.1733 -0.5947
  146ACOH    H1 9994   3.395   6.242   1.256 -0.7166 -1.2765  1.0935
  146ACOH    H2 9995   3.226   6.219   1.286  0.8208 -0.5051 -0.1798
  146ACOH    H3 9996   3.273   6.346   1.176  2.1731  1.3586  1.4854
  147ACOH    H4 9997   6.471   1.241   2.821  0.8905  0.9277 -0.0859
  147ACOH    O2 9998   6.434   1.298   2.891 -0.1877 -0.0033  0.1278
  147ACOH    C2 9999   6.297   1.278   2.894 -0.1509  0.4084 -1.3142
  147ACOH    O110000   6.233   1.181   2.848  0.2180  0.4911  0.1323
  147ACOH    C110001   6.231   1.376   2.976 -0.3967  0.1445  0.4097
  147ACOH    H110002   6.186   1.330   3.064  1.0532  1.1463  1.7093
  147ACOH    H210003   6.156   1.426   2.915  0.6001 -1.2155 -2.0069
  147ACOH    H310004   6.310   1.446   3.004 -0.5554  0.9203 -1.0493
  149ACOH    H410005   5.837   4.980   1.421  0.8899  1.0004  1.8042
  149ACOH    O210006   5.903   4.911   1.440 -0.1613 -0.4048  0.4646
  149ACOH    C210007   5.868   4.810   1.360 -0.2861  0.3785 -0.5264
  149ACOH    O110008   5.769   4.803   1.290  0.6345  0.6000  0.0767
  149ACOH    C110009   5.965   4.705   1.367 -0.2988 -0.2160  0.2205
  149ACOH    H110010   6.047   4.732   1.433 -1.6717  0.4644  1.6665
  149ACOH    H210011   6.007   4.695   1.267  1.5365  1.9206  0.7385
  149ACOH    H310012   5.914   4.617   1.406  1.7137 -0.2968  2.8170
  150ACOH    H410013   7.181   1.847   2.894 -0.5679  2.6715 -0.4306
  150ACOH    O210014   7.086   1.831   2.886 -0.0563 -0.5834 -0.9033
  150ACOH    C210015   7.040   1.803   3.009 -0.6377  0.8918  0.3291
  150ACOH    O110016   7.113   1.799   3.110  0.4909  0.0919 -0.8251
  150ACOH    C110017   6.901   1.751   2.995 -0.2697  0.1811 -0.1894
  150ACOH    H110018   6.847   1.786   3.083 -0.2724 -1.1285  0.3359
  150ACOH    H210019   6.914   1.643   2.987  0.1699  0.3108 -1.4255
  150ACOH    H310020   6.863   1.793   2.902 -2.3761 -1.9549 -0.3448
  152ACOH    H410021   7.968   5.507   1.238  1.3396  0.3026 -1.7628
  152ACOH    O210022   7.947   5.588   1.287 -0.0373 -0.6416 -0.7639
  152ACOH    C210023   8.043   5.591   1.380 -0.4929 -0.5717 -0.5120
  152ACOH    O110024   8.129   5.510   1.409  0.1832 -0.8087 -0.2366
  152ACOH    C110025   8.036   5.719   1.452  0.7287  0.0008  0.0554
  152ACOH    H110026   8.112   5.741   1.527  0.1008  4.5742 -0.4985
  152ACOH    H210027   7.935   5.733   1.491  0.2764  0.3264 -1.1986
  152ACOH    H310028   8.031   5.795   1.373 -0.6211  1.0939  1.1689
  153ACOH    H410029   8.309   4.896   3.497 -0.5353  1.1918 -0.4410
  153ACOH    O210030   8.325   4.927   3.588 -0.3323  0.1009 -0.1005
  153ACOH    C210031   8.337   5.061   3.586  0.1061 -0.2353 -0.0946
  153ACOH    O110032   8.331   5.136   3.488 -0.2425 -0.2867 -0.2372
  153ACOH    C110033   8.340   5.108   3.726  0.1148  0.0749 -0.6709
  153ACOH    H110034   8.435   5.162   3.730  0.4237 -0.4443 -0.9817
  153ACOH    H210035   8.345   5.018   3.787  0.9454  0.1793 -0.5808
  153ACOH    H310036   8.258   5.175   3.753  1.3801  1.9155 -1.2559
  154ACOH    H410037   8.037   7.019  -0.128  1.0497  0.8367 -0.3414
  154ACOH    O210038   7.998   7.038  -0.041 -0.3007  0.4978 -0.8651
  154ACOH    C210039   8.051   7.157   0.007 -0.1927  0.1926 -0.4622
  154ACOH    O110040   8.104   7.239  -0.059 -0.5326 -0.0620 -0.0640
  154ACOH    C110041   8.035   7.167   0.156  0.0961  1.0441 -0.3235
  154ACOH    H110042   8.110   7.104   0.203 -1.0278  0.7670  1.1480
  154ACOH    H210043   7.936   7.127   0.179  0.1757  1.6536  1.1792
  154ACOH    H310044   8.051   7.269   0.190 -0.9090  1.4999 -1.1801
  155ACOH    H410045   2.681   8.337   3.165 -2.2344 -0.1305 -0.7199
  155ACOH    O210046   2.693   8.241   3.168 -0.2141  0.1107 -0.3424
  155ACOH    C210047   2.732   8.202   3.045 -0.0430  0.4355 -0.6480
  155ACOH    O110048   2.765   8.273   2.948 -0.1615  0.1934  0.7271
  155ACOH    C110049   2.701   8.054   3.029  1.0189 -0.2272  0.2460
  155ACOH    H110050   2.700   8.017   2.927  0.4508 -0.5080  0.3529
  155ACOH    H210051   2.599   8.037   3.064  0.9899 -1.1763 -0.3134
  155ACOH    H310052   2.767   7.992   3.089  0.5356  0.5529  1.6232
  156ACOH    H410053   5.737   9.973   0.817 -0.6839  1.6431 -0.8549
  156ACOH    O210054   5.816   9.971   0.761 -0.2174  0.6742 -0.1791
  156ACOH    C210055   5.871   9.847   0.768 -0.3167  0.4424 -0.2397
  156ACOH    O110056   5.874   9.772   0.862 -0.6549  0.2114 -0.0541
  156ACOH    C110057   5.965   9.828   0.658 -0.4239 -0.6901 -0.0663
  156ACOH    H110058   5.929   9.745   0.597 -2.2023  1.4567 -1.9864
  156ACOH    H210059   6.064   9.813   0.702 -1.3431  0.8512  2.6307
  156ACOH    H310060   5.971   9.914   0.592 -0.8162 -0.2279  0.5082
  157ACOH    H410061   4.003   6.354   2.739 -1.6121 -2.1944 -1.4670
  157ACOH    O210062   3.967   6.418   2.675  0.3687  0.5631  0.0829
  157ACOH    C210063   4.066   6.501   2.640  0.1378 -0.2312  0.6439
  157ACOH    O110064   4.175   6.507   2.691 -1.1464 -0.3875 -0.1992
  157ACOH    C110065   4.023   6.598   2.531 -0.0426 -0.5337  0.2411
  157ACOH    H110066   4.114   6.647   2.495  0.5566 -1.2428  0.7656
  157ACOH    H210067   3.957   6.670   2.577  0.5737  0.3810 -0.2760
  157ACOH    H310068   3.965   6.545   2.455  1.8418 -1.4241 -0.6115
  158ACOH    H410069   5.180   1.368   1.481 -1.4104 -0.9364 -0.3458
  158ACOH    O210070   5.205   1.288   1.530  0.4875 -0.0074  0.2670
  158ACOH    C210071   5.224   1.320   1.656  0.0653 -0.2438  0.2111
  158ACOH    O110072   5.159   1.406   1.710 -0.2302  0.0396 -0.0603
  158ACOH    C110073   5.293   1.216   1.740  0.0930  0.2633 -0.7108
  158ACOH    H110074   5.401   1.228   1.735  0.1986  1.1282  2.2462
  158ACOH    H210075   5.272   1.114   1.707 -0.9305  0.0715  0.4715
  158ACOH    H310076   5.269   1.229   1.846 -1.6951 -0.7674 -0.9592
  159ACOH    H410077   5.232   1.648   1.925  0.4729  1.2504  0.8478
  159ACOH    O210078   5.294   1.649   2.000  0.7474  0.8344  0.6257
  159ACOH    C210079   5.270   1.758   2.077 -0.5128  0.1932 -0.3984
  159ACOH    O110080   5.217   1.864   2.045 -0.0959  0.4649  0.5750
  159ACOH    C110081   5.344   1.757   2.204  0.2248  0.7857  0.2997
  159ACOH    H110082   5.374   1.658   2.237 -0.3868 -0.0501 -1.5984
  159ACOH    H210083   5.279   1.800   2.281 -1.9886  0.2920 -1.2330
  159ACOH    H310084   5.438   1.812   2.196  0.9294 -0.4836 -0.1735
  161ACOH    H410085   8.953   1.566   1.554  0.4020  0.6490  0.3396
  161ACOH    O210086   8.876   1.602   1.601  0.0289  0.9505 -0.4828
  161ACOH    C210087   8.826   1.507   1.683  0.2665  0.3021  0.3800
  161ACOH    O110088   8.899   1.432   1.745 -0.2147 -0.4009  0.3128
  161ACOH    C110089   8.690   1.534   1.738  0.1023  0.3039  0.5174
  161ACOH    H110090   8.692   1.601   1.824  2.3881  0.0624  0.6721
  161ACOH    H210091   8.643   1.440   1.765  0.6348  0.3173  1.5088
  161ACOH    H310092   8.624   1.576   1.662  1.5007  0.3456 -0.6874
  164ACOH    H410093   7.906   6.661   0.822  0.0836 -1.3535 -0.2507
  164ACOH    O210094   7.832   6.634   0.767 -0.2867 -0.2015 -0.3376
  164ACOH    C210095   7.835   6.498   0.778  0.6127 -0.5384 -0.5255
  164ACOH    O110096   7.897   6.431   0.861  0.0372 -0.1940 -0.3987
  164ACOH    C110097   7.735   6.439   0.688  0.4609  0.4674 -0.1634
  164ACOH    H110098   7.657   6.378   0.733  0.2559  0.9934  0.2053
  164ACOH    H210099   7.787   6.379   0.613  1.8608 -2.7338  3.2604
  164ACOH    H310100   7.685   6.522   0.638  1.0525  0.6415 -0.4799
  165ACOH    H410101   6.246   8.299   3.790  4.2292 -1.7414  0.4374
  165ACOH    O210102   6.215   8.242   3.862  0.1161 -0.0124  0.1562
  165ACOH    C210103   6.215   8.122   3.799  0.0127  0.7899 -0.6267
  165ACOH    O110104   6.267   8.091   3.694 -0.0992  0.1395 -0.2512
  165ACOH    C110105   6.155   8.020   3.894  0.4360 -0.6937 -0.3009
  165ACOH    H110106   6.095   8.074   3.967  2.9450  2.4047 -0.4616
  165ACOH    H210107   6.243   7.969   3.933  0.9933  0.9904  0.6656
  165ACOH    H310108   6.090   7.947   3.845 -1.4240 -0.4524  1.7392
  166ACOH    H410109   4.219   6.113   3.328  2.8917  1.0039 -2.9071
  166ACOH    O210110   4.251   6.022   3.333  0.1075  0.0942  0.0528
  166ACOH    C210111   4.161   5.939   3.395  0.9262 -0.1914  0.2254
  166ACOH    O110112   4.059   5.979   3.450  0.3991  0.1717  0.4543
  166ACOH    C110113   4.224   5.809   3.395  0.0647 -0.4268  0.1483
  166ACOH    H110114   4.331   5.819   3.377 -0.3442 -0.4993 -2.4678
  166ACOH    H210115   4.182   5.749   3.315  0.0559  1.4090 -1.2606
  166ACOH    H310116   4.210   5.768   3.495 -0.6026 -0.5157  0.0205
  167ACOH    H410117   2.102   9.368   1.548  2.3310 -0.1938  0.6320
  167ACOH    O210118   2.091   9.280   1.509  0.1021  0.4189 -0.2230
  167ACOH    C210119   1.990   9.216   1.569 -0.1137  0.2467  0.6410
  167ACOH    O110120   1.935   9.261   1.667 -0.1456 -0.7989 -0.5039
  167ACOH    C110121   1.940   9.097   1.489 -0.2540 -0.9234 -0.4481
  167ACOH    H110122   1.991   9.103   1.393  1.6340  0.1186  0.5721
  167ACOH    H210123   1.835   9.106   1.460 -0.9361 -2.9620  1.3024
  167ACOH    H310124   1.956   9.008   1.549  1.6041  0.6000  1.3856
  168ACOH    H410125   5.830   7.018   3.314  1.6437  0.1444 -0.2802
  168ACOH    O210126   5.843   6.922   3.309  0.2936 -0.0617 -0.0430
  168ACOH    C210127   5.956   6.892   3.240 -0.2111 -0.0599  0.6862
  168ACOH    O110128   6.044   6.969   3.200 -0.3895  0.1660 -0.1915
  168ACOH    C110129   5.963   6.749   3.220  0.2160 -0.2157 -0.2498
  168ACOH    H110130   5.943   6.712   3.320 -0.2958 -1.7655 -0.9100
  168ACOH    H210131   6.053   6.713   3.172 -0.8160 -0.0134 -2.4141
  168ACOH    H310132   5.874   6.728   3.160 -0.5062 -2.1854  1.4695
  169ACOH    H410133   2.025   1.595   4.811  0.5198 -1.9281 -0.9983
  169ACOH    O210134   2.118   1.624   4.822 -0.1828  0.1142 -0.1252
  169ACOH    C210135   2.143   1.730   4.740  0.3275  0.3881 -0.0746
  169ACOH    O110136   2.077   1.760   4.641  0.8954  0.3115 -0.2598
  169ACOH    C110137   2.273   1.789   4.763 -0.6391  0.4065 -0.0608
  169ACOH    H110138   2.311   1.756   4.860 -2.2464 -0.7017  0.2261
  169ACOH    H210139   2.265   1.898   4.760 -3.2252  0.2979  0.8955
  169ACOH    H310140   2.343   1.762   4.685 -1.4715 -1.6562 -0.1314
  170ACOH    H410141   9.720   3.377   0.194  2.8014 -1.8446  0.9163
  170ACOH    O210142   9.728   3.366   0.097 -0.0323 -0.7384  0.5158
  170ACOH    C210143   9.632   3.427   0.031 -0.5577  0.5117  0.3539
  170ACOH    O110144   9.558   3.512   0.076 -0.3104  0.2948 -0.0157
  170ACOH    C110145   9.620   3.383  -0.109  0.3990  0.2520 -0.2354
  170ACOH    H110146   9.719   3.393  -0.154  1.0569  3.6866  1.7682
  170ACOH    H210147   9.551   3.446  -0.164  0.9773  1.1444  0.0521
  170ACOH    H310148   9.594   3.277  -0.113  1.1898  0.0867 -1.3768
  172ACOH    H410149   1.714   8.970   1.985 -1.1198 -1.1459 -0.4940
  172ACOH    O210150   1.666   9.005   1.908 -0.4816  0.6385 -0.1018
  172ACOH    C210151   1.746   8.980   1.801 -0.1230 -0.1920 -0.3824
  172ACOH    O110152   1.866   8.951   1.803 -0.2623 -0.2728  0.7105
  172ACOH    C110153   1.666   8.971   1.681 -0.4745  0.1612 -0.4681
  172ACOH    H110154   1.726   8.954   1.592 -1.1559  2.7543 -1.4905
  172ACOH    H210155   1.606   9.061   1.664  2.0872  2.2160  1.1023
  172ACOH    H310156   1.600   8.884   1.682  0.3631 -0.4875 -1.1171
  173ACOH    H410157   2.400   0.934   1.866  1.2320 -0.8226 -0.0889
  173ACOH    O210158   2.435   1.002   1.926 -0.5190  0.0328  0.0131
  173ACOH    C210159   2.506   0.935   2.017  0.1810  0.2938  0.3657
  173ACOH    O110160   2.511   0.816   2.045 -0.4196 -0.3593  0.7260
  173ACOH    C110161   2.561   1.017   2.127  0.0518 -0.0143  0.1367
  173ACOH    H110162   2.531   0.984   2.227 -0.3052 -0.5650 -0.1484
  173ACOH    H210163   2.542   1.124   2.123  1.6451  0.2817  0.1840
  173ACOH    H310164   2.669   1.007   2.120  0.1272  1.0625 -0.4162
  174ACOH    H410165   9.420   8.097   4.557  0.2732 -0.5208  0.3225
  174ACOH    O210166   9.425   8.065   4.649 -0.2139  0.0037  0.5340
  174ACOH    C210167   9.500   8.148   4.717 -0.5641 -0.1442 -0.0988
  174ACOH    O110168   9.562   8.240   4.673  0.0463 -0.0793  0.4148
  174ACOH    C110169   9.506   8.096   4.858  0.0663 -0.3594  0.2396
  174ACOH    H110170   9.569   8.153   4.926  0.5414  1.3677 -1.5870
  174ACOH    H210171   9.547   7.995   4.856  0.6649 -0.1254  0.4226
  174ACOH    H310172   9.408   8.091   4.904  0.3930 -0.9149  0.8743
  175ACOH    H410173   8.496   3.715   2.436  0.2641 -2.2116  0.1634
  175ACOH    O210174   8.555   3.751   2.504 -1.0296  0.2970  0.0093
  175ACOH    C210175   8.531   3.878   2.540 -0.1805  0.2852 -0.7269
  175ACOH    O110176   8.447   3.950   2.489  0.3299  0.3920 -0.9529
  175ACOH    C110177   8.620   3.930   2.649 -0.0612 -0.4365 -0.5167
  175ACOH    H110178   8.684   3.850   2.686  0.9245  0.3239 -0.5902
  175ACOH    H210179   8.568   3.966   2.738  0.4074  0.4998 -0.6201
  175ACOH    H310180   8.688   4.005   2.610  0.6254 -0.8324 -0.0999
  176ACOH    H410181   7.563   8.329   0.920 -1.7794  1.3232  2.8188
  176ACOH    O210182   7.553   8.241   0.960 -0.7502 -0.0530  0.1766
  176ACOH    C210183   7.601   8.146   0.879 -0.2486  0.2408  0.5402
  176ACOH    O110184   7.636   8.161   0.765 -0.1164 -0.2253  0.0004
  176ACOH    C110185   7.616   8.008   0.940 -0.9842  0.0492  0.6489
  176ACOH    H110186   7.535   8.000   1.012 -0.8200  1.3910  1.0106
  176ACOH    H210187   7.709   7.992   0.995 -0.7680 -0.5634  0.1035
  176ACOH    H310188   7.615   7.932   0.862 -1.0029  1.1725 -0.4765
  177ACOH    H410189   8.129   7.808   0.766 -2.2532 -0.5257  0.8566
  177ACOH    O210190   8.073   7.828   0.690 -0.3740  0.1512 -0.3756
  177ACOH    C210191   8.005   7.945   0.721  0.1624 -0.0411 -0.1495
  177ACOH    O110192   7.991   7.981   0.837  0.0219  0.0181  0.0974
  177ACOH    C110193   7.942   8.029   0.618 -0.2692  1.1434 -0.0955
  177ACOH    H110194   8.002   8.118   0.598  0.2354  0.9202  0.4171
  177ACOH    H210195   7.841   8.060   0.646 -2.1030 -2.1887 -2.6700
  177ACOH    H310196   7.940   7.980   0.521 -0.3024  0.1157  0.4168
  178ACOH    H410197   3.448   3.706   3.792 -1.0640 -0.5354 -0.4198
  178ACOH    O210198   3.395   3.780   3.757  0.0571  0.4199 -0.1324
  178ACOH    C210199   3.339   3.838   3.858 -0.6741 -0.8001 -0.3712
  178ACOH    O110200   3.360   3.814   3.974 -0.8269 -0.1655 -0.5566
  178ACOH    C110201   3.250   3.947   3.810 -0.3223  0.8091  0.0704
  178ACOH    H110202   3.161   3.947   3.874 -0.1851 -1.8372  0.3154
  178ACOH    H210203   3.207   3.936   3.710 -0.1735 -1.0571  0.1962
  178ACOH    H310204   3.297   4.044   3.825 -1.0726  0.8736  2.1786
  179ACOH    H410205   8.270   3.892   2.023  0.9141 -0.1394  0.4116
  179ACOH    O210206   8.247   3.983   2.051 -0.0354 -0.2268 -0.0583
  179ACOH    C210207   8.176   4.050   1.962 -0.0274 -0.5118 -0.3557
  179ACOH    O110208   8.155   4.020   1.844 -0.2590 -0.3599  0.2047
  179ACOH    C110209   8.135   4.182   2.014  0.1410  0.0894 -0.1231
  179ACOH    H110210   8.047   4.176   2.079  0.6046 -0.4022  0.4612
  179ACOH    H210211   8.118   4.250   1.931  1.9388 -0.9104 -1.3325
  179ACOH    H310212   8.219   4.221   2.070 -0.4064 -1.6843  2.0312
  181ACOH    H410213   6.321   9.450   0.963 -0.6692  1.7296  0.9269
  181ACOH    O210214   6.314   9.392   1.041 -0.5968  0.1071 -0.2323
  181ACOH    C210215   6.434   9.396   1.104  0.1375 -0.3280 -0.6570
  181ACOH    O110216   6.539   9.388   1.042 -0.1607  0.0537 -0.3318
  181ACOH    C110217   6.424   9.370   1.246  0.2849 -0.4198 -0.2672
  181ACOH    H110218   6.362   9.448   1.291  0.1576 -0.1517 -0.9031
  181ACOH    H210219   6.522   9.366   1.294 -0.1928  0.8991  0.8596
  181ACOH    H310220   6.376   9.274   1.266  2.0443 -1.1127  0.8064
  182ACOH    H410221   8.230   3.130   2.622  0.0288 -0.0471 -2.2641
  182ACOH    O210222   8.167   3.057   2.613 -0.6090  0.1054  0.4682
  182ACOH    C210223   8.073   3.087   2.526 -0.0016 -0.1819 -0.0232
  182ACOH    O110224   8.065   3.190   2.461  0.3742 -0.7897  0.0090
  182ACOH    C110225   7.963   2.989   2.515 -0.0724  0.1767  0.1158
  182ACOH    H110226   7.920   2.965   2.613 -0.2077  1.1393  0.3018
  182ACOH    H210227   8.012   2.900   2.475  2.5661  2.1984 -1.3319
  182ACOH    H310228   7.883   3.027   2.452 -0.7057  0.2486  0.9428
  183ACOH    H410229   9.506   5.033   3.382 -2.1383 -1.5606 -3.2726
  183ACOH    O210230   9.431   5.047   3.442  0.2013  0.2165 -0.6998
  183ACOH    C210231   9.490   5.034   3.565 -0.3593  0.6131 -0.2065
  183ACOH    O110232   9.608   5.044   3.593  0.5024  0.0564  0.2314
  183ACOH    C110233   9.385   5.001   3.667  1.3361 -0.0542 -0.3754
  183ACOH    H110234   9.304   5.073   3.658  0.6622 -0.4963  1.9767
  183ACOH    H210235   9.402   4.988   3.774 -3.3220 -0.0470  0.4593
  183ACOH    H310236   9.360   4.904   3.625  0.2879  0.1606 -0.2716
  184ACOH    H410237   6.573   1.257   2.511  0.4827 -0.6104 -3.3268
  184ACOH    O210238   6.486   1.276   2.471 -0.5937  0.2752 -0.6945
  184ACOH    C210239   6.438   1.399   2.512 -0.0202  0.2271 -0.3476
  184ACOH    O110240   6.492   1.484   2.587 -0.1553 -0.2791  0.3690
  184ACOH    C110241   6.298   1.411   2.466  0.0069  0.3979 -0.1577
  184ACOH    H110242   6.303   1.431   2.359  1.7871  0.5486 -0.0584
  184ACOH    H210243   6.257   1.502   2.511  1.0088  1.7487 -1.9241
  184ACOH    H310244   6.237   1.323   2.487  1.1290 -0.1416  0.9040
  186ACOH    H410245   4.652   5.279   2.228 -2.4688  0.7226  0.1172
  186ACOH    O210246   4.651   5.211   2.298 -0.1795  0.4493 -0.0840
  186ACOH    C210247   4.582   5.255   2.400 -0.3528  1.0654  0.5238
  186ACOH    O110248   4.539   5.367   2.417 -0.2193  0.0962  0.4719
  186ACOH    C110249   4.544   5.136   2.480  0.9090 -0.0555  0.0275
  186ACOH    H110250   4.604   5.144   2.570  0.1914 -0.0584  0.5102
  186ACOH    H210251   4.582   5.046   2.430  1.2441 -0.5735  1.2014
  186ACOH    H310252   4.437   5.133   2.500  0.7726  2.0577 -0.2962
  187ACOH    H410253   4.168   7.364   1.110  0.7308  1.7378 -0.4111
  187ACOH    O210254   4.136   7.314   1.033 -0.1532  0.0670  1.0175
  187ACOH    C210255   4.183   7.379   0.926  0.0935  0.0813  0.3360
  187ACOH    O110256   4.233   7.488   0.921  0.4744  0.2220 -0.1406
  187ACOH    C110257   4.170   7.291   0.805  0.4063  0.1246  0.3434
  187ACOH    H110258   4.069   7.253   0.788  1.0720 -0.8378 -1.5684
  187ACOH    H210259   4.237   7.205   0.811 -2.1848 -1.8955  1.2314
  187ACOH    H310260   4.200   7.359   0.726 -0.1573  0.3749  0.3404
  188ACOH    H410261   7.949   0.846   0.606  2.4938  0.5673  1.0527
  188ACOH    O210262   7.951   0.904   0.527  0.6302 -0.1663  0.4309
  188ACOH    C210263   7.893   1.024   0.556 -0.3677 -0.3335 -1.1044
  188ACOH    O110264   7.848   1.056   0.662 -0.2337 -0.5411 -0.3262
  188ACOH    C110265   7.909   1.120   0.445  0.5642  0.5594 -0.0179
  188ACOH    H110266   7.947   1.065   0.360 -0.2202  1.3788 -0.9080
  188ACOH    H210267   7.981   1.197   0.471  1.0689  0.9880 -2.5793
  188ACOH    H310268   7.812   1.160   0.414 -1.0086 -0.3166  3.3942
  189ACOH    H410269   8.031   9.950   3.906 -0.6621 -2.3948 -0.4595
  189ACOH    O210270   8.119   9.926   3.940 -0.2262 -0.5609 -0.2632
  189ACOH    C210271   8.167   9.832   3.862  0.3548  0.0840  0.4402
  189ACOH    O110272   8.103   9.741   3.814  0.6936  0.0732 -0.2232
  189ACOH    C110273   8.305   9.819   3.905  0.2210  0.2920 -0.8131
  189ACOH    H110274   8.351   9.918   3.913 -0.0675  0.5498 -2.1873
  189ACOH    H210275   8.357   9.761   3.830 -0.6588  0.5811 -1.6655
  189ACOH    H310276   8.304   9.763   3.999  4.0670 -1.6937 -1.9010
  190ACOH    H410277   8.204   4.595   1.349  1.8142  0.3001 -1.0105
  190ACOH    O210278   8.156   4.620   1.268  0.2271  0.3542 -0.0655
  190ACOH    C210279   8.168   4.512   1.185 -0.0462  0.5470  0.4371
  190ACOH    O110280   8.259   4.429   1.182 -0.0152 -0.6598 -0.0960
  190ACOH    C110281   8.108   4.550   1.052 -0.5538  0.6359 -0.0195
  190ACOH    H110282   8.104   4.460   0.990 -1.3587 -0.9634  2.3163
  190ACOH    H210283   8.174   4.623   1.004 -2.3859  1.6794 -0.9989
  190ACOH    H310284   8.006   4.585   1.067 -0.3610  1.3337 -0.2963
  191ACOH    H410285   5.089   4.492   1.126  1.2607 -0.9721 -1.7082
  191ACOH    O210286   5.073   4.412   1.178 -0.1452  0.5940  0.3481
  191ACOH    C210287   5.113   4.301   1.105  0.0654 -0.0998  0.6674
  191ACOH    O110288   5.160   4.305   0.995 -0.0956  0.5705  0.8652
  191ACOH    C110289   5.095   4.179   1.183 -0.5184 -0.3921  0.3557
  191ACOH    H110290   5.169   4.196   1.262 -2.3615 -0.3448  2.1264
  191ACOH    H210291   5.116   4.091   1.122  0.5561 -0.1076  0.3165
  191ACOH    H310292   4.994   4.181   1.224 -0.7246  2.6198 -0.1901
  192ACOH    H410293   5.132   3.844   1.002  0.4152 -0.8075  0.7949
  192ACOH    O210294   5.216   3.893   1.002 -0.0789  0.0528  0.0183
  192ACOH    C210295   5.322   3.814   0.987  0.4122 -0.0763 -0.3630
  192ACOH    O110296   5.316   3.695   0.980 -0.0900 -0.3905 -0.3622
  192ACOH    C110297   5.451   3.882   0.961  0.0237 -0.0254 -0.5452
  192ACOH    H110298   5.477   3.871   0.856 -0.4845 -0.8932 -0.5793
  192ACOH    H210299   5.526   3.840   1.028 -1.7910 -2.6734 -0.1154
  192ACOH    H310300   5.427   3.987   0.982 -2.3367 -0.8518  1.1460
  193ACOH    H410301   4.905   5.447   1.528 -0.6991  0.0410 -1.6414
  193ACOH    O210302   4.900   5.536   1.566  0.6245 -0.2397 -0.7802
  193ACOH    C210303   4.794   5.597   1.515  0.6265  0.6670 -0.0920
  193ACOH    O110304   4.709   5.544   1.449  0.2654 -0.0321 -0.2937
  193ACOH    C110305   4.787   5.735   1.552  0.5284 -0.1532 -0.0193
  193ACOH    H110306   4.686   5.769   1.574  0.5890 -1.1001  1.7596
  193ACOH    H210307   4.826   5.789   1.466 -1.5401 -1.6777 -1.9730
  193ACOH    H310308   4.852   5.751   1.639 -1.6141 -4.1003  2.4310
  195ACOH    H410309   7.767   6.448   2.759  0.2273 -1.2564 -1.5841
  195ACOH    O210310   7.863   6.461   2.752  0.2232  0.3260  0.8539
  195ACOH    C210311   7.890   6.582   2.705  0.1445 -0.1997  0.0395
  195ACOH    O110312   7.817   6.676   2.691  0.1252 -0.2643  1.5780
  195ACOH    C110313   8.026   6.597   2.655  0.2555 -0.1447 -0.2810
  195ACOH    H110314   8.082   6.511   2.691  1.4955  0.3282 -1.0366
  195ACOH    H210315   8.074   6.688   2.691  0.0954 -0.2253  0.1434
  195ACOH    H310316   8.017   6.596   2.547 -0.6143  0.8235 -0.2321
  196ACOH    H410317   5.568   9.145   3.925 -0.0949 -0.4457 -0.2189
  196ACOH    O210318   5.553   9.081   3.854 -0.3166 -0.7717  0.1188
  196ACOH    C210319   5.554   8.952   3.901  0.0397 -0.1325 -0.6022
  196ACOH    O110320   5.606   8.905   4.002  0.0448 -0.4059  0.0103
  196ACOH    C110321   5.517   8.863   3.796 -0.0987  0.8930  0.5790
  196ACOH    H110322   5.611   8.830   3.751  0.3660  0.9040  1.5234
  196ACOH    H210323   5.462   8.915   3.718  1.5598  1.6791 -0.0857
  196ACOH    H310324   5.467   8.776   3.837  2.0033 -0.4867  0.2744
  197ACOH    H410325   7.388   1.241   2.973 -0.3817  1.1916 -1.6549
  197ACOH    O210326   7.481   1.233   2.947  0.1071  0.4546  0.1695
  197ACOH    C210327   7.568   1.282   3.045 -0.4470  0.9328  0.1693
  197ACOH    O110328   7.542   1.350   3.143 -0.7724 -0.0421  0.0279
  197ACOH    C110329   7.706   1.255   2.996  0.3843  0.1180  0.1279
  197ACOH    H110330   7.743   1.174   3.058 -1.0412 -0.4720  0.2293
  197ACOH    H210331   7.760   1.346   3.021  2.4914 -0.1341 -3.2018
  197ACOH    H310332   7.702   1.238   2.888  0.3228  0.4362  0.0763
  198ACOH    H410333   7.394   1.280   3.511  0.9189 -0.4958 -1.2651
  198ACOH    O210334   7.319   1.279   3.450  0.0783  0.0502 -0.2708
  198ACOH    C210335   7.291   1.407   3.418 -0.5553  0.2014  0.1312
  198ACOH    O110336   7.355   1.504   3.449  0.3129 -0.0372  0.7325
  198ACOH    C110337   7.166   1.433   3.343 -0.5515 -0.5920 -0.1681
  198ACOH    H110338   7.095   1.500   3.392 -2.0071 -2.2413  0.0465
  198ACOH    H210339   7.109   1.343   3.320 -0.9363 -1.0854  2.6242
  198ACOH    H310340   7.188   1.467   3.242 -0.4511  0.8012  0.3114
  199ACOH    H410341   7.321   0.121   1.880  0.1615 -1.7743 -0.0959
  199ACOH    O210342   7.235   0.116   1.835  0.0968 -0.6883 -0.1139
  199ACOH    C210343   7.262   0.095   1.703 -0.5988 -0.4837 -0.3228
  199ACOH    O110344   7.370   0.062   1.654  0.5660 -0.0579 -0.2806
  199ACOH    C110345   7.145   0.081   1.629  0.4073 -0.2471  0.3020
  199ACOH    H110346   7.094   0.177   1.630 -0.9405 -0.9591  1.6720
  199ACOH    H210347   7.078   0.007   1.673 -1.4270  1.4535  0.4126
  199ACOH    H310348   7.177   0.049   1.529 -0.9643  1.6562 -0.7725
  200ACOH    H410349   7.854   8.761   0.721  0.6881  0.6722  0.8639
  200ACOH    O210350   7.824   8.849   0.692  0.1125  0.0386 -0.5073
  200ACOH    C210351   7.687   8.837   0.673 -0.9522 -0.0800 -0.0539
  200ACOH    O110352   7.629   8.734   0.697 -0.5454  0.2371  0.3064
  200ACOH    C110353   7.628   8.965   0.622  0.6472  0.5407 -0.2884
  200ACOH    H110354   7.519   8.965   0.623  0.6035  2.2759 -1.9917
  200ACOH    H210355   7.660   8.982   0.519 -2.7183  0.1863 -1.4344
  200ACOH    H310356   7.656   9.044   0.691  1.1850  1.0971 -1.1390
  201ACOH    H410357   6.290   7.721   1.895 -0.9596  0.9597 -0.9458
  201ACOH    O210358   6.380   7.743   1.867 -0.5115  0.5199  0.1020
  201ACOH    C210359   6.460   7.633   1.866 -0.3356 -0.3676 -0.1684
  201ACOH    O110360   6.426   7.513   1.866 -0.1226 -0.2325 -0.1959
  201ACOH    C110361   6.604   7.670   1.852  0.3261  0.0332 -0.0457
  201ACOH    H110362   6.636   7.685   1.749  0.1949  0.8092  0.0204
  201ACOH    H210363   6.663   7.598   1.908  2.2851  0.5498 -1.4062
  201ACOH    H310364   6.620   7.759   1.913 -0.1249  0.9370 -1.2251
  202ACOH    H410365   5.733   0.447   1.492 -2.3014  0.6791  2.2652
  202ACOH    O210366   5.811   0.487   1.536 -0.1068 -0.8684 -0.0689
  202ACOH    C210367   5.924   0.441   1.484 -0.0902  0.2629  0.4953
  202ACOH    O110368   5.942   0.367   1.388 -0.3236 -0.4606  0.1872
  202ACOH    C110369   6.040   0.513   1.548 -0.1020 -0.2871 -0.2071
  202ACOH    H110370   6.031   0.615   1.512 -1.8888 -0.5301 -0.4987
  202ACOH    H210371   6.132   0.469   1.510 -0.2785 -0.9302  0.0970
  202ACOH    H310372   6.032   0.510   1.657 -1.8433 -1.2084 -0.3451
  203ACOH    H410373   6.155   7.256   2.143 -0.8925 -1.2848 -0.9252
  203ACOH    O210374   6.126   7.285   2.055 -0.0671 -0.1162 -0.8258
  203ACOH    C210375   5.996   7.263   2.040  0.3738  0.1114 -0.3604
  203ACOH    O110376   5.913   7.222   2.120  0.3002 -0.4126  0.2181
  203ACOH    C110377   5.945   7.313   1.911  0.1977  0.6741  0.5675
  203ACOH    H110378   5.885   7.241   1.855  1.6417  0.5295 -0.8310
  203ACOH    H210379   6.023   7.341   1.841 -0.7906 -1.4093 -1.4440
  203ACOH    H310380   5.878   7.396   1.934 -0.3072  0.0882  1.2262
  204ACOH    H410381   5.295   4.916   1.671  0.3963 -0.7401  0.7516
  204ACOH    O210382   5.391   4.929   1.684  0.3866  0.1486 -0.0156
  204ACOH    C210383   5.408   5.055   1.729  0.3005  0.5449 -0.0060
  204ACOH    O110384   5.313   5.119   1.773  0.0991 -0.4276  0.2058
  204ACOH    C110385   5.551   5.093   1.733 -0.0092  0.9094 -0.6828
  204ACOH    H110386   5.564   5.142   1.829  0.0769 -1.1991  0.3990
  204ACOH    H210387   5.577   5.159   1.650 -0.3528  1.4049 -0.3997
  204ACOH    H310388   5.612   5.004   1.724 -0.0357  0.9167 -0.9628
  205ACOH    H410389   4.065   4.553   2.462 -0.6258 -0.1120  2.1166
  205ACOH    O210390   4.106   4.638   2.486  0.0946  0.2231 -0.1815
  205ACOH    C210391   4.143   4.699   2.372  0.5918 -0.2493 -0.0446
  205ACOH    O110392   4.154   4.657   2.261  0.5215 -0.1236  0.3026
  205ACOH    C110393   4.179   4.840   2.402  0.4289  0.9132  0.6241
  205ACOH    H110394   4.106   4.909   2.359 -0.7018  0.9618  2.5517
  205ACOH    H210395   4.281   4.865   2.372  0.8938 -3.2512 -1.6437
  205ACOH    H310396   4.175   4.850   2.511  0.1733  2.5356  0.4887
  206ACOH    H410397   7.637   5.284   2.280  0.4906  0.2444 -0.6718
  206ACOH    O210398   7.572   5.340   2.234 -0.6558 -0.2668  0.3182
  206ACOH    C210399   7.594   5.468   2.268  0.0247  0.1096  1.0909
  206ACOH    O110400   7.677   5.508   2.350 -0.5301 -0.2277  0.2626
  206ACOH    C110401   7.485   5.554   2.219  0.0652 -0.1755  0.4165
  206ACOH    H110402   7.519   5.655   2.243 -0.0682 -0.7127  3.0356
  206ACOH    H210403   7.401   5.520   2.280  0.3300 -1.8005 -0.0832
  206ACOH    H310404   7.470   5.531   2.114 -1.0948 -1.4269  0.8334
  208ACOH    H410405   4.954   0.384   1.397  1.5514  0.7247 -2.6385
  208ACOH    O210406   4.940   0.295   1.359  0.3568 -0.5268  0.5612
  208ACOH    C210407   4.824   0.260   1.410 -0.0319 -0.7565 -0.9060
  208ACOH    O110408   4.728   0.333   1.425 -0.0654 -0.4493  0.5538
  208ACOH    C110409   4.805   0.112   1.409  0.3618 -0.4619  0.3914
  208ACOH    H110410   4.698   0.091   1.402  0.5455 -0.8881 -1.5972
  208ACOH    H210411   4.841   0.085   1.508  0.0326  0.7825  0.8640
  208ACOH    H310412   4.859   0.058   1.331  0.0749  0.0574 -0.1807
  209ACOH    H410413   7.768   4.998   1.079 -1.9482 -0.4920 -3.0582
  209ACOH    O210414   7.687   4.980   1.131 -0.1404 -0.4344 -0.1354
  209ACOH    C210415   7.674   5.082   1.213 -0.5188 -0.2942  0.0441
  209ACOH    O110416   7.738   5.190   1.224  0.9083 -0.0227  0.3645
  209ACOH    C110417   7.567   5.040   1.292 -0.0862 -0.1550 -0.2543
  209ACOH    H110418   7.596   5.068   1.393 -3.2059  0.4442  0.5562
  209ACOH    H210419   7.558   4.932   1.292  1.1927 -0.2976 -2.3367
  209ACOH    H310420   7.468   5.080   1.266 -0.7080 -0.0663  2.1191
  210ACOH    H410421   7.978   4.605   3.090 -0.0839  0.4047 -0.0751
  210ACOH    O210422   7.957   4.621   3.183  0.0278  0.7138 -0.1049
  210ACOH    C210423   7.855   4.713   3.187  0.5984 -0.1581  0.0974
  210ACOH    O110424   7.803   4.766   3.091 -0.5755 -0.2916 -0.7316
  210ACOH    C110425   7.818   4.752   3.329 -0.9854  0.5295  0.0664
  210ACOH    H110426   7.774   4.852   3.338 -0.2037  1.0895 -2.1082
  210ACOH    H210427   7.906   4.745   3.394 -1.0814 -0.7357  0.0632
  210ACOH    H310428   7.742   4.685   3.368 -0.6915  1.2961  2.0241
  211ACOH    H410429   8.031   3.875   1.760 -0.3078 -0.5922  2.3533
  211ACOH    O210430   7.997   3.816   1.690  0.5299  0.3724  1.1134
  211ACOH    C210431   8.059   3.697   1.713 -0.3633 -0.1316  0.3850
  211ACOH    O110432   8.114   3.667   1.813  0.2712 -0.3120  0.4798
  211ACOH    C110433   8.013   3.601   1.613  0.2353  0.2025 -0.5471
  211ACOH    H110434   7.928   3.541   1.646  1.1520 -0.3065  0.9645
  211ACOH    H210435   8.086   3.530   1.572 -0.7675 -1.3602  0.3163
  211ACOH    H310436   7.980   3.655   1.525  1.7905  1.1855 -0.5535
  212ACOH    H410437   7.160   9.032   0.820 -1.3138 -1.5682 -1.0096
  212ACOH    O210438   7.161   8.967   0.892  0.2899 -0.5459 -0.0795
  212ACOH    C210439   7.186   8.843   0.846  1.0053 -0.2153 -0.4971
  212ACOH    O110440   7.187   8.746   0.921  0.2250 -0.2449 -0.7080
  212ACOH    C110441   7.191   8.828   0.697 -0.5869 -0.7036 -0.2390
  212ACOH    H110442   7.092   8.810   0.656 -1.3770  1.1457  0.7744
  212ACOH    H210443   7.263   8.747   0.684 -0.7858 -0.8332 -0.5269
  212ACOH    H310444   7.225   8.913   0.637 -2.7968  1.5757  1.6268
  213ACOH    H410445   6.024   1.140   2.007  2.3971  1.4718 -0.1470
  213ACOH    O210446   6.021   1.126   1.911  0.7304  0.2193  0.0570
  213ACOH    C210447   6.139   1.139   1.856 -0.3936 -0.6825 -0.1470
  213ACOH    O110448   6.244   1.134   1.916 -0.1828  0.2176  0.0086
  213ACOH    C110449   6.125   1.088   1.715 -0.2171  0.4869 -0.0011
  213ACOH    H110450   6.056   1.003   1.724  1.6818 -0.9475  1.5426
  213ACOH    H210451   6.224   1.067   1.675 -0.4529 -0.3879 -0.1513
  213ACOH    H310452   6.076   1.166   1.656 -1.7095 -0.5138 -0.1191
  214ACOH    H410453   7.311   6.105   2.213  1.7473  0.4895  2.8517
  214ACOH    O210454   7.234   6.064   2.256  0.0371  0.2607 -0.2733
  214ACOH    C210455   7.237   6.092   2.390 -0.2285  0.1592 -0.5093
  214ACOH    O110456   7.335   6.126   2.457  0.7812  0.0210 -0.1663
  214ACOH    C110457   7.111   6.050   2.446 -0.9142 -0.7324  0.0183
  214ACOH    H110458   7.123   6.017   2.549  0.9845 -1.3686 -0.3865
  214ACOH    H210459   7.080   5.968   2.382  0.2355  0.3671 -1.9794
  214ACOH    H310460   7.037   6.131   2.448 -1.4522 -1.2334  1.9360
  216ACOH    H410461   2.992   6.160   2.155 -0.0388  1.2920  0.7777
  216ACOH    O210462   2.943   6.201   2.081  0.3347 -0.3708 -0.4192
  216ACOH    C210463   2.807   6.184   2.091  0.4720  0.5561  0.0111
  216ACOH    O110464   2.751   6.121   2.177  0.4788  0.4376 -0.0459
  216ACOH    C110465   2.739   6.272   1.989  0.4097 -0.0425  0.3698
  216ACOH    H110466   2.662   6.331   2.040  0.4694 -0.1796  0.6211
  216ACOH    H210467   2.685   6.209   1.918  1.2633 -2.7893  2.0942
  216ACOH    H310468   2.811   6.338   1.941  0.9867  0.0716  1.3769
  217ACOH    H410469   6.800   8.733   1.379 -1.7549  1.0403 -2.0131
  217ACOH    O210470   6.773   8.646   1.347  0.1916 -0.2835 -0.2219
  217ACOH    C210471   6.876   8.566   1.344 -0.0990  0.2056  0.4707
  217ACOH    O110472   6.966   8.574   1.423  0.0312  0.3607 -0.3112
  217ACOH    C110473   6.820   8.437   1.307 -0.7266  0.7048 -0.1160
  217ACOH    H110474   6.767   8.429   1.212  1.0699 -1.1217 -1.0260
  217ACOH    H210475   6.753   8.403   1.386 -1.8448  1.3251 -0.7928
  217ACOH    H310476   6.905   8.369   1.296 -1.7276 -0.2331 -2.5112
  218ACOH    H410477   4.074   6.784   1.654  1.1165  2.7146  2.7532
  218ACOH    O210478   4.159   6.741   1.672  0.5786  0.3731 -0.0024
  218ACOH    C210479   4.229   6.739   1.557 -0.2000 -0.3707  0.0634
  218ACOH    O110480   4.209   6.808   1.455 -0.2108 -0.5826  0.0771
  218ACOH    C110481   4.341   6.646   1.582 -0.8919  0.3579 -0.2216
  218ACOH    H110482   4.409   6.643   1.497 -0.3373 -0.9102  0.2584
  218ACOH    H210483   4.296   6.551   1.611 -3.4400  1.4413 -0.4424
  218ACOH    H310484   4.395   6.683   1.670 -0.3227 -1.3658  0.1634
  219ACOH    H410485   7.916   4.961   2.747  0.3820  1.0967  0.6028
  219ACOH    O210486   7.844   4.907   2.786  0.2691  0.3990 -0.5577
  219ACOH    C210487   7.721   4.954   2.745  0.1734  0.0529  0.0177
  219ACOH    O110488   7.707   5.014   2.642  0.4496 -0.6333  0.0398
  219ACOH    C110489   7.618   4.872   2.797  0.3287  0.7273 -0.2452
  219ACOH    H110490   7.651   4.769   2.813 -1.4689  0.2031  0.1959
  219ACOH    H210491   7.529   4.861   2.735 -0.6145 -0.2128  1.2516
  219ACOH    H310492   7.602   4.921   2.893  0.5136 -0.7517  0.5631
  220ACOH    H410493   4.440   4.261   3.867  0.1105 -0.5047  0.7953
  220ACOH    O210494   4.490   4.191   3.822  0.0022 -0.5465  0.7415
  220ACOH    C210495   4.609   4.177   3.877 -0.1800  0.2728  1.2979
  220ACOH    O110496   4.647   4.252   3.963  0.1700  0.2846 -0.2084
  220ACOH    C110497   4.688   4.060   3.829 -0.4588  0.5618  0.5827
  220ACOH    H110498   4.785   4.101   3.802 -1.9484  1.9699 -2.9564
  220ACOH    H210499   4.637   4.010   3.747 -1.8437  2.0965  0.4514
  220ACOH    H310500   4.700   3.996   3.916 -0.3833  1.2592  1.0927
  221ACOH    H410501   7.407   1.806   1.324 -0.4462  0.7127 -0.7211
  221ACOH    O210502   7.354   1.736   1.284  0.0623 -0.0089 -0.1383
  221ACOH    C210503   7.367   1.750   1.151 -0.6853  0.0562 -0.0074
  221ACOH    O110504   7.456   1.807   1.091  0.3319  0.2380  0.0392
  221ACOH    C110505   7.256   1.680   1.075 -0.4837 -0.3886  0.1021
  221ACOH    H110506   7.186   1.758   1.045 -1.2858 -0.4121  1.8202
  221ACOH    H210507   7.202   1.614   1.144 -1.3545 -0.0051 -0.2061
  221ACOH    H310508   7.289   1.629   0.985 -1.4456 -2.2341  0.7652
  222ACOH    H410509   5.001   1.114   3.799  0.4701  0.0667 -0.3235
  222ACOH    O210510   5.020   1.170   3.722  0.4103  0.3897 -0.1027
  222ACOH    C210511   5.108   1.262   3.763  0.3359 -0.3182 -0.0817
  222ACOH    O110512   5.150   1.278   3.876 -0.0582 -0.5702 -0.0064
  222ACOH    C110513   5.175   1.324   3.645  0.0635  0.1086  0.6665
  222ACOH    H110514   5.149   1.430   3.639  0.1265  0.0003 -2.7863
  222ACOH    H210515   5.142   1.274   3.554 -0.5982  2.3742 -0.4032
  222ACOH    H310516   5.283   1.315   3.647 -0.0493 -1.0768  2.5587
  223ACOH    H410517   8.104   5.928   0.160 -0.6854  2.2155 -0.1548
  223ACOH    O210518   8.053   5.896   0.084 -0.2535  0.2777  0.3483
  223ACOH    C210519   7.926   5.906   0.118  0.2078  0.0907 -0.0289
  223ACOH    O110520   7.878   5.910   0.230 -0.0387  0.2416  0.0068
  223ACOH    C110521   7.839   5.864   0.005  0.7689  0.2672  0.7480
  223ACOH    H110522   7.886   5.867  -0.094 -2.3658 -0.0421 -0.8324
  223ACOH    H210523   7.747   5.922   0.010  0.7270  0.3122 -0.4091
  223ACOH    H310524   7.807   5.761   0.020  1.7287 -0.6864 -3.0549
  224ACOH    H410525   4.983   4.288   2.238 -0.0131 -2.0732 -1.0015
  224ACOH    O210526   5.067   4.282   2.286 -0.4951  0.2285  0.2196
  224ACOH    C210527   5.112   4.154   2.251 -0.1618 -0.6784 -0.3288
  224ACOH    O110528   5.050   4.072   2.181 -0.3334  0.2368 -0.0652
  224ACOH    C110529   5.235   4.121   2.320 -0.0349  0.2309  0.3614
  224ACOH    H110530   5.263   4.016   2.305 -0.5335 -0.0094  1.0840
  224ACOH    H210531   5.212   4.126   2.426 -1.5885  0.5911  0.0112
  224ACOH    H310532   5.318   4.186   2.291  0.2625 -1.1277 -1.9705
  225ACOH    H410533   0.352   7.837   3.693  2.4182  1.5977 -1.0534
  225ACOH    O210534   0.310   7.873   3.613 -0.3681  0.3519 -0.2248
  225ACOH    C210535   0.200   7.934   3.639 -0.2285  0.3322  0.0953
  225ACOH    O110536   0.160   7.970   3.747 -0.0812  0.4305 -0.8702
  225ACOH    C110537   0.120   7.947   3.514 -1.1861 -0.4423 -0.1892
  225ACOH    H110538   0.027   7.994   3.547  0.5531  2.0388  1.2998
  225ACOH    H210539   0.103   7.846   3.475  2.6737 -0.7600 -1.2141
  225ACOH    H310540   0.172   8.006   3.439 -2.6533  0.7844 -0.2714
  226ACOH    H410541   5.596   2.823   0.789  0.0784  0.3264  1.1413
  226ACOH    O210542   5.514   2.816   0.840 -0.3215 -0.4042  0.4116
  226ACOH    C210543   5.540   2.713   0.931  0.2214  0.9759  0.2165
  226ACOH    O110544   5.637   2.642   0.933 -0.3747  0.2399  0.2391
  226ACOH    C110545   5.437   2.695   1.038  0.2257  0.4556 -0.0422
  226ACOH    H110546   5.349   2.740   0.992 -1.4938 -1.1908  1.5551
  226ACOH    H210547   5.470   2.750   1.126  0.8241 -0.1592  0.1253
  226ACOH    H310548   5.429   2.590   1.068 -1.4549  1.2609  2.3782
  227ACOH    H410549   7.434   3.881   0.371  0.0531 -0.6648 -0.0087
  227ACOH    O210550   7.368   3.848   0.434 -0.2631 -0.2591 -0.1252
  227ACOH    C210551   7.347   3.710   0.410 -0.2512 -0.5859 -0.3736
  227ACOH    O110552   7.371   3.640   0.317  0.0381 -0.8481  0.4512
  227ACOH    C110553   7.265   3.669   0.526  1.4308 -0.0418  0.2372
  227ACOH    H110554   7.188   3.745   0.542  1.4169  0.0448 -0.2421
  227ACOH    H210555   7.326   3.667   0.616  2.2548 -0.7152 -0.3316
  227ACOH    H310556   7.225   3.571   0.502  3.4514 -0.6618 -0.6765
  228ACOH    H410557   5.843   2.642   0.398  1.5119 -0.2982  0.9512
  228ACOH    O210558   5.889   2.669   0.317 -0.1239 -0.2070  0.0451
  228ACOH    C210559   5.833   2.787   0.279  0.1182  0.3120  0.6448
  228ACOH    O110560   5.713   2.815   0.289  0.0027 -0.0190 -0.1115
  228ACOH    C110561   5.910   2.855   0.171 -0.8938 -0.1651 -0.0242
  228ACOH    H110562   5.943   2.951   0.209 -0.2554 -1.2837  2.3145
  228ACOH    H210563   5.862   2.859   0.073 -0.0794 -1.6046 -0.5085
  228ACOH    H310564   5.998   2.791   0.164 -0.5143  0.1779  1.5899
  229ACOH    H410565   7.370   3.357   0.551  0.2068  2.2027 -0.6227
  229ACOH    O210566   7.380   3.406   0.635  0.2631  0.8441  0.1719
  229ACOH    C210567   7.471   3.346   0.707 -0.1711 -0.0762 -0.2589
  229ACOH    O110568   7.521   3.235   0.692 -0.5246 -0.0007  0.1745
  229ACOH    C110569   7.509   3.424   0.829 -0.4209  0.3594 -0.1543
  229ACOH    H110570   7.572   3.508   0.797 -1.1779  2.3960  3.4156
  229ACOH    H210571   7.560   3.374   0.912 -0.1987  0.9286  0.0594
  229ACOH    H310572   7.425   3.471   0.881 -0.3308 -1.9270  2.1601
  230ACOH    H410573   6.867   1.371   3.021  0.7369 -0.8341  0.9677
  230ACOH    O210574   6.776   1.337   3.014  0.5912 -0.2293 -0.4688
  230ACOH    C210575   6.754   1.281   3.131 -0.6967  0.6120 -0.6290
  230ACOH    O110576   6.824   1.274   3.228 -0.3007  0.0119 -0.1510
  230ACOH    C110577   6.629   1.204   3.133 -0.9249 -0.4674  0.3408
  230ACOH    H110578   6.615   1.155   3.230 -1.4736 -0.6085  0.1926
  230ACOH    H210579   6.626   1.125   3.058 -0.6562 -1.7555  1.6381
  230ACOH    H310580   6.545   1.270   3.116 -0.4524 -0.3562 -1.6253
  232ACOH    H410581   7.469   6.047   3.474 -0.5009 -1.0259 -1.8496
  232ACOH    O210582   7.453   5.981   3.543 -0.1786  0.2880 -0.4921
  232ACOH    C210583   7.323   5.982   3.561 -0.2346  0.6000 -0.4099
  232ACOH    O110584   7.262   6.088   3.566  0.5185  0.5070 -0.2029
  232ACOH    C110585   7.274   5.862   3.633  0.9092 -0.2095  0.7152
  232ACOH    H110586   7.176   5.827   3.598  0.8327 -0.1367  0.8545
  232ACOH    H210587   7.256   5.896   3.735 -0.0605  1.8960 -0.1291
  232ACOH    H310588   7.345   5.780   3.620  1.7070  0.5044  0.5181
  234ACOH    H410589   4.122   6.867   3.704  0.2567  0.3650 -1.5213
  234ACOH    O210590   4.130   6.773   3.724 -0.1067  0.5707 -0.4074
  234ACOH    C210591   4.252   6.731   3.689  0.5965 -0.2448  0.4980
  234ACOH    O110592   4.333   6.788   3.625 -0.3362  0.2286 -0.1908
  234ACOH    C110593   4.278   6.585   3.732  0.1168  0.2183  0.2360
  234ACOH    H110594   4.338   6.589   3.823 -0.1334  2.1195  0.3440
  234ACOH    H210595   4.319   6.524   3.652 -2.6293 -0.7262 -0.4938
  234ACOH    H310596   4.179   6.540   3.745 -0.4063  1.4455  0.5839
  236ACOH    H410597   4.364   4.060   3.282  1.0762  0.3611 -0.4894
  236ACOH    O210598   4.329   4.139   3.239 -0.6130  0.1315  0.4305
  236ACOH    C210599   4.228   4.176   3.312 -0.1585 -0.4154 -0.6499
  236ACOH    O110600   4.198   4.138   3.424  0.2718  0.2475 -0.3803
  236ACOH    C110601   4.170   4.292   3.245  0.2071  0.1310 -0.5976
  236ACOH    H110602   4.068   4.263   3.220  0.6301 -1.2066 -0.8154
  236ACOH    H210603   4.228   4.310   3.154  0.4060 -2.2184 -0.9822
  236ACOH    H310604   4.185   4.379   3.308 -0.8949  0.6437 -1.0389
  237ACOH    H410605   3.249   1.850   1.145  1.2853  0.7443  0.4800
  237ACOH    O210606   3.253   1.915   1.073 -0.1773 -0.3087 -0.5692
  237ACOH    C210607   3.151   1.877   0.989  0.4697 -0.0082 -0.4735
  237ACOH    O110608   3.089   1.773   0.995  0.0406  0.5404  0.4098
  237ACOH    C110609   3.158   1.962   0.870 -0.6718  0.0177  0.4864
  237ACOH    H110610   3.106   2.056   0.885 -2.8903 -1.1708  0.5039
  237ACOH    H210611   3.109   1.907   0.789  2.0639  1.1247 -1.9741
  237ACOH    H310612   3.258   1.989   0.838 -0.9259  0.0271 -0.3064
  238ACOH    H410613   7.438   7.185   4.059 -0.4110 -0.2319 -1.0113
  238ACOH    O210614   7.358   7.129   4.057 -0.3264 -0.3959  0.0680
  238ACOH    C210615   7.355   7.052   3.950 -0.0845  0.0306 -0.0753
  238ACOH    O110616   7.416   7.083   3.850 -0.1478  0.7197 -0.6420
  238ACOH    C110617   7.237   6.965   3.943 -0.6233  0.1184 -0.5353
  238ACOH    H110618   7.184   6.958   4.039  1.8133  0.4271  0.8720
  238ACOH    H210619   7.267   6.864   3.915  1.8036 -0.4124  3.4704
  238ACOH    H310620   7.163   7.003   3.873 -0.4842  1.4762  0.0349
  239ACOH    H410621   3.574   6.243   1.512 -0.7667  0.3919  2.6123
  239ACOH    O210622   3.586   6.147   1.522  0.0298  0.2131  0.1369
  239ACOH    C210623   3.651   6.118   1.636  0.0066  0.0352 -0.3954
  239ACOH    O110624   3.662   6.190   1.731 -0.3273 -0.4344  0.0359
  239ACOH    C110625   3.699   5.975   1.641 -0.0195  0.3719  0.5466
  239ACOH    H110626   3.707   5.941   1.538 -1.5776 -0.8477  0.8000
  239ACOH    H210627   3.616   5.926   1.693 -0.2079  1.0029  0.8480
  239ACOH    H310628   3.792   5.970   1.696 -0.3556  1.5079  1.2469
  240ACOH    H410629   4.928   1.523   1.070  0.4806  1.2944 -1.3295
  240ACOH    O210630   4.852   1.491   1.018 -0.5791  0.2965  0.7982
  240ACOH    C210631   4.828   1.572   0.912  0.3759 -0.5739 -0.0152
  240ACOH    O110632   4.892   1.674   0.896  0.4621  0.0505  0.2254
  240ACOH    C110633   4.706   1.544   0.840  0.3336  0.2042  0.4828
  240ACOH    H110634   4.651   1.459   0.882  0.2623 -1.8087 -3.5169
  240ACOH    H210635   4.747   1.506   0.747  0.7175 -0.6269  0.9887
  240ACOH    H310636   4.641   1.629   0.821 -0.4421 -0.7299 -1.1352
  241ACOH    H410637   7.648   4.772   3.750  0.4562 -0.2324 -0.1226
  241ACOH    O210638   7.618   4.683   3.777  0.1598 -0.1049 -0.0344
  241ACOH    C210639   7.678   4.597   3.697 -0.2294  0.3548  0.7214
  241ACOH    O110640   7.788   4.613   3.641  0.3434  0.1033  0.1837
  241ACOH    C110641   7.606   4.467   3.691 -0.6803 -0.6784 -0.1707
  241ACOH    H110642   7.505   4.480   3.732 -0.8231 -1.7975 -0.1460
  241ACOH    H210643   7.658   4.392   3.750 -0.7843 -0.1990  0.5418
  241ACOH    H310644   7.603   4.444   3.585 -1.3367  0.4403 -0.4075
  242ACOH    H410645   9.798   8.536   2.758  1.2193  0.2992  1.8097
  242ACOH    O210646   9.704   8.544   2.784  0.6900  0.0540  0.0495
  242ACOH    C210647   9.678   8.680   2.773  0.8024  0.2364  0.5948
  242ACOH    O110648   9.758   8.762   2.730 -0.4194  0.5742  0.3359
  242ACOH    C110649   9.553   8.721   2.840 -0.2482 -0.1125 -0.9932
  242ACOH    H110650   9.506   8.642   2.899 -0.9523  0.4896 -0.7374
  242ACOH    H210651   9.481   8.753   2.764  1.1140 -3.6349 -3.9486
  242ACOH    H310652   9.565   8.799   2.915  1.7928 -2.3132  1.0519
  243ACOH    H410653   5.763   6.179   2.521  2.4815  0.9034 -1.2804
  243ACOH    O210654   5.810   6.095   2.534  0.0621 -0.3062  0.1903
  243ACOH    C210655   5.941   6.111   2.541  0.1721 -0.4411 -0.7541
  243ACOH    O110656   5.997   6.211   2.513  0.3480  0.1721  0.7555
  243ACOH    C110657   6.013   5.988   2.579 -0.2599 -0.0874 -0.1925
  243ACOH    H110658   6.121   6.001   2.581 -0.2636 -0.1601  0.6087
  243ACOH    H210659   5.989   5.910   2.507 -0.1995 -1.1295  0.8918
  243ACOH    H310660   5.984   5.952   2.678 -0.5312  0.6288 -0.0068
  244ACOH    H410661   4.884   6.448   3.110 -0.2794 -1.2752 -1.6441
  244ACOH    O210662   4.947   6.385   3.148 -0.1855 -0.2914 -0.1439
  244ACOH    C210663   4.953   6.416   3.282  0.0364  0.0389  0.1510
  244ACOH    O110664   4.880   6.504   3.333  0.1317  0.0608  0.0731
  244ACOH    C110665   5.050   6.341   3.365  0.2484 -0.2722  0.6084
  244ACOH    H110666   4.999   6.275   3.435  1.5248  0.2520  2.0758
  244ACOH    H210667   5.116   6.406   3.422  0.8175  0.1295 -0.4821
  244ACOH    H310668   5.113   6.282   3.297 -1.4551 -0.4253 -0.8688
  246ACOH    H410669   9.326  10.136   0.548  2.7769  0.3488  1.4024
  246ACOH    O210670   9.354  10.043   0.541 -0.5046 -0.5939 -0.0221
  246ACOH    C210671   9.255   9.960   0.510  0.0254  0.5131  0.3082
  246ACOH    O110672   9.133   9.973   0.537 -0.3621 -0.3247 -0.2352
  246ACOH    C110673   9.304   9.835   0.438  0.2944 -0.2692  0.4010
  246ACOH    H110674   9.321   9.747   0.500  0.4870 -0.9254 -0.5578
  246ACOH    H210675   9.391   9.858   0.376 -0.2377  0.7914  0.0429
  246ACOH    H310676   9.223   9.801   0.373  0.0140  3.7793 -1.5446
  247ACOH    H410677   6.196   9.105   1.433 -1.3496 -1.1187 -0.0487
  247ACOH    O210678   6.189   9.154   1.349  0.3441 -0.0452  0.4149
  247ACOH    C210679   6.053   9.187   1.350 -0.1112 -0.4397  0.0515
  247ACOH    O110680   5.973   9.149   1.435 -0.2470  0.2269 -0.0448
  247ACOH    C110681   6.023   9.278   1.239  0.1235  0.0354  0.1296
  247ACOH    H110682   5.939   9.341   1.269 -0.0113 -0.9423  1.8895
  247ACOH    H210683   5.993   9.223   1.150 -0.1986 -0.6386  0.6499
  247ACOH    H310684   6.111   9.338   1.215 -0.3581  0.2674 -1.0985
  248ACOH    H410685   7.511   2.736   0.060  0.3516  0.6995  0.5626
  248ACOH    O210686   7.430   2.718   0.110 -0.0695  0.1904 -0.2841
  248ACOH    C210687   7.330   2.772   0.036  1.0190  0.4754 -0.1778
  248ACOH    O110688   7.328   2.799  -0.082  0.6100 -0.0224  0.2360
  248ACOH    C110689   7.202   2.782   0.117  0.0801 -0.2065  0.4739
  248ACOH    H110690   7.130   2.716   0.068  0.8021 -1.0212  0.5011
  248ACOH    H210691   7.166   2.885   0.121 -1.5369 -0.7975  2.1287
  248ACOH    H310692   7.212   2.748   0.220 -2.3891  3.6853  2.0963
  249ACOH    H410693   5.342   6.396   2.149  1.2341 -3.1948 -1.0742
  249ACOH    O210694   5.331   6.429   2.058  0.5143 -0.7747 -0.1594
  249ACOH    C210695   5.230   6.363   1.998  1.0678 -0.8756  0.5752
  249ACOH    O110696   5.172   6.264   2.040  0.4469 -0.4279 -0.1429
  249ACOH    C110697   5.190   6.423   1.865  0.2549 -0.4596 -0.2300
  249ACOH    H110698   5.109   6.494   1.880  0.7446  0.1680 -0.5782
  249ACOH    H210699   5.147   6.348   1.799  2.1270 -0.2999 -1.6872
  249ACOH    H310700   5.273   6.462   1.806  0.0922 -0.8233 -0.7056
  250ACOH    H410701   7.691   3.185   3.643 -0.3719  1.2714 -1.4796
  250ACOH    O210702   7.596   3.186   3.663 -0.0147  0.2112  0.4233
  250ACOH    C210703   7.566   3.077   3.735 -0.0805 -0.2245  0.4608
  250ACOH    O110704   7.631   2.980   3.761 -0.6581  0.1808 -0.1318
  250ACOH    C110705   7.425   3.097   3.780 -0.1585  0.1415 -0.2742
  250ACOH    H110706   7.398   3.011   3.842 -1.4398  0.4463 -0.3906
  250ACOH    H210707   7.370   3.094   3.686  1.7593  1.8757 -1.4884
  250ACOH    H310708   7.404   3.190   3.832 -0.2616 -0.0357  0.0024
  251ACOH    H410709   5.329   6.642   3.051 -1.3191 -1.7812  1.2669
  251ACOH    O210710   5.411   6.629   3.102 -0.2456  0.4802  0.1932
  251ACOH    C210711   5.458   6.752   3.132 -0.4930 -0.5283  0.2122
  251ACOH    O110712   5.405   6.860   3.131  0.1626  0.1524  0.0365
  251ACOH    C110713   5.582   6.738   3.213 -0.5775 -0.3075  1.2416
  251ACOH    H110714   5.622   6.636   3.211 -1.6196 -0.7047  0.2994
  251ACOH    H210715   5.572   6.759   3.319  1.6151 -1.7320  1.7762
  251ACOH    H310716   5.652   6.810   3.171  0.3562 -1.3870  0.9059
  252ACOH    H410717   3.174   3.747   3.297 -1.5115 -0.4039  1.0345
  252ACOH    O210718   3.127   3.770   3.215 -0.2138 -0.8884  0.1408
  252ACOH    C210719   3.120   3.908   3.216  0.0889 -0.2213  0.1586
  252ACOH    O110720   3.201   3.990   3.252 -0.1465  0.1282 -0.3176
  252ACOH    C110721   3.011   3.954   3.129 -0.0864  1.0333  0.2138
  252ACOH    H110722   2.916   3.921   3.171  0.4863 -0.5921  0.2648
  252ACOH    H210723   3.021   3.896   3.037 -0.0046 -1.5479  1.8144
  252ACOH    H310724   3.013   4.062   3.110 -0.8599  1.0851  0.3808
  253ACOH    H410725   8.002   5.204   1.794 -0.4866  0.0535 -0.4837
  253ACOH    O210726   7.928   5.172   1.849 -0.0370 -0.0848  0.0435
  253ACOH    C210727   7.838   5.270   1.869 -0.0510 -0.4645  0.4673
  253ACOH    O110728   7.821   5.359   1.793  0.0735 -0.0471  0.5763
  253ACOH    C110729   7.769   5.261   1.997  0.0675  0.0095 -0.1471
  253ACOH    H110730   7.802   5.178   2.060  0.4097 -1.2051 -1.9047
  253ACOH    H210731   7.667   5.242   1.964  0.6661 -0.0567 -1.9806
  253ACOH    H310732   7.776   5.348   2.062 -1.3910 -1.3791  1.9505
  254ACOH    H410733   0.257   4.057   2.002  0.3856 -0.2369 -0.6215
  254ACOH    O210734   0.217   3.971   2.026 -0.7737  0.4549 -0.0481
  254ACOH    C210735   0.103   3.973   2.094  0.9653 -0.0540 -0.6361
  254ACOH    O110736   0.033   4.072   2.109  0.5404  0.6675 -0.1406
  254ACOH    C110737   0.053   3.837   2.124 -0.1202 -0.1024  0.7888
  254ACOH    H110738   0.051   3.825   2.233  0.1241  1.6370  1.0028
  254ACOH    H210739   0.115   3.756   2.086 -1.7574 -1.0051 -0.0143
  254ACOH    H310740  -0.047   3.827   2.082  0.0949  2.3310 -0.3359
  255ACOH    H410741   6.202   0.751   2.017  0.6412 -0.8576 -1.8758
  255ACOH    O210742   6.286   0.799   2.015  0.5036 -0.4835  0.1791
  255ACOH    C210743   6.330   0.781   1.892 -0.2698 -0.7120  1.0152
  255ACOH    O110744   6.268   0.728   1.803 -0.4504 -0.1412  0.1706
  255ACOH    C110745   6.459   0.851   1.877  0.5927  0.3425  0.0945
  255ACOH    H110746   6.480   0.865   1.771  0.5119  0.3184  0.0756
  255ACOH    H210747   6.529   0.778   1.918  1.1282 -0.8956 -2.9144
  255ACOH    H310748   6.459   0.949   1.924 -0.3095  0.7353 -0.6965
  256ACOH    H410749   6.033   6.562   2.155 -1.5396  0.4092  1.4642
  256ACOH    O210750   6.023   6.465   2.157 -0.0822  0.1753 -0.4455
  256ACOH    C210751   6.134   6.423   2.222 -0.2136 -0.7781  0.1764
  256ACOH    O110752   6.230   6.485   2.272 -0.7528 -0.5394 -0.2715
  256ACOH    C110753   6.147   6.277   2.224 -0.1464 -0.9147  0.3800
  256ACOH    H110754   6.059   6.220   2.192 -0.1607 -0.0694 -1.1400
  256ACOH    H210755   6.184   6.230   2.315 -2.1172  2.0548  2.8217
  256ACOH    H310756   6.218   6.250   2.146 -0.6345  0.8544 -0.7081
  257ACOH    H410757   9.546   3.620   2.031  1.9287 -2.1256 -0.5014
  257ACOH    O210758   9.547   3.645   1.937 -0.6193 -0.1525 -0.0650
  257ACOH    C210759   9.676   3.636   1.892 -0.5345  0.0203  0.7356
  257ACOH    O110760   9.757   3.554   1.929  0.0066 -0.6940 -0.7041
  257ACOH    C110761   9.687   3.708   1.762  0.6314 -0.7627  0.3553
  257ACOH    H110762   9.647   3.642   1.686  0.9166  0.5110 -0.9236
  257ACOH    H210763   9.794   3.726   1.747  0.2138  0.2423 -1.4972
  257ACOH    H310764   9.627   3.799   1.765 -1.7697 -2.3097  0.2125
  258ACOH    H410765   6.018   8.119   1.254  1.2250  0.3256 -0.4769
  258ACOH    O210766   6.021   8.057   1.179  0.4863 -0.5185  0.1719
  258ACOH    C210767   5.898   8.069   1.132  0.4575 -0.8878  1.2267
  258ACOH    O110768   5.804   8.113   1.191 -0.0534 -0.0628 -0.0672
  258ACOH    C110769   5.885   7.972   1.017  0.5550  0.2411  0.5400
  258ACOH    H110770   5.856   7.878   1.064 -1.0930  0.0131 -0.9043
  258ACOH    H210771   5.983   7.954   0.971  0.8140  1.4367  0.5970
  258ACOH    H310772   5.815   8.010   0.943 -2.3233 -4.0389  0.9297
  259ACOH    H410773   4.836   1.456   3.550  1.0640 -0.7230  1.5724
  259ACOH    O210774   4.884   1.533   3.586  0.6095  0.3265  0.0071
  259ACOH    C210775   4.906   1.614   3.477 -0.5885  0.4416  0.2541
  259ACOH    O110776   4.945   1.580   3.368  0.5893 -0.5454  0.4647
  259ACOH    C110777   4.927   1.751   3.527 -0.0937  0.0380  0.2687
  259ACOH    H110778   4.955   1.820   3.447  1.3985 -2.0972 -1.1199
  259ACOH    H210779   4.999   1.752   3.609  3.5066 -1.1877 -2.7433
  259ACOH    H310780   4.837   1.793   3.572  0.0758  1.4093 -0.6351
  260ACOH    H410781   3.062   8.265   2.627 -1.4078 -1.8197 -2.0552
  260ACOH    O210782   3.121   8.189   2.640  0.6684  0.0080 -0.2631
  260ACOH    C210783   3.238   8.246   2.670  0.1997 -0.0402 -0.2408
  260ACOH    O110784   3.279   8.358   2.647  0.7300  0.6258 -0.2214
  260ACOH    C110785   3.326   8.150   2.737 -0.5056  0.1499 -0.5397
  260ACOH    H110786   3.280   8.087   2.813 -1.6073  0.0400 -1.2828
  260ACOH    H210787   3.420   8.187   2.779 -1.4933  1.8897  0.2094
  260ACOH    H310788   3.354   8.079   2.659 -4.5317  0.0180 -1.9772
  261ACOH    H410789   5.641   3.743   0.541 -0.4394  0.0656 -0.0262
  261ACOH    O210790   5.694   3.774   0.617 -0.3480  0.4021 -0.2260
  261ACOH    C210791   5.642   3.700   0.720  0.2919  0.6255  0.0714
  261ACOH    O110792   5.545   3.621   0.718  0.8625 -0.0424 -0.2526
  261ACOH    C110793   5.724   3.724   0.842  0.1145 -0.0838  0.2239
  261ACOH    H110794   5.720   3.832   0.856  0.6015 -0.0182 -0.1347
  261ACOH    H210795   5.825   3.690   0.818  0.0638 -0.8758  1.0641
  261ACOH    H310796   5.681   3.679   0.932  0.2313 -1.6878 -0.5092
  262ACOH    H410797   3.544   2.516   3.185 -2.2296  1.5155 -3.0019
  262ACOH    O210798   3.492   2.575   3.242 -0.1514  0.2072  0.4171
  262ACOH    C210799   3.555   2.605   3.357 -0.2573 -0.3304 -0.6986
  262ACOH    O110800   3.663   2.567   3.395  0.5941  0.0019  0.6682
  262ACOH    C110801   3.475   2.693   3.444 -0.2916  0.0672 -0.4427
  262ACOH    H110802   3.540   2.753   3.508  1.1263 -1.8708  0.0004
  262ACOH    H210803   3.406   2.644   3.513 -0.7764  0.3227 -0.7434
  262ACOH    H310804   3.424   2.769   3.386 -1.3016  0.9370  1.5171
  263ACOH    H410805   4.999   7.468  -0.137  2.7924 -0.9894  2.2459
  263ACOH    O210806   5.041   7.554  -0.122  0.6210  0.4372  0.4176
  263ACOH    C210807   5.034   7.578   0.007  0.5159 -0.5277 -1.0572
  263ACOH    O110808   4.982   7.511   0.097  0.7280 -0.0368  0.3307
  263ACOH    C110809   5.096   7.709   0.029  0.0084 -0.4479  0.3579
  263ACOH    H110810   5.012   7.779   0.027  0.2245 -0.1158  1.8478
  263ACOH    H210811   5.174   7.733  -0.043 -0.2957 -1.9045 -0.4579
  263ACOH    H310812   5.151   7.707   0.123 -1.1105  0.7841  1.0585
  264ACOH    H410813   4.417   4.842   2.076  0.8665  0.0160  0.8987
  264ACOH    O210814   4.376   4.900   2.143 -0.3114 -0.2165  0.3986
  264ACOH    C210815   4.396   5.026   2.097  0.2553  0.0655 -0.5800
  264ACOH    O110816   4.479   5.059   2.013 -0.2675 -0.0526  0.4576
  264ACOH    C110817   4.304   5.124   2.165 -0.0242  0.5060  0.0812
  264ACOH    H110818   4.208   5.078   2.189 -1.2034  2.9595  0.2056
  264ACOH    H210819   4.283   5.215   2.110 -2.7080 -0.6916 -0.9552
  264ACOH    H310820   4.356   5.152   2.257  0.1782  0.7869 -0.1189
  265ACOH    H410821   4.780   3.569   1.757  0.6020 -1.9330 -3.1043
  265ACOH    O210822   4.836   3.644   1.730  0.5510 -0.6573  0.1268
  265ACOH    C210823   4.872   3.616   1.607 -0.0082  0.5507 -0.1741
  265ACOH    O110824   4.880   3.501   1.560  0.2003  0.0345 -0.6560
  265ACOH    C110825   4.952   3.726   1.551  0.1082  0.5142 -0.6957
  265ACOH    H110826   5.046   3.697   1.503  0.7273  0.9463  0.2513
  265ACOH    H210827   4.970   3.805   1.624  0.2028  0.7665 -0.9902
  265ACOH    H310828   4.888   3.768   1.473 -1.1290  1.0766  0.6086
  266ACOH    H410829   4.245   2.618   0.022  1.6149 -2.4412 -0.6798
  266ACOH    O210830   4.340   2.634   0.007  1.2814  0.7116  0.1630
  266ACOH    C210831   4.392   2.712   0.096 -0.3393 -0.3743  0.4516
  266ACOH    O110832   4.336   2.781   0.173  0.3208 -0.1060 -0.0989
  266ACOH    C110833   4.538   2.701   0.083  0.9772  0.0449  0.3175
  266ACOH    H110834   4.566   2.595   0.084 -2.0923 -0.8232  0.4562
  266ACOH    H210835   4.586   2.749   0.169 -0.2156  0.7835  0.5861
  266ACOH    H310836   4.561   2.732  -0.018 -0.8221 -2.6117 -0.9853
  267ACOH    H410837   3.756   5.455   1.103  1.4062  0.9654  0.0265
  267ACOH    O210838   3.703   5.497   1.033  0.0885 -0.2710  0.2503
  267ACOH    C210839   3.633   5.590   1.098 -0.4122  0.0590  0.1989
  267ACOH    O110840   3.652   5.636   1.210 -0.3119  0.1497  0.6795
  267ACOH    C110841   3.580   5.685   0.999  0.0875 -0.4233  0.2525
  267ACOH    H110842   3.594   5.660   0.894  0.5607 -2.0890  0.7035
  267ACOH    H210843   3.623   5.784   1.014  1.9750 -1.2251  0.1992
  267ACOH    H310844   3.472   5.695   1.015  0.2451 -0.8047  1.6108
  268ACOH    H410845   7.714   2.511   2.096 -3.8023  2.6099 -1.6134
  268ACOH    O210846   7.654   2.437   2.114  0.0385 -0.4056 -0.2698
  268ACOH    C210847   7.639   2.346   2.013  0.2252 -0.2817 -0.2562
  268ACOH    O110848   7.724   2.331   1.931  0.0562  0.5199 -0.1500
  268ACOH    C110849   7.518   2.261   2.031  0.6754  0.2302  0.3740
  268ACOH    H110850   7.514   2.166   1.976  2.1879 -0.9101  2.1769
  268ACOH    H210851   7.428   2.319   2.011  0.3820 -0.5611 -0.6446
  268ACOH    H310852   7.513   2.229   2.135  2.6362  1.4388  0.8500
  269ACOH    H410853   4.527   5.697   1.899 -1.1560  2.5763 -0.3955
  269ACOH    O210854   4.527   5.674   1.805  0.0149  0.1347  0.1356
  269ACOH    C210855   4.410   5.626   1.767 -0.3565  0.3963 -0.9627
  269ACOH    O110856   4.312   5.629   1.837 -0.4083  0.4393  0.7536
  269ACOH    C110857   4.417   5.564   1.632  0.5152  0.3775 -0.7027
  269ACOH    H110858   4.504   5.500   1.625 -0.7861 -1.5134  0.2391
  269ACOH    H210859   4.418   5.641   1.554  0.2512  1.0689 -0.0364
  269ACOH    H310860   4.333   5.496   1.625  0.8197 -0.3200  1.8951
  270ACOH    H410861   7.403   2.279   1.379  0.2246 -1.5914  0.5521
  270ACOH    O210862   7.323   2.227   1.361 -0.3462 -0.6065  0.2095
  270ACOH    C210863   7.343   2.164   1.242  0.1575 -0.3847  0.5014
  270ACOH    O110864   7.445   2.166   1.169 -0.1505  0.4039  0.8313
  270ACOH    C110865   7.221   2.084   1.213 -0.5506 -0.1176  0.6002
  270ACOH    H110866   7.197   2.011   1.290 -0.9421 -1.7389 -1.0436
  270ACOH    H210867   7.233   2.041   1.114  0.2311  0.5671  0.3883
  270ACOH    H310868   7.142   2.158   1.203 -2.2785 -2.1029 -0.9015
  271ACOH    H410869   3.745   4.525   1.252 -2.8609  0.0491 -2.1971
  271ACOH    O210870   3.736   4.429   1.247  0.6298 -0.5300  0.5400
  271ACOH    C210871   3.607   4.403   1.257  0.1179  0.1607 -0.3898
  271ACOH    O110872   3.521   4.480   1.296 -0.8187  0.7393  0.7303
  271ACOH    C110873   3.586   4.251   1.238  0.7263 -0.6052 -0.5836
  271ACOH    H110874   3.545   4.199   1.325 -1.2269 -1.6123 -2.0574
  271ACOH    H210875   3.689   4.220   1.225  1.6035  2.7778 -2.1506
  271ACOH    H310876   3.529   4.226   1.148 -1.5977 -0.0098  0.6718
  272ACOH    H410877   5.065   5.257   1.994 -0.5748 -0.8113 -0.7878
  272ACOH    O210878   5.040   5.232   2.085  0.4331  0.1722 -0.2297
  272ACOH    C210879   5.039   5.097   2.097  0.4189  0.0945 -0.0242
  272ACOH    O110880   5.063   5.022   2.004  0.2229  0.4137 -0.1027
  272ACOH    C110881   4.961   5.050   2.217 -0.2947  0.0331  0.2562
  272ACOH    H110882   4.972   5.105   2.310 -4.5705 -1.9360  2.0666
  272ACOH    H210883   4.983   4.945   2.234 -0.9575  0.0249  1.0626
  272ACOH    H310884   4.857   5.054   2.185 -0.5117 -0.6352  0.8640
  273ACOH    H410885   8.658   4.067   1.374 -0.8722 -0.6965  0.1641
  273ACOH    O210886   8.691   4.052   1.284 -0.4969 -0.3548  0.2426
  273ACOH    C210887   8.689   3.925   1.260 -0.4395  0.1346 -0.5410
  273ACOH    O110888   8.663   3.841   1.341  0.0974 -0.7416 -0.1061
  273ACOH    C110889   8.717   3.899   1.120  0.0596 -0.1497  0.2782
  273ACOH    H110890   8.623   3.868   1.073  0.1801 -0.3675  0.1806
  273ACOH    H210891   8.789   3.819   1.105  1.6073  0.6982  2.9774
  273ACOH    H310892   8.755   3.992   1.077  0.1668  0.1232  0.9521
  275ACOH    H410893   5.332   3.284   2.856 -1.1582  1.5704 -1.8084
  275ACOH    O210894   5.399   3.354   2.866  0.2643 -0.0353  0.4703
  275ACOH    C210895   5.340   3.426   2.961 -0.5262 -0.4129 -0.2179
  275ACOH    O110896   5.229   3.416   3.005  0.2270  0.3411 -0.1696
  275ACOH    C110897   5.434   3.535   2.999 -0.0005  0.6155 -0.1500
  275ACOH    H110898   5.389   3.603   3.070 -2.0649  0.6023 -1.3986
  275ACOH    H210899   5.473   3.585   2.910 -0.1132  1.3164  0.1919
  275ACOH    H310900   5.519   3.488   3.049 -1.0139 -0.1476  0.8710
  276ACOH    H410901   8.951   0.435   2.445 -0.9821 -0.5762  1.3572
  276ACOH    O210902   8.993   0.507   2.496  0.0784  0.1729 -0.5095
  276ACOH    C210903   9.115   0.514   2.443  0.3387 -0.1524 -0.3678
  276ACOH    O110904   9.168   0.427   2.367  0.2198 -1.0727 -0.5877
  276ACOH    C110905   9.193   0.621   2.496 -0.3196 -0.2064  0.1815
  276ACOH    H110906   9.225   0.591   2.596 -0.2381 -2.5608 -0.4995
  276ACOH    H210907   9.129   0.709   2.500  1.6020  1.1904  0.8026
  276ACOH    H310908   9.286   0.640   2.441 -0.1802  1.1596  0.8763
  277ACOH    H410909   9.516   6.065   1.581 -1.2708  0.4096  0.8601
  277ACOH    O210910   9.507   5.974   1.613 -0.0266 -0.1017 -0.1737
  277ACOH    C210911   9.411   5.979   1.708 -0.0646  0.0065 -0.1491
  277ACOH    O110912   9.325   6.064   1.706  0.5190 -0.5640 -0.0532
  277ACOH    C110913   9.404   5.856   1.789 -0.6642  0.3337 -1.0892
  277ACOH    H110914   9.487   5.858   1.860 -0.6396  1.0593 -1.1322
  277ACOH    H210915   9.408   5.764   1.731  2.5450 -1.0414  1.1444
  277ACOH    H310916   9.313   5.843   1.848 -0.3941 -1.9204 -1.1180
  281ACOH    H410917   2.611   8.528   0.554 -0.6734  1.1683 -1.3270
  281ACOH    O210918   2.516   8.509   0.550 -0.5570  0.3264 -0.5212
  281ACOH    C210919   2.451   8.626   0.537 -0.5249  0.2330 -0.2167
  281ACOH    O110920   2.499   8.734   0.510 -0.0407 -0.2313  0.0954
  281ACOH    C110921   2.311   8.594   0.541  0.0068 -0.5866 -0.6441
  281ACOH    H110922   2.262   8.664   0.474 -0.6640  0.1699  0.6197
  281ACOH    H210923   2.273   8.609   0.642  0.6202 -1.5819 -0.2543
  281ACOH    H310924   2.282   8.491   0.520  0.5039 -0.9351  0.3281
  282ACOH    H410925   7.478   2.304   2.902  0.4357 -0.0889  0.6207
  282ACOH    O210926   7.500   2.396   2.880 -0.0896 -0.1455 -0.1611
  282ACOH    C210927   7.460   2.425   2.754  0.2934 -0.7544  0.1267
  282ACOH    O110928   7.417   2.351   2.667  0.3303  0.1854 -0.1465
  282ACOH    C110929   7.499   2.565   2.720 -0.5811  0.1582  0.0776
  282ACOH    H110930   7.417   2.608   2.661  1.1568  1.4202 -1.4764
  282ACOH    H210931   7.589   2.557   2.659 -0.6913  0.3476 -0.1140
  282ACOH    H310932   7.521   2.623   2.809  0.1221 -0.6156  0.4154
  283ACOH    H410933   5.043   2.755   0.181  0.3177 -0.6387  0.7380
  283ACOH    O210934   5.089   2.711   0.108 -0.4876 -0.1194 -0.0853
  283ACOH    C210935   5.211   2.674   0.150  0.0506 -0.3154  0.9161
  283ACOH    O110936   5.259   2.647   0.257 -0.1157 -0.5054  0.7636
  283ACOH    C110937   5.279   2.638   0.018  0.3776 -0.2057 -0.2554
  283ACOH    H110938   5.222   2.680  -0.065  0.0325  0.3475  0.2585
  283ACOH    H210939   5.281   2.529   0.009  0.0516 -0.5271  3.0480
  283ACOH    H310940   5.382   2.674   0.013 -0.1320  1.3676  0.3665
  284ACOH    H410941   8.139   6.603   0.549 -0.3899 -0.9184  2.0599
  284ACOH    O210942   8.130   6.680   0.608 -0.2098 -0.0784  0.9964
  284ACOH    C210943   8.128   6.784   0.517  0.0888  0.7222 -0.1916
  284ACOH    O110944   8.097   6.790   0.398 -0.5242  0.4094 -0.0884
  284ACOH    C110945   8.112   6.906   0.600  0.5080  0.6176  0.6009
  284ACOH    H110946   8.178   6.896   0.686 -0.3270 -1.1810  1.0692
  284ACOH    H210947   8.016   6.905   0.652 -0.2615  4.5086 -0.5392
  284ACOH    H310948   8.119   6.996   0.539 -1.0941 -0.2490 -0.9276
  285ACOH    H410949   6.894   0.794   2.197  0.3879  1.6681  1.4254
  285ACOH    O210950   6.849   0.841   2.125  0.4983  0.1888  0.3622
  285ACOH    C210951   6.824   0.971   2.147  0.1565 -0.4877  0.3801
  285ACOH    O110952   6.876   1.035   2.237 -0.1628  0.3587 -0.2271
  285ACOH    C110953   6.751   1.037   2.038 -0.4173 -0.0755 -0.3277
  285ACOH    H110954   6.791   0.992   1.946  1.4850  0.8729  0.0256
  285ACOH    H210955   6.779   1.142   2.048 -2.7314  0.6002 -0.6267
  285ACOH    H310956   6.643   1.020   2.046 -0.4189 -0.9952 -1.9079
  286ACOH    H410957   2.534   9.700   1.372 -1.1156  0.9144  0.1418
  286ACOH    O210958   2.509   9.610   1.398  0.1075  0.6391  0.4011
  286ACOH    C210959   2.615   9.541   1.453 -0.1067  0.2683  0.7305
  286ACOH    O110960   2.730   9.570   1.464 -0.7755  0.0959  0.2558
  286ACOH    C110961   2.561   9.411   1.496 -0.0192 -0.0706 -0.5211
  286ACOH    H110962   2.516   9.362   1.410  0.3028 -1.0615 -0.1249
  286ACOH    H210963   2.484   9.436   1.569  0.9153  0.2040  0.3800
  286ACOH    H310964   2.633   9.341   1.537 -2.9855 -2.9285  0.0209
  288ACOH    H410965   6.830   6.802   2.777  0.2863  3.2707  0.1191
  288ACOH    O210966   6.856   6.813   2.684  0.6994  0.1283 -0.1850
  288ACOH    C210967   6.881   6.695   2.630  0.7410 -0.4903 -0.5714
  288ACOH    O110968   6.887   6.588   2.684 -0.1517  0.0524 -0.3984
  288ACOH    C110969   6.936   6.711   2.498  1.0424 -1.0025 -0.7734
  288ACOH    H110970   6.969   6.619   2.449 -0.3725 -1.9132 -0.0482
  288ACOH    H210971   7.025   6.774   2.508  0.9919 -0.9174 -0.8695
  288ACOH    H310972   6.866   6.765   2.436 -0.3949 -2.6252 -0.6014
  289ACOH    H410973   4.673   7.257   0.433  0.4616 -0.2657  0.3011
  289ACOH    O210974   4.766   7.253   0.406  0.4052 -0.5771  0.1512
  289ACOH    C210975   4.756   7.209   0.279 -0.0436  0.3970  0.1748
  289ACOH    O110976   4.660   7.164   0.218 -0.3547  0.1097 -0.1224
  289ACOH    C110977   4.898   7.200   0.228 -0.2723 -0.6076 -0.8631
  289ACOH    H110978   4.949   7.296   0.238 -0.2754 -0.8123  1.5544
  289ACOH    H210979   4.892   7.176   0.122 -0.4851 -2.0066 -0.5478
  289ACOH    H310980   4.956   7.133   0.292  1.2901  1.3676 -0.1781
  290ACOH    H410981   3.984   8.376   1.848  0.2696  1.5750  0.3070
  290ACOH    O210982   3.975   8.343   1.939 -0.5413  0.0358 -0.3052
  290ACOH    C210983   3.862   8.280   1.955 -0.2746  0.2658  1.0743
  290ACOH    O110984   3.773   8.254   1.874 -0.2570  0.8721 -0.0335
  290ACOH    C110985   3.848   8.233   2.095  0.5244  0.6033  0.8176
  290ACOH    H110986   3.926   8.272   2.161  2.3346 -1.0029 -0.3225
  290ACOH    H210987   3.839   8.125   2.106 -3.5167  0.7355 -0.3468
  290ACOH    H310988   3.754   8.278   2.127 -0.9907 -1.3982 -0.7157
  295ACOH    H410989   5.375   3.819   0.581  0.8913 -2.3635  2.0155
  295ACOH    O210990   5.334   3.873   0.650  0.6887  0.3250 -0.1190
  295ACOH    C210991   5.212   3.911   0.597  0.5806  0.1480  0.3536
  295ACOH    O110992   5.153   3.844   0.513  0.0688  0.5434  0.6889
  295ACOH    C110993   5.138   4.005   0.683 -0.6855  0.1934  0.0183
  295ACOH    H110994   5.076   3.948   0.752 -1.5758  2.5083  1.1911
  295ACOH    H210995   5.071   4.068   0.625 -2.6004 -1.3007  0.5356
  295ACOH    H310996   5.210   4.061   0.743 -0.7725  2.9567 -2.3509
  296ACOH    H410997   4.715   0.446   1.104 -0.8082 -0.5752  0.8641
  296ACOH    O210998   4.762   0.388   1.042 -0.2372  0.4671  0.3073
  296ACOH    C210999   4.879   0.445   1.013 -0.1911  0.3656 -0.9403
  296ACOH    O111000   4.920   0.555   1.042 -0.2465 -0.7393  0.2184
  296ACOH    C111001   4.964   0.359   0.922 -0.3032 -0.1593  0.4798
  296ACOH    H111002   5.065   0.394   0.900  0.5409 -2.3288  0.8127
  296ACOH    H211003   4.912   0.346   0.827  0.2796 -0.7299  0.2334
  296ACOH    H311004   4.970   0.257   0.960  2.2433 -0.4831 -0.6665
  297ACOH    H411005   7.034   7.662   2.015  0.0944  1.6911 -0.7974
  297ACOH    O211006   6.970   7.648   1.943 -0.3340 -0.2094 -0.0767
  297ACOH    C211007   7.016   7.720   1.835 -0.2938 -0.2029  0.2086
  297ACOH    O111008   7.106   7.798   1.838  0.5336 -0.7590  0.7717
  297ACOH    C111009   6.932   7.718   1.711  0.1498 -0.2942 -0.1452
  297ACOH    H111010   6.879   7.805   1.675  0.8345  0.2255  0.0863
  297ACOH    H211011   6.866   7.634   1.731  1.0158 -1.0772 -0.5149
  297ACOH    H311012   6.991   7.703   1.621 -0.5243  1.3251 -0.8580
  298ACOH    H411013   7.869   2.688   3.089 -0.7246  2.9369  2.1419
  298ACOH    O211014   7.775   2.692   3.063 -0.2251  0.2965 -0.3144
  298ACOH    C211015   7.700   2.648   3.166  0.6886 -0.3306 -0.0728
  298ACOH    O111016   7.740   2.647   3.280  0.3836 -0.5306  0.4736
  298ACOH    C111017   7.558   2.609   3.131  0.7233  0.5901 -0.8010
  298ACOH    H111018   7.550   2.519   3.070  1.6273  0.6533 -1.0351
  298ACOH    H211019   7.522   2.693   3.071  0.6773  0.7724 -0.5164
  298ACOH    H311020   7.498   2.593   3.220  1.0916 -1.3362 -0.8906
  299ACOH    H411021   5.006   2.903   3.110  2.3913  0.7309 -0.1557
  299ACOH    O211022   4.980   2.985   3.155 -0.6548  0.0287 -0.5120
  299ACOH    C211023   4.968   3.091   3.076  0.5797  0.1244  0.2307
  299ACOH    O111024   4.971   3.094   2.952  0.2504  0.1905  0.0185
  299ACOH    C111025   4.945   3.217   3.148  0.4477 -0.8573  0.6938
  299ACOH    H111026   5.038   3.273   3.157  0.4264 -0.1206 -2.8913
  299ACOH    H211027   4.910   3.193   3.248 -1.3071  1.8756  0.7877
  299ACOH    H311028   4.866   3.277   3.104 -0.1347 -0.2340  2.5246
  300ACOH    H411029   5.607   8.498   1.535 -1.7437 -0.0523  1.4381
  300ACOH    O211030   5.602   8.594   1.527  0.1837 -0.0403  0.1280
  300ACOH    C211031   5.729   8.651   1.524  0.0970  0.5756 -0.5718
  300ACOH    O111032   5.835   8.590   1.527  0.3838 -0.1831  0.3560
  300ACOH    C111033   5.730   8.796   1.503 -0.2848 -0.5453  0.0338
  300ACOH    H111034   5.821   8.844   1.537 -0.1234 -0.4166 -0.5633
  300ACOH    H211035   5.637   8.835   1.545 -0.7631 -1.1962 -0.3986
  300ACOH    H311036   5.728   8.807   1.394  3.3772 -0.1596 -0.0461
  301ACOH    H411037   5.394   3.522   0.176 -0.4412 -0.5819 -0.1373
  301ACOH    O211038   5.440   3.518   0.091  0.0323  0.1633  0.0743
  301ACOH    C211039   5.392   3.427   0.008  0.0491  0.0634  0.1638
  301ACOH    O111040   5.313   3.342   0.042  0.2192 -0.2627  0.4974
  301ACOH    C111041   5.441   3.446  -0.127  0.3802 -0.3784 -0.4016
  301ACOH    H111042   5.370   3.423  -0.207 -1.6054  0.6710  1.0045
  301ACOH    H211043   5.534   3.390  -0.137  0.2304 -0.7456  0.2227
  301ACOH    H311044   5.459   3.552  -0.143  2.4147 -0.8727 -1.6214
  302ACOH    H411045   7.779   8.244   2.188 -2.2186  1.1478  0.3078
  302ACOH    O211046   7.784   8.261   2.092 -0.5839 -0.1113  0.1589
  302ACOH    C211047   7.755   8.389   2.062 -0.0508  0.4997  0.2811
  302ACOH    O111048   7.695   8.473   2.128  0.3032  0.5109  0.7260
  302ACOH    C111049   7.783   8.407   1.919  0.2405  0.4442  0.1283
  302ACOH    H111050   7.835   8.502   1.910 -0.5659  0.9138  0.4130
  302ACOH    H211051   7.696   8.393   1.855  0.2593  0.5932  0.0701
  302ACOH    H311052   7.856   8.334   1.883 -1.3101 -2.0224  1.8230
  303ACOH    H411053   4.728   7.491   1.069 -0.3503  1.3703  1.0370
  303ACOH    O211054   4.718   7.447   1.156 -0.4782  0.2443  0.4686
  303ACOH    C211055   4.588   7.427   1.174  0.1630  0.0737  0.2288
  303ACOH    O111056   4.504   7.513   1.147  0.0233  1.0456  0.2009
  303ACOH    C111057   4.567   7.325   1.277 -1.0876 -0.1445 -0.2806
  303ACOH    H111058   4.563   7.373   1.375  2.0129 -0.7825  0.1864
  303ACOH    H211059   4.648   7.253   1.277  0.9480  2.1121 -0.0212
  303ACOH    H311060   4.475   7.268   1.259 -1.8958  1.0284  0.0421
  304ACOH    H411061   5.397   2.297   0.759  0.8004 -0.9641 -1.0376
  304ACOH    O211062   5.479   2.349   0.755  0.4851 -0.3619  0.3062
  304ACOH    C211063   5.574   2.274   0.811 -0.2939  0.3742 -0.3559
  304ACOH    O111064   5.554   2.162   0.856  0.2038 -0.3849 -0.2230
  304ACOH    C111065   5.715   2.316   0.781 -0.1922  0.2692 -0.1936
  304ACOH    H111066   5.778   2.227   0.776  1.3599  1.4703 -3.0738
  304ACOH    H211067   5.742   2.381   0.865 -1.5179  0.9655 -0.3017
  304ACOH    H311068   5.715   2.374   0.689  2.9405  1.2035  0.3218
  305ACOH    H411069   3.952   5.519   1.572  2.2289  2.6911 -2.3027
  305ACOH    O211070   3.894   5.476   1.507  0.6176  0.5229  0.4304
  305ACOH    C211071   3.766   5.517   1.492  0.0314  0.9674  0.2177
  305ACOH    O111072   3.678   5.440   1.451  0.4547 -0.3654  0.3421
  305ACOH    C111073   3.737   5.626   1.578 -0.5715  0.0726  0.2674
  305ACOH    H111074   3.664   5.696   1.539 -0.8545 -1.8515 -2.8891
  305ACOH    H211075   3.823   5.688   1.601 -1.0599  1.1644 -0.7741
  305ACOH    H311076   3.695   5.586   1.670 -0.4042  0.7994  0.6589
  306ACOH    H411077   7.503   0.628   0.197  0.1308 -1.5128  0.3370
  306ACOH    O211078   7.583   0.669   0.236 -0.4151 -0.1837  0.0716
  306ACOH    C211079   7.610   0.788   0.174 -0.0811  0.2923 -0.5539
  306ACOH    O111080   7.605   0.804   0.056 -0.0058 -0.0038 -0.2163
  306ACOH    C111081   7.691   0.880   0.256  0.0643 -0.1552 -0.0519
  306ACOH    H111082   7.675   0.859   0.361 -0.2704 -1.6000 -0.3820
  306ACOH    H211083   7.663   0.982   0.229  1.8630  1.0327  2.3997
  306ACOH    H311084   7.793   0.856   0.225  0.7000  0.3542  1.6120
  307ACOH    H411085   3.993   6.963   0.503 -1.7169 -1.6034  0.0579
  307ACOH    O211086   4.068   6.914   0.541 -0.0471  0.2580 -0.7521
  307ACOH    C211087   4.170   7.001   0.534 -0.5411  0.0698  0.0627
  307ACOH    O111088   4.162   7.121   0.512  0.1018  0.3224  0.2993
  307ACOH    C111089   4.295   6.922   0.562  0.4632 -0.1477 -0.7451
  307ACOH    H111090   4.295   6.879   0.662 -0.8244  0.0807 -0.6309
  307ACOH    H211091   4.380   6.990   0.567 -0.0168  0.3996  0.2260
  307ACOH    H311092   4.329   6.842   0.496  5.3833  1.4142 -0.2945
  308ACOH    H411093   7.841   5.978   1.941 -0.6007 -0.0001  2.8295
  308ACOH    O211094   7.787   5.904   1.909  1.0237 -0.1858  0.3046
  308ACOH    C211095   7.701   5.862   2.004 -0.8286  0.5980 -0.0631
  308ACOH    O111096   7.683   5.907   2.117  0.4357  0.4260 -0.7398
  308ACOH    C111097   7.630   5.746   1.958  0.0064  0.2714 -0.9567
  308ACOH    H111098   7.620   5.734   1.850  1.0051 -1.3674 -0.8743
  308ACOH    H211099   7.525   5.758   1.988  0.1899 -0.5318  0.0197
  308ACOH    H311100   7.674   5.657   2.001 -2.6596 -1.3268 -1.3980
  309ACOH    H411101   1.639   6.082   2.849 -2.2679  0.8864 -1.2299
  309ACOH    O211102   1.598   6.103   2.934 -0.3357  0.2873 -0.1268
  309ACOH    C211103   1.627   6.234   2.956  0.2725  0.3252  0.2643
  309ACOH    O111104   1.685   6.306   2.882  0.0620  0.3588 -0.1162
  309ACOH    C111105   1.553   6.284   3.071  0.9888 -0.8009  0.2665
  309ACOH    H111106   1.516   6.206   3.137 -1.6320  0.6984  0.6133
  309ACOH    H211107   1.461   6.334   3.043  1.4336 -0.7506 -1.1247
  309ACOH    H311108   1.620   6.342   3.135 -0.7514  0.8045  0.6712
  310ACOH    H411109   6.757   0.876   3.302  0.5735 -1.9195  1.3659
  310ACOH    O211110   6.821   0.926   3.355  0.1451  0.3947 -0.2089
  310ACOH    C211111   6.761   0.958   3.471 -0.1817  0.4394  0.3599
  310ACOH    O111112   6.666   0.901   3.510 -0.0461  0.0055 -0.0197
  310ACOH    C111113   6.853   1.043   3.556  0.0462  0.0854 -0.2238
  310ACOH    H111114   6.893   1.132   3.507  2.5660 -1.2189 -0.6273
  310ACOH    H211115   6.936   0.984   3.595  0.9296  1.3926 -0.0991
  310ACOH    H311116   6.792   1.075   3.640  0.8653 -0.6594  0.6616
  311ACOH    H411117   6.835   1.621   2.708 -1.0791  0.5193 -0.9931
  311ACOH    O211118   6.895   1.679   2.658 -0.2414  0.2158 -0.3498
  311ACOH    C211119   6.981   1.614   2.580 -0.6132  1.1501  0.1410
  311ACOH    O111120   6.977   1.497   2.555  0.2036 -0.2311 -0.1364
  311ACOH    C111121   7.076   1.701   2.511 -0.4887 -0.3181 -0.5688
  311ACOH    H111122   7.177   1.661   2.507 -0.6984 -1.0871  1.2420
  311ACOH    H211123   7.072   1.801   2.554  0.7305 -0.3217 -0.4504
  311ACOH    H311124   7.043   1.695   2.407 -0.5250 -0.7288 -0.5327
  312ACOH    H411125   3.975   4.820   3.393  2.4506  0.8610 -2.6876
  312ACOH    O211126   4.026   4.851   3.469 -0.6799 -0.4016  0.0172
  312ACOH    C211127   4.021   4.755   3.562  0.3981 -0.3944  0.2707
  312ACOH    O111128   3.984   4.642   3.547 -0.5133  0.4234 -1.1259
  312ACOH    C111129   4.109   4.795   3.678  0.0083  0.5254  0.2045
  312ACOH    H111130   4.038   4.827   3.754  0.5337  1.2854  0.3875
  312ACOH    H211131   4.185   4.867   3.645 -0.4203  0.2717 -1.4023
  312ACOH    H311132   4.155   4.701   3.707  1.8167  1.7751  1.5200
  315ACOH    H411133   5.296   7.937   0.643 -0.1152 -1.6891 -1.2117
  315ACOH    O211134   5.372   7.924   0.702 -0.4418 -0.6155 -0.5255
  315ACOH    C211135   5.353   7.826   0.791 -0.2835  0.0286  0.2047
  315ACOH    O111136   5.250   7.757   0.789  0.3017 -0.5105 -0.6081
  315ACOH    C111137   5.474   7.782   0.860 -1.3495 -0.1936  0.0263
  315ACOH    H111138   5.564   7.811   0.804  0.6717  0.8936  3.6368
  315ACOH    H211139   5.480   7.674   0.876  3.7614  0.0656  0.7890
  315ACOH    H311140   5.478   7.834   0.956  0.2983 -3.8658  2.0769
  316ACOH    H411141   6.820   4.680   0.040 -1.2649  1.6572  0.5752
  316ACOH    O211142   6.816   4.605   0.101 -0.2634  0.1736 -1.1392
  316ACOH    C211143   6.933   4.547   0.125  0.5218 -0.4941  0.0253
  316ACOH    O111144   7.030   4.577   0.062 -0.2780  0.0443 -0.2812
  316ACOH    C111145   6.915   4.441   0.229  0.8349 -0.2618 -0.4184
  316ACOH    H111146   6.883   4.482   0.326 -1.2470 -2.3846 -0.1700
  316ACOH    H211147   7.013   4.396   0.243  0.9695  0.6551  2.0023
  316ACOH    H311148   6.836   4.374   0.196 -0.8735  2.1309 -1.3931
  317ACOH    H411149   8.010   1.557   1.576 -1.3670  1.5397  1.7659
  317ACOH    O211150   7.962   1.485   1.620  0.2968 -0.5840  0.2477
  317ACOH    C211151   8.037   1.377   1.636 -0.5415 -0.0691 -0.9457
  317ACOH    O111152   8.158   1.370   1.663  0.3344  0.3568  0.2650
  317ACOH    C111153   7.942   1.267   1.656  0.2967 -0.4536  0.2998
  317ACOH    H111154   7.879   1.292   1.741 -1.2306  0.6945 -1.1618
  317ACOH    H211155   7.992   1.173   1.681  0.9782  0.0843  1.0002
  317ACOH    H311156   7.888   1.249   1.564 -0.7819 -0.4339  0.9269
  318ACOH    H411157   3.535   3.850   2.441  0.3118 -0.1637  1.5272
  318ACOH    O211158   3.440   3.847   2.419  0.5763 -0.2662  0.3611
  318ACOH    C211159   3.382   3.808   2.534  0.4184 -0.7001  0.4947
  318ACOH    O111160   3.435   3.800   2.641 -0.2041 -0.7003 -0.0490
  318ACOH    C111161   3.233   3.822   2.512  0.4079  0.3758  0.1521
  318ACOH    H111162   3.167   3.816   2.599  1.0803 -0.3185  0.6134
  318ACOH    H211163   3.210   3.746   2.438  0.8175  1.7384 -1.4191
  318ACOH    H311164   3.211   3.916   2.460  0.4105  1.2461  1.6827
  319ACOH    H411165   0.382   1.259   2.121 -0.3356 -0.1975  0.3402
  319ACOH    O211166   0.331   1.337   2.094  0.0151  0.0162  0.2839
  319ACOH    C211167   0.275   1.391   2.205 -0.5732  0.3130  0.3814
  319ACOH    O111168   0.323   1.361   2.311  0.3508  0.1494  0.6972
  319ACOH    C111169   0.181   1.507   2.179  0.3787  0.3163  0.4189
  319ACOH    H111170   0.241   1.598   2.182  1.3042 -0.3146  1.3453
  319ACOH    H211171   0.097   1.509   2.249 -1.4736  0.8919 -1.7382
  319ACOH    H311172   0.143   1.501   2.077  0.4170  0.2704  0.4072
  320ACOH    H411173   2.694   6.669   0.314 -1.0297 -0.1701 -0.9085
  320ACOH    O211174   2.755   6.722   0.261 -0.0925 -0.2469  0.0649
  320ACOH    C211175   2.784   6.832   0.336 -0.2776 -0.0771 -0.4486
  320ACOH    O111176   2.761   6.843   0.452 -0.8675 -0.0216  0.4508
  320ACOH    C111177   2.876   6.924   0.267  0.1138 -0.1950 -0.1246
  320ACOH    H111178   2.852   6.922   0.161  1.4665 -0.9423 -0.4152
  320ACOH    H211179   2.979   6.890   0.278  0.4348  0.2344 -1.7524
  320ACOH    H311180   2.873   7.028   0.299  0.6711 -0.2678  0.1609
  321ACOH    H411181   7.814   8.725   0.248 -0.4825  0.3642  1.6866
  321ACOH    O211182   7.777   8.650   0.297 -0.5400 -0.9112 -0.2877
  321ACOH    C211183   7.641   8.668   0.290  0.5449 -0.1613  0.7693
  321ACOH    O111184   7.579   8.772   0.289 -0.0452  0.2415 -0.1549
  321ACOH    C111185   7.580   8.538   0.317  1.0942  0.0087 -0.0292
  321ACOH    H111186   7.471   8.537   0.308  0.9159  1.7092  1.5068
  321ACOH    H211187   7.605   8.507   0.419 -2.2431  2.2334  1.5794
  321ACOH    H311188   7.619   8.466   0.246  1.4809  1.1621 -0.9849
  322ACOH    H411189   4.884   1.783   3.152 -0.6643  2.6810  3.5169
  322ACOH    O211190   4.966   1.831   3.132  0.1502 -0.0210 -0.2735
  322ACOH    C211191   4.937   1.961   3.170 -0.6584  1.1645 -0.2216
  322ACOH    O111192   4.832   2.005   3.211 -0.4914 -0.4474  0.1978
  322ACOH    C111193   5.056   2.039   3.137  0.0568  0.1783 -0.5517
  322ACOH    H111194   5.087   2.013   3.036 -1.1600 -0.7579 -0.7030
  322ACOH    H211195   5.140   2.016   3.202 -0.1516 -1.6398 -0.9001
  322ACOH    H311196   5.036   2.146   3.148  0.0073  0.2534 -1.3254
  323ACOH    H411197   7.032   6.469   3.398 -0.6590 -0.2755  2.1752
  323ACOH    O211198   6.939   6.440   3.394 -0.3760 -0.9052 -0.6414
  323ACOH    C211199   6.925   6.348   3.294  0.4137  0.7091  0.9275
  323ACOH    O111200   7.010   6.317   3.211 -0.3128  0.0728 -0.1146
  323ACOH    C111201   6.796   6.286   3.313 -0.4129 -0.0441 -0.1426
  323ACOH    H111202   6.722   6.317   3.239 -0.2546 -0.7114 -0.5816
  323ACOH    H211203   6.739   6.310   3.403  1.3585 -1.7177  1.4633
  323ACOH    H311204   6.818   6.180   3.300  0.7017  0.1109  0.4086
  325ACOH    H411205   4.561  10.001   1.049  1.3973 -1.7717 -0.1715
  325ACOH    O211206   4.626  10.027   0.982  0.1124  0.9465 -0.4233
  325ACOH    C211207   4.744   9.969   1.003  0.1001 -0.0109 -0.3458
  325ACOH    O111208   4.782   9.915   1.104 -0.0743  0.1163  0.7621
  325ACOH    C111209   4.809   9.959   0.873 -0.6010 -0.2491 -0.5396
  325ACOH    H111210   4.764  10.031   0.804 -1.2925  0.5405  0.7150
  325ACOH    H211211   4.771   9.863   0.838 -3.7525  1.6073 -2.5725
  325ACOH    H311212   4.917   9.965   0.867 -0.5420  0.5131  1.2353
  326ACOH    H411213   7.441   0.790   3.956  0.0452 -1.7833 -2.2673
  326ACOH    O211214   7.462   0.858   3.890 -0.4343  0.9772  0.3191
  326ACOH    C211215   7.376   0.833   3.794 -0.6818 -0.0561 -0.0654
  326ACOH    O111216   7.306   0.738   3.779 -0.2495 -0.3269 -0.4388
  326ACOH    C111217   7.386   0.943   3.699  0.0050  0.3180 -0.0291
  326ACOH    H111218   7.357   1.040   3.741  3.4130  0.7888  1.4283
  326ACOH    H211219   7.324   0.919   3.613  2.0980 -2.2527 -0.8404
  326ACOH    H311220   7.483   0.955   3.652 -0.4986  3.0753 -0.4859
  327ACOH    H411221   2.119   2.224   3.743  1.8944  4.6174  0.8594
  327ACOH    O211222   2.029   2.257   3.762  0.0155  0.2009  0.4517
  327ACOH    C211223   1.952   2.170   3.689 -0.4657  0.9959  0.5386
  327ACOH    O111224   1.993   2.065   3.641  0.0759 -0.3127 -0.4547
  327ACOH    C111225   1.816   2.223   3.683 -0.1049 -0.0139 -0.7487
  327ACOH    H111226   1.805   2.300   3.607  0.3604 -0.1843 -0.9889
  327ACOH    H211227   1.790   2.270   3.778 -0.5040 -0.6505 -0.5392
  327ACOH    H311228   1.740   2.149   3.657  0.2296 -0.6082 -0.0498
  328ACOH    H411229   5.139   3.520   3.149  1.7119 -0.0494  0.5480
  328ACOH    O211230   5.143   3.586   3.221  0.2998  0.2165  0.4090
  328ACOH    C211231   5.013   3.630   3.242  0.3171  0.0684  0.5032
  328ACOH    O111232   4.914   3.574   3.202  0.1243  0.5034  0.7200
  328ACOH    C111233   5.022   3.751   3.322 -0.2136 -0.8245 -0.1319
  328ACOH    H111234   4.922   3.795   3.330 -1.0307 -2.3505 -1.8327
  328ACOH    H211235   5.088   3.816   3.265  1.5995  0.3619  3.1532
  328ACOH    H311236   5.060   3.724   3.421 -1.8373 -0.4161  0.6245
  330ACOH    H411237   7.430   2.925   0.599  2.1726 -1.6724  1.0777
  330ACOH    O211238   7.364   2.878   0.651  0.3077 -0.1728  0.1054
  330ACOH    C211239   7.262   2.848   0.564 -0.1114 -1.3880  0.1967
  330ACOH    O111240   7.242   2.913   0.462 -0.4581 -0.0099 -0.8068
  330ACOH    C111241   7.146   2.785   0.630 -0.1129  0.2977 -0.2241
  330ACOH    H111242   7.067   2.855   0.657  0.1677  0.1444  1.0369
  330ACOH    H211243   7.177   2.738   0.723  0.3523  0.9959 -0.0217
  330ACOH    H311244   7.104   2.707   0.566  1.8598  0.2903 -1.5509
  331ACOH    H411245   0.461   7.749   4.685  0.2508 -1.8969 -0.6592
  331ACOH    O211246   0.493   7.735   4.775  0.3260  0.1030 -0.3596
  331ACOH    C211247   0.608   7.657   4.757 -0.3320  0.0427  0.3919
  331ACOH    O111248   0.625   7.582   4.663 -0.6914 -0.5582  0.3958
  331ACOH    C111249   0.680   7.620   4.883  0.6078  0.5412  0.7311
  331ACOH    H111250   0.697   7.720   4.924  2.4002 -0.2405  1.9488
  331ACOH    H211251   0.772   7.564   4.867  1.1499  1.7853 -0.6420
  331ACOH    H311252   0.614   7.564   4.950  0.9614  0.5476  1.0855
  332ACOH    H411253   5.759   7.597   1.581  1.3780 -2.3401  0.1852
  332ACOH    O211254   5.798   7.623   1.496  0.0522  0.4968  0.3965
  332ACOH    C211255   5.777   7.749   1.493  0.1546 -0.3247 -0.3535
  332ACOH    O111256   5.742   7.825   1.583 -0.0373  0.5796  0.6189
  332ACOH    C111257   5.814   7.799   1.359  0.4650  0.3370 -0.0680
  332ACOH    H111258   5.789   7.732   1.277 -2.7102  0.7191  0.5144
  332ACOH    H211259   5.923   7.806   1.360  0.8026 -3.6941 -1.2341
  332ACOH    H311260   5.761   7.893   1.343  0.6489  0.9721  2.8550
  334ACOH    H411261   4.807   7.584   3.809 -0.6656 -0.4381  1.6399
  334ACOH    O211262   4.748   7.661   3.810  0.3901  0.4182  0.1725
  334ACOH    C211263   4.821   7.766   3.780 -0.3154 -0.1372  0.0801
  334ACOH    O111264   4.931   7.796   3.823 -0.2616  0.1413 -0.2045
  334ACOH    C111265   4.743   7.868   3.704 -0.2459  0.7955 -0.2152
  334ACOH    H111266   4.664   7.916   3.762 -1.1555 -1.6496  0.6806
  334ACOH    H211267   4.704   7.821   3.613 -0.4516  2.1479 -0.8328
  334ACOH    H311268   4.818   7.935   3.664 -0.5312  1.4433  0.3332
  336ACOH    H411269   4.860   8.945   0.385  2.1058 -0.2611  1.6636
  336ACOH    O211270   4.853   9.039   0.361  0.5237 -0.7965 -0.0284
  336ACOH    C211271   4.746   9.050   0.283 -0.0896  0.6701  0.0206
  336ACOH    O111272   4.702   8.950   0.223 -0.4549  0.4108 -0.1954
  336ACOH    C111273   4.724   9.187   0.239  0.0501  0.5815 -0.4243
  336ACOH    H111274   4.618   9.203   0.219 -0.4297 -1.6437  0.1405
  336ACOH    H211275   4.781   9.200   0.147 -0.2142 -1.4545 -0.9029
  336ACOH    H311276   4.761   9.256   0.315  0.7733 -0.5986  0.3123
  337ACOH    H411277   6.168   7.121   3.387 -1.5573 -1.5314 -0.9135
  337ACOH    O211278   6.187   7.060   3.461  0.2659 -0.0735 -0.1176
  337ACOH    C211279   6.089   7.079   3.550  0.9212  0.3198  0.0405
  337ACOH    O111280   5.975   7.121   3.536  0.2364 -0.3475  0.3714
  337ACOH    C111281   6.139   7.026   3.678  0.5044 -0.3257  0.4497
  337ACOH    H111282   6.060   6.988   3.744  0.5131  1.3076  1.4239
  337ACOH    H211283   6.201   7.097   3.733  1.0409 -1.1049  0.8620
  337ACOH    H311284   6.208   6.945   3.655 -1.6983 -2.6773  1.7621
  338ACOH    H411285   5.617   2.801   0.565 -0.6582  0.8124 -0.2995
  338ACOH    O211286   5.555   2.728   0.548  0.2668 -0.1046  0.1592
  338ACOH    C211287   5.615   2.616   0.511 -0.5211 -0.2913  0.1351
  338ACOH    O111288   5.735   2.598   0.514  0.0595  0.7699  0.2547
  338ACOH    C111289   5.524   2.501   0.481 -0.3726 -0.5730 -0.6861
  338ACOH    H111290   5.553   2.415   0.542 -0.5656 -0.4842 -0.4689
  338ACOH    H211291   5.515   2.480   0.374  1.5738  1.4060 -1.2529
  338ACOH    H311292   5.425   2.531   0.517 -1.1535 -1.3847 -2.0775
  339ACOH    H411293   3.834   5.718   2.180  0.5971 -0.5864  0.1774
  339ACOH    O211294   3.903   5.784   2.159 -0.0503  0.0498  0.0215
  339ACOH    C211295   3.966   5.738   2.051  0.3686 -0.3028  0.8042
  339ACOH    O111296   3.954   5.631   1.991 -0.5489 -0.1911 -0.0687
  339ACOH    C111297   4.071   5.836   2.020 -0.0466 -0.6031  1.0058
  339ACOH    H111298   4.058   5.876   1.919 -0.8588 -2.2316  0.4560
  339ACOH    H211299   4.173   5.797   2.022 -0.2937 -1.3235 -0.0051
  339ACOH    H311300   4.078   5.920   2.089  0.8714 -0.4684  0.7586
  341ACOH    H411301   7.991   6.290   4.890  4.6554 -0.2161  0.8468
  341ACOH    O211302   8.004   6.330   4.803 -0.3652  0.6861  0.3622
  341ACOH    C211303   8.071   6.237   4.728  0.1654 -0.3358 -0.0022
  341ACOH    O111304   8.151   6.153   4.771 -0.1124  0.3552  0.0172
  341ACOH    C111305   8.053   6.284   4.591  0.1827  0.0570 -0.5919
  341ACOH    H111306   8.011   6.210   4.523  0.9323 -1.3975  0.4991
  341ACOH    H211307   8.154   6.314   4.560  0.8762 -0.4344  1.1483
  341ACOH    H311308   7.990   6.373   4.583 -0.7619 -0.4882  0.6215
  342ACOH    H411309   1.790   6.645   2.631 -0.5021  0.9566 -1.7782
  342ACOH    O211310   1.700   6.629   2.666  0.3892 -0.2999  0.0270
  342ACOH    C211311   1.709   6.632   2.800 -0.7209 -0.1065  0.0615
  342ACOH    O111312   1.810   6.618   2.867  0.0390  0.4268  0.1811
  342ACOH    C111313   1.570   6.636   2.859 -0.1063  0.2213 -0.0089
  342ACOH    H111314   1.494   6.669   2.788 -0.7271  0.0499  0.5715
  342ACOH    H211315   1.570   6.716   2.933 -0.0573  0.6400 -0.4570
  342ACOH    H311316   1.543   6.539   2.901 -1.5273  0.2174 -0.8851
  343ACOH    H411317   6.523   8.355   3.454 -2.0722 -1.0809  1.4424
  343ACOH    O211318   6.502   8.428   3.514 -0.5919  0.2866  0.3484
  343ACOH    C211319   6.611   8.483   3.569  0.5829  0.1454 -0.5127
  343ACOH    O111320   6.728   8.460   3.547 -0.3571  0.2725  0.3256
  343ACOH    C111321   6.574   8.599   3.645  0.4024  0.3985  0.0144
  343ACOH    H111322   6.522   8.577   3.738  0.5041 -1.2269 -0.2989
  343ACOH    H211323   6.507   8.662   3.587 -0.9203  0.1792  1.2768
  343ACOH    H311324   6.656   8.663   3.679 -0.3141  0.4809  1.6534
  344ACOH    H411325   5.671   9.382   1.274  1.9243  0.3469  0.1518
  344ACOH    O211326   5.708   9.304   1.228  0.4765 -0.3271  0.0832
  344ACOH    C211327   5.624   9.203   1.235  0.1612 -0.4630  0.2989
  344ACOH    O111328   5.503   9.209   1.245  0.3232 -0.0511 -0.6910
  344ACOH    C111329   5.691   9.074   1.211 -0.6312 -0.0106 -0.3742
  344ACOH    H111330   5.724   9.062   1.108  1.0429  3.0105 -0.2321
  344ACOH    H211331   5.626   8.989   1.232 -0.2285  0.0222  1.0704
  344ACOH    H311332   5.779   9.051   1.270 -0.7447 -2.2792 -1.0344
  345ACOH    H411333   6.149   0.998   3.129 -0.1635  0.3716  0.6460
  345ACOH    O211334   6.200   0.951   3.197 -0.1634 -0.3310  0.1598
  345ACOH    C211335   6.253   1.047   3.275 -0.0456  0.1094  1.0105
  345ACOH    O111336   6.263   1.166   3.251 -0.4244 -0.2687  0.2749
  345ACOH    C111337   6.316   0.989   3.400 -0.0452 -0.6820  0.1763
  345ACOH    H111338   6.233   0.932   3.442  0.5365 -1.6980 -0.0565
  345ACOH    H211339   6.356   1.059   3.473  1.8675 -0.6055 -0.9148
  345ACOH    H311340   6.399   0.924   3.373 -1.2462 -1.6946 -1.1752
  346ACOH    H411341   4.718   3.049   4.639 -0.5431 -1.8678  0.5771
  346ACOH    O211342   4.809   3.021   4.655  0.0881  0.3415  0.9630
  346ACOH    C211343   4.838   3.065   4.782 -0.0676  0.4997 -0.2437
  346ACOH    O111344   4.759   3.082   4.874 -0.5455  0.2175  0.1254
  346ACOH    C111345   4.978   3.030   4.814 -0.4677 -0.1460 -0.0543
  346ACOH    H111346   5.049   3.024   4.732 -1.2987 -0.0213 -0.7875
  346ACOH    H211347   4.978   2.936   4.870  2.2641 -0.0336  0.2045
  346ACOH    H311348   5.028   3.106   4.874 -0.2613  1.6064 -2.3759
  347ACOH    H411349   6.873   0.207   1.138  0.0716 -1.2542 -0.9843
  347ACOH    O211350   6.817   0.257   1.077 -0.4820 -0.0821  0.4476
  347ACOH    C211351   6.705   0.185   1.065 -0.1963  0.1412  0.4918
  347ACOH    O111352   6.680   0.078   1.121  0.1365 -0.0049  0.8405
  347ACOH    C111353   6.611   0.242   0.970 -0.0429  0.1060 -0.2935
  347ACOH    H111354   6.652   0.340   0.943  3.1336 -0.6533  1.4519
  347ACOH    H211355   6.520   0.260   1.027 -0.3437  0.9168 -1.0278
  347ACOH    H311356   6.597   0.173   0.887 -0.8431  2.4000 -2.1035
  349ACOH    H411357   4.001   5.040   2.097 -1.2078 -0.6151 -4.7473
  349ACOH    O211358   4.033   4.948   2.086  0.1140 -0.7501 -0.7118
  349ACOH    C211359   4.058   4.934   1.957  0.1419  0.7927 -0.2509
  349ACOH    O111360   4.065   5.016   1.871  0.3988 -0.0792 -0.2807
  349ACOH    C111361   4.104   4.798   1.920 -0.6875  0.9437  0.1201
  349ACOH    H111362   4.023   4.734   1.885  1.4886 -1.1398 -1.2500
  349ACOH    H211363   4.136   4.755   2.015  1.7421  0.6028 -0.8116
  349ACOH    H311364   4.193   4.798   1.857  0.2444 -0.4770  1.4132
  350ACOH    H411365   5.108   4.720   1.118 -0.8808 -0.0443 -0.7434
  350ACOH    O211366   5.137   4.647   1.060 -0.5490 -0.3675 -0.1815
  350ACOH    C211367   5.050   4.676   0.958  0.5768 -0.2619 -0.5610
  350ACOH    O111368   4.932   4.683   0.994 -0.6151  0.0901  0.4713
  350ACOH    C111369   5.094   4.617   0.826 -0.2887 -0.4447  0.6785
  350ACOH    H111370   5.066   4.512   0.815 -1.9738  0.2745 -2.9419
  350ACOH    H211371   5.202   4.622   0.818 -0.4419  0.6835 -0.9675
  350ACOH    H311372   5.050   4.666   0.739 -1.5354 -2.9596 -0.1828
  351ACOH    H411373   5.797   3.046   0.829  0.2956  0.8081  2.4352
  351ACOH    O211374   5.845   2.966   0.857  0.5343  0.1372  0.2261
  351ACOH    C211375   5.834   2.870   0.765  0.1906 -0.3641 -0.0941
  351ACOH    O111376   5.742   2.870   0.686  0.1252  0.1401  0.0846
  351ACOH    C111377   5.926   2.755   0.792  0.0907 -0.2311 -0.0062
  351ACOH    H111378   6.021   2.792   0.752 -0.6575  1.0319 -0.6471
  351ACOH    H211379   5.904   2.662   0.740 -0.0677  0.6765 -1.6083
  351ACOH    H311380   5.944   2.738   0.898  3.1397 -0.9707 -0.5957
  352ACOH    H411381   5.148   3.120   1.677 -1.9649 -2.0629 -0.1969
  352ACOH    O211382   5.220   3.054   1.670 -0.2176 -0.2510  0.1263
  352ACOH    C211383   5.225   3.000   1.794 -0.7036 -0.6029 -0.3007
  352ACOH    O111384   5.159   3.027   1.887  0.1489  0.1151  0.0703
  352ACOH    C111385   5.347   2.907   1.801  0.2006  0.1967 -0.2696
  352ACOH    H111386   5.390   2.890   1.702 -0.8476 -0.3489 -0.6405
  352ACOH    H211387   5.311   2.812   1.839 -0.4770  0.8147  0.6607
  352ACOH    H311388   5.424   2.944   1.868  0.8103  0.1370 -0.9395
  353ACOH    H411389   5.068   6.125   2.104 -1.7888  1.9980  0.9876
  353ACOH    O211390   4.996   6.066   2.130 -0.2340 -0.2883  0.2191
  353ACOH    C211391   4.998   6.080   2.263  0.4306 -0.2014  0.4018
  353ACOH    O111392   5.067   6.159   2.322 -0.1087  0.1836  0.2922
  353ACOH    C111393   4.900   5.990   2.329 -0.0379 -0.6291  0.6689
  353ACOH    H111394   4.805   6.039   2.312  0.2006 -0.2617  0.3756
  353ACOH    H211395   4.931   5.974   2.432 -0.2148 -0.5097  0.7395
  353ACOH    H311396   4.885   5.893   2.281 -2.7469  0.5535 -1.0033
  354ACOH    H411397   5.330   4.238   0.531 -0.8599  1.9867  0.5197
  354ACOH    O211398   5.417   4.239   0.575 -0.5334 -0.2466 -0.0077
  354ACOH    C211399   5.495   4.146   0.503 -0.5224  0.1640 -0.0797
  354ACOH    O111400   5.468   4.104   0.391  0.4113  0.0774  0.2830
  354ACOH    C111401   5.637   4.130   0.553 -0.4090  0.5350 -0.7387
  354ACOH    H111402   5.641   4.046   0.622  0.1966  0.5192 -0.7918
  354ACOH    H211403   5.672   4.219   0.604  2.9614 -0.5972 -0.9457
  354ACOH    H311404   5.699   4.102   0.468 -0.9384  0.7662 -1.2040
  355ACOH    H411405   5.203   5.350   1.294 -0.6539 -0.4631  0.4607
  355ACOH    O211406   5.243   5.399   1.368 -0.1953  0.2699 -0.2563
  355ACOH    C211407   5.362   5.346   1.399  0.0106 -0.6398  0.1380
  355ACOH    O111408   5.421   5.255   1.348 -0.2612  0.3946  1.0579
  355ACOH    C111409   5.434   5.432   1.492  0.7175  0.5298 -0.1015
  355ACOH    H111410   5.367   5.478   1.565  1.4634  0.3604  0.6970
  355ACOH    H211411   5.463   5.517   1.429  0.7514  1.7473  1.5278
  355ACOH    H311412   5.521   5.382   1.532 -0.9115 -3.5188 -1.3827
  357SOL     OW11413   9.202   9.111   2.856  0.2675 -0.2682 -0.4653
  357SOL    HW111414   9.294   9.085   2.884 -0.2083 -1.5569 -0.0510
  357SOL    HW211415   9.153   9.149   2.935  0.8235  1.5644 -0.9717
  358SOL     OW11416   3.026   0.403   0.471  0.4332  0.0838 -0.0051
  358SOL    HW111417   2.934   0.420   0.435 -0.7054  0.3624  2.9598
  358SOL    HW211418   3.036   0.448   0.560  2.9042 -1.2812  0.4441
  360SOL     OW11419   4.565   8.667   0.242  0.2293 -0.5928  0.3695
  360SOL    HW111420   4.517   8.747   0.205  0.3502 -0.6361  0.1129
  360SOL    HW211421   4.501   8.611   0.294  0.2735 -0.0339  1.0295
  361SOL     OW11422   4.102   1.030   0.582 -0.2111 -0.3623 -0.2266
  361SOL    HW111423   4.120   0.969   0.659 -0.0847 -1.9343 -1.4881
  361SOL    HW211424   4.179   1.030   0.520 -0.5880  0.3906 -0.7064
  362SOL     OW11425   7.702   6.213   2.424  0.2642  0.7641 -0.1570
  362SOL    HW111426   7.697   6.140   2.492  0.6475  1.4943  0.6670
  362SOL    HW211427   7.797   6.245   2.418  0.0348  1.4093 -0.2913
  365SOL     OW11428   7.690   9.194   2.613 -0.1307 -0.4675  0.7963
  365SOL    HW111429   7.654   9.273   2.663  1.8614  1.6468 -0.9615
  365SOL    HW211430   7.782   9.216   2.580 -0.3455 -2.8040 -1.4274
  366SOL     OW11431   3.695   1.192   2.748  0.1463  0.8245 -0.0144
  366SOL    HW111432   3.713   1.104   2.792 -0.7453  2.4305  3.7592
  366SOL    HW211433   3.752   1.262   2.790 -1.6761  2.6664 -0.5368
  367SOL     OW11434   1.954   1.749   2.621 -0.4865 -0.4153  0.0277
  367SOL    HW111435   1.912   1.740   2.531 -1.1684  2.4786  0.0176
  367SOL    HW211436   1.890   1.721   2.692 -0.4228 -1.3933 -0.2951
  368SOL     OW11437   8.906   6.460   3.411  0.0507 -0.2131 -0.0296
  368SOL    HW111438   8.886   6.547   3.365  3.1744  1.7565  2.1004
  368SOL    HW211439   8.872   6.464   3.505  2.7474 -0.0934  0.9807
  370SOL     OW11440   2.901   3.501   3.542  0.2807 -1.0550 -0.6105
  370SOL    HW111441   2.894   3.498   3.442  0.3017 -0.2813 -0.6408
  370SOL    HW211442   2.952   3.422   3.574  0.5721 -1.1275 -1.2435
  371SOL     OW11443   4.815   7.353   3.200 -0.2175  0.3096  0.0482
  371SOL    HW111444   4.730   7.310   3.170 -0.3529  0.6174 -0.0148
  371SOL    HW211445   4.892   7.318   3.146 -0.8847  3.3572 -3.0786
  372SOL     OW11446   1.694   3.648   1.343 -0.3559 -0.3171  0.4072
  372SOL    HW111447   1.640   3.625   1.262 -1.2102  1.7123  0.3785
  372SOL    HW211448   1.768   3.711   1.317 -0.9541  0.7569  1.2780
  373SOL     OW11449   9.575   8.365   1.690 -0.1042  0.1382  0.4882
  373SOL    HW111450   9.609   8.383   1.783  0.4959 -1.3202  0.5631
  373SOL    HW211451   9.493   8.308   1.696  0.0510 -0.1249  0.1193
  374SOL     OW11452   1.928   0.520   1.691 -0.0327  0.3989  0.1250
  374SOL    HW111453   1.919   0.618   1.674 -0.2661  0.1833 -1.0133
  374SOL    HW211454   1.949   0.473   1.605 -0.8590 -0.6693  0.5022
  375SOL     OW11455   1.622   6.314   3.446 -0.2828 -0.7796 -0.3968
  375SOL    HW111456   1.532   6.271   3.445 -0.1026 -1.1977  0.8759
  375SOL    HW211457   1.691   6.248   3.416 -0.3402 -0.6048 -0.9095
  376SOL     OW11458   8.908   1.748   3.633 -0.0696 -0.0267 -0.1214
  376SOL    HW111459   8.837   1.695   3.679 -0.6372  1.1823  0.4342
  376SOL    HW211460   8.883   1.845   3.633  1.8740  0.5165  0.6832
  378SOL     OW11461   1.455   8.132   0.746 -0.2284  0.2743 -0.0928
  378SOL    HW111462   1.511   8.053   0.772 -0.7115 -0.8372 -2.3837
  378SOL    HW211463   1.392   8.153   0.821  0.3406 -1.0909  0.8041
  379SOL     OW11464   1.916   9.712   1.992  0.0445 -0.2254  0.3112
  379SOL    HW111465   1.851   9.787   1.977  1.4512  1.2346  1.3134
  379SOL    HW211466   1.868   9.625   1.985 -2.2075  0.8311  1.8008
  380SOL     OW11467   3.480   5.081   0.899 -0.1766 -0.6503 -0.2908
  380SOL    HW111468   3.456   4.993   0.857 -1.7117  0.6903 -2.3002
  380SOL    HW211469   3.544   5.129   0.839 -0.6325  0.3168 -0.0069
  381SOL     OW11470   2.170   7.245   0.251 -0.3103 -0.2918  0.2034
  381SOL    HW111471   2.089   7.300   0.268  0.2919  1.3448 -2.0269
  381SOL    HW211472   2.234   7.256   0.328 -1.3781 -0.1001  1.0751
  382SOL     OW11473   8.848   7.497   2.899 -0.4550  0.1015 -0.5913
  382SOL    HW111474   8.826   7.593   2.914 -0.5470 -0.1563  1.0784
  382SOL    HW211475   8.937   7.476   2.940 -0.6825 -0.6485 -0.4677
  383SOL     OW11476   5.851   7.635   1.876 -0.5144 -0.2986 -0.2970
  383SOL    HW111477   5.786   7.629   1.952  0.9602 -0.4270  0.9844
  383SOL    HW211478   5.878   7.730   1.862 -1.2191 -0.2034 -1.0493
  385SOL     OW11479   7.567   2.998   0.551  0.1856  1.0666  0.0355
  385SOL    HW111480   7.540   3.078   0.603 -0.8175  1.5109 -1.1393
  385SOL    HW211481   7.567   3.020   0.453  2.0001  0.2480 -0.1739
  386SOL     OW11482   2.869   1.875   2.895 -0.0962  0.0082 -0.2714
  386SOL    HW111483   2.793   1.828   2.939  0.9903 -1.7813 -0.2657
  386SOL    HW211484   2.880   1.841   2.802 -0.7644  1.9486 -1.0855
  387SOL     OW11485   4.707   8.367   3.075  0.2495 -0.1252 -0.4008
  387SOL    HW111486   4.649   8.391   3.152 -0.8777  1.4514 -1.7041
  387SOL    HW211487   4.796   8.412   3.085 -0.0010  0.3208 -0.1953
  389SOL     OW11488   1.973   5.852   0.209  0.0707  0.0469 -0.2650
  389SOL    HW111489   2.000   5.835   0.303  0.7056 -0.3446 -0.5191
  389SOL    HW211490   1.876   5.829   0.198 -0.3822  1.4226  0.6287
  390SOL     OW11491   8.944   8.489   0.307  0.1160  0.6065  0.4694
  390SOL    HW111492   9.041   8.484   0.330  0.0994  1.1160  0.6439
  390SOL    HW211493   8.915   8.585   0.303 -0.3288  0.4633  0.2092
  391SOL     OW11494   7.066   9.629   1.955  0.5159 -0.4585  0.0108
  391SOL    HW111495   7.045   9.614   1.858  0.1600 -0.9154  0.1601
  391SOL    HW211496   7.044   9.724   1.979  2.3420  0.2065 -0.8117
  393SOL     OW11497   7.514   0.988   3.160  0.1751  0.0680 -0.0079
  393SOL    HW111498   7.559   0.906   3.125  1.0060  0.5207 -0.0301
  393SOL    HW211499   7.581   1.063   3.163  0.0456  0.1184  2.2658
  394SOL     OW11500   2.310   4.755   2.140 -0.2512 -0.0608 -0.0220
  394SOL    HW111501   2.323   4.660   2.115 -0.2820 -0.0554 -0.0605
  394SOL    HW211502   2.391   4.808   2.115  0.4078 -0.3584  1.4227
  396SOL     OW11503   0.934   5.691   0.473  0.4219  0.3790  0.0230
  396SOL    HW111504   0.962   5.606   0.427 -0.7182 -0.7068  1.2923
  396SOL    HW211505   0.865   5.738   0.417 -0.3679 -0.5239  0.2209
  397SOL     OW11506   7.565   2.652   1.915  0.6209  0.2996  0.4296
  397SOL    HW111507   7.488   2.715   1.905 -1.1789 -1.6939  1.3414
  397SOL    HW211508   7.638   2.678   1.852 -1.1317  1.7176 -1.0508
  398SOL     OW11509   8.293   2.866   2.930  0.1540  0.9552  0.7571
  398SOL    HW111510   8.259   2.891   3.021  0.3442  1.7368  0.6139
  398SOL    HW211511   8.393   2.860   2.932  0.0140 -2.1328  1.3798
  399SOL     OW11512   5.008   0.233   3.441  0.3902 -0.1830 -0.6233
  399SOL    HW111513   5.017   0.236   3.342 -0.9482  0.9071 -0.7326
  399SOL    HW211514   4.913   0.210   3.465 -0.1607  2.9575  0.3732
  400SOL     OW11515   1.638   7.568   2.572 -0.1301  0.1074  0.1019
  400SOL    HW111516   1.642   7.503   2.495 -1.6584 -0.2955  0.3516
  400SOL    HW211517   1.618   7.659   2.538  3.5745  0.8142 -0.4254
  401SOL     OW11518   0.103   7.102   1.165 -0.3065  0.5703  0.4931
  401SOL    HW111519   0.052   7.075   1.084 -0.4113  1.0285  0.4037
  401SOL    HW211520   0.039   7.130   1.237 -0.1610  2.4228 -0.0689
  402SOL     OW11521   7.730   5.702   0.363  0.5490 -0.1481  0.1410
  402SOL    HW111522   7.641   5.671   0.331  0.8529 -0.6379 -0.2578
  402SOL    HW211523   7.760   5.779   0.308 -0.2585  0.9399  1.2063
  403SOL     OW11524   1.578   2.855   2.645  0.0035 -0.0830 -0.3910
  403SOL    HW111525   1.564   2.758   2.667 -0.2892 -0.1464 -0.8387
  403SOL    HW211526   1.544   2.873   2.552 -2.6372  1.0886  0.7434
  404SOL     OW11527   3.052   1.603   1.622  0.0093  0.3123 -0.3746
  404SOL    HW111528   3.082   1.509   1.607  0.2701 -0.0719  2.3317
  404SOL    HW211529   3.101   1.664   1.561  1.1080 -1.1115 -0.9416
  405SOL     OW11530   7.563   7.871   2.061 -0.0573  0.1078  0.5798
  405SOL    HW111531   7.504   7.837   1.987  0.8043  1.1263 -0.5986
  405SOL    HW211532   7.523   7.955   2.098  0.0862  0.2037  0.5170
  406SOL     OW11533   2.065   7.728   1.480  0.1378 -0.1400 -0.1551
  406SOL    HW111534   1.981   7.782   1.479  0.0129 -0.3343 -1.5824
  406SOL    HW211535   2.056   7.654   1.547 -1.1354 -0.6249 -0.8505
  407SOL     OW11536   7.906   9.651   0.650 -0.4957 -0.2589  0.3217
  407SOL    HW111537   7.850   9.642   0.733  0.3477  2.4719  1.2441
  407SOL    HW211538   8.002   9.660   0.676 -0.2073  0.4403 -0.9371
  408SOL     OW11539   0.185   6.086   0.703  0.5364 -0.0866  0.1541
  408SOL    HW111540   0.120   6.048   0.638  0.8160 -2.1446  1.0419
  408SOL    HW211541   0.144   6.165   0.749 -0.6848 -0.3116 -0.5303
  409SOL     OW11542   9.608   8.771   2.453 -0.1790  0.1748  0.1509
  409SOL    HW111543   9.685   8.785   2.516  0.7687 -0.8276 -0.7602
  409SOL    HW211544   9.619   8.831   2.373 -0.5337  0.2976  0.1944
  410SOL     OW11545   2.521   1.915   2.727 -0.0507  0.1398  0.4650
  410SOL    HW111546   2.488   1.821   2.715 -1.1371  0.5848 -0.1647
  410SOL    HW211547   2.582   1.938   2.652  0.0595  0.0064  0.5127
  411SOL     OW11548   1.658   1.449   3.728 -0.2149  0.0458  0.3782
  411SOL    HW111549   1.632   1.367   3.677 -1.8795  0.8232 -0.0637
  411SOL    HW211550   1.617   1.446   3.819  0.1851  0.1288  0.5624
  412SOL     OW11551   0.598   6.071   2.374  0.0631  0.4221  0.1035
  412SOL    HW111552   0.697   6.073   2.387  0.1885  1.5776 -0.9030
  412SOL    HW211553   0.577   6.037   2.282 -0.5784 -2.1328  1.1641
  413SOL     OW11554   3.853   6.369   2.113  0.1401 -0.6929 -0.2513
  413SOL    HW111555   3.945   6.384   2.149 -0.2392  1.2432  0.0019
  413SOL    HW211556   3.857   6.300   2.041  1.9211 -0.1482 -0.7282
  415SOL     OW11557   3.170   7.149   0.897  0.4125 -0.6072 -0.4902
  415SOL    HW111558   3.159   7.110   0.989 -1.1949 -0.1059 -0.4587
  415SOL    HW211559   3.081   7.181   0.864  1.0245 -0.5810 -2.1333
  416SOL     OW11560   4.568   2.012   3.163 -0.2239  0.5454 -0.2271
  416SOL    HW111561   4.666   2.033   3.167  0.0153 -0.7082  0.7699
  416SOL    HW211562   4.516   2.088   3.202  0.5178  0.1067  1.6630
  417SOL     OW11563   7.517   7.519   1.918  0.3439 -0.0688 -0.4574
  417SOL    HW111564   7.574   7.516   1.836  0.2207 -2.6260 -0.5034
  417SOL    HW211565   7.477   7.428   1.934 -0.3282  0.6142  1.9510
  418SOL     OW11566   7.191   0.901   2.477  0.1920 -0.2335 -0.9723
  418SOL    HW111567   7.102   0.874   2.514  1.2052  1.1432  2.6688
  418SOL    HW211568   7.180   0.985   2.423 -0.6703  0.1853 -0.1616
  419SOL     OW11569   9.906   0.768   1.861  0.3573 -0.3543  0.1185
  419SOL    HW111570   9.950   0.857   1.847 -1.5137  0.6047  0.1484
  419SOL    HW211571   9.875   0.731   1.773 -2.4148  0.9383  0.4893
  420SOL     OW11572   2.198   7.403   2.375 -0.0815 -0.2737  0.2436
  420SOL    HW111573   2.173   7.492   2.338  0.7795 -0.3599 -0.5643
  420SOL    HW211574   2.134   7.333   2.339  1.2269 -0.4821 -1.7613
  421SOL     OW11575   8.255   0.094   3.099  0.7080  0.4476 -0.3195
  421SOL    HW111576   8.325   0.078   3.169  1.3813  2.0068 -0.6238
  421SOL    HW211577   8.246   0.192   3.082 -1.7625  0.2889 -0.0952
  422SOL     OW11578   3.050   6.829   3.011 -0.0937 -0.0065 -0.7325
  422SOL    HW111579   2.969   6.888   3.014  0.1904  0.3257  1.4082
  422SOL    HW211580   3.107   6.854   2.933 -0.5272  1.8276 -0.4844
  423SOL     OW11581   9.428   2.912   0.082  0.4127  0.1721  0.4889
  423SOL    HW111582   9.370   2.868   0.014 -0.2631 -0.6253  1.5687
  423SOL    HW211583   9.398   3.007   0.095  0.8437  0.4754 -0.6518
  424SOL     OW11584   0.665   0.986   1.989  0.6126 -0.2301  0.6256
  424SOL    HW111585   0.735   0.955   2.053 -0.0492 -1.3838  0.8264
  424SOL    HW211586   0.578   0.996   2.038  0.8430  2.1350  0.5876
  425SOL     OW11587   1.954   7.162   1.040 -0.1480  0.2481  0.5729
  425SOL    HW111588   1.878   7.139   1.102  0.5484 -0.7354  1.0800
  425SOL    HW211589   2.007   7.237   1.079 -1.4353  1.6137 -0.2653
  426SOL     OW11590   2.689   9.551   3.615  0.3067 -0.5479 -0.3099
  426SOL    HW111591   2.785   9.555   3.644  0.1027 -0.9149  0.4283
  426SOL    HW211592   2.644   9.474   3.661 -0.9137  0.9679  1.0729
  427SOL     OW11593   0.731   0.487   3.665 -0.0809 -0.7308  0.4832
  427SOL    HW111594   0.745   0.403   3.613  0.1192 -0.7860  0.6284
  427SOL    HW211595   0.673   0.468   3.744 -1.3572 -0.4192 -0.3533
  428SOL     OW11596   9.893   1.888   1.201 -0.8239  0.5264  0.5434
  428SOL    HW111597   9.919   1.828   1.277  0.3111 -0.3356 -0.5075
  428SOL    HW211598   9.885   1.982   1.234 -0.6020  0.1226  1.7772
  431SOL     OW11599   5.378   0.865   2.707  0.1181  0.3684 -0.5497
  431SOL    HW111600   5.307   0.900   2.646  1.2261 -1.5689 -3.0068
  431SOL    HW211601   5.455   0.833   2.653  2.0500  0.5748  1.9982
  433SOL     OW11602   3.480   1.676   0.343 -0.3774  0.7577  0.0146
  433SOL    HW111603   3.517   1.619   0.270 -0.8207  2.1252 -1.3106
  433SOL    HW211604   3.554   1.706   0.403 -0.2544 -1.8597  1.2200
  434SOL     OW11605   5.787   7.920   2.117  0.0000  0.1543 -0.1044
  434SOL    HW111606   5.745   7.857   2.051 -0.0606  1.1016 -0.9929
  434SOL    HW211607   5.836   7.992   2.067 -0.7090  1.3341  0.8803
  435SOL     OW11608   4.645   2.895   2.348  0.2233 -0.2381  0.0428
  435SOL    HW111609   4.643   2.816   2.286 -2.1790  0.6017 -1.0020
  435SOL    HW211610   4.669   2.977   2.297  1.1333 -0.0131  0.8227
  436SOL     OW11611   7.484   8.682   1.021 -0.2255 -0.0554  0.3570
  436SOL    HW111612   7.522   8.766   0.980 -1.4738  0.7766  0.8844
  436SOL    HW211613   7.387   8.675   0.998 -0.7524  0.0154  2.4959
  437SOL     OW11614   1.124   0.876   2.241  0.8292 -0.1931  0.0036
  437SOL    HW111615   1.192   0.808   2.214  1.3865  0.5656 -0.5338
  437SOL    HW211616   1.125   0.887   2.340  0.2468 -1.4636  0.1649
  438SOL     OW11617   9.235   0.612   1.887 -0.1710  0.4334 -0.2227
  438SOL    HW111618   9.166   0.621   1.815  0.5553  1.3693 -0.8050
  438SOL    HW211619   9.192   0.625   1.976 -0.7464  0.9745 -0.5793
  439SOL     OW11620   2.373   8.883   0.859 -0.3209  0.2237  0.0615
  439SOL    HW111621   2.302   8.818   0.886 -1.0903  0.6193 -0.9606
  439SOL    HW211622   2.331   8.969   0.833  0.7053  1.1937  1.5283
  440SOL     OW11623   9.625   8.869   1.177  0.5305 -0.2098 -0.2574
  440SOL    HW111624   9.717   8.897   1.204  0.6630 -0.9637  0.0779
  440SOL    HW211625   9.598   8.787   1.228  0.6254 -1.4033 -2.0754
  441SOL     OW11626   0.333   8.718   1.114  0.4645  0.4776  0.5610
  441SOL    HW111627   0.236   8.730   1.137  0.6275 -0.2475  1.6809
  441SOL    HW211628   0.370   8.805   1.083 -0.3587  0.9522  0.8667
  442SOL     OW11629   1.562   2.787   1.712  0.7388 -0.0620 -0.3576
  442SOL    HW111630   1.464   2.808   1.717  0.1533 -2.4395 -1.2225
  442SOL    HW211631   1.606   2.849   1.648  0.0078  1.7086  0.8225
  446SOL     OW11632   3.491   4.385   0.637 -0.2505 -0.1322  0.2577
  446SOL    HW111633   3.503   4.354   0.731  0.1179  1.1290  0.6267
  446SOL    HW211634   3.553   4.461   0.618 -1.6617  0.8764 -0.4195
  447SOL     OW11635   4.869   8.465   1.432  0.5144  0.3715 -0.0797
  447SOL    HW111636   4.809   8.455   1.511  1.6903 -2.2488  0.5616
  447SOL    HW211637   4.963   8.477   1.463  1.0194 -0.9202 -1.0592
  448SOL     OW11638   0.167   8.717   2.753 -0.6179 -0.1871  0.1534
  448SOL    HW111639   0.138   8.621   2.758  1.3934 -0.8532 -0.5668
  448SOL    HW211640   0.168   8.747   2.658 -2.1756  0.8662  0.4496
  449SOL     OW11641   4.602   2.981   2.881 -0.0188 -0.2617 -1.2006
  449SOL    HW111642   4.597   3.080   2.869  0.1136 -0.0667  0.1957
  449SOL    HW211643   4.617   2.937   2.793  0.2700  0.9827 -1.7878
  450SOL     OW11644   9.215   4.818   2.032 -0.3512  0.0789  0.1491
  450SOL    HW111645   9.151   4.745   2.008 -1.7809  1.2935  0.2339
  450SOL    HW211646   9.268   4.844   1.951 -0.1609 -0.7155  0.0108
  451SOL     OW11647   1.206   5.462   1.215 -0.2587 -0.2346  1.2848
  451SOL    HW111648   1.286   5.421   1.173  1.1396  2.3384  1.3316
  451SOL    HW211649   1.132   5.468   1.148  0.9688  1.1145  0.0025
  453SOL     OW11650   0.567   0.820   3.343  0.7308  0.2960 -0.0865
  453SOL    HW111651   0.665   0.840   3.343  0.5058  1.4325  0.0980
  453SOL    HW211652   0.551   0.729   3.381  1.4217  1.5292  3.3439
  454SOL     OW11653   2.294   2.706   1.999  0.1203 -0.6424  0.0885
  454SOL    HW111654   2.252   2.778   2.056  1.7585  0.0852  0.3916
  454SOL    HW211655   2.224   2.667   1.939 -1.8467 -1.9329  3.0891
  455SOL     OW11656   4.397   9.171   2.857 -0.5259 -0.0022 -0.3955
  455SOL    HW111657   4.489   9.142   2.833 -0.6769  1.7815 -3.2721
  455SOL    HW211658   4.401   9.239   2.930  0.3338 -0.7747  0.2920
  456SOL     OW11659   8.362   0.652   1.325 -0.8645  0.0085  0.4660
  456SOL    HW111660   8.410   0.725   1.375 -0.8488  0.5337 -0.3047
  456SOL    HW211661   8.416   0.568   1.329  0.0337  0.5361 -0.1956
  457SOL     OW11662   4.622   1.760   2.904 -0.3835  0.0598 -0.0825
  457SOL    HW111663   4.648   1.752   3.000 -2.1340  2.2070  0.6089
  457SOL    HW211664   4.705   1.762   2.848  0.6605 -1.1165  1.3750
  459SOL     OW11665   7.994   5.704   2.637  0.3257 -0.7476 -0.5664
  459SOL    HW111666   7.969   5.746   2.724  0.5111 -0.0841 -0.8291
  459SOL    HW211667   7.913   5.698   2.579  0.4347 -0.1140 -0.7894
  460SOL     OW11668   8.757   4.670   2.064  0.5363 -0.0597 -0.4307
  460SOL    HW111669   8.849   4.640   2.037  0.3145  0.5819 -1.9537
  460SOL    HW211670   8.761   4.767   2.091  0.3324 -0.0659 -0.3830
  461SOL     OW11671   4.786   9.875   1.922 -0.6327  0.0890 -0.2335
  461SOL    HW111672   4.830   9.815   1.989 -0.4516  0.2835 -0.1778
  461SOL    HW211673   4.768   9.965   1.964  0.3091  0.5060 -0.7241
  462SOL     OW11674   7.241   8.931   2.795 -0.4674 -0.3436 -0.2930
  462SOL    HW111675   7.312   8.989   2.754 -0.3368  1.5631  2.4260
  462SOL    HW211676   7.280   8.881   2.872 -1.5066 -1.1610 -0.2906
  463SOL     OW11677   0.647   0.895   2.333  0.5470  0.0461  0.0876
  463SOL    HW111678   0.678   0.916   2.425  0.7325 -2.6504  0.6944
  463SOL    HW211679   0.721   0.912   2.268  0.5552  1.5420  0.4689
  466SOL     OW11680   8.913   2.299   3.061  0.2428  0.2068  0.2794
  466SOL    HW111681   8.940   2.307   2.965  0.2360 -1.1105  0.1557
  466SOL    HW211682   8.995   2.287   3.118  0.1280 -1.0616  0.2010
  467SOL     OW11683   4.520   0.821   2.619 -0.6047  0.0950  0.6587
  467SOL    HW111684   4.465   0.904   2.629  0.1827  0.5869  0.9710
  467SOL    HW211685   4.460   0.742   2.611 -1.3596  0.5293  1.8348
  468SOL     OW11686   8.751   2.719   1.792 -0.3612 -0.3602  0.7752
  468SOL    HW111687   8.728   2.813   1.818  0.3273  0.2067 -0.6552
  468SOL    HW211688   8.840   2.695   1.830  0.3766  0.2621 -0.5660
  469SOL     OW11689   3.846   4.610   2.763 -0.3389  0.1651 -0.3419
  469SOL    HW111690   3.842   4.595   2.862 -2.3468  1.9371 -0.1168
  469SOL    HW211691   3.913   4.681   2.742  1.0432 -1.1184 -0.4137
  470SOL     OW11692   2.826   5.509   2.119 -0.2060  0.0082 -0.4052
  470SOL    HW111693   2.920   5.478   2.102  0.3213  1.2470  0.2169
  470SOL    HW211694   2.782   5.530   2.031  0.6132  0.8982 -0.6173
  471SOL     OW11695   3.996   1.287   0.581 -0.7496  0.3594 -0.2019
  471SOL    HW111696   3.897   1.272   0.584 -0.7563  0.0488 -1.6251
  471SOL    HW211697   4.044   1.200   0.592 -0.6893  0.1270 -2.1203
  472SOL     OW11698   3.859   0.462   2.447  0.7376 -0.5346 -0.0975
  472SOL    HW111699   3.895   0.381   2.493 -0.8138 -0.1883  1.7846
  472SOL    HW211700   3.890   0.463   2.352  1.4307 -2.9117  0.0754
  473SOL     OW11701   1.912   7.270   0.576 -0.1756  0.1801 -0.0237
  473SOL    HW111702   1.819   7.242   0.553  0.7814 -1.6774 -1.7577
  473SOL    HW211703   1.945   7.337   0.510 -0.3559  1.0452  0.7470
  474SOL     OW11704   5.234   8.818   3.648 -0.0019 -0.1154  0.1963
  474SOL    HW111705   5.227   8.860   3.739 -0.0402  0.6989 -0.1759
  474SOL    HW211706   5.155   8.846   3.593 -0.1211 -0.8354  0.0041
  475SOL     OW11707   4.303   2.299   2.675  0.1162 -0.4777  0.2607
  475SOL    HW111708   4.343   2.362   2.741 -1.5145  0.7319  0.1182
  475SOL    HW211709   4.206   2.286   2.695 -0.1486 -0.9459 -1.2435
  476SOL     OW11710   6.751   8.002   1.946 -0.2133  0.0771 -0.1059
  476SOL    HW111711   6.785   7.941   2.017 -0.8992  1.1006  1.1139
  476SOL    HW211712   6.828   8.040   1.894  0.3052 -0.2764  0.4039
  478SOL     OW11713   8.037   5.297   0.071 -0.2593  0.1105  0.7613
  478SOL    HW111714   7.943   5.263   0.063  0.1963 -0.8945 -0.3987
  478SOL    HW211715   8.037   5.397   0.061 -1.0886  0.0201 -0.2058
  479SOL     OW11716   8.845   9.807   0.366 -0.0516  0.0967  0.4514
  479SOL    HW111717   8.836   9.852   0.455 -1.0832  0.9571 -0.0862
  479SOL    HW211718   8.756   9.769   0.339  0.8556 -2.6430  1.0775
  480SOL     OW11719   4.025   7.180   0.117 -0.2737  0.1036 -0.0543
  480SOL    HW111720   3.986   7.098   0.075 -0.5911  0.4350 -0.4149
  480SOL    HW211721   4.012   7.258   0.055  1.0471  0.2038 -0.2180
  481SOL     OW11722   2.078   0.749   2.714 -0.5000 -0.6066 -0.3965
  481SOL    HW111723   1.994   0.742   2.768 -0.7159 -0.8324 -0.7519
  481SOL    HW211724   2.157   0.758   2.774 -0.8312  0.1259 -0.0678
  483SOL     OW11725   8.539   7.810   0.019  0.1695  0.4546 -0.3069
  483SOL    HW111726   8.484   7.892   0.033 -1.0755 -0.4338  0.0917
  483SOL    HW211727   8.500   7.756  -0.056  1.5945  0.7353 -1.2811
  484SOL     OW11728   4.355   1.181   3.066 -0.2704 -0.0785  0.4263
  484SOL    HW111729   4.269   1.209   3.024 -0.8926  0.9493  2.3467
  484SOL    HW211730   4.427   1.181   2.997 -1.6102 -0.0329 -0.9892
  488SOL     OW11731   8.733   5.077   3.718 -0.1887 -0.1285  0.5573
  488SOL    HW111732   8.782   5.095   3.802 -1.9842 -1.5038  1.9454
  488SOL    HW211733   8.649   5.025   3.738  0.5121 -2.5466 -2.2983
  489SOL     OW11734   0.125   4.807   3.485  0.1995 -0.0881  0.0745
  489SOL    HW111735   0.105   4.894   3.441  0.4784 -0.1992 -0.2688
  489SOL    HW211736   0.218   4.808   3.521  0.5605 -0.6301 -0.8439
  490SOL     OW11737   2.040   2.032   3.230  0.3818 -0.3873 -0.2411
  490SOL    HW111738   1.946   2.060   3.251  0.5658  0.6330 -0.7382
  490SOL    HW211739   2.104   2.092   3.277  0.7960 -1.5365  0.6813
  492SOL     OW11740   0.400   3.018   2.979  0.1736 -0.5394 -1.1601
  492SOL    HW111741   0.368   2.928   3.007  0.3202 -0.0465  0.6196
  492SOL    HW211742   0.329   3.065   2.926 -1.0309 -0.4988  0.4860
  493SOL     OW11743   7.724   8.358   3.185 -0.0078  0.1247 -0.2193
  493SOL    HW111744   7.726   8.386   3.281 -0.5856  1.5044 -0.5939
  493SOL    HW211745   7.683   8.431   3.130  1.2744 -0.2175 -1.6666
  494SOL     OW11746   6.798   8.360   2.195  0.2811 -0.1611 -0.3009
  494SOL    HW111747   6.754   8.446   2.167 -0.3821 -0.4181 -0.0578
  494SOL    HW211748   6.868   8.335   2.128 -0.9638 -0.5213 -1.4902
  497SOL     OW11749   0.910   7.385   2.237 -0.2846  0.0065 -0.2538
  497SOL    HW111750   0.964   7.361   2.156 -1.5054 -0.6315 -0.8758
  497SOL    HW211751   0.963   7.364   2.319  0.7191  0.0904 -0.8714
  498SOL     OW11752   2.360   6.027   0.368 -0.2324  0.2339  0.2436
  498SOL    HW111753   2.346   6.002   0.272 -1.9949  0.6816  0.3562
  498SOL    HW211754   2.444   5.986   0.401 -0.5837 -1.5343 -0.9541
  500SOL     OW11755   3.474   0.295   1.285 -0.6241  0.2115 -0.1941
  500SOL    HW111756   3.502   0.203   1.311  2.3186  0.4463 -2.2852
  500SOL    HW211757   3.390   0.290   1.231 -1.5531 -1.0479  1.3334
  505SOL     OW11758   9.118   9.220   3.084 -0.0153  0.5061 -0.4409
  505SOL    HW111759   9.047   9.154   3.110 -0.8290  0.3972 -2.8187
  505SOL    HW211760   9.163   9.253   3.167 -2.8971  0.6750  1.1666
  506SOL     OW11761   4.200   4.578   1.645  0.4075  0.4355 -0.0670
  506SOL    HW111762   4.232   4.553   1.736  1.1160  2.3472  0.2250
  506SOL    HW211763   4.107   4.544   1.631  0.2743  0.2003  1.3800
  507SOL     OW11764   1.518   3.006   3.119 -0.1118  0.0454  0.3366
  507SOL    HW111765   1.531   3.007   3.020 -1.8156 -0.7422  0.0846
  507SOL    HW211766   1.450   2.936   3.143 -0.0349  0.5245  2.0216
  508SOL     OW11767   9.290   4.190   3.307  0.1038  0.3452 -0.3572
  508SOL    HW111768   9.389   4.186   3.324  0.2491 -0.0078 -1.2633
  508SOL    HW211769   9.241   4.158   3.388  0.8087 -1.6387 -0.6723
  510SOL     OW11770   9.965   2.499   1.054  0.2123  0.0654  0.3528
  510SOL    HW111771   9.907   2.419   1.069 -1.8049  1.2577 -0.8726
  510SOL    HW211772  10.002   2.530   1.142 -1.9592 -0.0253  1.3378
  511SOL     OW11773   9.520   8.191   2.626 -0.2909  0.2609 -0.3001
  511SOL    HW111774   9.595   8.149   2.575 -1.8883 -1.8527 -0.9610
  511SOL    HW211775   9.454   8.231   2.563 -1.1885 -0.4560  0.1772
  512SOL     OW11776   3.503   0.990   0.595  0.1735 -0.5075  0.1321
  512SOL    HW111777   3.427   0.955   0.651 -0.1274  0.1562  0.1463
  512SOL    HW211778   3.569   1.036   0.654  0.8258 -1.4951  0.1769
  514SOL     OW11779   4.025   9.316   3.544 -0.2683 -0.0458  0.3866
  514SOL    HW111780   3.988   9.290   3.455 -0.7550  0.2185  0.5072
  514SOL    HW211781   4.022   9.238   3.606 -3.5669  0.7716  1.3536
  515SOL     OW11782   1.236   0.136   1.447 -0.3273 -0.6677  0.2019
  515SOL    HW111783   1.212   0.135   1.350 -0.8940 -0.8224  0.3415
  515SOL    HW211784   1.217   0.046   1.487  1.6348 -1.1734  0.0434
  516SOL     OW11785   0.823   6.503   1.126  0.2322  0.0141 -0.1864
  516SOL    HW111786   0.824   6.564   1.047  0.6319 -1.0550 -1.0241
  516SOL    HW211787   0.882   6.539   1.198  0.5393  0.5586 -0.7130
  518SOL     OW11788   2.611   0.212   3.730 -0.3069 -0.1892  0.0843
  518SOL    HW111789   2.628   0.143   3.660  1.0764  0.5317 -0.3033
  518SOL    HW211790   2.513   0.214   3.752 -1.0695  0.8308 -3.1648
  519SOL     OW11791   1.874   7.562   1.905 -0.0629  0.3206  0.3448
  519SOL    HW111792   1.784   7.581   1.866 -0.7863  0.2686  1.9497
  519SOL    HW211793   1.877   7.595   2.000  1.7789  0.7677  0.1434
  520SOL     OW11794   4.117   0.227   1.461  0.1743  0.0414 -0.0312
  520SOL    HW111795   4.154   0.147   1.510  0.5892 -0.1034 -0.5824
  520SOL    HW211796   4.018   0.233   1.478 -0.0676 -1.2412 -0.8835
  521SOL     OW11797   3.871   4.204   0.900 -0.2639 -0.0564 -0.7736
  521SOL    HW111798   3.858   4.302   0.889  0.4710  0.3792  2.0195
  521SOL    HW211799   3.965   4.180   0.875  0.7874  0.6214  2.3186
  522SOL     OW11800   3.654   3.012   3.398 -0.3649 -0.0219  0.1130
  522SOL    HW111801   3.725   2.980   3.461  0.3184  0.2502 -0.5100
  522SOL    HW211802   3.577   3.048   3.450  0.0461 -0.1107  0.7948
  523SOL     OW11803   3.308   9.691   2.990 -0.3102 -0.0714 -0.1153
  523SOL    HW111804   3.249   9.683   2.910  0.2686  1.1065 -0.6843
  523SOL    HW211805   3.391   9.636   2.976 -0.1662  0.2076 -0.3793
  524SOL     OW11806   4.747   1.184   0.143 -0.3044 -0.7440  0.2380
  524SOL    HW111807   4.798   1.200   0.059  0.3617  0.6372  0.8964
  524SOL    HW211808   4.650   1.203   0.128 -0.3441 -1.4744 -0.4728
  525SOL     OW11809   8.169   0.582   4.783 -0.1631 -0.1613 -0.1212
  525SOL    HW111810   8.233   0.506   4.793  0.3283  0.3070  0.3135
  525SOL    HW211811   8.172   0.616   4.689  1.0405  0.5776  0.1780
  526SOL     OW11812   4.828   0.426   2.272  0.3763  0.5073 -0.2495
  526SOL    HW111813   4.761   0.362   2.235  0.4666  0.3322 -0.1119
  526SOL    HW211814   4.920   0.398   2.243  0.3743  0.8424 -0.5772
  527SOL     OW11815   2.968   0.004   0.567 -0.1426  0.2943 -0.0890
  527SOL    HW111816   2.990  -0.044   0.652  1.3703 -0.9115 -1.1504
  527SOL    HW211817   3.041   0.069   0.545 -1.4491  2.0027  0.5288
  528SOL     OW11818   7.880   0.673   0.401 -0.3323  1.0756 -0.2664
  528SOL    HW111819   7.899   0.665   0.304 -2.0723  1.8409 -0.7014
  528SOL    HW211820   7.897   0.767   0.431 -0.8699  1.1267 -0.1025
  529SOL     OW11821   8.578   6.197   2.714  0.2902  0.2453 -0.0979
  529SOL    HW111822   8.577   6.113   2.659  2.2253 -0.0037  0.2128
  529SOL    HW211823   8.630   6.180   2.798 -2.2816  0.7354  1.6400
  530SOL     OW11824   9.111   3.365   2.809 -0.1713 -0.3901 -0.4230
  530SOL    HW111825   9.052   3.351   2.730 -0.9749  0.4436  0.0277
  530SOL    HW211826   9.062   3.340   2.893 -0.6611  2.3308  0.1453
  531SOL     OW11827   6.774   6.677   3.406  0.3251 -0.2546 -0.1359
  531SOL    HW111828   6.826   6.757   3.376  0.5271 -0.1195  0.5625
  531SOL    HW211829   6.837   6.601   3.422  0.2646 -0.2036  0.3439
  532SOL     OW11830   5.845   9.052   2.532 -0.2828 -0.4226  0.2740
  532SOL    HW111831   5.934   9.008   2.547 -0.8582 -2.2883 -1.5754
  532SOL    HW211832   5.857   9.131   2.471  0.3039  0.1532  1.1316
  533SOL     OW11833   6.786   7.593   2.760  0.7948 -0.0168  0.1058
  533SOL    HW111834   6.734   7.513   2.730  0.5797  0.8843 -1.9834
  533SOL    HW211835   6.728   7.651   2.816  0.3325 -0.2917 -0.0861
  534SOL     OW11836   1.851   7.114   2.253 -0.2034 -0.1627 -0.3982
  534SOL    HW111837   1.762   7.097   2.210 -1.1564  1.6660  0.7411
  534SOL    HW211838   1.848   7.084   2.348  0.8262 -1.2231 -0.6863
  535SOL     OW11839   4.036   0.873   1.973  0.0252 -0.5031 -0.1535
  535SOL    HW111840   4.045   0.853   2.070 -1.0567 -2.3759 -0.4233
  535SOL    HW211841   4.011   0.790   1.924 -0.2624  0.6079 -1.9292
  536SOL     OW11842   4.650   7.886   1.395  0.5775 -0.9640 -0.4049
  536SOL    HW111843   4.670   7.890   1.493 -3.3442 -1.4689  0.5318
  536SOL    HW211844   4.664   7.976   1.354  2.3048 -0.7619  0.6070
  537SOL     OW11845   0.790   1.151   3.741 -0.1747  0.1147 -0.1460
  537SOL    HW111846   0.845   1.209   3.800  0.6586  0.5924 -1.3623
  537SOL    HW211847   0.693   1.161   3.764 -0.0092  1.7320 -0.1227
  539SOL     OW11848   4.048   1.433   0.007  0.0091  0.3429 -0.0397
  539SOL    HW111849   4.036   1.369   0.083  0.6939 -0.8008 -0.8789
  539SOL    HW211850   4.145   1.442  -0.014 -0.2694 -0.8264 -1.9807
  540SOL     OW11851   5.218   3.168   2.815 -0.2008  0.2329 -0.2893
  540SOL    HW111852   5.144   3.121   2.863  1.0943 -2.2883 -0.6953
  540SOL    HW211853   5.218   3.141   2.718  1.2950  0.1181 -0.2708
  541SOL     OW11854   4.210   0.923   1.383  0.0119  0.3281  0.6042
  541SOL    HW111855   4.220   0.942   1.480  2.2867 -2.2331  0.9441
  541SOL    HW211856   4.128   0.866   1.368  1.2548 -1.7313  1.4377
  543SOL     OW11857   9.849   6.452   1.691  0.9742 -0.1929  0.0701
  543SOL    HW111858   9.797   6.537   1.681 -0.3952 -1.1197 -1.0627
  543SOL    HW211859   9.932   6.469   1.743  1.2253  2.0398 -1.0055
  544SOL     OW11860   2.821   4.286   1.009  0.7878 -0.2383  0.9009
  544SOL    HW111861   2.803   4.385   1.011 -2.2192 -0.6094 -2.2251
  544SOL    HW211862   2.903   4.269   0.956 -0.6445  0.4543 -1.6389
  545SOL     OW11863   4.867   8.069   3.362 -0.3294 -0.0773  0.0858
  545SOL    HW111864   4.899   7.977   3.383 -0.2443 -0.0482  0.0861
  545SOL    HW211865   4.827   8.071   3.271 -1.6940 -0.4525  0.6668
  546SOL     OW11866   2.537   2.486   3.322 -0.7653  0.3977  0.0627
  546SOL    HW111867   2.624   2.532   3.339 -1.4147  1.1284  1.5067
  546SOL    HW211868   2.488   2.475   3.408 -2.0623 -0.1126 -0.7291
  547SOL     OW11869   8.880   7.033   2.131 -0.5966 -0.4272 -0.4253
  547SOL    HW111870   8.855   6.937   2.114 -1.1950 -0.4403  0.5319
  547SOL    HW211871   8.799   7.085   2.156  0.2278 -0.3913  2.3441
  548SOL     OW11872   8.657   9.223   2.089  0.1482 -0.2343  0.5453
  548SOL    HW111873   8.601   9.222   2.172  1.2292 -0.5105  1.2789
  548SOL    HW211874   8.683   9.317   2.067 -0.6753 -0.0925  0.1407
  549SOL     OW11875   5.444   0.982   2.220  0.7695 -0.0301  0.2293
  549SOL    HW111876   5.410   0.905   2.275  0.1750  1.5082  2.0984
  549SOL    HW211877   5.399   1.066   2.250  2.8023  1.3501 -0.4536
  550SOL     OW11878   1.466   7.591   2.277 -0.3621  0.1355 -0.0661
  550SOL    HW111879   1.468   7.627   2.370 -0.2318  0.4472 -0.1875
  550SOL    HW211880   1.371   7.587   2.245 -0.3524  0.6722 -0.1658
  551SOL     OW11881   2.441   1.206   2.588  0.2737  0.7702 -0.7409
  551SOL    HW111882   2.356   1.221   2.539  1.6718  0.3797 -3.3974
  551SOL    HW211883   2.489   1.294   2.600 -0.7896  1.0985  1.3982
  552SOL     OW11884   4.557   1.616   0.444 -0.5171 -0.3507  0.2984
  552SOL    HW111885   4.486   1.546   0.446 -0.8228 -0.0221  1.0320
  552SOL    HW211886   4.518   1.701   0.408 -0.2995 -0.3817 -0.0151
  553SOL     OW11887   9.456   6.057   2.677 -0.3814  0.1722  0.1502
  553SOL    HW111888   9.362   6.066   2.712 -0.2439  1.0090  0.3262
  553SOL    HW211889   9.517   6.033   2.753 -0.2224  1.1191  0.3360
  554SOL     OW11890   1.963   9.442   2.857 -0.0775 -0.3864 -0.2359
  554SOL    HW111891   1.903   9.392   2.794  0.5025 -1.4769  0.0621
  554SOL    HW211892   2.057   9.436   2.824  0.2496 -1.0821  0.8158
  555SOL     OW11893   3.310   1.771   1.693 -0.2898 -0.2555  0.3441
  555SOL    HW111894   3.298   1.869   1.714 -0.7692 -0.3871  0.7065
  555SOL    HW211895   3.264   1.717   1.763  0.0773 -0.7458  0.2052
  556SOL     OW11896   4.455   8.619   1.185 -0.0893  0.7669  0.2630
  556SOL    HW111897   4.542   8.646   1.227 -0.8720  1.4323  1.5150
  556SOL    HW211898   4.383   8.682   1.215 -0.8826  0.6189 -1.2767
  557SOL     OW11899   4.110   7.893   0.404 -0.5383  0.0805  0.3379
  557SOL    HW111900   4.018   7.933   0.403 -0.9424 -0.7943  1.5003
  557SOL    HW211901   4.154   7.912   0.492 -1.2329 -3.0727  1.4197
  558SOL     OW11902   9.171   6.079   0.921  0.2894  0.1369  0.1426
  558SOL    HW111903   9.099   6.029   0.874  0.7254  1.0579 -1.5469
  558SOL    HW211904   9.255   6.024   0.920 -0.0575 -0.4192  1.0475
  559SOL     OW11905   0.075   8.260   1.514  0.6526  0.4256  0.2528
  559SOL    HW111906  -0.021   8.288   1.522  0.9631  0.8257  3.1880
  559SOL    HW211907   0.084   8.165   1.543  0.7612 -0.4891 -2.6450
  560SOL     OW11908   2.019   1.557   0.355 -0.1885  0.0384  0.6479
  560SOL    HW111909   1.980   1.647   0.335  0.2549  0.3575  1.2202
  560SOL    HW211910   2.119   1.562   0.348 -0.1488 -0.3555  0.9173
  561SOL     OW11911   2.735   6.666   1.636 -0.1395  0.1469 -0.2533
  561SOL    HW111912   2.790   6.677   1.718 -1.0381  0.0482  0.3762
  561SOL    HW211913   2.725   6.568   1.615 -1.1069  0.0980  0.3670
  562SOL     OW11914   9.033   4.697   2.322 -0.0233  0.3716  0.1274
  562SOL    HW111915   8.970   4.632   2.279  0.1853  0.4332 -0.2762
  562SOL    HW211916   8.998   4.724   2.412 -0.1820 -0.1934  0.2371
  563SOL     OW11917   1.056   4.683   3.542  0.2555  0.0916  0.3580
  563SOL    HW111918   1.014   4.721   3.459  0.6462 -1.4407 -0.5713
  563SOL    HW211919   1.156   4.695   3.537  0.4120 -1.3461 -0.1109
  564SOL     OW11920   9.899   2.917   3.381 -0.3543 -0.1334  0.8862
  564SOL    HW111921   9.915   2.908   3.479  0.7555 -0.4028  0.6878
  564SOL    HW211922   9.939   3.003   3.349  2.0237 -1.4871  0.1223
  565SOL     OW11923   8.301   9.752   2.320 -0.3676  0.1685  0.0776
  565SOL    HW111924   8.243   9.687   2.271  1.5123 -0.9876 -0.6425
  565SOL    HW211925   8.354   9.704   2.390  0.2700  1.0910  0.2415
  566SOL     OW11926   8.190   2.870   1.734 -0.7337  0.0611  0.1462
  566SOL    HW111927   8.289   2.862   1.735 -0.6197  0.9051 -1.9518
  566SOL    HW211928   8.159   2.915   1.818  0.5058 -1.5452  1.4840
  568SOL     OW11929   8.303   1.659   2.271 -0.3232  0.7859  0.0397
  568SOL    HW111930   8.237   1.723   2.231  2.1591  2.1585 -2.0328
  568SOL    HW211931   8.331   1.692   2.361 -1.6002  0.7824  0.4487
  569SOL     OW11932   2.278   3.146   0.743 -0.1029 -0.2969 -0.1928
  569SOL    HW111933   2.261   3.239   0.712 -0.1079 -0.3516 -0.3570
  569SOL    HW211934   2.377   3.127   0.739 -0.1649 -0.5142 -0.7856
  570SOL     OW11935   4.379   4.496   1.937  0.2838 -0.2108 -0.0698
  570SOL    HW111936   4.464   4.466   1.980  0.3825 -0.9072 -0.7439
  570SOL    HW211937   4.302   4.472   1.996  0.4194 -1.1430 -0.2725
  571SOL     OW11938   3.923   3.583   0.889 -0.0122 -0.0264 -0.0881
  571SOL    HW111939   3.885   3.498   0.927  2.4708 -0.8590  0.6245
  571SOL    HW211940   3.911   3.656   0.956 -0.3524 -0.2726  0.1262
  572SOL     OW11941   2.783   0.829   0.322  0.3864  0.5836 -0.1221
  572SOL    HW111942   2.853   0.878   0.375  0.4481  0.0659  0.2774
  572SOL    HW211943   2.757   0.746   0.371 -0.1440  0.5187 -0.5197
  575SOL     OW11944   0.199   4.093   1.337 -1.3173 -0.1985 -0.0637
  575SOL    HW111945   0.204   3.996   1.359 -2.6613 -0.1210  0.6090
  575SOL    HW211946   0.126   4.108   1.270  0.1174  0.1076 -1.6076
  576SOL     OW11947   1.569   0.919   1.118 -0.4680 -0.1854  0.0724
  576SOL    HW111948   1.563   0.947   1.022 -0.1391 -0.6633 -0.0901
  576SOL    HW211949   1.520   0.985   1.175  1.8976  1.7925 -0.0904
  577SOL     OW11950   1.463   2.857   2.392  0.4594 -0.0063 -0.2723
  577SOL    HW111951   1.417   2.775   2.359 -0.1997 -0.9710  2.8658
  577SOL    HW211952   1.405   2.937   2.375 -0.4518 -0.6542 -0.2110
  578SOL     OW11953   2.373   2.054   2.454 -0.6120  0.0118 -0.0804
  578SOL    HW111954   2.469   2.042   2.477 -0.5296 -0.4791 -0.6468
  578SOL    HW211955   2.316   2.002   2.518 -0.5232  0.5886  0.4701
  579SOL     OW11956   5.000   9.137   2.353 -0.3782  0.4257  0.3507
  579SOL    HW111957   5.092   9.117   2.320 -0.2765  0.2308  0.7597
  579SOL    HW211958   4.942   9.056   2.345 -0.6930  0.7232 -0.5090
  580SOL     OW11959   4.244   0.649   2.061  0.3279 -0.3892  0.1825
  580SOL    HW111960   4.321   0.708   2.039 -0.6054  0.9211  0.3803
  580SOL    HW211961   4.182   0.695   2.125 -0.1787 -1.7571  0.7119
  581SOL     OW11962   1.100   4.106   1.942 -0.1008  0.8097 -0.2459
  581SOL    HW111963   1.167   4.053   1.994  1.1186  1.9328 -0.6649
  581SOL    HW211964   1.146   4.160   1.872 -1.5613  0.6833 -1.3392
  582SOL     OW11965   2.895   4.896   0.835 -0.1064  0.9433 -0.1861
  582SOL    HW111966   2.973   4.865   0.780  0.1697  2.4076 -0.6252
  582SOL    HW211967   2.896   4.848   0.923  0.5166 -0.0368 -0.7108
  583SOL     OW11968   6.036   9.036   2.237  0.1102  0.4619 -0.1592
  583SOL    HW111969   6.039   8.980   2.320  3.7571  1.4563  0.4291
  583SOL    HW211970   5.941   9.044   2.207 -0.7818 -4.0190  1.0902
  585SOL     OW11971   1.942   4.540   0.014  0.7103  0.5442 -0.1816
  585SOL    HW111972   1.910   4.447  -0.003  0.0307  0.7091  0.1696
  585SOL    HW211973   1.868   4.604  -0.003  1.5912  1.1582 -1.8449
  586SOL     OW11974   7.976   5.573   3.505  0.2559 -0.2339  0.0315
  586SOL    HW111975   8.052   5.625   3.543  0.1461 -0.1414  0.1285
  586SOL    HW211976   7.976   5.481   3.544  1.1055 -0.6702 -0.9788
  587SOL     OW11977   9.724   6.078   1.302  0.1029 -0.4493 -0.2343
  587SOL    HW111978   9.652   6.115   1.360  0.7182 -0.9860  0.8965
  587SOL    HW211979   9.691   5.996   1.256 -0.5463  0.2556 -1.0390
  588SOL     OW11980   0.772   7.672   3.228  0.2628 -0.4983 -0.3047
  588SOL    HW111981   0.820   7.757   3.206  0.1577 -0.5156 -0.6091
  588SOL    HW211982   0.837   7.606   3.267  0.1331  0.0747  0.8886
  589SOL     OW11983   4.545   1.746   1.772 -0.3235  0.0777 -0.2843
  589SOL    HW111984   4.493   1.732   1.856  0.2414  1.4639  0.3224
  589SOL    HW211985   4.547   1.844   1.750 -1.3310 -0.3600 -2.4879
  590SOL     OW11986   9.321   4.502   1.675  0.4709  0.0194  0.1446
  590SOL    HW111987   9.284   4.464   1.760 -0.7697 -2.1295 -1.3043
  590SOL    HW211988   9.382   4.436   1.632  2.4045  1.7501  0.1773
  592SOL     OW11989   9.922   3.788   1.496  0.5669  0.1655 -0.6289
  592SOL    HW111990   9.990   3.811   1.427  1.2624 -1.2737 -0.4580
  592SOL    HW211991   9.928   3.690   1.517 -1.4662  0.0416 -0.5030
  593SOL     OW11992   1.555   0.840   0.607  0.2615  0.4894  0.0889
  593SOL    HW111993   1.644   0.830   0.562  0.2985  0.8740  0.0675
  593SOL    HW211994   1.483   0.840   0.538  0.2175 -0.1836  0.1380
  594SOL     OW11995   1.521   1.834   3.247 -0.4524  0.5138 -0.3891
  594SOL    HW111996   1.609   1.872   3.276  0.0644 -0.7598 -0.2764
  594SOL    HW211997   1.533   1.740   3.216 -1.4538  0.9555 -2.2215
  596SOL     OW11998   6.818   8.082   3.467  0.0283  0.6335 -0.4954
  596SOL    HW111999   6.833   8.011   3.536 -1.7788 -0.5451 -1.2961
  596SOL    HW212000   6.877   8.065   3.388  1.9376  1.8598  0.6200
  597SOL     OW12001   3.664   7.394   0.866  0.2649  0.1730  0.0716
  597SOL    HW112002   3.670   7.423   0.771  0.0018  0.8775  0.2655
  597SOL    HW212003   3.580   7.342   0.880 -0.2212  0.9629  0.1461
  598SOL     OW12004   7.854   7.808   1.709  0.0952 -0.1622 -0.4511
  598SOL    HW112005   7.831   7.784   1.803 -1.2916  1.0371 -0.4761
  598SOL    HW212006   7.937   7.759   1.682  1.7177  1.0836  2.0818
  599SOL     OW12007   9.672   9.150   1.992 -0.2189  0.0895  0.2381
  599SOL    HW112008   9.595   9.211   1.971 -0.0079  1.0149  2.0044
  599SOL    HW212009   9.696   9.160   2.089  1.4002 -1.0284 -0.0349
  600SOL     OW12010   5.936   0.629   3.121  0.5179 -0.1486  0.6095
  600SOL    HW112011   5.903   0.535   3.121 -0.3895  0.1607  0.4941
  600SOL    HW212012   5.870   0.687   3.169  0.7262  0.5452  0.0649
  601SOL     OW12013   5.471   9.670   3.315 -0.1003 -0.0407 -0.0176
  601SOL    HW112014   5.458   9.715   3.403  1.1475  0.6391 -0.1663
  601SOL    HW212015   5.427   9.723   3.243 -0.0104  0.0980  0.0286
  604SOL     OW12016   9.251   7.701   2.934 -0.3599  0.2236  0.2477
  604SOL    HW112017   9.166   7.713   2.984 -0.7120  0.7689 -0.4622
  604SOL    HW212018   9.259   7.773   2.865  0.0978 -0.5184 -0.4898
  606SOL     OW12019   9.494   3.471   0.473  0.3909  0.3650 -0.3149
  606SOL    HW112020   9.523   3.486   0.567 -0.4193 -0.6584  0.1119
  606SOL    HW212021   9.467   3.558   0.432  0.1125  0.7300  0.6193
  607SOL     OW12022   2.010   9.800   3.073 -0.2513 -0.5752 -0.5077
  607SOL    HW112023   2.024   9.859   3.153 -0.9901  0.1658 -0.9156
  607SOL    HW212024   2.059   9.714   3.087  1.7540  0.5501 -0.3784
  608SOL     OW12025   4.587   9.448   2.714 -0.1900  0.2046  0.5571
  608SOL    HW112026   4.615   9.359   2.751  0.0801  0.1448  0.2122
  608SOL    HW212027   4.488   9.452   2.708 -0.1784 -0.3429 -0.0775
  609SOL     OW12028   9.816   8.444   2.456 -0.2383  0.7034 -0.6858
  609SOL    HW112029   9.901   8.435   2.404  0.5573  1.0070  0.5496
  609SOL    HW212030   9.837   8.469   2.550 -1.5195 -1.9887  0.3855
  610SOL     OW12031   2.883   5.363   3.370  0.3273  0.2047  0.3290
  610SOL    HW112032   2.904   5.382   3.465 -4.3703 -0.6211  1.6794
  610SOL    HW212033   2.903   5.267   3.349  1.3125  0.3755  0.4882
  611SOL     OW12034   4.690   7.586   0.155 -0.1800  0.3138  0.3677
  611SOL    HW112035   4.785   7.583   0.124 -0.3018  0.9191 -0.0668
  611SOL    HW212036   4.649   7.673   0.129 -0.5330  0.4984  1.5191
  612SOL     OW12037   4.773   1.776   1.993 -0.1492 -0.3219  0.0957
  612SOL    HW112038   4.794   1.689   2.038  0.7995  0.7383  1.7752
  612SOL    HW212039   4.795   1.769   1.896 -0.8805 -2.2149  0.0473
  613SOL     OW12040   2.203   6.204   3.693  0.2783 -0.3151  0.5327
  613SOL    HW112041   2.262   6.127   3.673  1.5817  0.6690  0.5427
  613SOL    HW212042   2.159   6.190   3.782  1.1433 -0.6498  0.9071
  614SOL     OW12043   5.172   9.443   2.278 -0.7474 -0.2632  0.3794
  614SOL    HW112044   5.198   9.490   2.362 -1.0961 -2.8784  2.0216
  614SOL    HW212045   5.074   9.423   2.280 -0.5193 -1.4702 -0.0468
  615SOL     OW12046   3.926   1.112   1.968  0.6635  0.7833  0.3799
  615SOL    HW112047   3.847   1.093   1.910  0.3581  1.0293  0.7123
  615SOL    HW212048   3.977   1.028   1.983 -0.4564  0.2757  1.5167
  616SOL     OW12049   0.267   5.314   3.357  0.2775  0.6151 -0.0549
  616SOL    HW112050   0.318   5.336   3.440  0.7012 -2.0086  0.3947
  616SOL    HW212051   0.328   5.317   3.278  0.6461 -0.3440  0.1925
  617SOL     OW12052   2.760   6.711   0.880  0.3056 -0.0524 -0.0066
  617SOL    HW112053   2.673   6.741   0.919 -0.6575 -0.6095 -1.6855
  617SOL    HW212054   2.756   6.614   0.859  2.1474 -0.6037  2.0025
  618SOL     OW12055   8.218   2.529   1.279  0.3031  0.0128  0.3194
  618SOL    HW112056   8.233   2.626   1.259 -1.0647 -0.0102 -0.9725
  618SOL    HW212057   8.133   2.519   1.331  1.1364 -0.3865  1.6050
  619SOL     OW12058   1.629   1.998   0.680 -0.9299  0.2759 -0.3782
  619SOL    HW112059   1.592   2.087   0.706 -1.0014  0.1995 -0.2162
  619SOL    HW212060   1.703   1.974   0.742 -1.5155 -0.1922  0.1459
  620SOL     OW12061   0.622   8.108   1.245  0.7766 -0.2114  0.1307
  620SOL    HW112062   0.524   8.100   1.261  0.8486 -1.1675  0.1355
  620SOL    HW212063   0.662   8.171   1.311  0.2083 -0.0484  0.3185
  622SOL     OW12064   3.216   4.273   0.291 -0.0891 -0.6556 -0.1272
  622SOL    HW112065   3.137   4.320   0.251  0.3334  0.7192  0.5863
  622SOL    HW212066   3.208   4.277   0.391  0.5913 -1.0128 -0.0632
  625SOL     OW12067   2.888   3.183   1.827 -0.2382  0.0627 -0.4102
  625SOL    HW112068   2.862   3.135   1.911  3.3672 -0.1330  0.6858
  625SOL    HW212069   2.920   3.118   1.759  1.2624  0.5786 -0.2195
  626SOL     OW12070   2.442   8.182   0.774 -0.2647  0.1401 -0.1567
  626SOL    HW112071   2.535   8.216   0.767 -0.5579  0.6197 -1.8249
  626SOL    HW212072   2.415   8.178   0.871  1.3853  0.2184  0.3114
  628SOL     OW12073   1.388   1.781   2.275 -0.3461 -1.0484  0.8522
  628SOL    HW112074   1.395   1.701   2.215  0.6407 -1.6009  1.6759
  628SOL    HW212075   1.381   1.864   2.220 -1.3745 -1.6986 -0.0114
  629SOL     OW12076   9.052   1.268   1.280  0.4946 -0.1754  0.0538
  629SOL    HW112077   9.132   1.293   1.226  0.1545 -1.2287 -0.9391
  629SOL    HW212078   9.029   1.172   1.265 -1.1367  0.1891  0.0955
  630SOL     OW12079   1.420   4.891   2.006  0.2040 -0.5428  0.7532
  630SOL    HW112080   1.461   4.831   1.937 -3.6010 -0.8481 -1.3765
  630SOL    HW212081   1.439   4.987   1.982 -2.3492 -0.5721 -1.6932
  633SOL     OW12082   9.495   5.888   0.517  0.5499  0.3842 -0.4446
  633SOL    HW112083   9.458   5.890   0.610 -0.5502 -0.4529 -0.8429
  633SOL    HW212084   9.468   5.972   0.468 -2.4725 -1.0074 -1.3095
  635SOL     OW12085   2.992   1.139   0.707  0.1298  0.2703  0.6380
  635SOL    HW112086   2.988   1.185   0.618  1.5409  0.0868  0.4695
  635SOL    HW212087   2.928   1.183   0.770  0.6126  1.7152  0.1347
  636SOL     OW12088   9.903   5.204   2.146 -0.1796  0.1150 -0.1065
  636SOL    HW112089   9.921   5.237   2.053  0.2795  2.3115  0.7141
  636SOL    HW212090   9.986   5.213   2.201 -0.8756  0.3421  0.9246
  639SOL     OW12091   7.598   0.605   3.691  0.0794  0.7618 -0.3184
  639SOL    HW112092   7.510   0.592   3.645  0.5686  2.9213 -1.9693
  639SOL    HW212093   7.601   0.550   3.774 -2.7664  0.5254 -0.3266
  640SOL     OW12094   8.388   0.861   3.734 -0.0075  0.1361 -0.4472
  640SOL    HW112095   8.411   0.781   3.679 -1.5540  0.0628 -1.0099
  640SOL    HW212096   8.420   0.944   3.687  0.3483 -0.0542 -0.5396
  641SOL     OW12097   0.901   1.712   1.968  0.0269 -0.2077  0.3956
  641SOL    HW112098   0.850   1.694   1.884 -0.7190 -0.5260  0.9044
  641SOL    HW212099   0.954   1.631   1.993 -0.5955 -0.4975  0.8034
  642SOL     OW12100   1.533   1.271   3.515  0.0946 -0.1503  0.3619
  642SOL    HW112101   1.473   1.236   3.443 -0.0450  0.8009  0.0097
  642SOL    HW212102   1.495   1.248   3.604 -0.7159  0.3272  0.1403
  643SOL     OW12103   1.857   0.074   1.642 -0.1374 -0.4629  0.5351
  643SOL    HW112104   1.843   0.065   1.543 -1.9802  1.3840  0.6061
  643SOL    HW212105   1.786   0.023   1.691 -0.5126  0.4043  0.8992
  647SOL     OW12106   0.950   8.300   3.408  0.0677 -0.0943  0.1474
  647SOL    HW112107   1.049   8.310   3.419  0.4797 -1.4990 -1.9955
  647SOL    HW212108   0.906   8.389   3.418  1.9149  1.1643 -2.4622
  648SOL     OW12109   1.215   8.887   3.080 -0.4881  0.4949  0.1785
  648SOL    HW112110   1.214   8.985   3.095 -1.5441  0.4728  0.3024
  648SOL    HW212111   1.256   8.866   2.992 -0.7243  1.0824 -0.0687
  649SOL     OW12112   1.263   4.639   3.258  0.0275 -0.1025 -0.1808
  649SOL    HW112113   1.242   4.720   3.204  1.0965  0.4772  0.2603
  649SOL    HW212114   1.283   4.666   3.352  0.3224 -0.8830 -0.0162
  650SOL     OW12115   4.960   2.613   0.684  0.3666  0.1373 -0.2593
  650SOL    HW112116   5.022   2.626   0.607 -1.6258 -0.3627 -1.9929
  650SOL    HW212117   4.866   2.607   0.650 -0.4982 -0.5414  2.1796
  651SOL     OW12118   8.577   7.157   2.427  0.1870 -0.0003 -0.0883
  651SOL    HW112119   8.524   7.164   2.512 -1.0279 -0.2451 -0.8157
  651SOL    HW212120   8.553   7.232   2.366 -0.9146 -1.2787 -1.2815
  653SOL     OW12121   0.249   4.412   1.173  0.0219  0.4475  0.1372
  653SOL    HW112122   0.272   4.331   1.119 -2.1347  0.3499 -0.6503
  653SOL    HW212123   0.312   4.419   1.251  1.8094 -0.5705 -1.1883
  654SOL     OW12124   2.753   4.659   3.568  0.0484 -0.4361  0.3252
  654SOL    HW112125   2.781   4.753   3.548  0.0231 -0.4721  0.1234
  654SOL    HW212126   2.657   4.658   3.595 -0.1986 -0.5146 -0.5405
  655SOL     OW12127   3.416   7.268   0.861  0.0526  0.2410  0.2342
  655SOL    HW112128   3.324   7.241   0.890 -0.1459  0.8225  0.1556
  655SOL    HW212129   3.420   7.273   0.761  0.4784 -0.8510  0.1875
  656SOL     OW12130   3.887   6.459   3.147 -0.4029 -0.2422 -0.0323
  656SOL    HW112131   3.823   6.518   3.097 -0.9246 -0.2760  0.5948
  656SOL    HW212132   3.869   6.363   3.124 -0.5504 -0.2491  0.1117
  657SOL     OW12133   7.400   7.781   1.872  0.0745 -0.1308  0.1104
  657SOL    HW112134   7.303   7.771   1.851  0.3889 -0.9970 -0.9341
  657SOL    HW212135   7.438   7.693   1.901  0.6801  0.0741 -0.0406
  658SOL     OW12136   0.335   7.046   0.673 -0.1348  0.5996 -0.1600
  658SOL    HW112137   0.248   7.092   0.693 -1.7991 -1.7812 -1.6678
  658SOL    HW212138   0.317   6.956   0.634  3.0172  0.8702 -2.4193
  660SOL     OW12139   3.123   5.481   2.083 -0.0223 -0.4097  0.0221
  660SOL    HW112140   3.099   5.455   2.177 -0.2552 -0.8718 -0.1637
  660SOL    HW212141   3.193   5.418   2.048 -0.3495 -0.5850 -0.3162
  661SOL     OW12142   9.259   7.660   3.405  0.3050  0.2433  0.2184
  661SOL    HW112143   9.276   7.743   3.353  0.5170 -0.1246 -0.3050
  661SOL    HW212144   9.179   7.613   3.367  0.3776  0.0446  0.3105
  662SOL     OW12145   3.803   4.044   3.456 -0.7054 -0.0763 -0.2777
  662SOL    HW112146   3.889   4.063   3.503 -1.2479  0.0506  0.6843
  662SOL    HW212147   3.737   4.116   3.476 -0.5086  0.7132 -2.3824
  663SOL     OW12148   3.000   8.694   0.019  0.0085 -1.0573 -0.5508
  663SOL    HW112149   2.927   8.712   0.084  0.8012 -1.9673  0.6095
  663SOL    HW212150   2.981   8.610  -0.031  0.2140 -1.2590 -0.2951
  664SOL     OW12151   7.700   1.782   3.244  0.1944 -0.5312  0.1477
  664SOL    HW112152   7.673   1.745   3.333  0.2942 -0.2854  0.2804
  664SOL    HW212153   7.733   1.875   3.255  1.3888 -0.9310  0.0287
  665SOL     OW12154   6.813   0.270   3.093 -0.5213 -0.2857  0.1531
  665SOL    HW112155   6.739   0.242   3.154  0.1932 -3.6646 -0.3967
  665SOL    HW212156   6.900   0.271   3.143 -0.5880  1.3797  0.2467
  666SOL     OW12157   8.631   8.462   1.987  0.6181 -0.6459 -0.4833
  666SOL    HW112158   8.581   8.398   2.046 -0.3702  0.9272  0.4420
  666SOL    HW212159   8.688   8.521   2.043  0.2198  0.3970 -1.1510
  667SOL     OW12160   8.394   9.731   3.203  0.1217  0.0817 -0.0690
  667SOL    HW112161   8.487   9.715   3.234  0.0262 -1.0185 -0.3077
  667SOL    HW212162   8.337   9.759   3.280 -0.1867 -2.9201  0.8628
  668SOL     OW12163   1.628   9.578   3.676 -0.0888 -0.0088  0.6414
  668SOL    HW112164   1.638   9.481   3.652 -2.7982 -0.5775  1.6672
  668SOL    HW212165   1.665   9.593   3.768 -0.5082 -0.2670  0.8538
  669SOL     OW12166   8.311   1.965   1.520  0.1633 -0.2230 -0.1842
  669SOL    HW112167   8.310   2.057   1.560  1.5498  0.3647 -1.4323
  669SOL    HW212168   8.352   1.901   1.584  2.5921  0.7503 -0.6673
  670SOL     OW12169   2.380   6.006   1.988 -0.0986 -0.3292 -0.4810
  670SOL    HW112170   2.305   5.968   2.042  0.5206  0.8231  1.2331
  670SOL    HW212171   2.411   5.938   1.922 -1.1136 -1.6366  0.3663
  671SOL     OW12172   0.569   6.619   2.829  0.0909 -0.4945  0.2276
  671SOL    HW112173   0.591   6.527   2.796  3.8492  1.2151 -2.2991
  671SOL    HW212174   0.644   6.653   2.886 -0.5867  1.5987 -0.1034
  672SOL     OW12175   3.296   0.526   2.520  0.2815  0.2269  0.3887
  672SOL    HW112176   3.388   0.553   2.491  0.4901 -1.5182 -0.6668
  672SOL    HW212177   3.262   0.454   2.459 -1.3467  0.0970  1.4305
  674SOL     OW12178   9.511   9.788   1.814  0.0789 -0.0303 -0.0425
  674SOL    HW112179   9.588   9.794   1.752 -0.5820 -0.7120 -0.9505
  674SOL    HW212180   9.481   9.879   1.841  0.2281  0.2749 -0.9074
  675SOL     OW12181   9.732   2.539   2.875  0.7930  0.1582  0.4865
  675SOL    HW112182   9.709   2.636   2.879 -1.2379 -0.1880 -1.8362
  675SOL    HW212183   9.701   2.494   2.959 -1.7938  0.8085 -0.0820
  676SOL     OW12184   8.522   5.974   2.589  0.6090 -0.0396  0.2314
  676SOL    HW112185   8.465   5.935   2.661 -1.7752 -0.7943 -2.0282
  676SOL    HW212186   8.588   5.906   2.559  1.9098  0.4156  1.9367
  677SOL     OW12187   0.031   1.181   3.365  0.2230 -0.5225 -0.1880
  677SOL    HW112188   0.067   1.263   3.321 -1.5956  1.0855  1.2255
  677SOL    HW212189  -0.028   1.132   3.301  0.4102 -0.1215 -0.6718
  678SOL     OW12190   0.521   1.510   3.734  0.1896 -0.0777 -0.0673
  678SOL    HW112191   0.606   1.542   3.692  0.2710 -1.1188 -0.7042
  678SOL    HW212192   0.505   1.415   3.709 -0.3119 -0.3910  1.4120
  679SOL     OW12193   1.805   2.618   1.782  0.1764 -0.2289 -0.3740
  679SOL    HW112194   1.723   2.668   1.754 -0.4457 -2.3047 -2.4240
  679SOL    HW212195   1.803   2.603   1.880 -1.9853 -0.3956 -0.4180
  680SOL     OW12196   2.951   3.369   2.387  0.1955  0.4361 -0.4235
  680SOL    HW112197   3.045   3.339   2.397  0.7540  2.0527 -0.6896
  680SOL    HW212198   2.891   3.310   2.441  1.3684 -0.4970 -0.1273
  681SOL     OW12199   2.286   4.110   0.380  0.5482 -0.3697 -0.3594
  681SOL    HW112200   2.229   4.126   0.299 -1.2122  2.6029  1.3554
  681SOL    HW212201   2.368   4.167   0.374  0.8060 -0.7417 -0.4003
  682SOL     OW12202   2.516   6.495   2.804 -0.3329  0.1096 -0.3053
  682SOL    HW112203   2.606   6.502   2.848 -0.6211 -0.3233  0.3723
  682SOL    HW212204   2.528   6.471   2.708  0.2307 -1.7924  0.2105
  683SOL     OW12205   2.870   9.740   1.156 -0.0752 -0.0922  0.3980
  683SOL    HW112206   2.883   9.753   1.058 -0.5643  1.1095  0.4962
  683SOL    HW212207   2.796   9.675   1.171  0.7153 -1.1316 -0.0299
  684SOL     OW12208   0.540   2.801   0.177  0.4821  0.1327 -0.9948
  684SOL    HW112209   0.518   2.894   0.150  2.3690  0.6490 -0.8265
  684SOL    HW212210   0.639   2.793   0.192  0.4250 -2.0289 -1.5700
  685SOL     OW12211   0.188   6.219   0.272  0.3056 -0.2266 -0.7215
  685SOL    HW112212   0.201   6.302   0.327  0.9631 -1.5163  1.1215
  685SOL    HW212213   0.108   6.230   0.213 -0.4555  1.1795  0.5466
  686SOL     OW12214   6.285   8.488   1.857  0.2291 -0.3983 -0.1257
  686SOL    HW112215   6.198   8.522   1.820  0.3741  0.2877  0.1679
  686SOL    HW212216   6.358   8.551   1.832  0.7452 -1.2721 -0.8683
  687SOL     OW12217   9.091   1.759   1.777 -0.0296  0.1894 -1.0029
  687SOL    HW112218   9.128   1.666   1.778  0.2026  0.2695  1.2903
  687SOL    HW212219   9.163   1.823   1.803 -1.3157  0.5049  1.9858
  688SOL     OW12220   4.625   8.554   2.330 -0.4603  0.0313  0.1831
  688SOL    HW112221   4.612   8.639   2.381  2.0782  0.6851 -0.1687
  688SOL    HW212222   4.713   8.558   2.282 -0.2513 -2.8468  0.2640
  689SOL     OW12223   4.816   6.547   2.997 -0.6554 -0.4162  0.7375
  689SOL    HW112224   4.724   6.562   2.960 -0.6404 -0.2944  0.7497
  689SOL    HW212225   4.884   6.574   2.930 -0.6274 -0.8322  0.5953
  691SOL     OW12226   2.891   6.020   0.369 -0.1299 -0.2682  0.3484
  691SOL    HW112227   2.945   5.980   0.443  0.8135 -0.9840 -0.6983
  691SOL    HW212228   2.943   6.015   0.283 -0.9508  1.1050 -0.2497
  692SOL     OW12229   2.184   1.195   2.448  0.5250  0.4277 -0.1855
  692SOL    HW112230   2.104   1.244   2.411  0.2411 -0.0579 -0.2222
  692SOL    HW212231   2.241   1.163   2.372 -0.1327 -0.6943 -0.2307
  693SOL     OW12232   2.696   2.073   0.840  0.6209  0.0982 -0.0162
  693SOL    HW112233   2.754   2.145   0.803  0.7338 -0.1872 -0.3974
  693SOL    HW212234   2.700   1.993   0.780 -1.0464  0.4808 -0.6507
  694SOL     OW12235   1.427   8.801   2.379 -0.1808  0.3582 -0.0863
  694SOL    HW112236   1.476   8.754   2.306 -1.8232 -1.6481  0.0263
  694SOL    HW212237   1.365   8.869   2.340  0.4629  0.7523 -0.4179
  695SOL     OW12238   3.938   0.197   2.493 -0.6727 -0.1665  0.5536
  695SOL    HW112239   3.997   0.168   2.417 -0.1315  1.1404  0.4577
  695SOL    HW212240   3.959   0.143   2.574 -0.4906 -0.8387  0.0592
  696SOL     OW12241   8.506   2.673   2.705 -0.3886 -0.2050  0.1929
  696SOL    HW112242   8.461   2.712   2.624 -2.1507 -1.3110  0.6098
  696SOL    HW212243   8.493   2.574   2.705  0.1585 -0.2780  1.5083
  697SOL     OW12244   2.818   2.519   1.280  0.5105  0.7106  0.0009
  697SOL    HW112245   2.746   2.577   1.317  0.1645 -0.4133  1.1297
  697SOL    HW212246   2.865   2.567   1.206  1.0340  2.9013  1.6951
  699SOL     OW12247   4.053   0.422   0.330  0.1073 -0.1588 -0.3520
  699SOL    HW112248   4.142   0.378   0.329  0.6147  0.8748 -1.6688
  699SOL    HW212249   3.987   0.365   0.281  0.2587 -0.4788 -0.1820
  704SOL     OW12250   9.410   4.439   2.082 -0.3134 -0.4951 -0.5375
  704SOL    HW112251   9.450   4.391   2.004  1.6678  0.7598 -0.3175
  704SOL    HW212252   9.482   4.465   2.146 -1.5655  1.1737  0.2301
  705SOL     OW12253   2.919   9.976   2.753 -0.0531 -0.3023  0.2238
  705SOL    HW112254   2.922   9.879   2.777  0.9146 -0.3923 -0.2470
  705SOL    HW212255   2.823  10.005   2.745 -0.3514 -1.1868  0.4622
  707SOL     OW12256   8.422   8.578   0.207  0.3252 -0.4096  0.5252
  707SOL    HW112257   8.348   8.592   0.141  0.5396  1.9343  0.7516
  707SOL    HW212258   8.384   8.553   0.296 -0.2022  0.9196  0.6770
  709SOL     OW12259   6.744   8.978   1.934  0.3905  1.1143  1.1535
  709SOL    HW112260   6.664   9.000   1.990  0.0869  2.3391  0.2709
  709SOL    HW212261   6.800   9.060   1.922  0.9445  0.6435  0.4639
  710SOL     OW12262   5.259   2.233   1.402 -0.0453 -0.3817 -0.0294
  710SOL    HW112263   5.230   2.139   1.423  0.7807 -0.4634  0.7938
  710SOL    HW212264   5.265   2.285   1.488 -0.5598  0.4458 -0.4873
  711SOL     OW12265   1.650   4.900   2.218  0.0402  0.0600  0.0108
  711SOL    HW112266   1.612   4.808   2.210 -0.5865  0.2076  1.2208
  711SOL    HW212267   1.590   4.965   2.170  0.2411 -0.0874 -0.4481
  712SOL     OW12268   9.433   6.524   0.669  0.3809  0.0474 -0.0628
  712SOL    HW112269   9.352   6.582   0.681 -0.6712 -1.1084 -1.4416
  712SOL    HW212270   9.489   6.528   0.751  0.0707  2.6192  0.0782
  713SOL     OW12271   5.200   2.581   1.337 -0.2277  0.0506  0.1209
  713SOL    HW112272   5.122   2.550   1.391  0.6892 -1.0937  0.7847
  713SOL    HW212273   5.181   2.566   1.240 -1.3607  0.9721  0.1883
  715SOL     OW12274   9.467   6.962   1.777 -0.4795 -0.3403  0.2202
  715SOL    HW112275   9.485   6.901   1.854 -0.8869  1.4178  1.7243
  715SOL    HW212276   9.554   6.990   1.736 -0.2786 -1.7117 -0.3444
  716SOL     OW12277   8.585   7.223   3.244  0.4291  0.4264 -0.2490
  716SOL    HW112278   8.641   7.299   3.278  0.8328 -0.7585  1.8163
  716SOL    HW212279   8.559   7.164   3.320 -2.1640 -0.0381 -1.4308
  717SOL     OW12280   1.122   6.728   3.718 -0.0854 -0.7364  0.4359
  717SOL    HW112281   1.182   6.796   3.676 -1.4095  0.5039  0.5199
  717SOL    HW212282   1.083   6.764   3.802  0.0431 -2.0083  1.0549
  718SOL     OW12283   9.817   1.814   1.993  0.0228 -0.1226 -0.2175
  718SOL    HW112284   9.725   1.838   2.023 -0.1174 -0.0093 -0.7370
  718SOL    HW212285   9.883   1.837   2.065 -0.4662 -1.2353  0.5968
  719SOL     OW12286   9.601   8.934   2.232 -0.5434 -0.8766  0.3405
  719SOL    HW112287   9.593   8.921   2.133  1.5395 -1.3611  0.2135
  719SOL    HW212288   9.608   9.032   2.252  1.0641 -0.8677 -0.1833
  720SOL     OW12289   8.497   7.400   2.326  0.3730  0.4787 -0.5380
  720SOL    HW112290   8.453   7.406   2.415 -1.4023  1.0591 -1.4432
  720SOL    HW212291   8.527   7.491   2.297  2.2928  0.0854  0.1023
  721SOL     OW12292   0.839   9.346   2.263 -0.0865 -0.3995 -0.6076
  721SOL    HW112293   0.757   9.345   2.321 -0.3563  0.2128 -0.9818
  721SOL    HW212294   0.920   9.356   2.321 -0.3535  0.1984 -0.3317
  722SOL     OW12295   8.784   6.574   2.147  0.5220 -0.1544  0.7194
  722SOL    HW112296   8.785   6.568   2.247  1.0979 -0.0206  0.7280
  722SOL    HW212297   8.848   6.645   2.117 -1.5782  1.6425  0.3580
  723SOL     OW12298   7.641   3.600   0.216  0.2650 -0.5413 -0.1857
  723SOL    HW112299   7.547   3.580   0.243  0.4666  0.0163  0.9743
  723SOL    HW212300   7.641   3.641   0.125 -0.7440  0.7517  0.3719
  724SOL     OW12301   4.991   7.044   3.692  0.1642  0.3060 -0.0469
  724SOL    HW112302   4.951   7.066   3.603 -2.0086 -1.3352  0.4663
  724SOL    HW212303   4.927   7.071   3.764  1.3007  0.3658  0.9463
  725SOL     OW12304   7.875   7.291   2.202  0.1111  0.1098 -0.2696
  725SOL    HW112305   7.868   7.293   2.102  0.2435  0.1957 -0.2769
  725SOL    HW212306   7.833   7.373   2.240 -0.1027 -0.0110 -0.2457
  727SOL     OW12307   3.201   4.726   1.997  0.7300 -0.0755  0.6416
  727SOL    HW112308   3.104   4.714   1.979  0.3680 -1.9366  3.4596
  727SOL    HW212309   3.219   4.820   2.028 -0.6079 -0.4236  2.5403
  730SOL     OW12310   0.241   2.769   1.459 -0.1543  0.0796 -0.0294
  730SOL    HW112311   0.178   2.744   1.532 -0.9894 -0.5805 -0.9605
  730SOL    HW212312   0.335   2.745   1.486 -0.5142 -0.6271  0.6049
  731SOL     OW12313   0.630   5.211   0.196 -0.1449  0.5058  0.6096
  731SOL    HW112314   0.613   5.154   0.115 -1.8537  1.0347  0.5640
  731SOL    HW212315   0.609   5.159   0.279 -1.4956  0.9772  0.5760
  733SOL     OW12316   9.529   1.825   2.039  0.1596 -0.0797  0.5065
  733SOL    HW112317   9.499   1.806   2.133  1.2854 -0.8730  0.7242
  733SOL    HW212318   9.494   1.913   2.010  0.3340  0.4679  1.9145
  734SOL     OW12319   9.004   6.631   1.300 -0.2070  0.0343 -0.1228
  734SOL    HW112320   9.029   6.551   1.246 -0.7669 -0.1057 -0.1690
  734SOL    HW212321   8.974   6.603   1.391  0.4502  0.2526  0.1691
  735SOL     OW12322   4.695   4.067   0.625  0.4487 -0.5674  0.2079
  735SOL    HW112323   4.624   4.094   0.560 -0.0900 -1.3021  0.4787
  735SOL    HW212324   4.735   3.980   0.596 -0.4777 -1.3988  1.3671
  736SOL     OW12325  -0.001   2.049   0.267 -0.1794  0.1797  0.0938
  736SOL    HW112326   0.017   2.090   0.357 -0.4709 -1.3578  0.8646
  736SOL    HW212327   0.084   2.015   0.228 -0.5577 -2.4396  1.4403
  738SOL     OW12328   1.762   8.407   2.251 -0.4049  0.2410 -0.0842
  738SOL    HW112329   1.715   8.395   2.339 -0.1362 -4.0996 -0.4329
  738SOL    HW212330   1.722   8.345   2.183  0.8162  1.9890 -2.4773
  739SOL     OW12331   5.169   1.363   2.829 -0.1359  0.3480 -0.1413
  739SOL    HW112332   5.234   1.326   2.763  1.6862  0.4561  1.5473
  739SOL    HW212333   5.208   1.443   2.874 -1.1400 -0.0154  1.4198
  740SOL     OW12334   5.362   8.559   3.635  0.3201 -0.2658 -0.1566
  740SOL    HW112335   5.326   8.651   3.653  0.1521 -0.0867 -1.3599
  740SOL    HW212336   5.297   8.508   3.580  0.8167 -0.8067 -0.2448
  741SOL     OW12337   3.638   4.927   2.916  0.0646  0.3407  0.2946
  741SOL    HW112338   3.610   4.831   2.902 -0.9492  0.4854  1.2709
  741SOL    HW212339   3.568   4.987   2.877 -0.1509  0.6917  1.2116
  742SOL     OW12340   1.337   3.377   0.741 -0.9757 -0.5197  0.3839
  742SOL    HW112341   1.330   3.292   0.688  2.5226 -0.4614 -0.2884
  742SOL    HW212342   1.354   3.454   0.679  1.0660 -0.1406  1.3732
  743SOL     OW12343   9.065   1.476   1.451  0.0461  0.7087 -0.5882
  743SOL    HW112344   9.144   1.457   1.509  0.5293  2.1589 -0.7495
  743SOL    HW212345   9.035   1.391   1.407  0.2142 -0.2402  1.0843
  744SOL     OW12346   1.208   6.033   1.213 -0.2732  0.2305  0.0761
  744SOL    HW112347   1.132   6.004   1.154 -2.7426  1.8798  2.2989
  744SOL    HW212348   1.193   5.998   1.306  1.9469  0.2204  0.4547
  746SOL     OW12349   1.555   8.916   0.239 -0.1850 -0.1399 -0.0794
  746SOL    HW112350   1.553   9.013   0.216  0.8226  0.4243  2.0601
  746SOL    HW212351   1.554   8.861   0.156  0.6689  1.7427 -1.3423
  747SOL     OW12352   0.876   8.402   2.588  0.3526 -0.6222 -0.2199
  747SOL    HW112353   0.793   8.390   2.642  0.0408  0.0281 -0.5547
  747SOL    HW212354   0.939   8.462   2.638  0.2721 -0.4267 -0.3560
  748SOL     OW12355   2.001   8.513   2.120  0.0319  0.1106 -0.2132
  748SOL    HW112356   1.989   8.611   2.130 -0.8461  0.1389 -1.4398
  748SOL    HW212357   1.923   8.466   2.162 -1.0932  0.0601 -2.2810
  749SOL     OW12358   0.490   6.760   0.806  0.2702  0.0840  0.1743
  749SOL    HW112359   0.564   6.794   0.748  0.4129  0.3339  0.5020
  749SOL    HW212360   0.526   6.690   0.868  0.3153  0.4811  0.5982
  750SOL     OW12361   1.274   4.163   3.367 -0.1393  0.1149 -0.0861
  750SOL    HW112362   1.324   4.128   3.446 -1.5620  1.5265  1.4759
  750SOL    HW212363   1.191   4.110   3.353 -0.6438  0.7901  0.2985
  751SOL     OW12364   5.754   7.370   3.120  0.0168 -0.2851 -0.2087
  751SOL    HW112365   5.818   7.444   3.143  1.2270 -2.1785  2.7881
  751SOL    HW212366   5.661   7.405   3.122  0.5043  0.9823  2.0903
  752SOL     OW12367   9.025   3.059   1.829 -0.7235  0.2384  0.1304
  752SOL    HW112368   9.124   3.054   1.839 -0.7457 -0.9192 -0.1824
  752SOL    HW212369   8.981   3.047   1.919 -0.6469 -1.6059 -0.0588
  753SOL     OW12370   0.883   7.962   0.586 -0.7007  0.4882 -0.4189
  753SOL    HW112371   0.929   8.025   0.523 -2.2002  1.6526 -0.3851
  753SOL    HW212372   0.805   7.920   0.539 -0.1190 -0.8244 -0.2197
  754SOL     OW12373   2.851   4.867   2.898 -0.0034 -0.1102  0.3144
  754SOL    HW112374   2.884   4.934   2.832  2.0429  0.9983  2.3810
  754SOL    HW212375   2.770   4.902   2.944 -0.8066 -0.4371 -0.8236
  755SOL     OW12376   9.274   0.778   2.928 -0.2937 -0.1985 -0.5075
  755SOL    HW112377   9.314   0.694   2.965 -2.2498 -0.5679  0.8315
  755SOL    HW212378   9.342   0.851   2.930  1.5077 -1.7751 -1.8743
  756SOL     OW12379   4.451   1.176   3.381  0.4353 -0.2104 -0.1461
  756SOL    HW112380   4.482   1.159   3.287  1.1951  0.0164  0.0596
  756SOL    HW212381   4.483   1.102   3.440 -0.8293 -0.8401 -0.2241
  758SOL     OW12382   3.557   9.320   2.018  0.0815 -0.1222 -0.5008
  758SOL    HW112383   3.566   9.221   2.016  1.9543  0.0338 -0.3140
  758SOL    HW212384   3.584   9.358   1.930 -2.0673  0.1406 -1.0869
  759SOL     OW12385   9.574   4.004   2.434 -0.2742  0.0002 -0.2376
  759SOL    HW112386   9.645   3.964   2.376 -1.4593  0.1324 -1.8135
  759SOL    HW212387   9.614   4.076   2.490  0.7813  0.2926 -1.3374
  760SOL     OW12388   2.685   8.239   1.726 -0.0694 -0.5373 -0.0369
  760SOL    HW112389   2.783   8.258   1.713 -0.4554  0.1630 -2.1246
  760SOL    HW212390   2.671   8.141   1.739  0.8704 -0.6805 -0.0598
  761SOL     OW12391   1.858   4.766   1.999 -0.3005 -0.2945 -0.2388
  761SOL    HW112392   1.834   4.842   2.060 -1.7518 -2.3246  1.7742
  761SOL    HW212393   1.957   4.755   1.997 -0.2075  0.2493  1.1901
  763SOL     OW12394   8.582   1.945   1.219  0.1236  0.1260 -0.2517
  763SOL    HW112395   8.606   1.910   1.309 -0.8152 -0.5880 -0.2828
  763SOL    HW212396   8.484   1.933   1.202 -0.5305  3.9608  0.2853
  764SOL     OW12397   8.496   6.211   0.989  0.1393 -1.0556 -0.4797
  764SOL    HW112398   8.490   6.289   1.052 -1.5221 -1.3095 -0.2875
  764SOL    HW212399   8.524   6.130   1.040 -1.4185 -1.3117  0.0197
  765SOL     OW12400   9.631   2.143   3.677  0.0547  0.0156 -0.1062
  765SOL    HW112401   9.702   2.205   3.710 -1.3893 -0.0858  3.4410
  765SOL    HW212402   9.651   2.050   3.706  0.9389 -0.8514 -3.3071
  766SOL     OW12403   0.922   9.322   2.724 -0.1066 -0.0130 -0.1146
  766SOL    HW112404   0.913   9.392   2.795  1.7081  1.2865 -1.1085
  766SOL    HW212405   0.844   9.261   2.727 -1.7963  2.1229  0.7525
  767SOL     OW12406   3.400   8.614   0.763 -0.0556 -0.0933 -0.1593
  767SOL    HW112407   3.370   8.682   0.829 -3.0375 -0.6719 -0.8739
  767SOL    HW212408   3.377   8.522   0.796  1.9958 -0.6524 -0.1984
  768SOL     OW12409   3.031   7.452   3.295 -0.1744 -0.1200  0.0003
  768SOL    HW112410   3.071   7.388   3.229  1.4413  1.5047 -0.6643
  768SOL    HW212411   2.931   7.444   3.293 -0.3165  1.1685 -4.1071
  769SOL     OW12412   9.841   8.312   3.153 -0.0920 -0.2726 -0.2004
  769SOL    HW112413   9.782   8.308   3.073  0.4314 -3.3247 -0.4725
  769SOL    HW212414   9.787   8.337   3.233 -1.0600  0.4658 -1.0835
  770SOL     OW12415   5.066   7.423   1.559  0.0955  0.0949  0.0864
  770SOL    HW112416   4.991   7.365   1.590 -0.9420  1.4051  0.0415
  770SOL    HW212417   5.036   7.479   1.482  0.4556  2.1972  1.4505
  771SOL     OW12418   5.749   9.704   1.706 -0.5783 -0.3214  0.4235
  771SOL    HW112419   5.820   9.764   1.742 -0.9882  1.1965 -1.2374
  771SOL    HW212420   5.786   9.649   1.631 -0.6893 -0.7916  0.7148
  772SOL     OW12421   4.136   4.182   0.238  0.4047 -0.4765 -0.4143
  772SOL    HW112422   4.221   4.235   0.235  0.2786 -0.2269  0.1950
  772SOL    HW212423   4.070   4.229   0.297  0.6072 -1.7654  0.8892
  773SOL     OW12424   2.959   7.607   1.566 -0.6565 -0.2143 -0.5869
  773SOL    HW112425   3.027   7.621   1.494  0.2912  0.6232  0.4491
  773SOL    HW212426   2.998   7.548   1.637 -0.6171  1.1430  0.5323
  774SOL     OW12427   2.379   4.256   0.793  0.5454  0.1327 -0.3604
  774SOL    HW112428   2.383   4.293   0.886 -0.5370 -0.2942 -0.1373
  774SOL    HW212429   2.434   4.312   0.732 -0.5502  1.7324  0.0986
  775SOL     OW12430   8.934   8.878   0.116  0.5343  0.2897 -0.2072
  775SOL    HW112431   8.976   8.809   0.057  0.7065  0.0297  0.2198
  775SOL    HW212432   8.953   8.856   0.211  0.1319  0.6314 -0.0477
  776SOL     OW12433   9.225   1.053   0.307 -0.2804  0.2922 -0.2413
  776SOL    HW112434   9.176   1.065   0.394  0.8649  0.2251  0.4178
  776SOL    HW212435   9.303   0.993   0.321  1.3694  2.2690 -0.7706
  777SOL     OW12436   3.560   1.679   1.655 -0.0223  0.0325  0.1328
  777SOL    HW112437   3.471   1.711   1.687  0.5300  0.8337  0.9004
  777SOL    HW212438   3.620   1.757   1.640  0.1774 -0.4389 -1.5238
  778SOL     OW12439   4.110   7.674   1.349  0.3182 -0.4287  0.0974
  778SOL    HW112440   4.119   7.724   1.264 -2.2531 -0.1074 -0.0240
  778SOL    HW212441   4.112   7.737   1.426 -0.4124 -0.3893  0.0886
  779SOL     OW12442   2.452   5.547   3.208  0.0215 -0.1060  0.2391
  779SOL    HW112443   2.478   5.525   3.114 -2.0787 -0.9782 -0.1775
  779SOL    HW212444   2.526   5.522   3.270  1.0423 -0.4268 -1.0839
  780SOL     OW12445   3.778   4.715   1.824  0.2787  0.1700  0.8149
  780SOL    HW112446   3.765   4.812   1.845  0.2306  0.1037  1.0897
  780SOL    HW212447   3.715   4.689   1.751  1.5321  0.7700 -0.4836
  781SOL     OW12448   1.251   3.414   1.237  0.0930  0.5996  0.1964
  781SOL    HW112449   1.174   3.392   1.177  0.1888 -0.3822  0.4219
  781SOL    HW212450   1.306   3.487   1.196 -1.1795  1.5727  0.2252
  782SOL     OW12451   1.149   6.981   1.848  0.3403 -0.5618 -0.1997
  782SOL    HW112452   1.086   6.994   1.772 -0.8839  0.9135  1.0337
  782SOL    HW212453   1.174   6.884   1.855 -1.3584 -1.0710 -1.0460
  784SOL     OW12454   9.585   4.167   3.143 -0.3982  1.0550 -0.0255
  784SOL    HW112455   9.512   4.150   3.077  0.1844 -1.1739 -0.1473
  784SOL    HW212456   9.641   4.244   3.113 -0.0788  0.0072 -2.1873
  785SOL     OW12457   1.304   4.409   3.675  0.1541  0.2593 -0.3759
  785SOL    HW112458   1.364   4.478   3.716  0.0009  0.1393  0.0631
  785SOL    HW212459   1.355   4.325   3.661 -0.1920 -0.2205  1.0891
  786SOL     OW12460   3.834   8.031   2.893  0.7838 -0.8701 -0.5026
  786SOL    HW112461   3.836   8.056   2.796 -1.2022 -2.1804 -0.9054
  786SOL    HW212462   3.739   8.023   2.923  1.3427  1.5286  2.1070
  788SOL     OW12463   7.688   9.731   0.511  0.7710  0.3422 -0.1720
  788SOL    HW112464   7.777   9.710   0.550 -0.2030 -1.0312  1.3376
  788SOL    HW212465   7.617   9.717   0.580 -0.7575  0.0544 -1.7788
  789SOL     OW12466   1.892   2.954   1.643 -0.1463 -0.2040  0.1533
  789SOL    HW112467   1.842   2.953   1.730  0.7978 -4.2009  0.7241
  789SOL    HW212468   1.850   2.890   1.579  0.0703  1.6214 -1.8993
  790SOL     OW12469   3.947   3.372   0.503 -0.7589  0.2353 -0.3155
  790SOL    HW112470   3.999   3.448   0.541 -0.9132  0.7478 -1.1221
  790SOL    HW212471   4.008   3.295   0.486 -0.2158  0.9160 -1.4735
  791SOL     OW12472   9.572   1.345   2.428 -0.0894  0.4396 -0.1811
  791SOL    HW112473   9.620   1.257   2.426 -0.7699 -0.0575  2.5458
  791SOL    HW212474   9.500   1.341   2.497 -1.0319  2.6934 -1.0203
  793SOL     OW12475   3.601   7.866   1.654 -0.1220 -0.0476 -0.0506
  793SOL    HW112476   3.696   7.876   1.682 -0.3145  0.9794  0.2662
  793SOL    HW212477   3.558   7.956   1.650 -1.2737 -0.5621  0.4944
  795SOL     OW12478   3.109   2.557   3.730 -0.0271  0.2379 -0.0250
  795SOL    HW112479   3.101   2.563   3.829 -0.6968 -0.3106 -0.0421
  795SOL    HW212480   3.127   2.648   3.693 -0.0961  0.4996  0.5745
  796SOL     OW12481   2.886   6.628   0.012  0.0119 -0.1050 -0.7791
  796SOL    HW112482   2.815   6.646   0.079 -0.6921  1.1822 -1.8543
  796SOL    HW212483   2.861   6.548  -0.042 -0.2280 -0.1386 -0.6201
  797SOL     OW12484   8.494   4.586   1.025  0.0300 -0.4496  0.4616
  797SOL    HW112485   8.555   4.554   0.953 -0.6706 -0.7676  0.0084
  797SOL    HW212486   8.409   4.533   1.023  0.1935 -0.7892  1.8213
  798SOL     OW12487   8.702   4.010   0.690 -0.7654  0.0512  0.0485
  798SOL    HW112488   8.615   3.995   0.737 -0.0522 -1.6189  0.8912
  798SOL    HW212489   8.773   4.028   0.757  0.0651 -1.3562 -0.4163
  799SOL     OW12490   5.554   8.613   2.941  0.1815  0.2039  0.9039
  799SOL    HW112491   5.548   8.707   2.973  1.2010 -0.1438  2.1550
  799SOL    HW212492   5.472   8.563   2.968 -0.6853  0.8962 -0.3761
  800SOL     OW12493   0.217   9.679   0.098 -0.1309 -0.2408  0.0147
  800SOL    HW112494   0.147   9.709   0.033  0.2370 -0.4596 -0.4871
  800SOL    HW212495   0.269   9.759   0.129 -1.4152  0.0918  1.3584
  802SOL     OW12496   5.902   9.795   2.190  0.1118 -0.3384  0.1054
  802SOL    HW112497   5.971   9.841   2.135 -0.8931  0.6476 -0.3715
  802SOL    HW212498   5.918   9.814   2.287 -0.4921  1.3634 -0.1037
  803SOL     OW12499   9.452   7.503   1.491  0.0517 -0.0338 -0.0651
  803SOL    HW112500   9.374   7.562   1.512  0.2293  0.5623 -1.0361
  803SOL    HW212501   9.421   7.426   1.434  0.1550  0.1790 -0.4134
  805SOL     OW12502   8.304   5.507   3.494  0.3860  0.1120 -0.8573
  805SOL    HW112503   8.244   5.436   3.531  0.9725 -0.6527 -1.3559
  805SOL    HW212504   8.278   5.595   3.532 -1.2752 -0.1536 -1.3192
  806SOL     OW12505   1.791   9.360   0.973  0.3482  0.0763 -0.3589
  806SOL    HW112506   1.891   9.355   0.969  0.4810  0.6584  1.5057
  806SOL    HW212507   1.753   9.267   0.970  1.0606 -0.2676  0.8481
  808SOL     OW12508   8.944   2.746   0.249 -0.0212 -0.0430  0.4866
  808SOL    HW112509   8.934   2.722   0.152  0.7991 -1.3389  0.7169
  808SOL    HW212510   9.020   2.810   0.259  0.5481 -0.7077  0.4014
  809SOL     OW12511   0.120   4.198   2.353  0.9118 -0.3270 -0.3031
  809SOL    HW112512   0.095   4.295   2.352  2.5024  0.0968 -1.2057
  809SOL    HW212513   0.079   4.153   2.274 -0.3240 -0.5371  0.4428
  810SOL     OW12514   9.687   1.036   2.984 -0.8236 -0.7704  0.3592
  810SOL    HW112515   9.594   1.068   3.001 -0.9173 -1.0600  0.3894
  810SOL    HW212516   9.685   0.954   2.926 -0.5121  0.1177 -0.9322
  811SOL     OW12517   7.474   1.114   2.055 -0.4144  0.1424 -0.1474
  811SOL    HW112518   7.544   1.120   1.984  0.7223  0.7130  1.0091
  811SOL    HW212519   7.472   1.199   2.107 -0.9534 -0.4298  0.7748
  812SOL     OW12520   1.910   6.977   1.618  0.2543  0.1575  0.0693
  812SOL    HW112521   1.965   6.957   1.537 -1.5611 -2.7158 -0.5036
  812SOL    HW212522   1.943   6.924   1.695 -2.5937 -2.9110 -0.6785
  813SOL     OW12523   7.631   8.496   1.541 -0.1238  0.3058 -0.2724
  813SOL    HW112524   7.608   8.515   1.446 -0.8333  2.4908  0.3057
  813SOL    HW212525   7.575   8.420   1.574 -0.5110  0.1180 -1.3352
  814SOL     OW12526   0.509   9.173   0.265 -0.0831 -0.0222 -0.2458
  814SOL    HW112527   0.489   9.261   0.309 -0.3635 -0.1208 -0.1742
  814SOL    HW212528   0.608   9.163   0.256 -0.0301  0.0916  0.1786
  815SOL     OW12529   8.591   2.323   0.638  0.2032  0.1478  0.1801
  815SOL    HW112530   8.687   2.295   0.649  0.3053 -0.6625 -2.3762
  815SOL    HW212531   8.542   2.252   0.588 -1.3059  1.4133 -0.1619
  816SOL     OW12532   8.298   4.823   3.344  0.0944  0.1908  0.5912
  816SOL    HW112533   8.206   4.863   3.342 -0.3876 -0.9327 -0.6400
  816SOL    HW212534   8.350   4.856   3.264 -0.0971 -1.1549 -0.0893
  817SOL     OW12535   2.909   5.114   2.224 -0.1091 -0.1461  0.1151
  817SOL    HW112536   2.875   5.199   2.185  0.8244  0.0141 -0.3732
  817SOL    HW212537   2.897   5.115   2.323 -0.3804  0.4274  0.0777
  818SOL     OW12538   9.735   4.066   0.381 -0.1464 -0.3211  0.0378
  818SOL    HW112539   9.661   4.116   0.425  1.3960  0.8509  1.3603
  818SOL    HW212540   9.805   4.043   0.449  1.0775 -0.7279 -1.3283
  820SOL     OW12541   8.139   6.874   3.202  0.3360  0.1701 -0.1520
  820SOL    HW112542   8.133   6.799   3.137 -1.2019  0.0251  0.1538
  820SOL    HW212543   8.098   6.846   3.289 -3.5999  2.5561 -1.1397
  821SOL     OW12544   0.052   3.226   1.024 -0.3971  0.2163 -0.1023
  821SOL    HW112545   0.008   3.298   1.079  1.9463 -0.2628  2.5329
  821SOL    HW212546  -0.005   3.144   1.025 -1.5072  0.9822 -0.3387
  822SOL     OW12547   8.554   3.089   0.665 -0.1840  0.4686 -0.2518
  822SOL    HW112548   8.637   3.134   0.632  0.8250 -0.0294  1.5819
  822SOL    HW212549   8.542   3.003   0.615  0.2313  0.6732 -0.7176
  823SOL     OW12550   8.423   0.568   3.089  0.6387 -0.2346 -0.0195
  823SOL    HW112551   8.430   0.470   3.107  1.5081 -0.2306 -0.3127
  823SOL    HW212552   8.327   0.594   3.080  0.3493 -0.8237  1.3654
  824SOL     OW12553   4.512   7.426   0.756 -0.1512  0.1680 -0.5081
  824SOL    HW112554   4.436   7.476   0.799 -1.0115 -0.4738 -1.2626
  824SOL    HW212555   4.594   7.437   0.811 -0.7834  0.9057  0.3061
  825SOL     OW12556   8.883   2.320   0.720 -0.6734 -0.1019 -0.0536
  825SOL    HW112557   8.868   2.355   0.813 -0.1722 -1.4379  0.5407
  825SOL    HW212558   8.941   2.384   0.670 -0.1602  0.1742  0.8667
  826SOL     OW12559   1.028   5.942   2.305  0.3380 -0.4055 -0.0274
  826SOL    HW112560   0.973   5.899   2.233 -0.5752 -0.4804  0.6952
  826SOL    HW212561   1.121   5.905   2.303 -0.2805 -2.0515  0.2340
  827SOL     OW12562   8.562   4.097   1.512  0.6668 -0.1444  0.5239
  827SOL    HW112563   8.525   4.149   1.435 -0.7167 -2.3494 -0.3364
  827SOL    HW212564   8.486   4.060   1.566  1.4961 -4.3544 -1.0024
  828SOL     OW12565   1.036   1.693   0.213 -0.1672 -0.1246 -0.2461
  828SOL    HW112566   1.072   1.615   0.163 -1.6719 -1.1061  0.1555
  828SOL    HW212567   0.936   1.688   0.215 -0.3135  2.0000 -0.5125
  830SOL     OW12568   7.018   9.321   2.839  0.5038 -0.0543  0.3450
  830SOL    HW112569   7.080   9.301   2.763  1.6654  0.2705  1.1887
  830SOL    HW212570   7.012   9.242   2.900  1.3049  0.4527  1.0900
  831SOL     OW12571   0.343   8.976   0.754 -0.4924 -0.3594  0.0831
  831SOL    HW112572   0.319   8.881   0.734  1.8240 -0.8011 -0.7951
  831SOL    HW212573   0.431   8.997   0.711 -0.9293  2.1538  0.3662
  832SOL     OW12574   0.182   0.004   0.180  0.2531  0.1667  0.3606
  832SOL    HW112575   0.221   0.047   0.261  0.7864 -0.1789  0.2910
  832SOL    HW212576   0.221   0.046   0.098  1.1555 -0.7666  0.2917
  833SOL     OW12577   9.583   6.310   2.671 -0.7596 -0.4508 -0.5928
  833SOL    HW112578   9.598   6.368   2.591 -1.3768  0.2489 -0.2092
  833SOL    HW212579   9.553   6.219   2.642 -2.4365  0.2670 -1.0947
  835SOL     OW12580   9.049   9.642   1.453 -0.0245  0.1746 -0.0593
  835SOL    HW112581   9.105   9.616   1.532 -0.4758  0.1357  0.2449
  835SOL    HW212582   8.953   9.621   1.471  0.1224 -1.9265 -1.4568
  836SOL     OW12583   4.852   3.104   0.963  0.0051 -0.2901  0.2278
  836SOL    HW112584   4.874   3.008   0.980  1.8827  0.0107 -0.3323
  836SOL    HW212585   4.935   3.159   0.972 -0.9365  1.2097 -0.0295
  837SOL     OW12586   3.722   6.421   2.876  0.2951 -0.2885  0.3370
  837SOL    HW112587   3.793   6.484   2.847  1.5395 -1.5599  0.5938
  837SOL    HW212588   3.737   6.331   2.834 -0.6000 -0.8265  1.1463
  839SOL     OW12589   3.767   2.850   1.935 -0.1773  0.0715 -0.4186
  839SOL    HW112590   3.829   2.893   1.870  0.3430 -1.0770 -0.7059
  839SOL    HW212591   3.713   2.780   1.888 -1.4599  0.8353 -0.1025
  840SOL     OW12592   1.505   8.085   3.461  0.2470 -0.1082  0.2385
  840SOL    HW112593   1.556   8.109   3.544  1.7352  0.8809 -0.9262
  840SOL    HW212594   1.429   8.025   3.484  1.8462 -1.4925  2.0707
  842SOL     OW12595   2.171   5.736   3.189 -0.0486  0.6419 -0.0378
  842SOL    HW112596   2.238   5.661   3.183 -0.4800  0.2498  0.0082
  842SOL    HW212597   2.201   5.802   3.257  0.3040  0.4718 -0.0283
  843SOL     OW12598   8.080   9.425   0.273  0.7801  0.0466 -0.6380
  843SOL    HW112599   8.031   9.449   0.189 -0.2170 -0.1111 -0.1107
  843SOL    HW212600   8.128   9.338   0.260 -2.0104 -1.6585 -0.0298
  845SOL     OW12601   3.235   0.627   1.899 -0.1576 -0.3719 -0.4078
  845SOL    HW112602   3.239   0.726   1.888 -1.9002 -0.1853  0.5416
  845SOL    HW212603   3.152   0.591   1.856 -0.5949 -1.1511  1.0500
  846SOL     OW12604   2.387   4.003   3.220 -0.0109 -0.1453 -0.3130
  846SOL    HW112605   2.418   3.973   3.310  0.9326 -0.9452 -0.8963
  846SOL    HW212606   2.423   3.942   3.150 -0.0887  0.9202 -1.3025
  847SOL     OW12607   2.048   3.177   1.913 -0.2704  0.0864 -0.8220
  847SOL    HW112608   1.991   3.233   1.973  1.0743 -1.0791  1.6277
  847SOL    HW212609   1.991   3.134   1.844 -2.1052  0.3195  0.5085
  848SOL     OW12610   8.491   5.482   3.174 -0.0816  0.0331 -0.2492
  848SOL    HW112611   8.406   5.428   3.179 -1.5334  2.1926 -0.9005
  848SOL    HW212612   8.524   5.500   3.266 -0.0416 -1.2547 -0.0025
  849SOL     OW12613   8.956   3.662   1.773 -0.0549  0.3380 -0.5608
  849SOL    HW112614   8.856   3.663   1.774 -0.0518  1.7666  0.0002
  849SOL    HW212615   8.988   3.567   1.769 -1.4244 -0.1302 -0.8912
  850SOL     OW12616   9.931   0.018   0.451  0.1821  0.0152 -0.0473
  850SOL    HW112617   9.981  -0.026   0.525  1.4493  0.8499 -0.3664
  850SOL    HW212618   9.922  -0.045   0.374 -1.8083 -1.1066  1.0763
  851SOL     OW12619   3.661   3.135   1.099 -0.3051 -0.3082 -0.1650
  851SOL    HW112620   3.628   3.217   1.052  2.9483  1.9854  1.3593
  851SOL    HW212621   3.744   3.102   1.053  0.8433 -0.1760  1.7618
  852SOL     OW12622   3.347   7.771   0.382  0.1401  0.6712  0.6939
  852SOL    HW112623   3.428   7.720   0.353 -0.3057  0.3210  0.0622
  852SOL    HW212624   3.339   7.853   0.326 -0.4677  0.2290  0.1361
  854SOL     OW12625   3.433   3.922   0.130 -0.0168 -0.2497 -0.3096
  854SOL    HW112626   3.448   3.934   0.229  0.0042 -0.7481 -0.2478
  854SOL    HW212627   3.521   3.905   0.086  0.0134  0.2982 -0.4641
  855SOL     OW12628   9.741   4.988   2.236  0.3022  0.0221 -0.5189
  855SOL    HW112629   9.686   5.011   2.317  1.1712  1.2223 -0.2471
  855SOL    HW212630   9.804   5.063   2.217  0.5607 -0.5395 -1.9326
  856SOL     OW12631   5.637   8.569   3.607 -0.4431 -0.4267  0.4057
  856SOL    HW112632   5.651   8.653   3.555  0.2323 -0.1088  1.0888
  856SOL    HW212633   5.539   8.553   3.619 -0.5683  1.2691  1.8545
  858SOL     OW12634   0.159   8.516   2.174  0.0154  0.9115  0.0797
  858SOL    HW112635   0.111   8.602   2.162  3.0175  2.3482 -2.3095
  858SOL    HW212636   0.153   8.462   2.090 -0.0463 -0.2498  0.8218
  859SOL     OW12637   0.724   5.271   2.672  0.6069 -0.0200 -0.1361
  859SOL    HW112638   0.799   5.325   2.634  0.0161  0.6266 -0.3995
  859SOL    HW212639   0.682   5.322   2.747 -0.6090  0.3342 -1.0525
  860SOL     OW12640   7.618   9.213   3.373  0.2643  0.1469  0.4761
  860SOL    HW112641   7.529   9.181   3.341  0.0198 -0.2759  1.5640
  860SOL    HW212642   7.607   9.300   3.422  0.1873 -0.8314  2.2214
  862SOL     OW12643   2.850   5.744   2.270  0.1896  0.6266 -0.1162
  862SOL    HW112644   2.798   5.775   2.350  0.2642 -0.2031  0.2529
  862SOL    HW212645   2.812   5.658   2.237  0.5566  0.6506 -0.6011
  863SOL     OW12646   9.524   6.230   0.107  0.3531 -0.5688 -0.3975
  863SOL    HW112647   9.562   6.216   0.198  0.8534 -0.9898 -0.6656
  863SOL    HW212648   9.549   6.320   0.073  0.6590 -0.6409 -0.3592
  865SOL     OW12649   3.149   9.541   2.242 -0.1743 -0.2165 -0.1354
  865SOL    HW112650   3.101   9.499   2.319  1.6582  0.9335  1.7109
  865SOL    HW212651   3.243   9.507   2.239  0.9978  2.8182  0.6949
  867SOL     OW12652   4.423   0.425   3.641 -0.0549 -0.2443  0.4889
  867SOL    HW112653   4.395   0.373   3.722 -2.5867  1.8602  1.0383
  867SOL    HW212654   4.384   0.383   3.559  0.1446 -0.7431  0.6481
  869SOL     OW12655   0.034   8.347   1.986 -0.5766 -0.3376 -0.1052
  869SOL    HW112656   0.006   8.305   2.072  0.8669 -0.9095  0.1050
  869SOL    HW212657   0.056   8.275   1.920 -1.6624  0.0937 -0.9670
  871SOL     OW12658   2.507   2.116   2.222  0.4897  0.1418  0.1826
  871SOL    HW112659   2.470   2.083   2.309  4.1736 -0.1101  1.7514
  871SOL    HW212660   2.529   2.038   2.164  0.0976  0.2302 -0.0857
  872SOL     OW12661   4.725   9.061   3.554  0.0001  0.1183 -0.1435
  872SOL    HW112662   4.767   8.976   3.586  1.9284  1.3021  0.5206
  872SOL    HW212663   4.656   9.091   3.621 -0.4252 -0.7089 -0.2031
  873SOL     OW12664   1.427   7.247   2.853  0.6583 -0.0792  0.2140
  873SOL    HW112665   1.458   7.152   2.843 -1.0730 -0.4574 -2.0195
  873SOL    HW212666   1.383   7.276   2.769  0.7201  2.5755  1.0641
  875SOL     OW12667   1.288   7.968   1.274  0.3124 -1.3175 -1.2137
  875SOL    HW112668   1.371   7.917   1.252  0.5969 -1.4522  0.1457
  875SOL    HW212669   1.216   7.945   1.208  1.2382 -1.4665 -2.1793
  876SOL     OW12670   2.249   7.455   2.898 -0.0130  0.1014 -0.1237
  876SOL    HW112671   2.220   7.384   2.834  0.2931  1.0156 -1.2803
  876SOL    HW212672   2.340   7.432   2.934 -0.1724 -0.3906 -0.0315
  878SOL     OW12673   9.949   9.085   0.798  0.1574  0.3151  0.2953
  878SOL    HW112674   9.981   8.991   0.814 -1.0539 -0.1459  0.0725
  878SOL    HW212675  10.019   9.149   0.828  1.2733 -0.6703 -0.1399
  880SOL     OW12676   6.858   8.815   2.508  0.4418  0.1000  0.3639
  880SOL    HW112677   6.841   8.721   2.540 -0.8573  0.6604  1.3240
  880SOL    HW212678   6.806   8.879   2.563  0.8575  1.3605 -0.6919
  881SOL     OW12679   2.812   8.874   2.294  0.1206 -0.1928  0.2512
  881SOL    HW112680   2.719   8.910   2.307  0.6065  0.7914  1.0418
  881SOL    HW212681   2.872   8.910   2.366  1.4474  0.3136 -1.0856
  882SOL     OW12682   3.593   2.800   2.329 -0.1916  0.1420  0.2726
  882SOL    HW112683   3.618   2.772   2.422  3.9687 -1.0279 -1.0708
  882SOL    HW212684   3.667   2.855   2.290 -0.9863 -0.9826 -2.9935
  883SOL     OW12685   0.659   6.011   0.543 -0.5475  0.0111  0.7536
  883SOL    HW112686   0.579   6.019   0.603 -0.0053 -0.7815  1.6077
  883SOL    HW212687   0.738   6.050   0.589 -0.4832  0.9542 -0.1657
  884SOL     OW12688   7.732   9.548   2.516  0.8872 -0.0343 -0.5386
  884SOL    HW112689   7.700   9.601   2.594 -1.1850 -1.6239 -0.2605
  884SOL    HW212690   7.757   9.456   2.546  1.1884 -0.2966 -1.5616
  885SOL     OW12691   4.885   1.868   1.159  0.3688 -0.4577 -0.9201
  885SOL    HW112692   4.908   1.965   1.151 -0.9912  0.0777  1.0901
  885SOL    HW212693   4.822   1.843   1.085 -0.6050  0.6512 -0.5015
  887SOL     OW12694   9.223   7.900   2.694  0.0905  0.2392  0.5716
  887SOL    HW112695   9.253   7.984   2.649  0.8270  0.0487  0.6918
  887SOL    HW212696   9.287   7.826   2.673  0.6726  0.2450  2.2214
  888SOL     OW12697   4.229   8.516   0.185 -0.0629  0.9397 -0.0785
  888SOL    HW112698   4.247   8.607   0.148 -2.6627  0.7900 -1.8851
  888SOL    HW212699   4.135   8.512   0.219  1.0774 -0.1026  3.1179
  889SOL     OW12700   1.517   7.792   2.436 -0.1965  0.9390 -0.4970
  889SOL    HW112701   1.435   7.833   2.476 -0.7205  2.4109 -2.9906
  889SOL    HW212702   1.592   7.857   2.439  0.1637  0.5311 -0.6160
  890SOL     OW12703   5.022   9.531   1.224  0.0582  0.8140 -0.6186
  890SOL    HW112704   4.994   9.436   1.235  0.7567  0.6727 -0.0410
  890SOL    HW212705   5.122   9.537   1.220  0.0968  1.6929  1.0735
  891SOL     OW12706   5.048   8.844   2.318 -0.0055  0.1192 -0.2560
  891SOL    HW112707   5.095   8.791   2.389 -0.7064 -0.2913 -0.0937
  891SOL    HW212708   5.114   8.903   2.272  0.3065  0.9654  1.2449
  892SOL     OW12709   1.663   5.567   1.783 -0.3053  0.0181 -0.3676
  892SOL    HW112710   1.605   5.581   1.703  0.2743  2.2277 -0.4369
  892SOL    HW212711   1.756   5.599   1.763 -0.4184  1.6544  1.5313
  894SOL     OW12712   9.859   1.278   1.867 -0.6204 -0.3728 -0.5199
  894SOL    HW112713   9.761   1.291   1.850 -0.5113  1.0009 -0.1927
  894SOL    HW212714   9.894   1.205   1.809 -2.3884 -2.7112  1.2469
  895SOL     OW12715   8.678   2.461   1.935  0.6435  0.3193  0.8934
  895SOL    HW112716   8.696   2.427   2.027  1.6797  1.2208  1.0401
  895SOL    HW212717   8.763   2.497   1.896  0.0308  0.7196 -0.0914
  898SOL     OW12718   9.927   2.013   3.471 -0.0155 -0.2067 -0.0778
  898SOL    HW112719   9.953   1.982   3.563  0.6842  0.7404  0.0427
  898SOL    HW212720   9.936   2.112   3.465  0.4013 -0.3079 -1.3120
  902SOL     OW12721   2.275   6.828   1.351  0.1182  0.4279  1.0363
  902SOL    HW112722   2.223   6.793   1.273  0.7106 -0.3835  0.9911
  902SOL    HW212723   2.346   6.891   1.318  1.8486 -1.6352  0.6451
  904SOL     OW12724   5.941   7.877   1.854  0.1925 -0.0392 -0.0381
  904SOL    HW112725   5.968   7.881   1.757 -0.6491 -1.3627 -0.3434
  904SOL    HW212726   5.967   7.962   1.899  1.1879  0.3341 -1.2779
  905SOL     OW12727   5.173   7.986   0.516  0.1141  0.0192 -0.2057
  905SOL    HW112728   5.125   7.900   0.503  0.5023 -0.3306  0.5803
  905SOL    HW212729   5.141   8.054   0.450  0.9845 -1.2172 -1.9307
  908SOL     OW12730   7.975   2.237   2.798  0.2241  0.7268 -0.1219
  908SOL    HW112731   7.918   2.228   2.716  0.3688  1.4214 -0.3005
  908SOL    HW212732   8.059   2.185   2.786 -0.0038  0.3759 -0.1931
  909SOL     OW12733   1.198   7.214   3.685  0.4423  0.3681  0.2639
  909SOL    HW112734   1.098   7.218   3.685  0.4801  1.5818  0.3859
  909SOL    HW212735   1.229   7.146   3.751 -0.2677  1.1406  1.4144
  910SOL     OW12736   2.813   6.937   0.733  0.4023  0.6607 -0.0175
  910SOL    HW112737   2.796   6.897   0.642  1.4432  0.1426  0.0061
  910SOL    HW212738   2.832   6.864   0.798  1.0514  1.1133  0.3054
  911SOL     OW12739   8.799   0.175   3.142 -0.3502  0.0035 -0.3704
  911SOL    HW112740   8.857   0.173   3.060  2.4838  0.4323  1.5354
  911SOL    HW212741   8.852   0.141   3.220 -2.1182  2.1005  1.8049
  912SOL     OW12742   9.161   8.551   0.447 -0.6128  0.0525 -0.2663
  912SOL    HW112743   9.125   8.642   0.467  0.7680  0.2835  1.2913
  912SOL    HW212744   9.155   8.494   0.529  0.6720 -0.5269 -0.5560
  914SOL     OW12745   5.255   0.231   1.306 -0.2305  0.0230 -0.1751
  914SOL    HW112746   5.167   0.264   1.270 -1.0534 -0.2428  1.5476
  914SOL    HW212747   5.288   0.156   1.249 -0.8338  0.5081 -1.1774
  915SOL     OW12748   8.596   9.151   1.387 -0.6892 -0.1070  0.0161
  915SOL    HW112749   8.597   9.240   1.342 -0.8970  0.4322  1.0630
  915SOL    HW212750   8.520   9.148   1.452 -0.0873 -0.6926  0.6935
  916SOL     OW12751   0.323   3.756   3.114 -0.2189 -0.2183  0.2924
  916SOL    HW112752   0.408   3.707   3.133  0.7160  2.2046  2.6366
  916SOL    HW212753   0.341   3.855   3.114 -2.6640  0.2601 -1.1385
  917SOL     OW12754   6.115   8.803   2.965 -0.4006  0.3676 -0.0794
  917SOL    HW112755   6.092   8.726   3.024 -3.4034  1.0819 -0.2237
  917SOL    HW212756   6.097   8.777   2.869  0.8567  0.4670 -0.3483
  918SOL     OW12757   1.018   7.720   0.665 -0.0470 -0.4316 -0.2917
  918SOL    HW112758   1.003   7.817   0.646 -0.6966 -0.5483 -0.3826
  918SOL    HW212759   1.083   7.682   0.599  1.3692  0.2961  0.6668
  919SOL     OW12760   3.696   1.326   0.515  0.1601 -0.7139  0.2556
  919SOL    HW112761   3.609   1.280   0.531 -0.1272 -0.9424 -1.8707
  919SOL    HW212762   3.713   1.392   0.588 -3.0116  1.1813 -0.6514
  920SOL     OW12763   9.512   5.801   3.220 -0.5328 -0.0958  0.3936
  920SOL    HW112764   9.569   5.760   3.149 -0.3274 -0.2408  0.6393
  920SOL    HW212765   9.563   5.873   3.267 -1.0825  0.8350 -0.4101
  921SOL     OW12766   4.650   3.020   3.280  0.3122  0.4730  0.0055
  921SOL    HW112767   4.568   3.044   3.227  0.1075 -1.1900 -0.4658
  921SOL    HW212768   4.721   2.987   3.218  0.2242 -1.0823  0.7099
  922SOL     OW12769   1.022   1.953   1.659 -0.6873  0.2676  0.2001
  922SOL    HW112770   0.981   1.902   1.583 -0.8525  0.7451 -0.0385
  922SOL    HW212771   0.974   2.040   1.669 -0.7770  0.1272  0.9682
  923SOL     OW12772   2.917   1.053   1.395 -0.0860 -0.3009  0.7548
  923SOL    HW112773   2.859   1.080   1.319 -0.8623 -1.7359  0.8335
  923SOL    HW212774   2.938   0.955   1.389  0.8325 -0.1743  1.7179
  924SOL     OW12775   6.361   8.589   3.180 -0.0602 -0.0457 -0.0296
  924SOL    HW112776   6.312   8.641   3.110 -0.0904  0.1823  0.1585
  924SOL    HW212777   6.354   8.491   3.161  1.0939  0.0662 -1.1240
  925SOL     OW12778   8.189   9.051   3.209  0.4735 -0.1487  0.5930
  925SOL    HW112779   8.154   8.974   3.156 -1.3904  1.2553 -0.2859
  925SOL    HW212780   8.112   9.106   3.242  1.7138  0.4783  2.5259
  926SOL     OW12781   0.993   2.590   1.140  0.2992 -0.5709 -0.2182
  926SOL    HW112782   0.996   2.687   1.114 -0.9940 -0.3451  0.4457
  926SOL    HW212783   1.031   2.579   1.231 -0.4180 -0.5541  0.0835
  927SOL     OW12784   4.174   9.664   3.034 -0.4939 -0.0746  0.0750
  927SOL    HW112785   4.137   9.573   3.020  0.4353 -0.2768 -1.0852
  927SOL    HW212786   4.115   9.731   2.989 -0.2849 -0.2548 -0.4691
  929SOL     OW12787   6.059   8.540   3.056 -1.1851 -0.0029 -0.2761
  929SOL    HW112788   6.086   8.462   3.113 -1.3658 -0.7498 -1.2164
  929SOL    HW212789   5.967   8.570   3.081 -1.5281 -0.7555 -0.6306
  930SOL     OW12790   4.984   3.804   1.022 -0.2757  0.6972 -0.2115
  930SOL    HW112791   4.951   3.736   0.957  1.1635  1.4854 -1.8398
  930SOL    HW212792   4.920   3.881   1.026 -0.8523  0.2051  0.0482
  931SOL     OW12793   2.328   8.675   0.178  0.3838 -0.4508  0.2563
  931SOL    HW112794   2.281   8.587   0.182  0.8302 -0.8453 -2.1059
  931SOL    HW212795   2.276   8.744   0.228  0.6927 -2.3323  3.2472
  932SOL     OW12796   1.729   2.915   2.363 -0.2844 -0.5618 -0.0159
  932SOL    HW112797   1.630   2.914   2.378 -0.4571 -0.6762 -1.0775
  932SOL    HW212798   1.767   2.826   2.389 -0.4965 -0.5795  0.2305
  933SOL     OW12799   0.876   2.359   2.245  0.2801 -0.0300  0.5978
  933SOL    HW112800   0.930   2.317   2.318 -0.0715  0.5588  1.2006
  933SOL    HW212801   0.802   2.414   2.285  0.4214  0.7480 -0.1851
  934SOL     OW12802   0.214   7.882   0.032  0.0418 -0.2745  0.0646
  934SOL    HW112803   0.208   7.843   0.124  2.9419  1.6388  1.1337
  934SOL    HW212804   0.168   7.971   0.030 -0.5986 -0.6151 -0.5182
  935SOL     OW12805   8.371   9.303   2.448 -0.1013 -0.8526  0.2131
  935SOL    HW112806   8.297   9.253   2.495  1.2088 -4.3127 -1.2697
  935SOL    HW212807   8.354   9.304   2.350  1.4673 -1.0747 -0.0770
  936SOL     OW12808   2.990   6.287   2.800  0.3377  0.3142  0.2392
  936SOL    HW112809   2.898   6.276   2.761  0.8166 -0.2999 -0.7212
  936SOL    HW212810   2.983   6.285   2.900 -0.2877 -3.3004  0.1681
  937SOL     OW12811   9.267   2.850   0.934  0.2312  0.0307  0.2510
  937SOL    HW112812   9.357   2.849   0.977  0.6630  1.1690 -0.6028
  937SOL    HW212813   9.272   2.899   0.847 -1.4577  1.1027  0.7188
  938SOL     OW12814   2.630   6.172   0.103  0.0354  0.6923 -0.1249
  938SOL    HW112815   2.562   6.245   0.109 -2.0075 -1.2100  0.4698
  938SOL    HW212816   2.720   6.209   0.125 -1.2753  2.6038  2.3033
  939SOL     OW12817   9.546   7.209   0.038 -0.0671  0.4352  0.2601
  939SOL    HW112818   9.635   7.169   0.058  0.2005  0.8334 -0.1405
  939SOL    HW212819   9.556   7.306   0.016 -0.8900  1.1393  2.7875
  940SOL     OW12820   9.599   2.912   3.215  0.1919  0.4812  0.0302
  940SOL    HW112821   9.505   2.900   3.181  0.2834  0.1501 -0.1074
  940SOL    HW212822   9.596   2.949   3.308 -0.0928 -0.3782  0.3650
  941SOL     OW12823   9.309   3.086   1.835 -0.2561 -0.5292 -0.8850
  941SOL    HW112824   9.374   3.097   1.910 -0.7178 -1.7224 -0.2933
  941SOL    HW212825   9.354   3.038   1.759  0.2728  0.8698 -1.4583
  942SOL     OW12826   3.381   7.197   1.963 -0.6240 -0.4953  0.1197
  942SOL    HW112827   3.286   7.224   1.947 -0.4635  0.4532  0.7095
  942SOL    HW212828   3.411   7.135   1.890 -1.1909  0.4481 -0.9258
  944SOL     OW12829   8.180   5.026   1.425 -0.5463  0.3772 -0.0038
  944SOL    HW112830   8.161   5.124   1.430  0.1772  0.4427  1.6240
  944SOL    HW212831   8.170   4.985   1.515  1.0455 -0.6820 -0.2796
  946SOL     OW12832   7.904   2.365   1.562 -0.5994 -1.1242 -0.0282
  946SOL    HW112833   7.884   2.271   1.532 -0.8817 -1.5491  1.4646
  946SOL    HW212834   7.957   2.363   1.646 -1.3425  0.0622  0.4825
  947SOL     OW12835   9.894   4.116   3.127 -1.0380 -0.0673  0.6293
  947SOL    HW112836   9.916   4.178   3.203 -0.4547 -0.3890  0.7191
  947SOL    HW212837   9.917   4.161   3.041 -2.0280  0.4387  0.6128
  948SOL     OW12838   1.639   7.423   2.825 -0.3302 -0.2234  0.6550
  948SOL    HW112839   1.547   7.389   2.842  0.6030 -2.7057  0.9730
  948SOL    HW212840   1.645   7.458   2.731 -0.8242 -2.8232 -0.3882
  949SOL     OW12841   3.498   8.115   1.597 -0.6421  0.1140 -0.1645
  949SOL    HW112842   3.556   8.187   1.635  1.0783 -1.0938 -0.4810
  949SOL    HW212843   3.461   8.145   1.509  1.1169  0.1114 -0.9174
  950SOL     OW12844   0.951   4.237   3.065  0.0692 -0.3022 -0.7463
  950SOL    HW112845   0.980   4.333   3.057 -1.6279  0.3223  0.2894
  950SOL    HW212846   1.011   4.180   3.009  0.8129  1.4170 -1.7751
  952SOL     OW12847   1.672   9.959   2.850 -0.2388  0.2485  0.3057
  952SOL    HW112848   1.613  10.039   2.842 -1.6849 -0.5370  2.7672
  952SOL    HW212849   1.641   9.902   2.926  0.9804 -2.4743 -1.1806
  953SOL     OW12850   8.827   5.450   2.564 -0.4330 -0.5308 -0.1187
  953SOL    HW112851   8.818   5.385   2.489  0.7540  0.7723 -1.4360
  953SOL    HW212852   8.742   5.453   2.617 -0.5420 -3.0155 -0.1133
  954SOL     OW12853   7.830   4.808   0.824  0.2636 -0.2675  0.4492
  954SOL    HW112854   7.861   4.839   0.914 -0.2166  0.0248  0.5134
  954SOL    HW212855   7.910   4.785   0.768  0.7284  2.2562 -0.0165
  955SOL     OW12856   1.464   3.045   3.431  0.5823  0.4120 -0.4930
  955SOL    HW112857   1.544   3.067   3.374  1.4710 -1.9688 -0.2567
  955SOL    HW212858   1.488   3.056   3.527  0.1627  1.1072 -0.4694
  956SOL     OW12859   3.005   0.601   1.775 -0.3076 -0.1249  0.2089
  956SOL    HW112860   2.943   0.679   1.774  0.8098  0.7724 -1.4144
  956SOL    HW212861   3.027   0.574   1.681  1.6107 -0.5286  0.7362
  957SOL     OW12862   1.358   6.048   1.723  0.4503  0.0308 -0.4811
  957SOL    HW112863   1.352   6.104   1.805 -0.8698 -1.2548  0.3061
  957SOL    HW212864   1.454   6.025   1.705  0.6776 -0.2624  1.0903
  958SOL     OW12865   3.113   9.900   1.073  0.3069 -0.1243  0.1972
  958SOL    HW112866   3.036   9.848   1.036  0.6322 -0.8466  0.5334
  958SOL    HW212867   3.139   9.971   1.007 -0.0820 -0.4392 -0.3019
  959SOL     OW12868   1.570   7.907   0.812  0.4480 -0.0735 -0.2153
  959SOL    HW112869   1.517   7.854   0.878  2.0367 -0.9716  0.3662
  959SOL    HW212870   1.634   7.846   0.764 -0.0951  0.7200 -1.9775
  960SOL     OW12871   7.026   9.547   0.527  0.1791  0.1846 -0.3172
  960SOL    HW112872   7.049   9.490   0.449 -1.3850  1.0872 -1.4475
  960SOL    HW212873   7.078   9.632   0.522  1.1997 -0.3763  0.4438
  961SOL     OW12874   2.808   8.949   1.664 -0.4031 -0.3355 -0.3729
  961SOL    HW112875   2.785   8.976   1.570 -1.6799  0.4919  0.1759
  961SOL    HW212876   2.746   8.877   1.694 -0.4797 -0.0738  0.0999
  962SOL     OW12877   8.256   4.633   0.591 -0.2004  0.6052  0.4156
  962SOL    HW112878   8.309   4.572   0.649 -0.8413 -0.4308 -0.0904
  962SOL    HW212879   8.274   4.613   0.495 -2.0541 -0.2336  0.2374
  963SOL     OW12880   0.335   1.525   0.454 -0.2552 -0.3282  0.0006
  963SOL    HW112881   0.358   1.505   0.358 -2.6185  1.4976 -1.0152
  963SOL    HW212882   0.270   1.457   0.488 -0.9625  0.1435 -0.3774
  964SOL     OW12883   9.611   6.569   0.884 -0.7279  0.0789 -0.2200
  964SOL    HW112884   9.652   6.479   0.873 -1.0044 -0.1437  0.5490
  964SOL    HW212885   9.684   6.638   0.891 -0.4731 -0.2914  0.9529
  965SOL     OW12886   0.369   0.547   0.698 -0.1560 -0.3625  0.2633
  965SOL    HW112887   0.296   0.527   0.763 -1.1413 -0.1501 -0.7664
  965SOL    HW212888   0.377   0.646   0.686  0.2306 -0.3881  0.2798
  966SOL     OW12889   9.489   6.703   1.107  0.3605  0.2505  0.3606
  966SOL    HW112890   9.492   6.687   1.008  0.3523 -1.5644  0.6422
  966SOL    HW212891   9.395   6.699   1.139  0.3853  0.6324  0.4855
  967SOL     OW12892   0.840   0.612   3.335  0.2458  0.6222 -0.1199
  967SOL    HW112893   0.746   0.595   3.363  0.5084 -0.5067  0.1017
  967SOL    HW212894   0.893   0.648   3.412  0.8682 -2.0963  0.7815
  968SOL     OW12895   8.601   4.827   1.060  0.1236  0.2186 -0.0641
  968SOL    HW112896   8.572   4.736   1.031 -0.1430 -0.4276  2.1154
  968SOL    HW212897   8.567   4.896   0.995  0.4072 -1.2321 -1.7740
  970SOL     OW12898   6.958   0.139   1.256 -0.7627  0.1479  0.0468
  970SOL    HW112899   6.971   0.046   1.221 -0.4413  0.2148 -0.0085
  970SOL    HW212900   7.047   0.182   1.271 -0.8911  0.1249  0.9311
  971SOL     OW12901   5.114   5.255   1.190 -0.1209 -0.7239 -0.0219
  971SOL    HW112902   5.017   5.232   1.197 -0.4204  0.2621 -0.7916
  971SOL    HW212903   5.165   5.174   1.162 -0.5984 -1.4711  1.2321
  972SOL     OW12904   9.020   4.361   1.420 -0.1944 -0.4019  0.4554
  972SOL    HW112905   8.975   4.287   1.470  0.2647 -1.0620 -0.0847
  972SOL    HW212906   8.977   4.448   1.441 -1.7635 -1.0330 -0.1052
  974SOL     OW12907   9.596   2.707   1.035  0.2830  0.2741  0.2868
  974SOL    HW112908   9.521   2.649   1.066  0.2204  0.2764  0.1412
  974SOL    HW212909   9.566   2.803   1.037  0.1075  0.2327 -0.2656
  975SOL     OW12910   4.737   8.190   0.765  0.1257  0.1669  0.8722
  975SOL    HW112911   4.672   8.150   0.700 -3.6564  2.7835  2.8732
  975SOL    HW212912   4.817   8.225   0.715 -1.6918  0.1887 -2.1162
  976SOL     OW12913   0.048   6.774   2.131 -0.3054  0.1040  0.5242
  976SOL    HW112914  -0.025   6.829   2.090  0.4150  0.3699 -0.4143
  976SOL    HW212915   0.051   6.791   2.229 -0.3657  1.4158  0.3012
  977SOL     OW12916   3.280   8.712   3.696 -0.4212 -0.3943  0.0578
  977SOL    HW112917   3.237   8.796   3.662  0.5430  0.5211  1.0363
  977SOL    HW212918   3.374   8.707   3.662 -0.5205 -1.1714 -0.1187
  979SOL     OW12919   7.562   6.464   3.130  0.7729 -0.3881  0.5737
  979SOL    HW112920   7.564   6.553   3.086  0.3268 -0.0596  1.2241
  979SOL    HW212921   7.655   6.438   3.157  0.8295  0.1157  0.8698
  980SOL     OW12922   2.852   4.839   0.451 -0.6829 -0.3878  0.2160
  980SOL    HW112923   2.763   4.816   0.410 -1.9445  0.7468  2.2071
  980SOL    HW212924   2.846   4.929   0.494  0.7633 -1.2475  2.3050
  981SOL     OW12925   3.233   0.450   0.867  0.1031  0.2801  0.7258
  981SOL    HW112926   3.204   0.521   0.803  2.1228  1.2913  0.9176
  981SOL    HW212927   3.165   0.441   0.940 -0.6528  1.3234  0.1634
  982SOL     OW12928   8.625   1.777   2.385  0.3820 -0.0736  0.2463
  982SOL    HW112929   8.570   1.723   2.449  1.3220 -0.9745  0.3118
  982SOL    HW212930   8.602   1.751   2.291 -0.2577  0.5117  0.2359
  983SOL     OW12931   1.954   7.690   3.739 -0.4192 -0.3891  0.2850
  983SOL    HW112932   1.987   7.624   3.807  1.7673  0.3505 -0.0305
  983SOL    HW212933   1.911   7.640   3.663 -0.9650 -1.3246  1.1978
  984SOL     OW12934   9.080   5.926   2.769  0.1071  0.5945 -0.5157
  984SOL    HW112935   9.039   5.861   2.833  0.0481  0.0612 -1.0868
  984SOL    HW212936   9.112   5.877   2.688  2.6688  0.8730  0.2747
  985SOL     OW12937   6.030   7.629   2.239 -0.8114  0.4107 -0.6921
  985SOL    HW112938   6.088   7.562   2.285 -0.2085  0.6965 -1.0339
  985SOL    HW212939   5.941   7.588   2.221 -1.4861  0.6764  1.8102
  987SOL     OW12940   8.545   4.809   3.710  0.1429 -0.1398  0.5098
  987SOL    HW112941   8.559   4.710   3.720  0.9295 -0.2875 -1.8847
  987SOL    HW212942   8.454   4.826   3.672  0.5820 -0.0120 -0.4828
  989SOL     OW12943   1.967   5.025   2.078 -0.0417  0.1331 -0.1664
  989SOL    HW112944   2.035   4.959   2.046  0.8995  1.0927 -0.1938
  989SOL    HW212945   1.953   5.013   2.177 -1.6235 -1.6457 -0.5759
  990SOL     OW12946   8.157   7.428   2.115  0.4035 -0.2073  0.1978
  990SOL    HW112947   8.062   7.415   2.087  0.3964 -1.1425  0.6331
  990SOL    HW212948   8.182   7.525   2.106 -0.3815 -0.0726 -0.5596
  991SOL     OW12949   2.619   5.344   2.221  0.2884  0.1606  0.2041
  991SOL    HW112950   2.699   5.400   2.198 -0.5021  1.9700  1.7535
  991SOL    HW212951   2.560   5.394   2.284 -0.9561 -2.0479  0.8481
  992SOL     OW12952   2.781   2.535   0.269 -0.4844  0.7785 -0.4331
  992SOL    HW112953   2.769   2.620   0.320  0.1135  0.2409  0.6110
  992SOL    HW212954   2.864   2.541   0.214  0.3408  0.3397  0.7405
  995SOL     OW12955   1.966   9.304   1.987  0.7702 -0.3589 -0.2425
  995SOL    HW112956   1.903   9.319   1.911  0.5389  0.6970  0.1545
  995SOL    HW212957   1.914   9.299   2.072  1.3634  2.7098  0.3677
  996SOL     OW12958   4.153   3.857   1.724 -0.2686 -0.3735  0.7073
  996SOL    HW112959   4.107   3.897   1.644  1.0376  2.8467  1.4831
  996SOL    HW212960   4.241   3.819   1.696 -1.0110 -1.7156  0.1591
  997SOL     OW12961   2.719   7.471   3.093  0.5486  0.0660  0.0657
  997SOL    HW112962   2.643   7.475   3.028 -1.0526 -1.7334  1.7806
  997SOL    HW212963   2.785   7.402   3.063  0.3433 -0.0187 -0.1964
  998SOL     OW12964   3.332   9.381   1.533  0.1845  0.2955  0.1094
  998SOL    HW112965   3.273   9.458   1.507  1.3970  1.8299  1.8465
  998SOL    HW212966   3.307   9.301   1.478 -2.0514  1.5127 -0.7159
  999SOL     OW12967   3.169   2.822   2.546 -0.2192 -0.7734 -0.5713
  999SOL    HW112968   3.083   2.771   2.552  0.9075 -2.7670 -0.8029
  999SOL    HW212969   3.228   2.780   2.477  0.5363  1.2185 -1.1656
 1000SOL     OW12970   0.890   4.826   2.700  0.4468  0.0845  0.1540
 1000SOL    HW112971   0.875   4.729   2.715  1.3516 -0.2000 -0.7005
 1000SOL    HW212972   0.977   4.840   2.652 -0.3234  1.2088 -0.9710
 1001SOL     OW12973   0.976   1.931   0.997 -0.6597 -0.3040  0.1151
 1001SOL    HW112974   0.955   2.000   0.927 -0.4461 -1.5892 -1.2429
 1001SOL    HW212975   1.019   1.976   1.076 -0.3291  1.0890 -0.8386
 1002SOL     OW12976   5.482   9.800   3.541  0.9241 -0.2358  0.1543
 1002SOL    HW112977   5.517   9.726   3.598  0.5051 -0.6259 -0.0939
 1002SOL    HW212978   5.498   9.887   3.587 -0.7749 -0.6402  1.5949
 1003SOL     OW12979   9.531   2.668   2.265  0.1846  0.4212  0.1938
 1003SOL    HW112980   9.630   2.664   2.257  0.1224  0.5155 -0.6663
 1003SOL    HW212981   9.491   2.578   2.249  0.2075  0.1251  1.7408
 1005SOL     OW12982   1.905   5.692   0.495 -0.5086  0.2125 -0.1381
 1005SOL    HW112983   1.974   5.620   0.507 -0.9006 -0.1370  0.0123
 1005SOL    HW212984   1.822   5.652   0.456 -1.1902  0.3508  1.1647
 1008SOL     OW12985   5.953   8.139   2.923 -0.1592 -0.0863  0.0553
 1008SOL    HW112986   5.956   8.085   2.839  1.3723 -0.4185  0.3190
 1008SOL    HW212987   5.928   8.233   2.901 -1.7683 -0.6362 -0.5309
 1009SOL     OW12988   5.216   7.210   2.172 -0.6606 -0.1970 -0.1264
 1009SOL    HW112989   5.119   7.191   2.154 -0.7611 -1.0669  1.2783
 1009SOL    HW212990   5.267   7.208   2.086 -1.8705  0.1628 -0.8628
 1011SOL     OW12991   4.903   1.184   2.131  0.0858 -0.1199  0.1929
 1011SOL    HW112992   5.000   1.177   2.105  0.1417 -1.2687  0.6771
 1011SOL    HW212993   4.896   1.233   2.218  0.2619 -0.4572  0.3941
 1012SOL     OW12994   6.900   8.619   2.857  0.5531 -0.3354 -0.3296
 1012SOL    HW112995   6.983   8.675   2.854 -1.2792  2.6662  2.3260
 1012SOL    HW212996   6.905   8.556   2.934  0.5357 -0.4571 -0.4269
 1013SOL     OW12997   8.135   8.159   0.997 -0.3197 -0.4300  0.8689
 1013SOL    HW112998   8.195   8.226   0.954 -1.9173  0.1890 -0.4401
 1013SOL    HW212999   8.094   8.100   0.927 -2.5698  0.2745  1.5333
 1015SOL     OW13000   0.281   0.287   1.766 -0.0411 -0.0416 -0.0507
 1015SOL    HW113001   0.368   0.337   1.776 -0.0775  0.2276 -1.0208
 1015SOL    HW213002   0.206   0.346   1.797 -0.0895  0.5488 -1.2440
 1016SOL     OW13003   0.379   9.774   1.862  0.5628 -0.0424 -0.0053
 1016SOL    HW113004   0.286   9.738   1.856  0.0986  1.0251  0.6797
 1016SOL    HW213005   0.413   9.760   1.955  0.2624  1.5549  0.3512
 1017SOL     OW13006   1.280   6.283   2.319 -0.2822 -0.0832  0.2124
 1017SOL    HW113007   1.252   6.232   2.238  0.8122 -0.1232 -0.1533
 1017SOL    HW213008   1.209   6.349   2.343 -1.5546 -1.5338  0.4949
 1018SOL     OW13009   0.026   1.639   1.346 -0.0357 -0.1161  0.3969
 1018SOL    HW113010   0.015   1.565   1.412  0.5353 -0.7922 -0.2678
 1018SOL    HW213011   0.118   1.677   1.353 -0.0185 -0.1025  0.0675
 1019SOL     OW13012   4.393   2.108   2.476  1.0720  0.3772  0.0981
 1019SOL    HW113013   4.488   2.078   2.485  0.5306 -0.9582  1.5390
 1019SOL    HW213014   4.377   2.186   2.537  1.5480  1.3941 -1.0510
 1020SOL     OW13015   8.924   4.296   3.453 -0.2989  0.3090 -0.4425
 1020SOL    HW113016   8.953   4.281   3.547 -0.5024  1.6722 -0.1500
 1020SOL    HW213017   8.990   4.357   3.408 -0.9695  0.8264 -0.7358
 1021SOL     OW13018   7.467   9.372   2.158 -0.3409 -0.3073  0.1734
 1021SOL    HW113019   7.408   9.452   2.164 -0.2008 -0.1916 -0.0340
 1021SOL    HW213020   7.561   9.400   2.140  0.5016 -0.2119  4.2646
 1024SOL     OW13021   4.477   7.076   3.750  0.1997  0.6403 -0.1183
 1024SOL    HW113022   4.552   7.057   3.686 -0.7664 -0.0077 -1.0570
 1024SOL    HW213023   4.424   6.993   3.765 -1.2842  1.4873 -0.6729
 1025SOL     OW13024   3.342   0.012   0.648 -0.8035  0.0185 -0.3150
 1025SOL    HW113025   3.438   0.034   0.666 -0.7506 -0.2802 -0.2370
 1025SOL    HW213026   3.303   0.082   0.588 -0.9436  0.9592  0.8411
 1026SOL     OW13027   7.953   7.414   2.694 -0.1604  0.4859 -0.7412
 1026SOL    HW113028   7.929   7.396   2.789  0.5921 -0.3274 -0.7008
 1026SOL    HW213029   7.920   7.340   2.636 -1.4932  1.4693 -1.2560
 1027SOL     OW13030   4.303   0.934   3.194 -0.3556  0.0785  0.3668
 1027SOL    HW113031   4.345   1.013   3.150  1.9662 -0.7980  0.9531
 1027SOL    HW213032   4.314   0.853   3.136 -0.3259 -0.3759  0.9999
 1028SOL     OW13033   0.551   5.163   0.878  0.1894 -0.4092 -0.4321
 1028SOL    HW113034   0.631   5.207   0.837  1.1397 -1.2407  0.5199
 1028SOL    HW213035   0.568   5.066   0.890 -0.8350 -0.5290  0.1100
 1030SOL     OW13036   9.945   3.159   2.604  0.4081 -0.0155  0.2498
 1030SOL    HW113037   9.924   3.248   2.644 -0.1895 -0.0378 -0.0063
 1030SOL    HW213038   9.943   3.166   2.504 -1.6588 -0.7655  0.2121
 1031SOL     OW13039   4.510   0.908   1.579 -0.0506 -0.0381  0.6346
 1031SOL    HW113040   4.584   0.863   1.628  3.0207  3.1944 -0.7788
 1031SOL    HW213041   4.473   0.846   1.510 -0.3586 -2.5212  2.9438
 1032SOL     OW13042   9.686   6.206   0.324  0.9555 -0.2177  0.1941
 1032SOL    HW113043   9.642   6.238   0.408 -0.9576 -2.0624 -0.0746
 1032SOL    HW213044   9.785   6.206   0.337  0.8415  2.2931  1.4330
 1033SOL     OW13045   3.764   1.832   1.554  0.1926 -0.5822 -0.1209
 1033SOL    HW113046   3.851   1.830   1.604  0.1350  1.0184  0.0693
 1033SOL    HW213047   3.748   1.924   1.519 -2.4370 -0.3280  1.6426
 1034SOL     OW13048   3.616   0.895   0.346  0.3196  0.3042 -0.3802
 1034SOL    HW113049   3.615   0.957   0.268  1.0366  1.4022  0.4682
 1034SOL    HW213050   3.567   0.937   0.423  0.0756 -0.5330 -0.0731
 1035SOL     OW13051   4.795   4.507   1.949  0.1481  0.1851  0.2259
 1035SOL    HW113052   4.811   4.604   1.928  0.5723 -0.2860 -1.7135
 1035SOL    HW213053   4.802   4.453   1.865 -0.0814 -1.5414  1.2941
 1036SOL     OW13054   8.349   7.900   0.622  0.2304  0.4192 -0.5904
 1036SOL    HW113055   8.259   7.870   0.588 -1.2497  0.0560  3.3201
 1036SOL    HW213056   8.352   7.999   0.625  0.1372  0.4407 -1.2194
 1037SOL     OW13057   4.283   6.795   2.275 -0.2913  0.9270 -0.3655
 1037SOL    HW113058   4.324   6.748   2.354  1.3920  3.3201  0.2564
 1037SOL    HW213059   4.202   6.745   2.245 -0.2136 -0.7570  2.0562
 1038SOL     OW13060   7.677   6.051   3.157  0.7430  0.6768  0.0561
 1038SOL    HW113061   7.640   6.093   3.074  1.0913  0.7849 -0.0424
 1038SOL    HW213062   7.773   6.075   3.167  1.0490 -0.3823 -0.1968
 1039SOL     OW13063   9.182   8.672   0.907  0.5237  0.1197 -0.2399
 1039SOL    HW113064   9.181   8.768   0.935  1.2573 -0.2594  1.1237
 1039SOL    HW213065   9.187   8.614   0.988  0.6257 -1.0564 -1.0814
 1040SOL     OW13066   3.774   4.681   1.272  0.5613 -0.0127 -0.5447
 1040SOL    HW113067   3.786   4.741   1.351 -0.7099 -0.4168 -0.0245
 1040SOL    HW213068   3.785   4.733   1.188  3.5902  0.1028 -0.1352
 1041SOL     OW13069   2.051   3.147   1.516 -0.1594 -0.3407 -0.2443
 1041SOL    HW113070   2.034   3.169   1.420 -2.0210  1.9939  0.5869
 1041SOL    HW213071   1.978   3.088   1.550  0.1614 -0.6418 -0.0710
 1043SOL     OW13072   7.379   0.294   0.455  0.3253  0.1789 -0.3537
 1043SOL    HW113073   7.422   0.319   0.542 -1.1736 -0.8344  0.6917
 1043SOL    HW213074   7.424   0.345   0.381  2.9815 -0.4557  0.7404
 1044SOL     OW13075   2.189   3.482   1.965  0.2064 -0.0378  0.0660
 1044SOL    HW113076   2.219   3.527   1.881  2.9726  0.7861  1.4256
 1044SOL    HW213077   2.091   3.464   1.961 -0.0262  1.6607 -2.5592
 1045SOL     OW13078   9.814   1.480   2.472 -0.3711 -0.0481 -0.0075
 1045SOL    HW113079   9.804   1.512   2.566  1.5079 -1.5211  0.7213
 1045SOL    HW213080   9.734   1.426   2.447 -2.2253  2.7398 -0.2705
 1047SOL     OW13081   6.442   9.221   2.137 -0.4860  0.2638  0.2217
 1047SOL    HW113082   6.451   9.123   2.120 -0.8624  0.5742 -1.8414
 1047SOL    HW213083   6.360   9.238   2.192 -0.1197 -0.6122  1.0542
 1049SOL     OW13084   2.179   0.865   1.017 -0.5409 -0.3194 -0.0850
 1049SOL    HW113085   2.103   0.906   1.066  0.1848 -0.4091  1.1349
 1049SOL    HW213086   2.264   0.881   1.068  0.1652 -0.7746 -1.0979
 1050SOL     OW13087   3.128   8.393   0.622 -0.3668  0.3355  0.0258
 1050SOL    HW113088   3.137   8.317   0.558 -0.5478 -0.8652  1.3977
 1050SOL    HW213089   3.153   8.362   0.714  0.0695  2.0773  0.5065
 1051SOL     OW13090   8.156   1.455   2.353 -0.2432 -0.0275 -0.0550
 1051SOL    HW113091   8.222   1.510   2.302 -0.5385  0.0021 -0.4061
 1051SOL    HW213092   8.107   1.395   2.290 -2.3162  1.7108 -0.1623
 1053SOL     OW13093   7.518   6.928   2.743  0.1839 -0.2260 -0.2205
 1053SOL    HW113094   7.571   6.875   2.677  0.7824 -0.7305  0.6590
 1053SOL    HW213095   7.421   6.905   2.735  0.3914 -1.1317 -0.1427
 1054SOL     OW13096   1.091   7.213   1.510  0.0342  0.1269 -0.3168
 1054SOL    HW113097   1.068   7.164   1.425  0.5180  1.7496 -1.4148
 1054SOL    HW213098   1.036   7.177   1.585 -0.2087 -1.5293 -1.2573
 1056SOL     OW13099   0.135   4.477   2.365 -0.2668  0.1078 -0.3948
 1056SOL    HW113100   0.049   4.527   2.368  0.3423  1.1512  0.0054
 1056SOL    HW213101   0.199   4.518   2.430  0.5796 -0.5689 -0.7958
 1057SOL     OW13102   3.574   8.957   2.621  0.8919 -0.3031  0.3226
 1057SOL    HW113103   3.519   8.881   2.653  0.3507  0.2505  0.7112
 1057SOL    HW213104   3.638   8.985   2.693  1.3274 -0.6144  0.0571
 1059SOL     OW13105   8.749   7.952   1.565 -0.0679 -0.7577 -0.0309
 1059SOL    HW113106   8.798   7.911   1.641  0.0235 -2.0729 -0.7848
 1059SOL    HW213107   8.778   7.909   1.479  1.6740  2.4206 -1.0884
 1060SOL     OW13108   8.447   6.785   0.721  0.3718 -0.0135 -0.3490
 1060SOL    HW113109   8.422   6.690   0.739 -1.0515  0.4061 -0.1052
 1060SOL    HW213110   8.457   6.798   0.622 -1.0205 -0.0320 -0.5050
 1061SOL     OW13111   2.928   1.355   3.325  0.2522  0.3450 -0.4628
 1061SOL    HW113112   2.896   1.285   3.261  2.0149  0.3863 -1.4201
 1061SOL    HW213113   2.962   1.434   3.274  2.0857  0.2007  0.4879
 1062SOL     OW13114   3.672   1.300   0.926  0.5883 -0.1782 -0.1438
 1062SOL    HW113115   3.696   1.243   0.847 -1.4570 -1.7889  0.3410
 1062SOL    HW213116   3.573   1.311   0.930  0.8041  1.4667  1.1427
 1063SOL     OW13117   0.797   8.094   0.826 -0.4341  0.5962 -0.2877
 1063SOL    HW113118   0.839   8.022   0.772 -0.0235  1.0372 -0.5671
 1063SOL    HW213119   0.698   8.083   0.827 -0.5719  1.4821 -2.4305
 1064SOL     OW13120   5.864   8.109   3.705 -0.5569 -0.0907 -0.3268
 1064SOL    HW113121   5.838   8.199   3.670  0.7246  0.2510 -0.4065
 1064SOL    HW213122   5.784   8.065   3.746 -0.6494  2.0982  1.9169
 1065SOL     OW13123   9.031   7.433   2.122  0.3276  0.2846 -0.3283
 1065SOL    HW113124   9.044   7.348   2.172  0.8891  0.4021 -0.2728
 1065SOL    HW213125   8.961   7.420   2.051  0.2330 -0.1476 -0.1570
 1066SOL     OW13126   1.627   6.387   0.996  0.1048  0.0237  0.0632
 1066SOL    HW113127   1.657   6.356   0.906 -1.2148  0.1157 -0.4130
 1066SOL    HW213128   1.664   6.325   1.066  1.3723  0.1227 -0.5021
 1067SOL     OW13129   9.936   2.729   1.981  0.2681 -0.1731 -0.2143
 1067SOL    HW113130   9.934   2.825   1.952  0.8455  0.0211  0.3745
 1067SOL    HW213131  10.027   2.707   2.017 -0.3846 -0.4222  1.3575
 1068SOL     OW13132   3.750   4.516   0.911 -0.2968  0.1826  0.3932
 1068SOL    HW113133   3.758   4.545   0.816  0.3185  2.5320  1.1330
 1068SOL    HW213134   3.654   4.524   0.940 -0.4388 -0.2875  0.0608
 1070SOL     OW13135   1.635   5.257   1.097 -0.4417  0.2858  0.7363
 1070SOL    HW113136   1.576   5.299   1.027  0.4485  0.5430  0.1373
 1070SOL    HW213137   1.674   5.329   1.155 -0.6896  0.1130  1.1232
 1071SOL     OW13138   1.355   8.395   1.555 -0.1914  0.0069 -0.8491
 1071SOL    HW113139   1.326   8.316   1.501 -2.0512 -0.2435  0.4908
 1071SOL    HW213140   1.332   8.479   1.506 -0.5648 -0.2361 -1.0878
 1072SOL     OW13141   7.360   9.156   3.277 -0.1601  0.1495  0.0002
 1072SOL    HW113142   7.399   9.119   3.193  0.6990 -0.5247  0.6880
 1072SOL    HW213143   7.313   9.084   3.328 -0.3548  0.4686  0.2801
 1073SOL     OW13144   2.828   2.875   1.669 -0.3061  0.3278 -0.0585
 1073SOL    HW113145   2.869   2.829   1.748 -0.7775 -0.4156 -0.2462
 1073SOL    HW213146   2.891   2.947   1.636  1.1884 -1.2820 -0.8097
 1074SOL     OW13147   3.580   0.228   2.955 -0.4632  0.0823  0.1685
 1074SOL    HW113148   3.531   0.148   2.988 -0.2790  0.1513  0.6230
 1074SOL    HW213149   3.557   0.245   2.859 -1.0663 -0.0813  0.2823
 1075SOL     OW13150   4.876   6.907   3.162  0.4782 -0.3161  0.4347
 1075SOL    HW113151   4.966   6.918   3.119  1.4275  0.8148  2.5852
 1075SOL    HW213152   4.809   6.964   3.114  0.8698 -1.2652 -1.2699
 1077SOL     OW13153   7.739   4.074   0.149  0.7904  0.6069 -0.0993
 1077SOL    HW113154   7.693   4.150   0.102 -0.2329 -0.7276 -1.2992
 1077SOL    HW213155   7.803   4.031   0.085  2.3278  1.2609  0.9810
 1078SOL     OW13156   2.470   3.230   1.579  0.2867  0.0562 -0.2090
 1078SOL    HW113157   2.537   3.258   1.648  0.0613  1.7264 -0.6515
 1078SOL    HW213158   2.378   3.234   1.618  0.2371  0.1221 -0.3332
 1079SOL     OW13159   2.889   6.202   0.879  0.7231 -0.2075 -0.2009
 1079SOL    HW113160   2.852   6.148   0.955  1.0815 -1.0527 -0.6202
 1079SOL    HW213161   2.989   6.198   0.881  0.7113 -1.6422 -1.7122
 1080SOL     OW13162   4.065   2.483   1.431 -0.1252 -0.6401 -0.1343
 1080SOL    HW113163   4.140   2.424   1.463 -1.9442 -0.8116  4.0885
 1080SOL    HW213164   3.999   2.428   1.380  0.4404 -1.3357 -0.1232
 1081SOL     OW13165   1.331   9.385   2.877 -0.2646  0.2115  0.0008
 1081SOL    HW113166   1.285   9.456   2.823  1.4542  0.7890 -0.7491
 1081SOL    HW213167   1.423   9.416   2.901 -0.4114 -0.7261  1.8762
 1082SOL     OW13168   8.649   2.170   2.780 -0.7366 -0.0528  0.0651
 1082SOL    HW113169   8.620   2.129   2.693  0.0431 -0.1475 -0.1500
 1082SOL    HW213170   8.737   2.215   2.768 -0.9022  0.4334  0.6683
 1083SOL     OW13171   2.424   0.828   0.566  0.0432 -0.1250  0.1702
 1083SOL    HW113172   2.356   0.784   0.625  0.8134 -0.9603  0.4438
 1083SOL    HW213173   2.382   0.852   0.479 -0.1104 -2.3440 -0.3714
 1084SOL     OW13174   0.398   6.521   3.662 -0.4774 -0.0590 -0.4312
 1084SOL    HW113175   0.367   6.509   3.756 -0.5228 -0.0488 -0.4449
 1084SOL    HW213176   0.349   6.457   3.602  0.5245 -1.0255 -0.2492
 1087SOL     OW13177   3.832   3.846   1.882 -0.3594  0.1002  0.2518
 1087SOL    HW113178   3.896   3.909   1.838 -1.7108  0.2175 -1.6355
 1087SOL    HW213179   3.769   3.809   1.813 -2.4219  0.1159  2.0602
 1088SOL     OW13180   1.427   8.703   1.669  0.1812  0.3191 -0.0810
 1088SOL    HW113181   1.331   8.723   1.688  0.0819 -0.9102  0.7066
 1088SOL    HW213182   1.469   8.661   1.749  1.1303 -0.0122 -0.7512
 1089SOL     OW13183   0.281   1.713   1.389  0.5427 -0.6048  0.1107
 1089SOL    HW113184   0.332   1.659   1.323  1.8953  1.0851 -0.2575
 1089SOL    HW213185   0.295   1.676   1.481  0.7942 -1.3507 -0.2264
 1090SOL     OW13186   0.475   2.913   1.983  0.1828  0.3475  0.2548
 1090SOL    HW113187   0.417   2.977   1.934 -0.1049  0.7002  1.0384
 1090SOL    HW213188   0.448   2.911   2.080  0.4752 -0.6274  0.3230
 1091SOL     OW13189   3.836   0.724   0.986  0.4434 -0.0507 -0.6258
 1091SOL    HW113190   3.831   0.727   0.886 -0.3140  0.8549 -0.5713
 1091SOL    HW213191   3.876   0.809   1.020  1.6937 -0.7902 -0.2007
 1092SOL     OW13192   3.653   6.585   2.236  0.2318 -0.2773 -0.6159
 1092SOL    HW113193   3.722   6.515   2.218  1.1187  0.7316 -1.2289
 1092SOL    HW213194   3.671   6.665   2.179 -1.6291 -0.1000 -1.0028
 1093SOL     OW13195   3.286   6.671   0.998 -0.5642 -0.0984  0.2148
 1093SOL    HW113196   3.263   6.675   1.095 -0.2714  0.3071  0.2690
 1093SOL    HW213197   3.328   6.582   0.978  0.9017  0.4260  0.8114
 1094SOL     OW13198   7.826   9.887   1.935 -0.3697 -0.3399 -0.0739
 1094SOL    HW113199   7.805   9.897   2.032 -2.2158  1.4481 -0.6257
 1094SOL    HW213200   7.921   9.914   1.918  0.0393 -0.9034  1.2369
 1095SOL     OW13201   9.983   2.701   3.116 -0.4097  0.1446 -0.4922
 1095SOL    HW113202  10.037   2.620   3.138  1.6880  1.3202 -1.2228
 1095SOL    HW213203   9.933   2.731   3.198  0.7486 -0.4094  0.4266
 1096SOL     OW13204   2.588   1.514   3.101 -0.2416 -0.1302  0.4927
 1096SOL    HW113205   2.574   1.415   3.092  0.0826 -0.0028 -2.0527
 1096SOL    HW213206   2.519   1.553   3.162 -2.9834 -1.3450 -1.7029
 1097SOL     OW13207   1.201   3.273   0.038 -0.7154 -0.4300  0.1536
 1097SOL    HW113208   1.128   3.205   0.034 -1.8152  0.7809 -0.8834
 1097SOL    HW213209   1.194   3.323   0.124 -0.0563 -1.4415  0.8077
 1098SOL     OW13210   8.407   6.552   1.415  0.4607  0.0985  0.2102
 1098SOL    HW113211   8.391   6.494   1.495 -0.3055  0.0139 -0.0026
 1098SOL    HW213212   8.407   6.496   1.333 -0.2832  0.3921  0.0027
 1099SOL     OW13213   1.850   0.599   0.206 -0.1516 -0.5258  0.1343
 1099SOL    HW113214   1.785   0.669   0.178  1.4963  0.5898 -1.0361
 1099SOL    HW213215   1.815   0.508   0.183 -0.9465  0.1086 -1.1707
 1100SOL     OW13216   6.796   0.015   3.317  0.4732  0.2005 -0.1701
 1100SOL    HW113217   6.705   0.039   3.281  0.6493 -0.5220 -1.1316
 1100SOL    HW213218   6.786  -0.029   3.406 -0.0312  1.2812  0.3152
 1102SOL     OW13219   2.245   4.431   2.447  0.5397 -0.0770  0.4009
 1102SOL    HW113220   2.338   4.438   2.484  0.3544 -1.7584  1.2471
 1102SOL    HW213221   2.237   4.347   2.393 -0.3084  0.3838 -0.1999
 1103SOL     OW13222   7.793   0.774   2.391 -0.5450  0.1135 -0.4146
 1103SOL    HW113223   7.744   0.687   2.385 -1.0037  0.3503 -0.1173
 1103SOL    HW213224   7.734   0.848   2.359 -0.9897  0.6242  1.5071
 1104SOL     OW13225   4.705   0.628   2.093 -0.3382  0.1858  0.4725
 1104SOL    HW113226   4.619   0.678   2.081 -0.5171 -0.2488 -0.0643
 1104SOL    HW213227   4.693   0.557   2.163 -0.7154 -0.5618 -0.3470
 1105SOL     OW13228   1.254   4.012   0.028  0.3436 -0.6687 -0.1456
 1105SOL    HW113229   1.314   3.958  -0.031  1.0330 -1.5950  1.3668
 1105SOL    HW213230   1.168   4.030  -0.019  0.7773 -1.6173 -1.3232
 1106SOL     OW13231   2.686   9.852   0.711  0.2206 -0.4104  0.4039
 1106SOL    HW113232   2.717   9.890   0.624  1.6031  0.8475  1.4045
 1106SOL    HW213233   2.623   9.916   0.755  0.6850 -0.3358  0.9862
 1107SOL     OW13234   0.173   6.853   0.384  0.1644 -0.4538  0.4334
 1107SOL    HW113235   0.257   6.844   0.438  0.8133 -0.8397 -0.6227
 1107SOL    HW213236   0.169   6.944   0.343  1.8873 -1.6306 -2.4643
 1108SOL     OW13237   4.711   8.656   1.326  0.1027  0.1096  0.0098
 1108SOL    HW113238   4.783   8.588   1.340  0.3895  0.7174  1.5750
 1108SOL    HW213239   4.750   8.748   1.336 -1.0545  0.4276  1.7464
 1109SOL     OW13240   8.961   1.059   3.614 -0.0866  0.2278 -0.5809
 1109SOL    HW113241   8.929   1.080   3.522 -0.7755 -0.0565 -0.4083
 1109SOL    HW213242   9.056   1.030   3.610 -0.0069  0.5525 -1.1603
 1110SOL     OW13243   2.622   8.463   2.640 -0.5236 -0.4496  1.2214
 1110SOL    HW113244   2.615   8.561   2.626  0.4082 -0.5759 -0.1918
 1110SOL    HW213245   2.550   8.416   2.589 -0.2805 -0.5826  1.0023
 1111SOL     OW13246   1.749   4.169   2.391  0.2851 -0.4698  0.0498
 1111SOL    HW113247   1.716   4.145   2.482 -0.1028 -1.2575 -0.2987
 1111SOL    HW213248   1.770   4.267   2.388 -1.5694 -0.0607  0.3993
 1113SOL     OW13249   2.191   0.071   3.002  0.4891  0.2246  0.2069
 1113SOL    HW113250   2.154   0.095   3.092 -0.9386 -2.6733  0.4654
 1113SOL    HW213251   2.266   0.005   3.014 -0.5595 -1.1825 -0.7411
 1114SOL     OW13252   8.388   5.800   0.505  0.2868  0.1120 -0.1044
 1114SOL    HW113253   8.479   5.768   0.477  0.1903 -0.1851 -0.0744
 1114SOL    HW213254   8.319   5.765   0.442  0.4923  2.6992 -1.7951
 1115SOL     OW13255   9.189   3.966   3.503 -0.1054 -0.1437  0.0534
 1115SOL    HW113256   9.187   3.961   3.602  0.8834 -0.9452  0.0319
 1115SOL    HW213257   9.096   3.951   3.467 -0.6513  1.1413  0.8788
 1116SOL     OW13258   2.159   3.090   0.993 -0.1955  0.3194  0.2217
 1116SOL    HW113259   2.136   2.994   0.975  1.4018 -0.1169  0.3879
 1116SOL    HW213260   2.194   3.132   0.909 -0.1333  0.5365  0.3554
 1117SOL     OW13261   4.890   0.842   3.540  0.6562 -0.3337 -0.1460
 1117SOL    HW113262   4.896   0.743   3.529  1.6529 -0.3717  0.6571
 1117SOL    HW213263   4.980   0.882   3.522  0.5076  0.3192  0.5421
 1118SOL     OW13264   1.678   2.270   0.487 -0.3097 -0.2736  0.6309
 1118SOL    HW113265   1.607   2.237   0.550 -0.3188  1.4868  1.5887
 1118SOL    HW213266   1.667   2.368   0.473  0.6083 -0.3857 -0.9662
 1119SOL     OW13267   3.423   5.542   2.236 -0.2493 -0.5786 -0.1537
 1119SOL    HW113268   3.395   5.635   2.259  2.3842  0.2612 -0.1548
 1119SOL    HW213269   3.443   5.536   2.138 -0.7957 -1.2377 -0.2244
 1120SOL     OW13270   7.092   9.065   3.005  0.0391 -0.0584 -0.7041
 1120SOL    HW113271   7.108   9.015   3.090  1.1517  0.4958 -0.5737
 1120SOL    HW213272   7.161   9.038   2.937 -0.0744  0.4204 -1.0119
 1121SOL     OW13273   3.490   4.643   0.958 -0.4925 -0.4955 -0.5715
 1121SOL    HW113274   3.460   4.713   1.024 -1.0927 -0.5946 -0.7295
 1121SOL    HW213275   3.448   4.663   0.869  1.4574  0.4686 -1.3031
 1122SOL     OW13276   3.528   2.975   1.271  0.1823 -0.6245  0.1397
 1122SOL    HW113277   3.583   3.041   1.220 -1.2000 -0.2905 -0.9374
 1122SOL    HW213278   3.585   2.896   1.295  2.0032  1.2094  1.9621
 1123SOL     OW13279   7.786   0.102   2.999  0.7568  0.5510 -0.1730
 1123SOL    HW113280   7.746   0.020   3.040 -2.3304  1.6421 -0.8301
 1123SOL    HW213281   7.795   0.173   3.069  2.4356  0.0315  0.1630
 1125SOL     OW13282   8.456   1.574   2.495  0.1597  0.0610  0.2188
 1125SOL    HW113283   8.515   1.542   2.421 -1.0694  1.9998 -1.6573
 1125SOL    HW213284   8.378   1.512   2.505  0.7871 -0.6897  0.4992
 1126SOL     OW13285   6.398   9.345   1.884  0.1213 -0.1358 -0.2270
 1126SOL    HW113286   6.405   9.302   1.974 -0.6817 -0.5543 -0.3613
 1126SOL    HW213287   6.422   9.442   1.892  0.3512 -0.2361  0.3759
 1127SOL     OW13288   9.510   1.431   3.281  0.2473 -0.1042  0.2548
 1127SOL    HW113289   9.537   1.510   3.225 -2.2050  0.0746 -0.7587
 1127SOL    HW213290   9.590   1.395   3.329  1.9836  1.1708 -1.5803
 1129SOL     OW13291   7.504   1.923   1.398  0.2184 -0.5971 -0.8915
 1129SOL    HW113292   7.511   1.938   1.496 -1.4440 -0.1385 -0.8318
 1129SOL    HW213293   7.537   2.005   1.349 -0.4491 -0.2134 -0.6963
 1131SOL     OW13294   2.833   2.621   2.638  0.4693 -0.6837  0.1429
 1131SOL    HW113295   2.865   2.543   2.692 -4.0873 -3.8127 -1.3355
 1131SOL    HW213296   2.875   2.618   2.547  0.2962 -1.4695  0.0841
 1132SOL     OW13297   0.097   0.745   2.381 -0.2495  0.3266 -0.1785
 1132SOL    HW113298   0.069   0.750   2.285 -0.4460  1.9154 -0.0490
 1132SOL    HW213299   0.126   0.835   2.412  0.6405 -0.3511  1.0210
 1133SOL     OW13300   2.794   6.937   3.037 -0.6610  0.0043 -0.1679
 1133SOL    HW113301   2.808   6.905   3.131 -0.4655 -0.3887 -0.3304
 1133SOL    HW213302   2.703   6.980   3.030 -0.8530 -0.3592  0.0899
 1134SOL     OW13303   0.823   8.053   1.739  0.1751  0.0454 -0.0804
 1134SOL    HW113304   0.733   8.021   1.710  1.0400 -2.8269  0.2992
 1134SOL    HW213305   0.893   8.019   1.677  1.1284  1.3508  0.2522
 1135SOL     OW13306   0.477   8.562   2.258  0.5245 -0.2863 -0.2822
 1135SOL    HW113307   0.521   8.472   2.258  0.6317 -0.2337 -0.1406
 1135SOL    HW213308   0.381   8.552   2.234  0.2675 -0.5694  0.8309
 1136SOL     OW13309   8.089   6.673   3.688 -0.2770 -0.7431 -0.1385
 1136SOL    HW113310   8.081   6.584   3.642 -1.2440 -0.5785 -0.2999
 1136SOL    HW213311   8.163   6.669   3.755  0.0465 -1.5032 -0.5327
 1137SOL     OW13312   9.241   5.020   0.759 -0.4115 -0.3101 -0.1018
 1137SOL    HW113313   9.261   5.117   0.775  0.8145 -0.6804  0.7463
 1137SOL    HW213314   9.267   4.967   0.840 -1.1120 -1.3461 -0.5420
 1138SOL     OW13315   2.096   2.384   2.596 -0.5004  0.3641 -0.6141
 1138SOL    HW113316   2.035   2.306   2.584 -3.3893  2.3445  0.6650
 1138SOL    HW213317   2.175   2.356   2.651 -1.7473 -1.5261  0.2615
 1140SOL     OW13318   0.806   5.321   3.058 -0.5487  0.3220 -0.2895
 1140SOL    HW113319   0.889   5.276   3.026 -1.3180 -0.3266 -1.3701
 1140SOL    HW213320   0.734   5.254   3.073 -0.7728  0.8289  1.0512
 1141SOL     OW13321   3.097   5.322   3.113 -0.2264 -0.8117  0.0258
 1141SOL    HW113322   3.082   5.318   3.212  0.7277  1.0929  0.2647
 1141SOL    HW213323   3.134   5.412   3.088 -1.2950 -0.9410 -2.1767
 1142SOL     OW13324   4.735   7.581   0.452 -0.1266  0.3092  0.4461
 1142SOL    HW113325   4.685   7.581   0.366  1.5746  2.6198 -0.5965
 1142SOL    HW213326   4.813   7.518   0.446 -0.0731  0.3849  0.3543
 1143SOL     OW13327   1.292   1.924   1.693  0.3705 -0.9017  0.0818
 1143SOL    HW113328   1.194   1.938   1.711  0.2143 -3.0043  1.0689
 1143SOL    HW213329   1.345   1.970   1.764  0.1477  1.2478 -1.1265
 1144SOL     OW13330   0.569   7.396   3.650 -0.3273  0.2657  0.5371
 1144SOL    HW113331   0.573   7.479   3.594 -0.2270  1.0265  1.6627
 1144SOL    HW213332   0.606   7.319   3.598 -1.8448  0.5961 -1.0881
 1145SOL     OW13333   9.241   6.804   0.156 -0.4259  0.3112  0.3756
 1145SOL    HW113334   9.190   6.876   0.202  0.2131  0.4077  0.9347
 1145SOL    HW213335   9.232   6.719   0.207 -1.2247 -0.0241 -0.3121
 1146SOL     OW13336   3.996   3.338   2.845  0.2995  0.1435 -0.3054
 1146SOL    HW113337   3.963   3.395   2.920  0.9031  1.0186 -0.7076
 1146SOL    HW213338   3.919   3.314   2.785 -0.2196 -0.7207  0.6872
 1147SOL     OW13339   1.360   7.956   2.728 -0.6590 -0.2751 -0.3896
 1147SOL    HW113340   1.307   8.006   2.797 -0.8450 -1.6775  0.5046
 1147SOL    HW213341   1.434   8.014   2.695 -0.8554  0.5844  0.6553
 1148SOL     OW13342   2.681   4.660   3.217  0.0770  0.9663 -0.3141
 1148SOL    HW113343   2.700   4.748   3.260 -0.9353  1.3484 -0.6301
 1148SOL    HW213344   2.707   4.586   3.278 -0.5748  1.5024  0.6192
 1149SOL     OW13345   3.323   8.156   1.812 -0.0642  0.0290  0.4300
 1149SOL    HW113346   3.358   8.156   1.718  0.1717  1.7368  0.4986
 1149SOL    HW213347   3.380   8.215   1.869 -0.8206 -0.1752  1.4082
 1151SOL     OW13348   5.719   8.796   3.473  0.3379  0.3345 -0.3459
 1151SOL    HW113349   5.629   8.838   3.485  1.2948  1.8575  2.2252
 1151SOL    HW213350   5.753   8.815   3.381 -0.2307  3.3464  0.0101
 1152SOL     OW13351   2.803   2.766   2.896  0.2899 -0.2333  0.1056
 1152SOL    HW113352   2.881   2.803   2.947 -0.2739  0.3418  0.5473
 1152SOL    HW213353   2.836   2.723   2.812  0.9488  1.2811 -0.4231
 1153SOL     OW13354   9.537   6.921   2.759 -0.0751 -0.0083 -0.2458
 1153SOL    HW113355   9.581   6.899   2.672  1.2055 -0.0901  0.4180
 1153SOL    HW213356   9.579   6.869   2.833 -0.3380  0.9645  0.6065
 1154SOL     OW13357   6.969   0.777   2.557  0.0862 -0.2660  0.0689
 1154SOL    HW113358   7.008   0.712   2.623 -1.5565  0.2859  1.6324
 1154SOL    HW213359   6.892   0.824   2.599 -2.8329 -1.9358 -3.1782
 1155SOL     OW13360   8.149   2.445   2.731 -0.1061  0.4923  0.4411
 1155SOL    HW113361   8.079   2.380   2.762 -0.5403  0.4776 -0.5520
 1155SOL    HW213362   8.125   2.479   2.640  0.8335  1.0045  0.3771
 1156SOL     OW13363   2.150   4.136   0.730 -0.1755  0.2039 -0.2540
 1156SOL    HW113364   2.143   4.069   0.656  0.0034 -0.3629  0.2369
 1156SOL    HW213365   2.246   4.152   0.752 -0.1952  1.1192 -0.8138
 1158SOL     OW13366   2.987   7.575   1.236  0.4631 -0.0900  0.2938
 1158SOL    HW113367   2.897   7.550   1.273  1.6788 -3.6387  1.0290
 1158SOL    HW213368   3.053   7.582   1.310  1.2608  0.3274 -0.4542
 1159SOL     OW13369   7.824   6.388   3.179 -0.2769  0.2063  0.3402
 1159SOL    HW113370   7.914   6.368   3.216 -0.4249  0.2087  0.7015
 1159SOL    HW213371   7.834   6.430   3.089  0.0488 -0.8969 -0.1511
 1161SOL     OW13372   4.265   7.038   3.071  0.4050  0.2929 -0.1810
 1161SOL    HW113373   4.186   7.094   3.045  1.1209  0.9599 -0.9734
 1161SOL    HW213374   4.317   7.015   2.989 -0.1049 -1.9202  0.0943
 1163SOL     OW13375   8.172   5.718   3.660 -0.4763 -0.2254 -0.0089
 1163SOL    HW113376   8.266   5.752   3.666  0.3172 -2.4740  0.9839
 1163SOL    HW213377   8.111   5.781   3.707  0.7512  0.5421  0.5957
 1164SOL     OW13378   3.491   3.425   1.306  0.6432  0.0575  0.6208
 1164SOL    HW113379   3.470   3.508   1.255 -0.1071 -0.8129 -0.4993
 1164SOL    HW213380   3.589   3.405   1.299  0.2212 -1.2152 -2.2723
 1165SOL     OW13381   8.950   7.798   1.733 -0.1518 -0.5566  0.3947
 1165SOL    HW113382   9.019   7.805   1.660 -0.1761  1.0591  0.5174
 1165SOL    HW213383   8.992   7.818   1.821 -0.8285  0.6967  0.4421
 1166SOL     OW13384   2.319   1.595   0.301  0.5660  0.4395 -0.4781
 1166SOL    HW113385   2.322   1.564   0.397  0.0435  2.4771  0.2209
 1166SOL    HW213386   2.316   1.516   0.241  0.1939 -0.8728  1.2224
 1168SOL     OW13387   2.459   1.938   1.570 -0.2443 -0.1211 -0.0162
 1168SOL    HW113388   2.376   1.992   1.585 -0.2660 -0.0264 -0.4735
 1168SOL    HW213389   2.531   1.997   1.533  0.2589 -0.0445  1.0714
 1169SOL     OW13390   3.809   3.681   2.717  0.3270 -0.1377  0.6397
 1169SOL    HW113391   3.717   3.689   2.678  1.1883  2.1617 -1.0296
 1169SOL    HW213392   3.803   3.689   2.817 -1.3240 -0.5025  0.5891
 1170SOL     OW13393   0.408   5.862   3.070  0.2786  0.1079  0.3812
 1170SOL    HW113394   0.490   5.877   3.015  1.0254 -0.6917  1.2592
 1170SOL    HW213395   0.358   5.782   3.036 -0.8025  1.2982 -0.9068
 1172SOL     OW13396   5.831   9.295   2.403  0.1200  0.2152 -0.7594
 1172SOL    HW113397   5.749   9.292   2.347 -0.0137 -0.6456 -0.5291
 1172SOL    HW213398   5.864   9.389   2.410  0.7455  0.2016 -3.1530
 1174SOL     OW13399   4.629   0.751   0.153  0.0174 -0.1006  0.5505
 1174SOL    HW113400   4.689   0.681   0.192  1.4055 -0.3760 -1.9367
 1174SOL    HW213401   4.657   0.841   0.185  1.5045 -0.2723 -0.2309
 1175SOL     OW13402   3.362   6.048   3.478 -0.6579  0.0108 -0.3756
 1175SOL    HW113403   3.417   6.089   3.406  0.9364 -1.9681 -0.3517
 1175SOL    HW213404   3.359   6.109   3.557  3.9252 -0.9285  0.7109
 1176SOL     OW13405   5.825   9.327   1.987 -0.3048 -0.2142  0.2222
 1176SOL    HW113406   5.776   9.321   1.900 -0.1932  0.8041  0.0799
 1176SOL    HW213407   5.838   9.236   2.025 -0.8453 -0.6168 -0.5586
 1177SOL     OW13408   1.376   8.457   2.313  0.3762 -0.2146 -0.8579
 1177SOL    HW113409   1.371   8.363   2.280 -2.2576 -0.6280  0.5255
 1177SOL    HW213410   1.283   8.495   2.319  1.0296  1.0679  2.4156
 1178SOL     OW13411   9.229   4.271   2.224  0.1334 -0.0275 -0.0306
 1178SOL    HW113412   9.158   4.320   2.276  0.3488 -0.4004  0.6193
 1178SOL    HW213413   9.291   4.338   2.182  0.3924  0.2703  0.8096
 1179SOL     OW13414   1.438   6.123   0.447  0.3712 -0.4718 -0.0494
 1179SOL    HW113415   1.521   6.127   0.503 -0.0087 -1.5369  0.6191
 1179SOL    HW213416   1.453   6.060   0.371 -0.1695 -1.5527  0.7088
 1181SOL     OW13417   0.713   1.032   0.117 -0.3265  0.1067  0.2180
 1181SOL    HW113418   0.643   1.103   0.122  0.3331  0.8683 -1.0356
 1181SOL    HW213419   0.676   0.950   0.074 -0.4523  0.5120 -0.4486
 1184SOL     OW13420   7.746   5.111   0.668  0.1376  0.1361  0.1142
 1184SOL    HW113421   7.809   5.156   0.605 -0.5597  1.7328  0.5411
 1184SOL    HW213422   7.790   5.103   0.758  0.0442  0.5136  0.1952
 1186SOL     OW13423   8.299   4.516   0.306 -0.6199 -0.2833 -1.0629
 1186SOL    HW113424   8.214   4.481   0.267 -0.5497 -0.8021 -0.7453
 1186SOL    HW213425   8.342   4.579   0.240 -0.9171 -0.5291 -1.4932
 1187SOL     OW13426   8.088   8.904   0.139 -0.0357  0.3286  0.3269
 1187SOL    HW113427   7.989   8.905   0.124 -0.0091 -0.0100  0.1226
 1187SOL    HW213428   8.107   8.895   0.236 -0.2188 -2.3977  0.1645
 1188SOL     OW13429   3.464   2.302   2.661 -0.0866 -0.2989  0.3529
 1188SOL    HW113430   3.478   2.312   2.562  0.2449 -1.2159  0.3104
 1188SOL    HW213431   3.497   2.213   2.691 -0.9440 -0.3507  1.1577
 1189SOL     OW13432   9.621   4.645   1.130  0.3173 -0.3772  0.1374
 1189SOL    HW113433   9.553   4.687   1.070 -0.9573 -0.6300  1.3824
 1189SOL    HW213434   9.619   4.546   1.117  1.2769 -0.3005 -0.6664
 1190SOL     OW13435   1.568   7.231   0.122 -0.6539 -0.7335  0.1486
 1190SOL    HW113436   1.650   7.175   0.131  2.1636  3.2922  0.9464
 1190SOL    HW213437   1.546   7.273   0.210 -1.2417  1.2575 -0.9039
 1191SOL     OW13438   7.297   9.714   1.433 -0.1558 -0.0343 -0.1812
 1191SOL    HW113439   7.337   9.687   1.521 -0.6972  1.2959  0.4737
 1191SOL    HW213440   7.359   9.686   1.359  0.0548 -1.6453  0.5687
 1193SOL     OW13441   4.410   2.667   1.609 -0.2475 -0.2045  0.8139
 1193SOL    HW113442   4.487   2.623   1.562 -1.6580 -2.7787  0.8230
 1193SOL    HW213443   4.347   2.706   1.542 -1.4636 -2.5100  0.5684
 1194SOL     OW13444   5.270   7.701   2.259 -0.0526 -0.5634  0.1015
 1194SOL    HW113445   5.240   7.700   2.163 -1.0617 -1.0313  0.4084
 1194SOL    HW213446   5.194   7.672   2.317  0.7776 -1.0090  0.9782
 1195SOL     OW13447   1.865   1.557   0.851 -0.2094  0.2801 -0.0235
 1195SOL    HW113448   1.782   1.586   0.804 -0.9039 -0.9198  0.4308
 1195SOL    HW213449   1.908   1.636   0.895 -1.4152  0.8132  0.2074
 1196SOL     OW13450   0.632   0.567   1.526 -0.0301  0.4996 -0.0839
 1196SOL    HW113451   0.541   0.531   1.546  1.1038 -2.7665 -0.6354
 1196SOL    HW213452   0.678   0.591   1.612 -0.3903 -0.4240  0.3713
 1197SOL     OW13453   9.305   9.681   2.522 -0.1049 -0.1964  0.1336
 1197SOL    HW113454   9.235   9.705   2.454  0.4258  0.5008 -0.1802
 1197SOL    HW213455   9.280   9.719   2.611 -0.2050 -0.0787  0.0548
 1199SOL     OW13456   1.314   0.737   3.116 -0.0150  0.2160 -0.1195
 1199SOL    HW113457   1.402   0.728   3.163 -0.3686  2.5558  1.0511
 1199SOL    HW213458   1.329   0.740   3.017  1.1924  0.2070  0.0599
 1201SOL     OW13459   7.525   2.148   2.931  0.5568 -0.1081 -0.1474
 1201SOL    HW113460   7.455   2.113   2.869  0.6428 -0.3371 -0.1143
 1201SOL    HW213461   7.553   2.076   2.994 -0.0120  0.3216  0.5983
 1202SOL     OW13462   9.789   2.654   0.738 -0.3560 -0.5209  0.6624
 1202SOL    HW113463   9.695   2.682   0.718 -0.4408 -0.2574  1.4084
 1202SOL    HW213464   9.815   2.689   0.828  0.7707  0.2029  0.0668
 1203SOL     OW13465   0.147   1.347   0.649  0.3898  0.2339  0.3550
 1203SOL    HW113466   0.150   1.440   0.686 -2.5961  0.7385 -0.5862
 1203SOL    HW213467   0.146   1.281   0.724  0.3446  1.0397  1.0692
 1204SOL     OW13468   7.616   0.925   2.713 -0.6260  0.1601  0.1880
 1204SOL    HW113469   7.684   0.889   2.650 -1.1717  1.1234 -0.9754
 1204SOL    HW213470   7.573   0.850   2.763  0.0997 -0.5772 -0.2944
 1205SOL     OW13471   0.119   0.694   3.519  0.1938 -0.5261  0.0244
 1205SOL    HW113472   0.099   0.604   3.557 -1.9497 -0.6417 -1.2399
 1205SOL    HW213473   0.119   0.762   3.592  1.0901 -1.4433  0.8851
 1206SOL     OW13474   2.138   6.120   1.342 -0.4429  0.2245 -0.5667
 1206SOL    HW113475   2.193   6.137   1.424 -0.7021 -0.3527 -0.2646
 1206SOL    HW213476   2.055   6.175   1.346 -1.0003 -0.6455  0.1217
 1207SOL     OW13477   0.483   7.588   1.065  0.0753  0.8469 -0.1764
 1207SOL    HW113478   0.528   7.675   1.081 -1.6107  1.6800  0.1334
 1207SOL    HW213479   0.519   7.546   0.982  2.0773  1.0339  0.5771
 1208SOL     OW13480   8.615   8.678   1.169  0.0796  0.1027  0.5111
 1208SOL    HW113481   8.600   8.762   1.221 -0.8631 -0.1170  0.5931
 1208SOL    HW213482   8.571   8.686   1.079 -1.8189 -1.1074  1.3016
 1211SOL     OW13483   2.733   8.994   1.048  0.2094  0.2007  0.4148
 1211SOL    HW113484   2.826   9.014   1.017  0.1055 -0.7254 -0.5396
 1211SOL    HW213485   2.704   8.907   1.010 -1.3895  0.9196 -0.0331
 1212SOL     OW13486   3.338   9.474   3.460 -0.2213 -0.3216 -0.6470
 1212SOL    HW113487   3.338   9.515   3.552  1.2712 -1.0767 -0.2901
 1212SOL    HW213488   3.427   9.489   3.417  0.0749 -2.4434 -0.8328
 1213SOL     OW13489   0.286   8.990   2.759  0.7087 -0.6489 -0.3596
 1213SOL    HW113490   0.298   9.023   2.666 -2.1572 -2.0736 -1.2609
 1213SOL    HW213491   0.247   8.899   2.759  0.3445 -0.5542  2.2573
 1214SOL     OW13492   9.798   0.829   2.802 -0.5264 -0.3772  0.0260
 1214SOL    HW113493   9.874   0.852   2.742 -0.3644 -0.4715  0.1919
 1214SOL    HW213494   9.801   0.731   2.823  0.8803  0.0801  2.1563
 1215SOL     OW13495   6.612   8.144   2.266 -0.2973  0.0929  0.6339
 1215SOL    HW113496   6.576   8.178   2.180  1.6382 -1.1747 -0.7485
 1215SOL    HW213497   6.685   8.204   2.298  1.4621 -1.3378 -0.5487
 1216SOL     OW13498   3.667   2.736   2.588  0.5225  0.0697  0.0392
 1216SOL    HW113499   3.629   2.785   2.667  0.7325  0.9461 -0.3871
 1216SOL    HW213500   3.661   2.638   2.604 -0.8299  0.2085  0.4835
 1217SOL     OW13501   1.308   2.371   0.411 -0.3675 -0.2484 -0.3883
 1217SOL    HW113502   1.286   2.381   0.508 -1.0933  0.6663 -0.6405
 1217SOL    HW213503   1.292   2.276   0.383 -0.4255 -0.4477  0.3132
 1218SOL     OW13504   5.430   6.376   2.657 -0.0629 -0.5112  0.9358
 1218SOL    HW113505   5.437   6.475   2.649 -3.0153 -0.3584 -0.3372
 1218SOL    HW213506   5.463   6.347   2.748 -0.0850  1.7125  1.6720
 1219SOL     OW13507   2.504   9.120   2.969  0.3396 -0.2705 -0.2510
 1219SOL    HW113508   2.524   9.170   3.053 -1.3501  0.2784 -0.1495
 1219SOL    HW213509   2.498   9.022   2.989 -1.4110 -0.0195  0.5575
 1220SOL     OW13510   8.874   5.446   1.992 -0.6601  0.2099  0.9544
 1220SOL    HW113511   8.915   5.436   1.901  0.7636 -0.5588  1.6607
 1220SOL    HW213512   8.829   5.535   1.999  2.1374  1.6994  0.6279
 1222SOL     OW13513   8.418   2.458   1.441 -0.1928  0.0617  0.2911
 1222SOL    HW113514   8.492   2.424   1.384  0.2163 -0.3357  1.0441
 1222SOL    HW213515   8.341   2.486   1.383  0.2049 -0.3481 -0.4457
 1223SOL     OW13516   8.983   5.907   1.359 -0.2667  0.1224 -0.1832
 1223SOL    HW113517   9.074   5.871   1.336  0.4595  0.3629  2.1461
 1223SOL    HW213518   8.992   5.999   1.396 -1.5127  0.3205 -0.3561
 1224SOL     OW13519   8.346   7.222   2.097  0.3829 -0.7561 -0.0004
 1224SOL    HW113520   8.300   7.154   2.155  1.0733 -0.3185  1.0870
 1224SOL    HW213521   8.288   7.303   2.090  0.2995 -0.8062  0.0966
 1225SOL     OW13522   6.219   9.264   2.576 -0.2217 -0.0360 -0.6300
 1225SOL    HW113523   6.283   9.235   2.648 -0.9917 -1.8341 -0.6505
 1225SOL    HW213524   6.162   9.338   2.610  0.7069  0.4184 -0.0351
 1226SOL     OW13525   4.587   1.997   0.536 -0.1241  0.3730  0.2193
 1226SOL    HW113526   4.537   1.942   0.603  2.7059 -1.0689  1.2345
 1226SOL    HW213527   4.606   2.087   0.575  0.7723 -0.1685  1.0619
 1227SOL     OW13528   9.203   9.393   1.214 -0.0550 -0.5982  0.3048
 1227SOL    HW113529   9.150   9.465   1.169  0.6170  0.8094  1.7456
 1227SOL    HW213530   9.287   9.375   1.161  1.3917  1.9830  1.6373
 1228SOL     OW13531   9.549   5.662   0.129 -0.0169 -0.0490 -0.0888
 1228SOL    HW113532   9.543   5.584   0.067  0.4833  0.4473 -0.7625
 1228SOL    HW213533   9.499   5.739   0.091 -0.4773 -0.0227  0.5607
 1229SOL     OW13534   2.285   5.293   0.065 -0.2563  0.4251 -0.3478
 1229SOL    HW113535   2.278   5.337   0.155  0.0429 -1.7991  0.8055
 1229SOL    HW213536   2.203   5.237   0.049  0.1812 -0.0417 -0.9716
 1230SOL     OW13537   2.811   4.169   1.877 -0.5575  0.6937  0.3748
 1230SOL    HW113538   2.846   4.248   1.927 -0.9758  0.4235  1.1067
 1230SOL    HW213539   2.815   4.088   1.936  0.8273 -0.0475 -0.7055
 1231SOL     OW13540   0.921   7.252   3.727 -0.1596  0.4458  0.3219
 1231SOL    HW113541   0.904   7.351   3.717  0.0271  0.4216 -0.2700
 1231SOL    HW213542   0.840   7.202   3.696 -0.6198  0.4331  1.5268
 1232SOL     OW13543   5.811   0.097   3.110 -0.6514  0.1492 -0.3055
 1232SOL    HW113544   5.739   0.031   3.131 -0.5584  0.5156  1.2521
 1232SOL    HW213545   5.885   0.088   3.177  0.6580 -0.0730 -1.7527
 1233SOL     OW13546   4.016   4.508   0.150  0.1014 -0.4242  0.0847
 1233SOL    HW113547   4.007   4.608   0.147  0.2981 -0.3937  0.4474
 1233SOL    HW213548   4.113   4.484   0.158  0.2831 -0.7133 -2.5898
 1235SOL     OW13549   7.337   9.445   2.525 -0.0830  0.0891  0.0390
 1235SOL    HW113550   7.276   9.367   2.516 -0.7784  0.5252  0.9585
 1235SOL    HW213551   7.420   9.418   2.574 -0.4797  0.0082  0.6706
 1236SOL     OW13552   2.962   4.583   0.585 -0.2959 -0.3230  0.4502
 1236SOL    HW113553   3.045   4.629   0.615  0.0811 -0.8261  0.1797
 1236SOL    HW213554   2.921   4.635   0.510  0.4498 -0.7368 -0.2510
 1238SOL     OW13555   3.252   5.854   0.961  0.3279 -0.0205  0.1439
 1238SOL    HW113556   3.227   5.897   0.874 -0.8840 -0.7728  0.1001
 1238SOL    HW213557   3.220   5.759   0.961  1.3581 -0.3701  0.9519
 1239SOL     OW13558   9.839   6.506   0.219 -0.3733 -0.0850  0.8141
 1239SOL    HW113559   9.743   6.531   0.231 -0.2725  0.7601 -0.0036
 1239SOL    HW213560   9.888   6.517   0.306 -0.8438  0.3105  1.0314
 1242SOL     OW13561   1.516   3.652   1.582  0.9680 -0.1047 -0.4546
 1242SOL    HW113562   1.582   3.640   1.508  1.8620 -1.2539  0.4944
 1242SOL    HW213563   1.563   3.641   1.670 -0.3696 -0.3077  0.2466
 1243SOL     OW13564   3.674   1.111   1.799  0.3805 -0.3511 -0.5987
 1243SOL    HW113565   3.613   1.091   1.875  2.2243 -1.6703  0.5943
 1243SOL    HW213566   3.638   1.187   1.746 -1.8931 -0.6225  0.4912
 1244SOL     OW13567   1.500   0.253   0.295 -0.2841  0.5680 -0.1455
 1244SOL    HW113568   1.412   0.298   0.301 -0.1599  0.5438  2.5589
 1244SOL    HW213569   1.511   0.190   0.372  2.6075  1.5289  0.3139
 1245SOL     OW13570   2.195   2.310   0.926  0.4247 -0.5161  0.4651
 1245SOL    HW113571   2.212   2.299   0.827  0.0879 -0.9680  0.4545
 1245SOL    HW213572   2.283   2.320   0.973  0.5944 -0.4076  0.1327
 1247SOL     OW13573   5.647   0.532   1.768 -0.3388  0.1362  0.5426
 1247SOL    HW113574   5.692   0.533   1.679  1.5635  0.7006  1.4767
 1247SOL    HW213575   5.610   0.441   1.786 -1.9455  0.3855 -1.3951
 1249SOL     OW13576   1.713   3.394   2.421 -0.7155  0.2407 -0.0557
 1249SOL    HW113577   1.771   3.346   2.355 -1.8360  0.2134 -1.0256
 1249SOL    HW213578   1.760   3.398   2.509  0.0955 -1.1689 -0.4038
 1251SOL     OW13579   0.095   7.742   3.238 -0.6352  0.1384 -0.6203
 1251SOL    HW113580   0.037   7.823   3.227 -0.0730  0.7027  0.4351
 1251SOL    HW213581   0.092   7.687   3.155 -0.7218  1.4549 -1.5091
 1252SOL     OW13582   0.881   9.570   0.488  0.3335  0.2242  0.3299
 1252SOL    HW113583   0.968   9.526   0.509  0.8319  0.8601 -0.3632
 1252SOL    HW213584   0.860   9.638   0.558 -0.1827 -0.7370  1.1208
 1253SOL     OW13585   9.121   7.740   1.109  0.0860  0.3747 -0.0994
 1253SOL    HW113586   9.101   7.687   1.191  1.6360  1.5852  1.0833
 1253SOL    HW213587   9.219   7.735   1.089 -0.2876 -0.0297 -1.9834
 1254SOL     OW13588   2.537   7.635   2.059  0.0786 -0.0411 -0.0400
 1254SOL    HW113589   2.630   7.620   2.026 -0.2601 -0.8976 -0.6354
 1254SOL    HW213590   2.482   7.675   1.986  0.3855  1.9828  0.8246
 1255SOL     OW13591   8.939   3.144   3.483 -0.3725  0.3789 -0.2214
 1255SOL    HW113592   8.985   3.095   3.409  1.8510  2.9784 -0.6442
 1255SOL    HW213593   8.907   3.233   3.450 -1.6226  0.5258  1.2938
 1257SOL     OW13594   1.784   5.811   1.182  0.0056 -0.4056  0.3354
 1257SOL    HW113595   1.689   5.819   1.150 -0.3866  0.2762  1.6278
 1257SOL    HW213596   1.844   5.797   1.104 -0.9377  1.2239 -0.7134
 1258SOL     OW13597   0.808   8.081   2.215  0.3439 -0.6540  0.2765
 1258SOL    HW113598   0.833   8.100   2.120  2.5581 -2.2777  0.5078
 1258SOL    HW213599   0.738   8.010   2.218  0.7931 -1.1184 -0.1238
 1260SOL     OW13600   8.790   5.326   0.234 -0.7505 -0.1605 -0.3617
 1260SOL    HW113601   8.713   5.316   0.171 -2.0316  3.6154  0.4623
 1260SOL    HW213602   8.780   5.261   0.310 -0.0332 -3.6249 -3.0834
 1261SOL     OW13603   5.005   1.419   3.128 -0.1131  0.3304 -0.1884
 1261SOL    HW113604   4.963   1.424   3.218  0.3449 -2.6506  0.2229
 1261SOL    HW213605   5.097   1.459   3.131 -0.8538  2.0378  0.1632
 1262SOL     OW13606   3.584   3.160   2.174  0.0871 -0.2976 -0.3364
 1262SOL    HW113607   3.497   3.137   2.131 -0.2450  0.6351 -0.1790
 1262SOL    HW213608   3.570   3.169   2.273  0.7686 -2.0820 -0.0706
 1263SOL     OW13609   9.089   5.206   1.567  0.4768  0.0417  0.1255
 1263SOL    HW113610   9.158   5.269   1.533 -1.6231  1.0313 -2.5386
 1263SOL    HW213611   9.072   5.222   1.664  0.2730  3.3115 -0.4117
 1265SOL     OW13612   1.607   9.649   2.221 -0.2955 -0.0839  0.6814
 1265SOL    HW113613   1.673   9.619   2.290  0.1292 -0.1768  0.2347
 1265SOL    HW213614   1.541   9.576   2.204 -0.3017 -0.1216  0.8648
 1267SOL     OW13615   5.458   7.280   2.975  0.0796 -0.3832 -0.1084
 1267SOL    HW113616   5.386   7.345   2.952  0.0235  0.0362  1.2216
 1267SOL    HW213617   5.508   7.255   2.892 -0.7164  0.3687 -0.8240
 1268SOL     OW13618   9.261   3.793   1.104  0.1314 -0.3778  0.3988
 1268SOL    HW113619   9.200   3.726   1.147 -0.0395  0.0064  0.7527
 1268SOL    HW213620   9.230   3.885   1.126  0.8114 -0.1848  0.5317
 1269SOL     OW13621   0.276   8.958   3.519 -0.1391 -0.9775  0.4019
 1269SOL    HW113622   0.275   8.869   3.564  1.4606 -1.0425  0.3504
 1269SOL    HW213623   0.347   8.959   3.449  0.3697  0.5866  0.9234
 1270SOL     OW13624   5.429   8.331   3.249 -0.4536 -0.2348  0.1072
 1270SOL    HW113625   5.382   8.244   3.258  0.0465 -0.5448 -0.2230
 1270SOL    HW213626   5.526   8.314   3.230 -0.5939  0.3939 -1.1776
 1272SOL     OW13627   0.018   4.618   3.337 -0.0820  0.6359 -0.7949
 1272SOL    HW113628   0.060   4.688   3.394 -0.8522 -0.0386  0.6308
 1272SOL    HW213629   0.036   4.527   3.376 -1.0045  0.1997 -1.3595
 1274SOL     OW13630   9.660   2.843   2.707  0.1206 -0.3825  0.0824
 1274SOL    HW113631   9.685   2.929   2.752  0.4635 -0.0870 -0.6596
 1274SOL    HW213632   9.742   2.789   2.689  0.3018  0.6385 -2.4628
 1275SOL     OW13633   3.821   0.741   2.216 -0.2224  0.1153 -0.0591
 1275SOL    HW113634   3.729   0.721   2.252  0.4294 -0.4229  1.3322
 1275SOL    HW213635   3.836   0.839   2.216  0.1837  0.0941  2.2788
 1276SOL     OW13636   3.624   3.882   3.570 -0.5060 -0.5549 -0.5266
 1276SOL    HW113637   3.696   3.925   3.516 -0.0574  1.3868  1.5510
 1276SOL    HW213638   3.535   3.912   3.536 -0.1955  2.1854  0.9831
 1278SOL     OW13639   3.045   0.501   1.522  0.2176 -0.2470  0.3126
 1278SOL    HW113640   3.059   0.515   1.424 -0.5914  0.7568  0.3357
 1278SOL    HW213641   3.099   0.422   1.552  1.7164  0.4018 -0.6213
 1279SOL     OW13642   4.750   7.554   0.916 -0.0021  0.3368 -0.2032
 1279SOL    HW113643   4.707   7.643   0.932  0.5936  0.1306  2.8034
 1279SOL    HW213644   4.839   7.568   0.871 -0.9456  1.0586 -1.9192
 1280SOL     OW13645   1.429   2.586   3.102  0.9231  0.7444  0.1322
 1280SOL    HW113646   1.500   2.580   3.171 -0.7742 -2.9935  1.7439
 1280SOL    HW213647   1.340   2.599   3.146  0.3049  2.8851 -1.6643
 1281SOL     OW13648   4.021   4.249   1.266  0.0311  0.2746 -0.5970
 1281SOL    HW113649   4.110   4.217   1.299  0.1207  1.0770 -0.0653
 1281SOL    HW213650   3.973   4.173   1.222  0.7995 -0.2686 -0.5086
 1282SOL     OW13651   1.395   4.876   2.653  0.0013 -0.3484 -0.0908
 1282SOL    HW113652   1.407   4.837   2.562 -1.7366 -1.1266 -0.0113
 1282SOL    HW213653   1.440   4.965   2.658  0.1452 -0.3195 -1.6853
 1283SOL     OW13654   0.205   0.874   3.244 -0.0285 -0.0550  0.3599
 1283SOL    HW113655   0.116   0.838   3.272  1.0993 -2.5428  0.9285
 1283SOL    HW213656   0.212   0.871   3.144  0.3624 -2.3771  0.4144
 1284SOL     OW13657   9.074   2.325   1.762 -0.1259 -0.3710 -1.0511
 1284SOL    HW113658   9.061   2.406   1.704 -2.1294 -0.5593 -0.8962
 1284SOL    HW213659   9.063   2.242   1.706  1.4555 -0.5542 -1.1110
 1285SOL     OW13660   1.914   4.823   2.807  0.5822  0.5467  0.3639
 1285SOL    HW113661   1.993   4.762   2.814 -0.0064 -0.0634  2.0183
 1285SOL    HW213662   1.831   4.769   2.800  0.1497  1.1724  0.6479
 1286SOL     OW13663   4.151   0.181   1.013 -0.0668 -0.5934  0.1749
 1286SOL    HW113664   4.065   0.138   1.039 -0.6761  0.4870 -0.0069
 1286SOL    HW213665   4.177   0.247   1.084 -0.8882  1.1820 -1.1465
 1287SOL     OW13666   7.547   6.792   3.389  0.1542 -0.3492  0.0034
 1287SOL    HW113667   7.613   6.720   3.409 -0.6275 -0.2657  3.1682
 1287SOL    HW213668   7.596   6.875   3.359  1.3099 -0.9980  0.0611
 1288SOL     OW13669   1.456   7.696   0.497  0.8219  0.2542 -0.0544
 1288SOL    HW113670   1.440   7.789   0.529 -0.5082  0.4611 -1.2874
 1288SOL    HW213671   1.397   7.633   0.546  0.4402  0.2817 -0.4802
 1289SOL     OW13672   4.710   0.434   3.637  0.3163 -0.3634  0.1651
 1289SOL    HW113673   4.611   0.443   3.626  0.2387 -1.3327  0.0588
 1289SOL    HW213674   4.740   0.345   3.603  1.0740 -0.5391  1.2609
 1290SOL     OW13675   8.524   6.121   2.351  0.0673  0.0797 -0.1982
 1290SOL    HW113676   8.506   6.079   2.440 -0.2927 -1.3787 -0.9471
 1290SOL    HW213677   8.582   6.202   2.364 -2.4859  1.6677  1.6704
 1291SOL     OW13678   7.508   7.942   3.100  0.3566 -0.0096 -0.0186
 1291SOL    HW113679   7.596   7.896   3.105 -0.0894 -0.7441  1.6407
 1291SOL    HW213680   7.522   8.040   3.085  1.3570 -0.4443 -2.1198
 1292SOL     OW13681   2.055   1.636   2.321 -0.3328 -0.1321  0.1555
 1292SOL    HW113682   1.993   1.713   2.338 -0.7618 -0.2922 -0.6411
 1292SOL    HW213683   2.148   1.670   2.312 -0.4225  0.2135  0.5041
 1293SOL     OW13684   7.496   8.853   3.660 -0.4754 -0.7312  0.3638
 1293SOL    HW113685   7.438   8.796   3.717  0.0689 -1.1601  0.4893
 1293SOL    HW213686   7.582   8.872   3.708  0.0034 -1.1305 -0.3259
 1294SOL     OW13687   9.866   2.337   1.566 -0.8593 -0.6675  0.3103
 1294SOL    HW113688   9.844   2.403   1.638 -0.2079 -0.7725  0.6053
 1294SOL    HW213689   9.781   2.297   1.530 -1.3031  0.8129 -0.3337
 1297SOL     OW13690   6.865   7.944   2.717  0.0005 -0.3665  0.1467
 1297SOL    HW113691   6.843   7.917   2.623  2.1611  2.1827 -1.1480
 1297SOL    HW213692   6.935   7.883   2.753  2.2707  1.2088 -1.4773
 1298SOL     OW13693   1.812   9.935   2.477  0.1537  0.3417 -0.3177
 1298SOL    HW113694   1.886   9.893   2.529 -1.3690 -0.9350  0.8608
 1298SOL    HW213695   1.828   9.921   2.379  0.4397 -1.7297  0.0022
 1299SOL     OW13696   2.783   1.586   1.608 -0.6696 -0.6322  0.0878
 1299SOL    HW113697   2.882   1.593   1.618 -0.3773 -1.9750 -1.6386
 1299SOL    HW213698   2.740   1.668   1.645  1.1211  0.2487  0.2692
 1300SOL     OW13699   0.076   7.659   1.546 -0.0912 -0.4495  0.2981
 1300SOL    HW113700   0.131   7.576   1.559  0.8182  0.0819 -0.1577
 1300SOL    HW213701   0.053   7.698   1.635 -0.3478 -1.0717  0.5085
 1301SOL     OW13702   4.118   7.271   3.373  0.1110  0.0646  0.2453
 1301SOL    HW113703   4.079   7.180   3.386 -0.4405  0.2606 -0.0366
 1301SOL    HW213704   4.045   7.338   3.357  0.4610  0.7150  1.3279
 1302SOL     OW13705   1.804   6.809   0.414  0.5400 -0.1015  0.0705
 1302SOL    HW113706   1.754   6.888   0.449 -1.8651 -0.5258 -2.3277
 1302SOL    HW213707   1.876   6.839   0.351 -0.2560  0.1812 -0.6991
 1303SOL     OW13708   2.690   7.046   3.522  0.0361 -0.7838  0.4853
 1303SOL    HW113709   2.697   7.076   3.617  1.1333  0.3678  0.0396
 1303SOL    HW213710   2.733   7.113   3.462 -0.5220 -1.5761 -0.8211
 1305SOL     OW13711   4.377   5.066   1.486  0.7536 -0.5562  0.4058
 1305SOL    HW113712   4.310   4.992   1.486  0.0421  0.0884  0.2372
 1305SOL    HW213713   4.385   5.105   1.394  0.7698 -0.1014  0.5971
 1308SOL     OW13714   4.044   2.472   1.011 -0.5862 -0.4341 -0.3348
 1308SOL    HW113715   4.103   2.394   1.034 -1.0376  0.2051  3.2390
 1308SOL    HW213716   3.951   2.454   1.042 -0.4192  2.0248  1.7541
 1309SOL     OW13717   8.015   0.246   3.685  0.2398 -0.3998 -0.2343
 1309SOL    HW113718   8.002   0.258   3.783  0.1116 -1.3096 -0.1341
 1309SOL    HW213719   8.018   0.336   3.640  0.8808  0.0299  0.6661
 1310SOL     OW13720   4.828   9.954   3.748  0.1233 -0.1827  0.4431
 1310SOL    HW113721   4.912   9.903   3.730  0.1086 -0.2585  0.5890
 1310SOL    HW213722   4.851  10.049   3.768  0.0708  0.1344 -0.9625
 1311SOL     OW13723   9.261   7.714   0.774 -0.2569  0.3454 -0.4616
 1311SOL    HW113724   9.359   7.700   0.754 -0.1268 -1.4005  1.2950
 1311SOL    HW213725   9.249   7.803   0.819  0.4319  0.8385 -1.2238
 1312SOL     OW13726   1.584   2.840   1.068 -0.1643  0.1666 -0.0224
 1312SOL    HW113727   1.627   2.924   1.100  1.8780 -0.8827  0.0561
 1312SOL    HW213728   1.623   2.762   1.115 -2.9220 -0.7851  0.8247
 1313SOL     OW13729   4.620   5.224   1.836 -0.5546  0.2823 -0.1719
 1313SOL    HW113730   4.565   5.158   1.887  0.8696 -0.4017  0.5068
 1313SOL    HW213731   4.677   5.277   1.900  0.9445 -0.2981 -0.9995
 1314SOL     OW13732   1.055   4.557   1.767 -0.1618 -0.5604  0.0630
 1314SOL    HW113733   1.070   4.462   1.740 -0.4302  0.0103 -2.1457
 1314SOL    HW213734   1.075   4.617   1.690 -0.5980  1.1502  1.2583
 1315SOL     OW13735   0.576   1.753   2.787  0.5121  0.2829  0.1389
 1315SOL    HW113736   0.503   1.740   2.854 -0.0997 -0.9480 -0.7496
 1315SOL    HW213737   0.563   1.840   2.740 -1.4949 -0.7394 -1.3157
 1316SOL     OW13738   7.045   8.075   2.157 -0.2847  0.0136 -0.0359
 1316SOL    HW113739   7.131   8.028   2.138 -0.6973  0.0806 -2.2120
 1316SOL    HW213740   7.046   8.165   2.115 -1.2760  0.1646  0.2446
 1317SOL     OW13741   4.757   7.211   2.594  0.1729  0.7210 -0.5668
 1317SOL    HW113742   4.839   7.265   2.610  1.0686 -0.3949 -1.2848
 1317SOL    HW213743   4.783   7.118   2.566 -1.3216 -0.1856  0.9574
 1318SOL     OW13744   7.895   7.905   2.438 -0.3999  0.8161  0.3157
 1318SOL    HW113745   7.802   7.867   2.443 -0.6180  1.0307 -1.6436
 1318SOL    HW213746   7.961   7.834   2.464 -1.0166  0.1465  0.0916
 1319SOL     OW13747   8.874   0.708   1.460  0.7957  0.1492  0.6082
 1319SOL    HW113748   8.833   0.794   1.431  0.5557 -0.0641  0.3101
 1319SOL    HW213749   8.875   0.643   1.384 -1.2375 -0.9377  1.4536
 1321SOL     OW13750   1.771   7.054   0.135 -0.4963  0.6485 -0.2929
 1321SOL    HW113751   1.739   6.980   0.076 -0.0645  1.5297 -1.6628
 1321SOL    HW213752   1.845   7.021   0.193 -1.2825 -0.3704  0.1585
 1322SOL     OW13753   8.263   9.169   2.665 -0.3832 -0.0570  0.0531
 1322SOL    HW113754   8.285   9.189   2.761  0.2032 -0.9325  0.1031
 1322SOL    HW213755   8.174   9.125   2.660  0.5626 -2.0500  0.4113
 1323SOL     OW13756   8.689   8.301   3.682 -0.0220  0.2607  0.0504
 1323SOL    HW113757   8.692   8.248   3.597  0.8476  0.2286  0.0943
 1323SOL    HW213758   8.659   8.242   3.757 -1.6988  0.5259 -0.4002
 1325SOL     OW13759   4.367   8.599   2.575 -1.0767  0.5338  0.5168
 1325SOL    HW113760   4.272   8.628   2.581 -1.3296 -0.5965  2.2225
 1325SOL    HW213761   4.378   8.511   2.620  0.6276  0.2735 -0.3671
 1326SOL     OW13762   9.768   5.873   1.797  0.0952 -0.5505  0.1717
 1326SOL    HW113763   9.718   5.955   1.769  0.7692 -0.5917 -1.2238
 1326SOL    HW213764   9.748   5.799   1.733 -0.7218 -1.5514  1.5910
 1329SOL     OW13765   1.532   7.493   1.645 -0.4552  0.6587 -0.1389
 1329SOL    HW113766   1.539   7.396   1.623  0.1037  1.0994 -1.9452
 1329SOL    HW213767   1.456   7.534   1.594 -1.3535  0.9676  1.4033
 1330SOL     OW13768   5.830   9.501   2.970 -0.0796 -0.2806 -0.6075
 1330SOL    HW113769   5.929   9.505   2.982 -0.1689 -0.0518  0.0552
 1330SOL    HW213770   5.809   9.471   2.877  0.6225 -2.7502 -0.0194
 1331SOL     OW13771   1.097   9.931   0.838 -0.0450 -0.0960 -0.3516
 1331SOL    HW113772   1.061   9.864   0.773  1.5157 -0.2302 -1.1111
 1331SOL    HW213773   1.091  10.022   0.797 -0.4828  0.0131 -0.0511
 1334SOL     OW13774   3.734   4.533   2.314 -0.3488 -0.0401  0.0434
 1334SOL    HW113775   3.675   4.453   2.296  0.3057 -1.1710  2.6764
 1334SOL    HW213776   3.715   4.568   2.406  1.4158  1.0637  0.0085
 1335SOL     OW13777   1.019   7.132   0.354  0.4794  0.2980 -0.3048
 1335SOL    HW113778   0.951   7.064   0.325  0.3752  0.4529 -0.4240
 1335SOL    HW213779   1.111   7.093   0.344  0.4297  0.2445 -0.5634
 1336SOL     OW13780   2.607   5.435   3.422 -0.7903  0.0533  0.4247
 1336SOL    HW113781   2.604   5.511   3.487  0.5174 -0.5306  1.1803
 1336SOL    HW213782   2.697   5.432   3.379 -1.3899 -0.0440 -0.8537
 1337SOL     OW13783   6.105   0.524   2.775 -0.2881 -0.0050 -0.2770
 1337SOL    HW113784   6.088   0.552   2.681 -0.5852 -0.2764 -0.3066
 1337SOL    HW213785   6.048   0.445   2.797  1.4315 -1.3514 -0.5839
 1338SOL     OW13786   2.083   4.586   1.746 -0.2072  0.0109  0.4517
 1338SOL    HW113787   2.080   4.548   1.838  2.8571  0.2170  0.6769
 1338SOL    HW213788   2.102   4.513   1.680  1.8822  0.5012  0.4764
 1339SOL     OW13789   9.113   6.006   3.764 -0.6500  0.1526  0.2010
 1339SOL    HW113790   9.178   5.931   3.774  1.0419  1.3386 -1.4666
 1339SOL    HW213791   9.144   6.085   3.818 -1.0969  0.4660  0.0035
 1340SOL     OW13792   3.600   3.445   0.107  0.2220  0.3078  0.2647
 1340SOL    HW113793   3.655   3.473   0.029 -0.2648 -1.0108 -0.5704
 1340SOL    HW213794   3.528   3.513   0.123  0.4508  0.6868 -0.3032
 1341SOL     OW13795   8.845   1.205   2.444  0.1528 -0.0458  0.2085
 1341SOL    HW113796   8.911   1.214   2.370 -0.4109  1.9965 -0.0689
 1341SOL    HW213797   8.753   1.226   2.410 -0.1250  0.7757  1.4426
 1343SOL     OW13798   1.670   9.754   1.440 -0.4537  0.8542  0.2292
 1343SOL    HW113799   1.727   9.684   1.482 -0.4667  0.6938 -0.0178
 1343SOL    HW213800   1.657   9.733   1.343  0.9359  2.0867 -0.2389
 1344SOL     OW13801   0.204   7.143   2.745  0.4737 -0.3881  0.5329
 1344SOL    HW113802   0.284   7.202   2.742  0.0272  0.1697 -2.2961
 1344SOL    HW213803   0.224   7.057   2.697  0.6917 -2.0172  3.4566
 1345SOL     OW13804   1.201   3.102   3.372 -0.4837  0.2657 -0.1548
 1345SOL    HW113805   1.179   3.170   3.442 -0.7471 -1.1204  1.1369
 1345SOL    HW213806   1.299   3.082   3.375 -0.7161 -0.8368  0.8235
 1346SOL     OW13807   1.724   2.589   3.642 -0.4613 -0.0805  0.1721
 1346SOL    HW113808   1.749   2.526   3.716 -0.0340  0.2653  0.3237
 1346SOL    HW213809   1.637   2.632   3.663 -0.1098  0.3719  0.7013
 1350SOL     OW13810   8.183   2.628   0.986  0.1627  0.2514  0.2819
 1350SOL    HW113811   8.097   2.652   1.033  0.4156  3.1539 -0.6225
 1350SOL    HW213812   8.163   2.565   0.911 -1.0528  0.2093  0.6229
 1351SOL     OW13813   8.467   7.821   0.936 -0.0357 -0.2236  0.2322
 1351SOL    HW113814   8.516   7.736   0.951 -1.6626 -0.8087  2.5059
 1351SOL    HW213815   8.380   7.818   0.985 -1.1793  1.8098 -1.5853
 1354SOL     OW13816   2.625   1.531   0.452  0.3978  0.6394 -0.0614
 1354SOL    HW113817   2.569   1.525   0.535  2.3916 -0.2446  1.2787
 1354SOL    HW213818   2.587   1.472   0.381  0.4793 -1.1316  1.3435
 1359SOL     OW13819   9.691   0.427   1.128 -0.4015  0.0167  0.0291
 1359SOL    HW113820   9.671   0.427   1.030  0.7078  1.7390 -0.2110
 1359SOL    HW213821   9.634   0.495   1.174 -0.6751 -0.5508  0.5314
 1360SOL     OW13822   1.092   6.439   2.782 -0.6587  0.1268 -0.1077
 1360SOL    HW113823   1.034   6.371   2.827 -1.5449  1.0757  0.2027
 1360SOL    HW213824   1.168   6.393   2.735 -0.0625 -0.9141  1.8543
 1361SOL     OW13825   0.283   9.567   2.422 -0.2211  0.0689  0.0635
 1361SOL    HW113826   0.282   9.484   2.478 -1.6903 -0.3141 -0.4883
 1361SOL    HW213827   0.269   9.542   2.326 -0.7334  0.9479 -0.0997
 1362SOL     OW13828   3.169   7.399   0.405  0.0947 -0.0814 -0.0463
 1362SOL    HW113829   3.209   7.311   0.379  1.0710  0.9991 -2.3757
 1362SOL    HW213830   3.070   7.388   0.417  0.1704 -1.4530 -0.5487
 1363SOL     OW13831   8.560   8.855   3.672  0.0728 -0.2883 -0.2384
 1363SOL    HW113832   8.636   8.804   3.632  0.5230  0.8491 -0.8653
 1363SOL    HW213833   8.481   8.850   3.611 -0.9506 -2.9180  1.2186
 1364SOL     OW13834   5.707   5.081   1.383  0.3189  0.3940 -0.3826
 1364SOL    HW113835   5.674   5.123   1.299  1.6257  1.2008 -0.5125
 1364SOL    HW213836   5.630   5.063   1.445 -0.7011 -0.5814 -1.8949
 1365SOL     OW13837   9.440   2.922   2.242 -0.5732  0.1358 -0.1966
 1365SOL    HW113838   9.460   2.969   2.328  0.8715  0.8891 -0.9147
 1365SOL    HW213839   9.483   2.831   2.244 -1.1657 -0.1370  0.1689
 1366SOL     OW13840   1.562   4.612   2.143  0.5599  0.2065 -0.5429
 1366SOL    HW113841   1.636   4.555   2.107  0.0065 -0.1638 -1.1038
 1366SOL    HW213842   1.478   4.593   2.093  0.8942  3.2456 -2.3966
 1367SOL     OW13843   1.026   3.166   3.153  0.6346 -0.3520 -0.8709
 1367SOL    HW113844   1.099   3.141   3.217  1.2084  2.2304 -0.4391
 1367SOL    HW213845   1.053   3.247   3.102 -0.5387 -1.4008 -3.2091
 1368SOL     OW13846   7.868   7.700   3.698 -0.0326  0.4494  0.0398
 1368SOL    HW113847   7.828   7.667   3.613 -0.1901 -0.0179  0.2949
 1368SOL    HW213848   7.855   7.799   3.704 -0.7275  0.3742 -0.1054
 1369SOL     OW13849   9.936   7.579   2.718 -0.0051 -0.1508  0.2242
 1369SOL    HW113850   9.965   7.490   2.680 -2.1141 -1.1731  0.9583
 1369SOL    HW213851   9.844   7.600   2.686 -1.6150 -0.7520  4.2376
 1370SOL     OW13852   0.265   5.818   1.131  0.2469  0.2379  0.0796
 1370SOL    HW113853   0.281   5.847   1.226 -0.7135 -2.9959  1.2886
 1370SOL    HW213854   0.352   5.787   1.091  0.3122 -0.2082  0.5598
 1371SOL     OW13855   8.585   1.130   2.775  0.3460 -0.1463  0.2214
 1371SOL    HW113856   8.631   1.085   2.698  0.9212  3.2598 -1.5192
 1371SOL    HW213857   8.651   1.188   2.823 -0.9525  0.8891  0.7744
 1372SOL     OW13858   0.140   3.875   2.665  0.5065 -0.0455  0.3329
 1372SOL    HW113859   0.164   3.789   2.711  1.2220  0.6013  1.1813
 1372SOL    HW213860   0.183   3.951   2.713 -0.6892  0.8491 -0.0082
 1373SOL     OW13861   6.713   9.852   2.243  0.0887 -0.9132  0.3341
 1373SOL    HW113862   6.726   9.823   2.337 -0.0183  1.1715  1.0337
 1373SOL    HW213863   6.764   9.937   2.227 -0.9665 -0.5143 -1.0770
 1375SOL     OW13864   2.317   4.987   1.115  0.0140 -0.2544  0.2814
 1375SOL    HW113865   2.244   5.014   1.178 -0.8019 -1.1818 -0.2525
 1375SOL    HW213866   2.373   4.917   1.157 -0.3986 -0.7162  0.0688
 1376SOL     OW13867   9.269   7.038   1.210 -0.6215  0.1113  0.1656
 1376SOL    HW113868   9.205   7.028   1.285 -0.5363 -0.8839  0.1105
 1376SOL    HW213869   9.221   7.028   1.123  0.0861 -3.9169  0.1384
 1379SOL     OW13870   9.971   1.101   3.647 -0.3054  0.1282  0.0146
 1379SOL    HW113871  10.020   1.155   3.715 -0.9016 -0.6384  1.0738
 1379SOL    HW213872   9.999   1.129   3.555  1.2145  0.5155  0.5861
 1380SOL     OW13873   2.485   0.001   3.123  0.0307 -0.0988 -0.1761
 1380SOL    HW113874   2.443   0.089   3.100 -0.8252 -0.9331 -1.9246
 1380SOL    HW213875   2.583   0.005   3.107 -0.1166  0.3037 -1.0063
 1382SOL     OW13876   7.116   9.273   0.131 -0.5903  0.1284 -0.4436
 1382SOL    HW113877   7.190   9.206   0.118 -1.1662 -1.2506  2.9002
 1382SOL    HW213878   7.029   9.232   0.105 -1.0018 -0.6115  2.0451
 1383SOL     OW13879   4.070   3.496   2.216  0.0090 -0.2604  0.4964
 1383SOL    HW113880   4.094   3.574   2.158 -0.9104 -0.7035 -0.4811
 1383SOL    HW213881   4.014   3.432   2.165  3.3029 -3.1276  0.3255
 1384SOL     OW13882   8.352   5.127   2.263  0.5503  0.3140 -0.3357
 1384SOL    HW113883   8.395   5.082   2.342  2.2480 -1.8761 -2.4191
 1384SOL    HW213884   8.403   5.210   2.240  0.7728  0.3004  0.1012
 1385SOL     OW13885   2.985   3.086   1.595  0.0639 -0.5978 -0.1957
 1385SOL    HW113886   3.016   3.166   1.542 -0.7608 -0.5221 -0.5619
 1385SOL    HW213887   3.063   3.024   1.609  0.8439  0.5188  0.5548
 1386SOL     OW13888   7.211   0.324   3.612 -0.3036  0.0911 -0.3558
 1386SOL    HW113889   7.122   0.365   3.631 -0.4589 -0.8020  0.9008
 1386SOL    HW213890   7.271   0.392   3.570 -1.2638  0.9680 -0.3193
 1387SOL     OW13891   3.668   2.737   1.367 -0.2695 -0.3735  0.2181
 1387SOL    HW113892   3.658   2.656   1.425 -0.3188 -1.5799 -1.4227
 1387SOL    HW213893   3.738   2.719   1.297 -0.5979  0.8354 -0.4319
 1388SOL     OW13894   6.252   9.793   3.358 -0.0773 -0.0749 -0.4244
 1388SOL    HW113895   6.152   9.793   3.359 -0.0971  0.4975 -1.8200
 1388SOL    HW213896   6.287   9.852   3.431 -0.7082 -2.5604  1.9750
 1390SOL     OW13897   0.713   0.200   2.805  0.1260  0.0599  0.0320
 1390SOL    HW113898   0.645   0.217   2.734 -0.2480  2.4509  0.9112
 1390SOL    HW213899   0.743   0.287   2.844  0.9306 -1.1719  2.2492
 1391SOL     OW13900   9.151   3.627   0.425  0.5391  0.5337 -0.5147
 1391SOL    HW113901   9.101   3.586   0.348  0.8426  1.2090 -1.0797
 1391SOL    HW213902   9.159   3.560   0.499  1.5702 -0.6532 -1.6753
 1392SOL     OW13903   4.170   9.177   3.273 -0.1978  0.2050  0.5792
 1392SOL    HW113904   4.193   9.195   3.369 -0.8945  1.8978  0.4573
 1392SOL    HW213905   4.092   9.116   3.268  0.8863 -1.2338  1.0621
 1393SOL     OW13906   6.524   0.666   3.468 -0.1401  0.2534 -0.0489
 1393SOL    HW113907   6.559   0.756   3.495 -0.5025  0.7425 -1.1666
 1393SOL    HW213908   6.575   0.634   3.387 -0.7405 -0.0523 -0.3100
 1394SOL     OW13909   8.875   4.880   0.073  0.3984 -0.1178  0.3900
 1394SOL    HW113910   8.874   4.980   0.067 -0.5450 -0.2172 -1.2646
 1394SOL    HW213911   8.845   4.840  -0.014  0.7962 -1.8475  1.0157
 1395SOL     OW13912   0.537   9.269   1.131  0.1689 -0.9222  0.4714
 1395SOL    HW113913   0.451   9.220   1.140 -0.7992  0.6556 -0.1545
 1395SOL    HW213914   0.547   9.303   1.038  0.4301  0.8083  1.1138
 1396SOL     OW13915   9.286   9.308   3.280 -0.0899 -0.0096  0.4577
 1396SOL    HW113916   9.374   9.294   3.234 -0.5912 -1.5933 -0.0551
 1396SOL    HW213917   9.302   9.351   3.369  1.0819  0.9510 -0.1994
 1397SOL     OW13918   2.775   7.765   3.507 -0.0192  0.5374  0.1198
 1397SOL    HW113919   2.749   7.677   3.547 -0.4726  0.8885  0.6123
 1397SOL    HW213920   2.724   7.779   3.422  0.0088  0.3509  0.0722
 1398SOL     OW13921   9.106   0.518   1.055 -0.4959  0.2421 -0.1957
 1398SOL    HW113922   9.019   0.470   1.049  0.3789 -1.2836 -1.0907
 1398SOL    HW213923   9.145   0.527   0.963  0.7468  0.0364  0.3053
 1399SOL     OW13924   2.914   0.857   2.095  0.6821  0.3052 -0.0011
 1399SOL    HW113925   2.874   0.770   2.066 -3.4758  1.8224  0.9417
 1399SOL    HW213926   2.900   0.926   2.023  1.3398  0.9695  0.4981
 1401SOL     OW13927   9.756   8.442   1.210 -0.0629 -0.1378 -0.3090
 1401SOL    HW113928   9.831   8.484   1.159 -0.7575  0.2291 -1.0552
 1401SOL    HW213929   9.792   8.376   1.275  1.0999  1.9788  1.2522
 1402SOL     OW13930   1.221   5.523   2.060  0.4451 -0.0614  0.4941
 1402SOL    HW113931   1.220   5.545   1.962  0.4588  2.0122  0.9402
 1402SOL    HW213932   1.190   5.428   2.073 -0.1115 -0.1709 -1.4673
 1403SOL     OW13933   3.149   0.270   1.611 -0.3094 -0.0467  0.4973
 1403SOL    HW113934   3.212   0.212   1.558 -0.6528  0.5176 -0.5572
 1403SOL    HW213935   3.135   0.231   1.702  1.9116  0.0556  0.9022
 1405SOL     OW13936   2.807   9.168   0.255  0.2422  0.2961 -0.2458
 1405SOL    HW113937   2.881   9.222   0.214  1.6061 -1.1411  0.2424
 1405SOL    HW213938   2.784   9.092   0.193  0.4282 -0.3030  0.4156
 1406SOL     OW13939   4.046   5.554   1.704  0.1362 -0.1781  0.2587
 1406SOL    HW113940   4.053   5.457   1.728 -2.9126 -0.5245 -0.0904
 1406SOL    HW213941   4.070   5.610   1.784  0.9116 -1.1931  0.7540
 1408SOL     OW13942   5.068   8.542   1.599 -0.2384  0.0546 -0.1201
 1408SOL    HW113943   5.000   8.615   1.600 -1.6396 -1.2232 -0.1415
 1408SOL    HW213944   5.155   8.578   1.566 -1.3063  1.3811 -1.5940
 1409SOL     OW13945   0.269   1.817   3.072  0.2149 -0.1748  0.2849
 1409SOL    HW113946   0.210   1.872   3.013 -0.7123 -2.1134 -0.6182
 1409SOL    HW213947   0.365   1.845   3.059 -0.1851  0.8195 -0.5850
 1410SOL     OW13948   7.158   6.560   3.439 -0.0143  0.4755 -0.4419
 1410SOL    HW113949   7.222   6.595   3.371  1.1227  0.1908  0.4761
 1410SOL    HW213950   7.172   6.608   3.526 -0.9446  0.3022 -0.1852
 1411SOL     OW13951   3.015   9.560   1.991 -0.2437 -0.1765 -0.3385
 1411SOL    HW113952   3.068   9.545   2.074  0.7909 -3.6282 -1.5072
 1411SOL    HW213953   3.075   9.594   1.918 -0.2886 -0.9581 -0.7499
 1412SOL     OW13954   1.261   7.797   0.064  0.3321  0.0320  0.7074
 1412SOL    HW113955   1.245   7.851   0.146 -0.0772  0.8136  0.1183
 1412SOL    HW213956   1.288   7.858  -0.011  0.0483 -0.6017  0.0909
 1413SOL     OW13957   1.676   8.653   2.281  0.3251 -0.4819  0.3139
 1413SOL    HW113958   1.719   8.686   2.365  0.4247 -2.9824  1.2603
 1413SOL    HW213959   1.711   8.562   2.258 -0.0349 -0.0397 -2.1986
 1414SOL     OW13960   7.985   8.655   0.477 -0.3136 -0.2394 -0.3488
 1414SOL    HW113961   7.993   8.578   0.541  1.3289 -0.1097 -0.3838
 1414SOL    HW213962   7.899   8.646   0.426 -0.4406 -1.7256  0.0805
 1416SOL     OW13963   0.566   7.141   0.798 -0.0500  0.8332 -0.0146
 1416SOL    HW113964   0.566   7.100   0.889  0.2951  1.1748  0.1466
 1416SOL    HW213965   0.492   7.103   0.743 -1.4577  1.9901  1.0273
 1418SOL     OW13966   1.748   1.959   3.315 -0.1064 -0.0105  0.7664
 1418SOL    HW113967   1.740   1.943   3.413 -2.0159 -2.3220  0.2911
 1418SOL    HW213968   1.811   1.892   3.275  0.2021  0.5416  0.3065
 1419SOL     OW13969   1.375   7.722   2.861 -0.3710  0.4832  0.5693
 1419SOL    HW113970   1.368   7.798   2.796  1.4218  1.5571  1.5942
 1419SOL    HW213971   1.460   7.729   2.912  0.6716 -3.2226 -0.4966
 1421SOL     OW13972   1.948   5.883   3.121 -0.5953 -0.0222 -0.0265
 1421SOL    HW113973   2.035   5.832   3.122  0.0314  1.0183 -0.2013
 1421SOL    HW213974   1.882   5.838   3.181 -0.0725 -1.0611 -0.2116
 1422SOL     OW13975   9.031   0.730   1.689 -0.0074 -0.1932 -0.0501
 1422SOL    HW113976   9.005   0.820   1.722  0.6475  0.5131 -1.3896
 1422SOL    HW213977   8.997   0.717   1.595 -0.0929 -1.3345  0.1228
 1423SOL     OW13978   3.425   0.016   3.067 -0.0997  0.0200 -0.6206
 1423SOL    HW113979   3.500  -0.044   3.095  0.4221  1.3333  0.8720
 1423SOL    HW213980   3.358   0.022   3.140 -0.5926  0.5448 -1.1149
 1424SOL     OW13981   2.456   3.416   0.043  0.2131 -0.1127  0.2937
 1424SOL    HW113982   2.496   3.325   0.039 -1.1473 -0.8490  2.4604
 1424SOL    HW213983   2.419   3.440  -0.047  3.2026 -0.4291 -1.0770
 1426SOL     OW13984   2.765   9.982   3.096 -0.7082 -0.5510 -0.4078
 1426SOL    HW113985   2.790   9.941   3.184 -3.6809 -0.0005  0.7757
 1426SOL    HW213986   2.818   9.940   3.023  2.3992 -0.4650  1.7278
 1427SOL     OW13987   3.460   4.622   0.006 -0.6100 -0.7366  0.5954
 1427SOL    HW113988   3.393   4.554  -0.022 -1.0449 -1.1124  2.4838
 1427SOL    HW213989   3.422   4.714  -0.008 -0.2870 -0.8924 -1.3041
 1428SOL     OW13990   0.010   7.528   0.629 -0.2082  0.0565 -0.0773
 1428SOL    HW113991   0.041   7.548   0.536 -0.2075  1.2505  0.1740
 1428SOL    HW213992   0.090   7.516   0.688 -0.2092 -0.7523 -0.2347
 1430SOL     OW13993   1.812   0.765   0.518  0.3948 -0.2533 -0.3800
 1430SOL    HW113994   1.904   0.736   0.547  0.6634 -0.8016 -1.7305
 1430SOL    HW213995   1.795   0.734   0.425 -1.8174 -1.5554  0.4307
 1431SOL     OW13996   7.107   6.676   2.903 -0.8871 -0.0053  0.2327
 1431SOL    HW113997   7.144   6.598   2.853 -1.8007  1.2718 -2.5561
 1431SOL    HW213998   7.007   6.673   2.899 -0.9256  1.9215 -0.9757
 1432SOL     OW13999   4.264   8.543   1.939  0.3361  0.4770 -0.0007
 1432SOL    HW114000   4.312   8.562   2.025  1.3144 -0.3962 -0.3400
 1432SOL    HW214001   4.252   8.627   1.887  0.7279  0.8314  0.4848
 1433SOL     OW14002   9.263   1.784   2.990 -0.3411  0.2115  0.2100
 1433SOL    HW114003   9.308   1.836   3.062 -2.4695  0.6693  1.2600
 1433SOL    HW214004   9.190   1.839   2.949 -0.5584 -0.8180 -0.8308
 1434SOL     OW14005   9.338   4.905   0.533 -0.0924  0.1610 -0.2893
 1434SOL    HW114006   9.416   4.848   0.560  0.1788  0.3982 -0.5612
 1434SOL    HW214007   9.310   4.961   0.611 -1.0437 -1.1062  0.2983
 1435SOL     OW14008   6.511   0.860   2.937 -0.7669 -0.0683 -0.8010
 1435SOL    HW114009   6.411   0.862   2.932 -0.6998  0.7723 -2.2607
 1435SOL    HW214010   6.547   0.839   2.846  0.3421 -2.4881  0.1596
 1436SOL     OW14011   8.777   9.966   3.728 -0.3257 -0.5538  0.0339
 1436SOL    HW114012   8.832   9.939   3.649  0.7028 -2.4320  1.3675
 1436SOL    HW214013   8.836   9.983   3.806 -1.3374  1.3886  0.4080
 1437SOL     OW14014   2.998   4.819   3.365  0.3454  0.4599 -0.4298
 1437SOL    HW114015   3.019   4.887   3.294  0.3994  0.9535  0.0574
 1437SOL    HW214016   2.939   4.748   3.326 -1.3743  1.8543 -0.4442
 1438SOL     OW14017   0.083   5.109   1.816 -0.8147 -0.0455  0.4215
 1438SOL    HW114018   0.006   5.051   1.789 -1.6705  0.6651  1.2854
 1438SOL    HW214019   0.159   5.052   1.846 -1.4409 -0.7341  0.7060
 1439SOL     OW14020   2.097   3.345   1.092 -0.5337 -0.2742  0.1632
 1439SOL    HW114021   2.045   3.423   1.060 -2.6354 -1.0581  1.5337
 1439SOL    HW214022   2.084   3.267   1.030 -0.4417 -0.2737  0.1420
 1440SOL     OW14023   1.198   5.795   0.557  0.1713 -0.2756  0.0767
 1440SOL    HW114024   1.102   5.770   0.566  0.2930 -0.2615  1.4964
 1440SOL    HW214025   1.225   5.853   0.634  0.2544  3.1717 -2.4221
 1441SOL     OW14026   9.377   1.810   3.671  0.0564  0.1862 -0.2805
 1441SOL    HW114027   9.460   1.846   3.715  1.2133  0.2381 -2.4004
 1441SOL    HW214028   9.377   1.711   3.677  0.3637  0.1757 -0.4190
 1443SOL     OW14029   8.453   8.689   0.937 -0.2505 -0.4778 -0.5551
 1443SOL    HW114030   8.461   8.759   0.865  0.6970 -0.7646 -0.7400
 1443SOL    HW214031   8.393   8.616   0.905 -0.5348 -0.1783 -0.7127
 1444SOL     OW14032   8.500   7.920   1.359 -0.1772  0.1117  0.4623
 1444SOL    HW114033   8.537   7.987   1.424 -0.4721  1.7008 -0.9637
 1444SOL    HW214034   8.560   7.914   1.279 -1.8455  1.1544 -0.9209
 1445SOL     OW14035   1.262   0.569   2.496 -0.1117 -0.3382  0.6724
 1445SOL    HW114036   1.340   0.528   2.449 -0.7624 -0.4820 -0.2930
 1445SOL    HW214037   1.192   0.498   2.513 -0.4276 -0.0211  0.7045
 1446SOL     OW14038   2.040   1.348   0.918  0.1049 -0.3922  0.0033
 1446SOL    HW114039   2.044   1.280   0.844  0.6729 -0.1837 -0.1633
 1446SOL    HW214040   1.974   1.419   0.893  0.2587 -0.3478 -0.2838
 1447SOL     OW14041   0.701   9.174   2.722 -0.2222 -0.0774 -0.2164
 1447SOL    HW114042   0.706   9.078   2.692  0.0996 -0.6986  1.7854
 1447SOL    HW214043   0.613   9.212   2.694 -0.3888 -0.9836 -0.9589
 1448SOL     OW14044   8.303   3.741   2.000 -0.0639 -0.5088 -0.4897
 1448SOL    HW114045   8.392   3.698   1.988  0.5985  1.0547 -1.3212
 1448SOL    HW214046   8.235   3.694   1.944  0.1558 -1.8870  0.3710
 1449SOL     OW14047   2.359   5.524   0.931  0.2568  0.5339 -0.2459
 1449SOL    HW114048   2.261   5.540   0.918 -0.0196 -0.9449  0.0009
 1449SOL    HW214049   2.396   5.478   0.851  0.6626  0.6675 -0.1364
 1450SOL     OW14050   0.492   0.123   3.561  0.4375 -0.2230 -0.1001
 1450SOL    HW114051   0.560   0.108   3.490  0.0333 -2.3990 -0.0449
 1450SOL    HW214052   0.534   0.110   3.651  0.6690  1.4052  0.0392
 1452SOL     OW14053   6.627   7.296   3.073  0.0854  0.0275 -0.3801
 1452SOL    HW114054   6.673   7.217   3.033  0.8114 -0.1903  0.8483
 1452SOL    HW214055   6.695   7.364   3.100 -0.4682  0.6444 -0.5231
 1453SOL     OW14056   9.884   5.537   3.115 -0.5287  0.0447  0.3105
 1453SOL    HW114057   9.947   5.579   3.050 -1.5797  1.0652 -0.0696
 1453SOL    HW214058   9.849   5.451   3.077  0.6151 -0.5325  0.5269
 1454SOL     OW14059   3.711   7.601   1.849  0.1336 -0.2121  0.1856
 1454SOL    HW114060   3.672   7.689   1.877  0.9671  0.0329  0.5971
 1454SOL    HW214061   3.657   7.562   1.775  0.6177  1.3365 -0.9816
 1455SOL     OW14062   4.267   1.907   2.338 -0.1635  0.1229  0.1865
 1455SOL    HW114063   4.309   1.821   2.364  0.2487  0.0720 -0.6255
 1455SOL    HW214064   4.312   1.983   2.385  1.1644  0.1116 -1.0414
 1456SOL     OW14065   2.455   3.073   3.687  0.5140 -0.2663 -0.2872
 1456SOL    HW114066   2.460   3.122   3.774  0.2311 -0.8994  0.0796
 1456SOL    HW214067   2.514   3.119   3.620 -0.3672  1.0620 -0.1751
 1457SOL     OW14068   5.897   7.894   3.059  0.4864  0.2218 -0.0249
 1457SOL    HW114069   5.925   7.827   2.990  1.0937 -1.1099  1.5019
 1457SOL    HW214070   5.934   7.984   3.035  1.2446 -0.3625 -1.0814
 1458SOL     OW14071   3.447   0.392   3.312 -0.2660  0.1086 -0.1992
 1458SOL    HW114072   3.455   0.418   3.216  1.5266  1.2921  0.2418
 1458SOL    HW214073   3.478   0.297   3.322 -2.4464 -0.7332 -1.0853
 1459SOL     OW14074   7.842   6.603   3.010  0.4116 -0.1786  0.1133
 1459SOL    HW114075   7.783   6.645   2.941  0.3200 -0.7965 -0.1798
 1459SOL    HW214076   7.841   6.660   3.093 -0.8370 -0.3475  0.2219
 1460SOL     OW14077   4.334   1.050   0.404 -0.4161 -0.1740 -0.4859
 1460SOL    HW114078   4.332   1.006   0.314  0.3842 -1.3978  0.0869
 1460SOL    HW214079   4.409   1.116   0.408  1.1212 -1.9543  0.1304
 1462SOL     OW14080   8.715   9.535   2.017  0.2335 -0.2924  0.2389
 1462SOL    HW114081   8.815   9.541   2.019  0.1646  1.1032  0.8100
 1462SOL    HW214082   8.679   9.603   1.953 -0.2777 -2.1551 -1.4668
 1463SOL     OW14083   9.611   8.006   1.272  0.5578  0.7556 -0.7083
 1463SOL    HW114084   9.703   8.023   1.236 -0.0900 -1.2805 -3.5548
 1463SOL    HW214085   9.611   7.921   1.325  0.5651  1.4274  0.3801
 1464SOL     OW14086   2.926   1.953   0.063 -0.0331  0.1375  0.0545
 1464SOL    HW114087   2.898   1.859   0.081  0.5927  0.1965  1.4471
 1464SOL    HW214088   2.980   1.956  -0.021  2.3161 -1.2478  1.4324
 1465SOL     OW14089   1.463   8.536   2.062 -0.3676  0.2210  0.1510
 1465SOL    HW114090   1.442   8.508   2.155 -1.7287  1.9537  0.3700
 1465SOL    HW214091   1.562   8.527   2.046 -0.4068 -2.2469  0.9962
 1466SOL     OW14092   1.153   3.105   1.794 -0.3358  0.1458  0.1096
 1466SOL    HW114093   1.069   3.068   1.834  0.0495 -1.0625 -0.1674
 1466SOL    HW214094   1.133   3.191   1.747 -0.9992  0.9930  1.9206
 1467SOL     OW14095   2.933   8.924   0.590  0.1496  0.2849 -0.2203
 1467SOL    HW114096   3.007   8.887   0.533  0.5314 -1.1409  1.1849
 1467SOL    HW214097   2.878   8.850   0.627 -0.8418  1.2567  0.2843
 1469SOL     OW14098   3.305   0.054   1.509 -0.1254  0.6848 -0.2496
 1469SOL    HW114099   3.377   0.034   1.443 -0.7402 -2.0766 -0.1341
 1469SOL    HW214100   3.340   0.039   1.602 -0.1817  1.5671 -0.0818
 1470SOL     OW14101   8.847   0.719   2.676 -0.2667  0.0777  0.0854
 1470SOL    HW114102   8.876   0.627   2.649  1.5156  0.0897  1.8149
 1470SOL    HW214103   8.922   0.764   2.724 -1.0517  2.5193 -0.8974
 1472SOL     OW14104   5.201   2.266   1.144  0.4420  0.1373 -0.0594
 1472SOL    HW114105   5.251   2.261   1.230  1.0373  0.2248 -0.3950
 1472SOL    HW214106   5.191   2.362   1.117 -1.0533  0.2035  0.6615
 1473SOL     OW14107   0.162   1.899   0.680 -0.4117  0.2410  0.3666
 1473SOL    HW114108   0.071   1.898   0.639 -0.1440 -1.5394 -0.2227
 1473SOL    HW214109   0.200   1.991   0.675 -1.2398  0.4948 -1.4791
 1474SOL     OW14110   0.111   7.409   3.526  0.4335 -0.4347  0.0733
 1474SOL    HW114111   0.160   7.430   3.442  1.6516  1.1337  1.1659
 1474SOL    HW214112   0.128   7.313   3.551  1.0193 -0.5692 -0.8161
 1475SOL     OW14113   1.830   1.460   3.240  0.0571 -0.3810  0.1827
 1475SOL    HW114114   1.854   1.414   3.326  1.0481 -0.8379 -0.3322
 1475SOL    HW214115   1.895   1.533   3.221 -0.6873  0.3162  0.2692
 1476SOL     OW14116   3.877   9.147   2.153  0.3133  0.0757  0.2557
 1476SOL    HW114117   3.875   9.209   2.231  0.8293 -0.4458  0.6916
 1476SOL    HW214118   3.896   9.198   2.069 -1.2710  0.7822  0.3183
 1479SOL     OW14119   8.922   3.318   2.596  0.5200 -0.1791 -0.2518
 1479SOL    HW114120   8.840   3.284   2.641  0.2905 -2.1657 -2.0415
 1479SOL    HW214121   8.897   3.377   2.519  0.8738  2.1805  1.4106
 1480SOL     OW14122   1.820   2.667   2.427 -0.0132 -0.0592  0.3746
 1480SOL    HW114123   1.739   2.623   2.387 -0.5818 -0.2463  1.7069
 1480SOL    HW214124   1.841   2.625   2.515  1.4766  0.0704  0.0884
 1483SOL     OW14125   2.209   1.845   0.790 -0.2356 -0.6960  0.3915
 1483SOL    HW114126   2.151   1.864   0.711  0.7646  0.5154 -0.0923
 1483SOL    HW214127   2.273   1.772   0.767 -1.2276 -1.6893  0.7571
 1484SOL     OW14128   1.199   6.710   1.881  0.1505  0.4622  0.5555
 1484SOL    HW114129   1.244   6.717   1.971  0.8859  0.3411  0.1973
 1484SOL    HW214130   1.183   6.614   1.859  0.0753  0.4873  0.5004
 1485SOL     OW14131   3.146   0.653   0.312  0.1171  0.1738 -0.4849
 1485SOL    HW114132   3.120   0.617   0.222 -0.2882  1.2821 -0.8183
 1485SOL    HW214133   3.109   0.593   0.383  0.7155 -0.8882 -1.0570
 1486SOL     OW14134   2.311   6.235   1.073  0.4450 -0.0273  0.2704
 1486SOL    HW114135   2.295   6.277   0.984  3.5468  0.0511 -0.2914
 1486SOL    HW214136   2.233   6.254   1.133 -1.5685  0.1186 -2.3192
 1487SOL     OW14137   1.786   7.520   3.551 -0.2106 -0.0570 -0.2103
 1487SOL    HW114138   1.765   7.476   3.638 -0.4469  0.8609  0.1966
 1487SOL    HW214139   1.706   7.516   3.491 -0.7845  1.3014  0.4492
 1488SOL     OW14140   5.445   7.698   2.916  0.5925 -0.2544 -0.1032
 1488SOL    HW114141   5.532   7.684   2.870  0.4642  0.5417 -0.6092
 1488SOL    HW214142   5.404   7.784   2.884 -0.3877 -0.6371  0.1012
 1489SOL     OW14143   0.504   4.524   1.694  0.1817 -0.2197 -0.2763
 1489SOL    HW114144   0.545   4.468   1.622 -0.0406  0.2599 -0.7807
 1489SOL    HW214145   0.554   4.610   1.701  0.5709 -0.5053  0.5494
 1490SOL     OW14146   7.238   7.271   2.639  0.1510 -0.4549 -0.1059
 1490SOL    HW114147   7.330   7.310   2.640  0.4322 -1.1293  0.8206
 1490SOL    HW214148   7.241   7.180   2.598 -0.0794 -0.5560  0.1057
 1491SOL     OW14149   1.755   0.349   0.171 -0.1724  0.0542  0.0920
 1491SOL    HW114150   1.664   0.313   0.152 -0.5325  1.4329 -0.8304
 1491SOL    HW214151   1.799   0.293   0.242 -0.9095 -1.8937 -0.9527
 1492SOL     OW14152   9.675   4.290   0.799  0.4249 -0.2665 -0.2387
 1492SOL    HW114153   9.615   4.370   0.793 -0.8768 -1.3357 -1.8685
 1492SOL    HW214154   9.620   4.207   0.806  1.7329 -1.1698 -0.4449
 1493SOL     OW14155   7.950   7.366   1.697 -0.5336 -0.4763 -0.1951
 1493SOL    HW114156   7.958   7.291   1.631  0.4215 -0.5405 -0.0141
 1493SOL    HW214157   8.037   7.416   1.700 -1.1002  0.5042 -0.1570
 1494SOL     OW14158   4.046   3.147   2.612 -0.6145 -0.0800 -0.4825
 1494SOL    HW114159   4.118   3.090   2.652 -0.8113 -0.1155 -0.1721
 1494SOL    HW214160   3.961   3.133   2.663 -0.8210  0.0208 -0.7989
 1495SOL     OW14161   4.200   2.882   2.579 -0.7652  0.3854 -0.2637
 1495SOL    HW114162   4.260   2.829   2.639 -2.3727 -1.2534 -0.0569
 1495SOL    HW214163   4.254   2.947   2.526  0.9034  0.5061  1.5599
 1496SOL     OW14164   1.434   6.983   1.438  0.4757  0.7583 -0.1444
 1496SOL    HW114165   1.399   7.076   1.441 -0.9273  0.3300 -2.0943
 1496SOL    HW214166   1.380   6.925   1.499 -0.1968  0.7431 -0.7503
 1498SOL     OW14167   3.621   6.033   2.539  0.1029  0.4625  0.2439
 1498SOL    HW114168   3.573   5.957   2.497 -1.6721  1.0064  1.2422
 1498SOL    HW214169   3.606   6.116   2.485  0.8201  0.4264 -0.0248
 1499SOL     OW14170   3.280   1.409   0.044 -0.7848  0.4869 -0.3504
 1499SOL    HW114171   3.355   1.457   0.090 -1.7363  2.0958 -0.4409
 1499SOL    HW214172   3.196   1.420   0.097 -0.8829 -1.6072 -0.0664
 1500SOL     OW14173   9.407   1.361   0.069 -0.0964 -0.4432  0.0009
 1500SOL    HW114174   9.384   1.377   0.165 -0.0828  0.1748 -0.1000
 1500SOL    HW214175   9.500   1.393   0.050 -0.7635  1.1469 -0.6569
 1501SOL     OW14176   1.034   5.701   2.881  0.8316  0.2159  0.2143
 1501SOL    HW114177   1.059   5.659   2.968  1.1228 -0.0628 -0.0010
 1501SOL    HW214178   1.102   5.771   2.857  0.1006  1.1373  0.7964
 1502SOL     OW14179   7.487   1.513   2.782  0.8041  0.1866 -0.1767
 1502SOL    HW114180   7.514   1.602   2.746 -1.5428  0.4011 -1.5359
 1502SOL    HW214181   7.436   1.525   2.867 -1.2446  0.3162 -1.3960
 1503SOL     OW14182   8.455   3.186   2.399 -0.8417  0.4412  0.5212
 1503SOL    HW114183   8.522   3.116   2.423  0.1756  1.6204  1.1707
 1503SOL    HW214184   8.452   3.197   2.299  0.6868  1.0903  0.5275
 1504SOL     OW14185   7.718   7.481   2.365  0.8112  0.1956 -0.0319
 1504SOL    HW114186   7.671   7.519   2.285 -1.6771 -0.9111  0.8735
 1504SOL    HW214187   7.662   7.493   2.446  0.7782 -3.6426  0.6046
 1505SOL     OW14188   2.426   8.998   0.546 -0.0255  0.1050 -0.0555
 1505SOL    HW114189   2.524   9.010   0.531 -0.5143  2.2424 -1.7970
 1505SOL    HW214190   2.403   8.901   0.540  1.6421 -0.2140 -1.7581
 1506SOL     OW14191   2.297   2.241   2.713  0.2167  0.0737  0.3627
 1506SOL    HW114192   2.284   2.142   2.703  1.7050  0.0605 -1.8476
 1506SOL    HW214193   2.379   2.259   2.767  0.2296  0.1047  0.3327
 1507SOL     OW14194   0.230   6.424   0.489  0.5542  0.4843 -0.1656
 1507SOL    HW114195   0.306   6.486   0.471  0.1191  0.5347 -1.9612
 1507SOL    HW214196   0.164   6.469   0.550  0.6177  1.5054 -0.8286
 1508SOL     OW14197   7.699   1.978   3.519  0.0653 -0.0578  0.1533
 1508SOL    HW114198   7.760   1.966   3.441  1.0500  0.5585  0.8201
 1508SOL    HW214199   7.691   2.076   3.541  0.2265 -0.2629  1.1599
 1509SOL     OW14200   2.976   7.024   2.123 -0.1025  0.0270  0.5279
 1509SOL    HW114201   2.929   7.047   2.208  0.6987  2.9699  0.2403
 1509SOL    HW214202   3.068   6.991   2.143 -0.2254 -0.1214  0.8422
 1511SOL     OW14203   7.454   0.151   1.964 -0.2087 -0.1912 -0.0809
 1511SOL    HW114204   7.466   0.163   2.063  0.0722 -0.7566 -0.0418
 1511SOL    HW214205   7.492   0.062   1.937 -0.2418 -0.0137 -0.7068
 1512SOL     OW14206   0.605   5.929   2.895  0.6043  0.0110 -0.5444
 1512SOL    HW114207   0.692   5.977   2.908  0.9808 -0.8773  0.2425
 1512SOL    HW214208   0.546   5.983   2.834  1.4831  0.8879 -0.6299
 1513SOL     OW14209   2.791   0.789   2.322 -0.0264  0.7680 -0.4480
 1513SOL    HW114210   2.786   0.696   2.286  0.5988  0.6645 -0.2665
 1513SOL    HW214211   2.803   0.854   2.247  1.4083  0.5435 -0.4302
 1514SOL     OW14212   6.613   0.254   3.303 -0.0097 -0.0700 -0.6452
 1514SOL    HW114213   6.662   0.255   3.389 -0.3199  0.1120 -0.4699
 1514SOL    HW214214   6.518   0.227   3.318  0.4950 -2.2755 -1.2374
 1515SOL     OW14215   9.363   2.504   2.887  0.1175  0.0481 -0.1371
 1515SOL    HW114216   9.431   2.435   2.909 -0.2958 -0.0242  0.9549
 1515SOL    HW214217   9.386   2.548   2.800  1.5293 -0.0048  0.2056
 1517SOL     OW14218   8.051   5.548   0.049  0.3316 -0.0158  0.8323
 1517SOL    HW114219   8.136   5.598   0.063  0.2377  0.2077  0.5995
 1517SOL    HW214220   7.986   5.573   0.122 -0.1381  1.1162  0.0373
 1518SOL     OW14221   2.355   2.488   0.109  0.2412 -0.4649  0.4333
 1518SOL    HW114222   2.300   2.517   0.031  1.3030 -0.2237 -0.2312
 1518SOL    HW214223   2.325   2.538   0.191 -0.2332 -0.0167 -0.0057
 1519SOL     OW14224   2.679   2.615   1.547  0.4415  0.1499 -0.3899
 1519SOL    HW114225   2.770   2.576   1.563  0.6420  0.0987 -1.6199
 1519SOL    HW214226   2.669   2.698   1.602  0.7493 -0.5283  0.7218
 1521SOL     OW14227   4.757   1.149   2.481 -0.3450  0.0689  0.3358
 1521SOL    HW114228   4.725   1.062   2.443  2.9943 -0.4462 -1.4751
 1521SOL    HW214229   4.807   1.131   2.566  1.3214  0.0362 -0.6221
 1522SOL     OW14230   3.566   2.871   2.830  0.4568 -0.2808 -0.7830
 1522SOL    HW114231   3.600   2.866   2.924  0.7780 -1.1436 -0.9418
 1522SOL    HW214232   3.545   2.966   2.807  0.8933  0.0031 -0.0179
 1523SOL     OW14233   1.798   0.221   2.323  0.4380 -0.0358  0.0516
 1523SOL    HW114234   1.733   0.160   2.277 -0.6279  1.7427 -0.8833
 1523SOL    HW214235   1.749   0.277   2.390  0.8165  1.8105 -1.1394
 1524SOL     OW14236   9.253   5.226   0.447  0.3909  0.5247 -0.1417
 1524SOL    HW114237   9.245   5.144   0.392  1.7990  0.8218 -0.8202
 1524SOL    HW214238   9.165   5.247   0.490 -0.7237  0.2929 -2.2677
 1525SOL     OW14239   8.191   7.304   3.309  0.3224 -0.4999 -0.3095
 1525SOL    HW114240   8.254   7.382   3.307  0.9475 -0.9427  1.0763
 1525SOL    HW214241   8.143   7.302   3.397 -1.1002 -0.5914 -1.0701
 1527SOL     OW14242   8.795   1.146   1.096 -0.1979  0.1933  0.1067
 1527SOL    HW114243   8.789   1.140   0.996 -0.9737  0.4249  0.1376
 1527SOL    HW214244   8.731   1.215   1.129  1.3300  1.3817  0.6183
 1528SOL     OW14245   7.523   1.809   2.177  0.2011 -0.2025  0.5498
 1528SOL    HW114246   7.425   1.798   2.195  0.2701 -2.0387 -0.0482
 1528SOL    HW214247   7.536   1.869   2.098 -0.4924 -0.5774  0.1445
 1530SOL     OW14248   2.068   9.920   0.988  0.5642  0.6131  0.6726
 1530SOL    HW114249   1.978   9.876   0.987  0.5560  0.6394  0.2723
 1530SOL    HW214250   2.129   9.870   1.050  0.9799 -0.8089 -0.8637
 1531SOL     OW14251   2.035   7.887   0.970  0.2190 -0.1710 -0.3864
 1531SOL    HW114252   1.964   7.938   0.923 -0.7190 -0.6827  0.4500
 1531SOL    HW214253   2.035   7.792   0.937  1.9103  0.3338 -1.8903
 1533SOL     OW14254   7.567   9.854   0.267 -0.0460  0.0420  0.0908
 1533SOL    HW114255   7.613   9.871   0.354 -1.3600 -1.7014  1.1607
 1533SOL    HW214256   7.635   9.851   0.194  1.0514  1.6625  1.0164
 1534SOL     OW14257   8.431   2.022   2.293  0.1198 -0.0151 -0.2711
 1534SOL    HW114258   8.487   1.979   2.223  1.1607  1.3390 -0.2956
 1534SOL    HW214259   8.472   2.109   2.321 -0.8006 -0.0468  1.3060
 1535SOL     OW14260   2.792   3.401   0.950 -0.1728  0.6019 -0.2139
 1535SOL    HW114261   2.860   3.400   0.876 -0.1437  2.8332 -0.2590
 1535SOL    HW214262   2.714   3.457   0.923 -1.1045 -0.2594  0.6543
 1536SOL     OW14263   1.943   7.809   0.096 -0.3186  0.6444 -0.6697
 1536SOL    HW114264   1.922   7.715   0.070 -1.3790  0.3784  1.1148
 1536SOL    HW214265   1.906   7.872   0.028  0.0828 -0.2026 -1.6772
 1537SOL     OW14266   1.333   7.021   2.078  0.1182  0.1028 -0.2409
 1537SOL    HW114267   1.419   6.978   2.051  0.3736  0.2158  0.3697
 1537SOL    HW214268   1.269   7.021   2.001 -0.0971 -1.9039 -0.0915
 1538SOL     OW14269   7.645   1.472   2.536 -0.6620  0.3557 -0.4687
 1538SOL    HW114270   7.655   1.516   2.446  2.3332  0.4054 -0.1401
 1538SOL    HW214271   7.598   1.535   2.597 -0.5343  1.2956 -1.3163
 1539SOL     OW14272   3.755   8.732   1.781  0.0610  0.0250  0.4469
 1539SOL    HW114273   3.751   8.677   1.697 -0.0748  0.0123  0.4617
 1539SOL    HW214274   3.738   8.672   1.860 -0.1482  0.0994  0.4583
 1540SOL     OW14275   0.002   4.195   2.647  0.4847 -0.1030 -0.4121
 1540SOL    HW114276  -0.067   4.138   2.603 -0.2747  0.9824 -0.6559
 1540SOL    HW214277   0.050   4.249   2.578 -1.6138  2.5941  0.1260
 1542SOL     OW14278   0.509   9.799   2.378  0.2150 -0.3271  0.2701
 1542SOL    HW114279   0.454   9.718   2.398  0.5318 -0.0097  2.5812
 1542SOL    HW214280   0.501   9.864   2.453  4.5281 -0.6924  1.1868
 1543SOL     OW14281   1.959   8.667   1.163 -0.1003  0.1892 -0.2993
 1543SOL    HW114282   1.994   8.625   1.247 -1.9854 -0.1495  0.3290
 1543SOL    HW214283   1.957   8.599   1.090 -1.2091 -0.2905  0.1703
 1544SOL     OW14284   7.731   2.211   0.633  0.1706  0.1356 -1.3073
 1544SOL    HW114285   7.757   2.139   0.698  0.2725  0.6111 -0.8095
 1544SOL    HW214286   7.640   2.193   0.598 -1.0001  1.2396  0.9987
 1545SOL     OW14287   4.757   7.057   2.972  0.3673  0.2494  0.4154
 1545SOL    HW114288   4.763   6.983   2.906 -2.3595 -1.0035  1.4989
 1545SOL    HW214289   4.837   7.117   2.962  1.6563 -1.7320 -1.7462
 1546SOL     OW14290   9.757   7.361   3.679  0.0923  0.3946 -0.0527
 1546SOL    HW114291   9.800   7.430   3.621  0.4544  0.8074  0.6964
 1546SOL    HW214292   9.674   7.327   3.634 -0.7087  2.1273  0.0557
 1549SOL     OW14293   1.747   6.216   1.173 -0.5681  0.3209 -0.4500
 1549SOL    HW114294   1.660   6.172   1.195  0.9990 -2.5145  0.3246
 1549SOL    HW214295   1.799   6.232   1.257  0.9251 -0.7900 -1.1348
 1550SOL     OW14296   4.204   3.321   1.815 -0.3142 -0.3251  0.6928
 1550SOL    HW114297   4.248   3.255   1.876 -0.9505 -0.6007  0.8580
 1550SOL    HW214298   4.105   3.313   1.822 -0.4167 -1.3460 -1.4253
 1551SOL     OW14299   1.241   5.310   0.419 -0.1996  1.0887 -0.0133
 1551SOL    HW114300   1.286   5.243   0.360 -0.0222  1.0892  0.1183
 1551SOL    HW214301   1.272   5.296   0.513 -1.3294  0.3651  0.2593
 1552SOL     OW14302   5.202   1.643   3.067 -0.2051  0.0759  0.4268
 1552SOL    HW114303   5.112   1.654   3.110 -0.7343 -0.9902 -0.3931
 1552SOL    HW214304   5.195   1.663   2.970  0.3425 -0.4946  0.2671
 1553SOL     OW14305   4.460   2.810   0.500 -0.0600 -0.0822 -0.1324
 1553SOL    HW114306   4.424   2.717   0.501 -0.2361 -0.0261 -0.6697
 1553SOL    HW214307   4.448   2.849   0.408 -0.1152  0.5145  0.1242
 1554SOL     OW14308   9.186   7.505   3.705  0.3403  0.1906  0.4125
 1554SOL    HW114309   9.225   7.488   3.615 -0.6154 -0.6157  0.1368
 1554SOL    HW214310   9.109   7.569   3.697  0.3913  0.2882  0.6821
 1556SOL     OW14311   8.854   0.537   1.855  0.0302  0.2860 -0.7905
 1556SOL    HW114312   8.878   0.501   1.946 -0.3227 -0.1020 -0.8456
 1556SOL    HW214313   8.881   0.633   1.849 -0.5783  0.5111 -0.0246
 1557SOL     OW14314   3.612   8.629   0.603 -0.1667 -0.0553  0.5129
 1557SOL    HW114315   3.535   8.612   0.665 -1.8199  0.5091 -1.3497
 1557SOL    HW214316   3.588   8.703   0.540  2.1162  0.4907  0.2661
 1558SOL     OW14317   0.305   5.618   0.889  0.3486  0.1082  0.3619
 1558SOL    HW114318   0.306   5.710   0.849  1.4024  0.4537  1.1543
 1558SOL    HW214319   0.359   5.617   0.973 -0.9407 -0.8741  1.2147
 1560SOL     OW14320   2.520   4.493   1.478  0.0858  0.6750 -0.1904
 1560SOL    HW114321   2.614   4.494   1.511  0.7676  2.5939 -2.0252
 1560SOL    HW214322   2.518   4.459   1.384 -1.4412 -1.9782  0.7501
 1561SOL     OW14323   8.870   4.402   2.287  0.3562  0.0695 -0.0342
 1561SOL    HW114324   8.892   4.357   2.201 -1.2538  0.6111 -0.7542
 1561SOL    HW214325   8.780   4.445   2.280  0.3568  0.4192  1.8018
 1563SOL     OW14326   2.836   0.200   1.724  0.0702 -0.1853  0.6656
 1563SOL    HW114327   2.929   0.164   1.732  0.5692  0.9207 -0.0731
 1563SOL    HW214328   2.823   0.239   1.633 -1.4002 -1.1089  0.4652
 1564SOL     OW14329   0.551   4.996   1.151  0.3609 -0.2828 -0.4909
 1564SOL    HW114330   0.515   5.088   1.141  0.2261 -0.1491  1.0723
 1564SOL    HW214331   0.484   4.939   1.200  0.0992 -1.4361 -2.1275
 1565SOL     OW14332   4.853   3.660   0.841 -0.1755 -0.1069 -0.1482
 1565SOL    HW114333   4.919   3.586   0.827 -0.2118  0.2063 -2.1237
 1565SOL    HW214334   4.856   3.723   0.763 -3.5222 -0.6518 -0.8213
 1566SOL     OW14335   5.012   1.651   2.244 -0.3100 -0.1183 -0.2001
 1566SOL    HW114336   4.952   1.588   2.196  0.1132 -1.7644  1.3871
 1566SOL    HW214337   4.958   1.710   2.303 -0.5466 -0.2086 -0.3249
 1567SOL     OW14338   3.465   7.540   0.616  0.1583 -0.2580 -0.3298
 1567SOL    HW114339   3.480   7.442   0.605  0.6530  0.0746 -3.0025
 1567SOL    HW214340   3.383   7.567   0.565 -0.8291  0.4933  1.5960
 1569SOL     OW14341   8.994   8.235   1.121  0.3841 -0.1937  0.4552
 1569SOL    HW114342   8.897   8.226   1.142  0.4431  0.8405  1.2231
 1569SOL    HW214343   9.012   8.200   1.030 -0.6187 -0.9055  0.5265
 1570SOL     OW14344   2.546   8.145   1.233 -0.2814 -0.1191  0.1903
 1570SOL    HW114345   2.590   8.103   1.312  0.0464  1.3370  0.7979
 1570SOL    HW214346   2.591   8.232   1.212 -0.6676 -0.2712 -1.3078
 1571SOL     OW14347   3.675   7.606   3.512 -0.2753 -0.0971  1.2045
 1571SOL    HW114348   3.727   7.629   3.430 -0.7761  1.9127  1.4371
 1571SOL    HW214349   3.719   7.529   3.558  1.1102  0.0081  0.0868
 1572SOL     OW14350   1.339   7.092   0.155 -0.1780 -0.2618 -0.9363
 1572SOL    HW114351   1.425   7.129   0.119  0.1071 -0.1346 -0.1166
 1572SOL    HW214352   1.271   7.090   0.082 -0.2435  1.9855 -0.9522
 1573SOL     OW14353   3.069   6.510   3.528  0.1960  0.0044 -0.0310
 1573SOL    HW114354   3.005   6.442   3.491 -2.1636  2.1881 -0.0341
 1573SOL    HW214355   3.162   6.484   3.502 -0.9016 -1.5962 -2.6403
 1575SOL     OW14356   5.253   9.552   2.515  0.0429 -0.0946  0.1913
 1575SOL    HW114357   5.312   9.540   2.595  0.4753  0.8414  0.0195
 1575SOL    HW214358   5.266   9.643   2.477  0.5946 -0.8893 -1.5679
 1576SOL     OW14359   8.407   1.786   0.326  0.6077  0.3597 -0.4421
 1576SOL    HW114360   8.492   1.835   0.344  1.1605 -1.1566  1.1350
 1576SOL    HW214361   8.394   1.714   0.394 -1.4258 -0.1008 -1.2742
 1578SOL     OW14362   4.161   2.243   2.271  0.2530 -0.5380 -0.5362
 1578SOL    HW114363   4.172   2.254   2.370  0.1398  0.3129 -0.6171
 1578SOL    HW214364   4.216   2.165   2.240  3.1687  1.3739 -0.3707
 1579SOL     OW14365   3.178   1.666   2.299 -0.0965  0.1845  0.3257
 1579SOL    HW114366   3.100   1.607   2.322  0.2580 -0.2914  0.3103
 1579SOL    HW214367   3.263   1.620   2.323  0.2080  0.4251 -0.2823
 1582SOL     OW14368   4.444   7.954   3.521 -0.0983  0.5412 -0.0783
 1582SOL    HW114369   4.512   8.000   3.464 -0.4869  1.1574 -0.0558
 1582SOL    HW214370   4.354   7.995   3.504 -0.2968  0.3875  0.6054
 1583SOL     OW14371   5.153   1.003   2.581 -0.4540  0.0564 -0.0732
 1583SOL    HW114372   5.096   1.021   2.661 -0.2594 -0.3791  0.1637
 1583SOL    HW214373   5.095   0.978   2.504 -0.7656  2.0623 -0.5199
 1584SOL     OW14374   7.093   9.019   2.190  0.2074  0.2631 -0.2577
 1584SOL    HW114375   7.086   9.113   2.224 -2.9184  0.1187 -0.3814
 1584SOL    HW214376   7.169   8.973   2.235  0.9803  2.4524  0.7452
 1585SOL     OW14377   3.392   1.124   0.367 -0.0742 -0.3811  0.2881
 1585SOL    HW114378   3.395   1.034   0.410 -0.7611 -0.8497 -0.6188
 1585SOL    HW214379   3.316   1.128   0.302  1.2876  0.0897 -1.3347
 1586SOL     OW14380   2.264   5.690   0.146 -0.4997 -0.1779  0.3507
 1586SOL    HW114381   2.314   5.751   0.085 -1.3951 -0.8633 -1.1112
 1586SOL    HW214382   2.187   5.739   0.187  0.0282  0.2523  0.8217
 1587SOL     OW14383   0.786   2.413   3.209  0.1236  0.0892  0.2452
 1587SOL    HW114384   0.819   2.339   3.150  1.3582  1.5690 -0.9272
 1587SOL    HW214385   0.845   2.421   3.289  1.1025  1.0264 -0.5604
 1588SOL     OW14386   0.068   6.492   1.822  0.7487  0.4404  0.2291
 1588SOL    HW114387   0.164   6.473   1.805  0.2353 -0.6919 -1.5428
 1588SOL    HW214388   0.048   6.480   1.919  2.2090 -0.1906  0.4577
 1590SOL     OW14389   8.517   9.388   3.303 -0.1545 -0.7338  0.0369
 1590SOL    HW114390   8.514   9.295   3.340 -0.5142 -0.3938  0.8742
 1590SOL    HW214391   8.424   9.426   3.301 -0.2573 -1.0353 -1.9759
 1591SOL     OW14392   2.613   1.613   1.984  0.1385 -0.0964 -0.0468
 1591SOL    HW114393   2.668   1.531   1.994  1.8816  1.1766  1.0978
 1591SOL    HW214394   2.592   1.629   1.888  2.9491  0.1315 -0.6506
 1593SOL     OW14395   3.041   3.772   0.364  0.0422  0.3591  0.4414
 1593SOL    HW114396   3.138   3.779   0.387  0.3678  0.5092 -0.9459
 1593SOL    HW214397   2.992   3.850   0.403  0.6920  0.9523  0.0865
 1594SOL     OW14398   3.862   2.860   3.487  0.2189  0.6670 -0.3411
 1594SOL    HW114399   3.934   2.824   3.547  0.0612  0.1753 -0.4448
 1594SOL    HW214400   3.867   2.813   3.399 -2.1746 -1.5557  0.6623
 1595SOL     OW14401   1.383   3.416   3.099 -0.0805  0.3059  0.0466
 1595SOL    HW114402   1.437   3.487   3.053 -0.0500  0.3860  0.2060
 1595SOL    HW214403   1.431   3.328   3.091 -0.5763  0.1188 -0.9695
 1598SOL     OW14404   2.537   5.189   2.003 -0.0675  0.2449 -0.0252
 1598SOL    HW114405   2.591   5.218   1.924 -1.2394  0.6723 -0.6726
 1598SOL    HW214406   2.559   5.246   2.082  1.8847 -0.8555  0.2560
 1599SOL     OW14407   2.499   0.639   2.985  0.9355 -0.3502  0.1017
 1599SOL    HW114408   2.580   0.681   2.946  0.0145  2.0657  0.6932
 1599SOL    HW214409   2.525   0.569   3.051  2.5684  1.4884  1.4496
 1600SOL     OW14410   7.868   3.206   1.018 -0.1640 -0.0591  0.1051
 1600SOL    HW114411   7.829   3.168   0.934  0.9635 -0.7190 -0.1253
 1600SOL    HW214412   7.865   3.137   1.090  1.0286 -0.2969 -0.0572
 1601SOL     OW14413   0.022   8.656   1.740 -0.4076 -0.0379 -0.1971
 1601SOL    HW114414  -0.051   8.643   1.807  0.0544 -0.6319  0.1922
 1601SOL    HW214415  -0.015   8.648   1.648 -0.9843  0.4521 -0.0106
 1602SOL     OW14416   5.344   8.112   3.548 -0.0352 -0.0298  0.3715
 1602SOL    HW114417   5.288   8.038   3.585 -0.1513  0.3301  0.9328
 1602SOL    HW214418   5.357   8.182   3.619  2.1932 -0.7021  0.6773
 1603SOL     OW14419   6.127   8.297   3.197  0.2449  0.3711  0.7448
 1603SOL    HW114420   6.123   8.205   3.236  0.4724  0.2845  0.5613
 1603SOL    HW214421   6.215   8.309   3.150 -0.3371  0.2268 -0.3803
 1604SOL     OW14422   3.805   9.892   2.067 -0.8872 -0.1419 -0.3130
 1604SOL    HW114423   3.804   9.991   2.052 -1.1621 -0.1062 -0.0669
 1604SOL    HW214424   3.711   9.859   2.075 -0.8000 -0.4418 -0.5218
 1605SOL     OW14425   0.355   4.547   0.529  0.9755  0.4581 -0.3044
 1605SOL    HW114426   0.265   4.561   0.571  0.8293 -0.3936 -0.3302
 1605SOL    HW214427   0.419   4.514   0.598  0.3845 -2.3057 -0.9978
 1607SOL     OW14428   6.519   7.962   1.753  0.2467 -0.7403  0.5171
 1607SOL    HW114429   6.614   7.954   1.785  1.0172 -0.5697 -1.6321
 1607SOL    HW214430   6.466   7.885   1.787  1.2447 -1.0418  1.4346
 1608SOL     OW14431   0.179   3.440   0.162 -0.2324  0.0671 -0.1516
 1608SOL    HW114432   0.217   3.524   0.123 -0.2052  0.3624  0.5044
 1608SOL    HW214433   0.115   3.463   0.235 -0.6606 -0.4676 -0.3587
 1609SOL     OW14434   0.619   5.297   1.931  0.8154 -0.1741 -0.4875
 1609SOL    HW114435   0.612   5.386   1.887  0.0714  0.4926  0.9471
 1609SOL    HW214436   0.609   5.225   1.862 -3.3153  0.8080 -1.0597
 1610SOL     OW14437   4.883   3.644   3.609 -0.6736 -0.4511 -0.1098
 1610SOL    HW114438   4.888   3.637   3.709 -0.0322  0.6987 -0.0503
 1610SOL    HW214439   4.861   3.555   3.570  0.2226 -1.1649  0.9936
 1611SOL     OW14440   9.790   8.683   3.601 -0.1546 -0.4283  0.3148
 1611SOL    HW114441   9.832   8.651   3.685  0.9491  1.1998  0.3982
 1611SOL    HW214442   9.713   8.743   3.622  0.6862  0.7102  0.1785
 1612SOL     OW14443   4.239   0.961   1.055 -0.1069  0.1967 -0.3241
 1612SOL    HW114444   4.307   0.889   1.043 -0.0909 -0.0490  1.1425
 1612SOL    HW214445   4.217   0.971   1.152 -1.6301  0.7677 -0.7061
 1613SOL     OW14446   9.839   3.509   3.726  0.1323  0.1068  0.3693
 1613SOL    HW114447   9.863   3.594   3.773  2.3762 -1.3901  2.0164
 1613SOL    HW214448   9.768   3.462   3.777 -0.4274  0.5265 -0.0209
 1614SOL     OW14449   3.575   4.680   3.475  0.1629  0.0302  0.4329
 1614SOL    HW114450   3.622   4.596   3.504 -2.0855 -1.0935  0.9402
 1614SOL    HW214451   3.606   4.757   3.530  2.2762 -0.4497 -0.0586
 1615SOL     OW14452   4.617   7.187   1.808  0.4369 -0.2622  0.2126
 1615SOL    HW114453   4.635   7.285   1.812  0.2605 -0.2100 -0.2392
 1615SOL    HW214454   4.610   7.158   1.712 -0.2666 -0.5733  0.3560
 1616SOL     OW14455   0.563   3.324   1.909  0.0127 -0.3617  0.2056
 1616SOL    HW114456   0.649   3.290   1.870  1.4931  2.7648  0.5217
 1616SOL    HW214457   0.542   3.413   1.868 -0.6620  1.0028  3.3779
 1620SOL     OW14458   2.421   0.694   3.413  0.0540 -0.1023  0.4016
 1620SOL    HW114459   2.417   0.737   3.323 -1.1073 -0.5162  0.2535
 1620SOL    HW214460   2.348   0.627   3.422 -0.8021  1.0259  2.2198
 1621SOL     OW14461   9.034   3.804   0.025  0.2589 -0.2750  0.4929
 1621SOL    HW114462   9.120   3.837   0.063 -0.1829 -0.8189  1.9686
 1621SOL    HW214463   9.043   3.708  -0.001  0.9052  0.3892 -1.8835
 1622SOL     OW14464   2.355   7.703   1.429 -0.0782 -0.3525 -0.0626
 1622SOL    HW114465   2.380   7.770   1.359 -0.2594 -0.7654 -0.5313
 1622SOL    HW214466   2.274   7.735   1.478 -1.3208 -1.0868 -1.5629
 1624SOL     OW14467   9.294   1.564   1.780 -0.2158  0.2279 -0.3582
 1624SOL    HW114468   9.301   1.465   1.770 -0.4388  0.0226  1.4084
 1624SOL    HW214469   9.381   1.600   1.815  0.2895  0.8221 -2.1898
 1625SOL     OW14470   4.019   2.664   3.621 -0.2064 -0.2530  0.6636
 1625SOL    HW114471   4.067   2.642   3.536 -1.7488  0.7768 -0.4871
 1625SOL    HW214472   4.087   2.677   3.694  1.1151 -1.4004 -0.3278
 1626SOL     OW14473   1.222   2.566   0.623  0.5138 -0.1071 -0.2486
 1626SOL    HW114474   1.189   2.565   0.717  0.1683 -0.2248 -0.3707
 1626SOL    HW214475   1.161   2.511   0.565 -1.2941  2.7961 -1.2112
 1627SOL     OW14476   1.969   1.424   0.601  0.1833  0.2103  0.5331
 1627SOL    HW114477   1.927   1.480   0.673  0.0820  1.8794 -0.7924
 1627SOL    HW214478   1.944   1.461   0.512  1.7290 -0.7864 -0.3349
 1628SOL     OW14479   3.870   7.952   1.718 -0.3540  0.0212  0.2243
 1628SOL    HW114480   3.868   7.934   1.816 -1.8390 -1.8956 -0.1285
 1628SOL    HW214481   3.952   7.913   1.678 -0.5213 -0.5834  0.4627
 1629SOL     OW14482   6.715   7.040   3.008 -0.1141  0.0278 -0.5078
 1629SOL    HW114483   6.663   6.982   3.071 -0.5431 -0.1182 -0.9960
 1629SOL    HW214484   6.734   6.988   2.924  1.6026 -0.2434  0.0257
 1630SOL     OW14485   3.726   9.318   1.714 -0.7181  0.2841  0.0976
 1630SOL    HW114486   3.697   9.224   1.696  0.7068 -0.4233  1.3457
 1630SOL    HW214487   3.806   9.340   1.658 -2.0107  1.3367 -1.3959
 1631SOL     OW14488   4.638   9.993   2.189  0.1830 -0.0973  0.2324
 1631SOL    HW114489   4.649   9.997   2.288  0.8594 -0.0425  0.1601
 1631SOL    HW214490   4.662  10.081   2.149 -0.1396 -0.1026  0.0220
 1632SOL     OW14491   1.588   8.025   1.726  0.8548  0.2184  0.1626
 1632SOL    HW114492   1.556   8.117   1.748 -1.8792 -0.5719 -0.2955
 1632SOL    HW214493   1.674   8.007   1.774  0.4545  2.3371  1.7297
 1633SOL     OW14494   7.050   8.476   3.259  0.1221 -0.1821  0.0205
 1633SOL    HW114495   7.137   8.525   3.266 -0.1419  0.3073 -0.1043
 1633SOL    HW214496   7.025   8.441   3.350 -0.1896  0.7912  0.3187
 1634SOL     OW14497   1.023   4.019   3.281  0.0028 -0.5152  0.3162
 1634SOL    HW114498   1.000   4.106   3.238  1.2745  0.1087  0.8675
 1634SOL    HW214499   0.951   3.994   3.346 -0.4769  0.0012 -0.0118
 1635SOL     OW14500   9.773   4.535   2.183 -0.0665 -0.1591  0.1566
 1635SOL    HW114501   9.825   4.607   2.229 -1.8466  0.9048  0.5562
 1635SOL    HW214502   9.690   4.515   2.236  0.3145 -2.4162 -0.0182
 1636SOL     OW14503   9.960   6.719   0.443  0.1288 -0.0288  0.1513
 1636SOL    HW114504  10.052   6.758   0.436 -0.0373  0.3345 -0.0135
 1636SOL    HW214505   9.897   6.771   0.385 -0.0891 -0.5574 -0.0817
 1637SOL     OW14506   3.278   9.257   3.095 -0.1145 -0.1236  0.1365
 1637SOL    HW114507   3.315   9.210   3.015  0.7078 -0.9432  0.9760
 1637SOL    HW214508   3.300   9.204   3.177  1.3985  2.0266  1.1816
 1639SOL     OW14509   3.990   2.355   3.317  0.9507 -0.1594 -0.3622
 1639SOL    HW114510   3.911   2.416   3.306  0.1561 -1.6115 -3.3246
 1639SOL    HW214511   4.037   2.347   3.229  1.0681 -3.7551 -0.0147
 1640SOL     OW14512   9.899   1.074   0.345  0.0726 -0.1978  0.1761
 1640SOL    HW114513   9.922   1.024   0.429 -0.1246  0.5783  0.6952
 1640SOL    HW214514   9.926   1.170   0.355 -1.1109  0.1819 -0.1499
 1642SOL     OW14515   0.551   1.119   1.671  0.5681  0.0163 -0.2773
 1642SOL    HW114516   0.583   1.033   1.709  2.1210  0.4337 -0.6169
 1642SOL    HW214517   0.545   1.112   1.571  1.7405  0.6400 -0.3956
 1643SOL     OW14518   1.973   6.850   2.984  0.4497  0.0983 -0.0933
 1643SOL    HW114519   1.937   6.785   2.917  0.3884  0.7399 -0.6864
 1643SOL    HW214520   1.960   6.813   3.076  0.8252 -0.9239 -0.4521
 1644SOL     OW14521   1.283   2.085   3.302 -0.3529  0.7203  0.0393
 1644SOL    HW114522   1.197   2.036   3.313  0.5426 -0.5151  1.7657
 1644SOL    HW214523   1.347   2.029   3.249  0.1960  0.6222  0.8058
 1645SOL     OW14524   8.777   7.787   2.155 -0.6152  0.2687 -0.1953
 1645SOL    HW114525   8.775   7.749   2.063  0.8971 -1.1153  0.3270
 1645SOL    HW214526   8.710   7.740   2.213 -2.8341  2.3298 -1.0042
 1646SOL     OW14527   0.867   2.404   0.930 -0.2277  0.0238 -0.4235
 1646SOL    HW114528   0.824   2.422   0.841 -0.2174  2.5263  0.0365
 1646SOL    HW214529   0.823   2.461   1.000  0.2840 -1.3537  1.0565
 1647SOL     OW14530   0.477   5.223   1.387 -0.1565 -0.5000  0.1850
 1647SOL    HW114531   0.495   5.218   1.289 -0.7771 -1.2887  0.1084
 1647SOL    HW214532   0.527   5.300   1.427  1.6643 -1.3762 -0.3994
 1648SOL     OW14533   0.544   3.608   3.240  0.0481 -0.0632 -0.5771
 1648SOL    HW114534   0.584   3.526   3.279  0.2886 -0.5967 -1.9222
 1648SOL    HW214535   0.615   3.676   3.222  0.0227 -0.0713 -0.7085
 1649SOL     OW14536   9.666   5.022   0.603 -0.0093 -0.2697  0.4309
 1649SOL    HW114537   9.632   4.952   0.666  1.9185  0.3130  2.1877
 1649SOL    HW214538   9.745   5.068   0.644 -0.6237  2.2645 -1.1021
 1650SOL     OW14539   5.952   8.007   2.698 -0.2412  0.4929 -0.2873
 1650SOL    HW114540   6.009   7.997   2.616 -0.5966 -3.1604 -0.1603
 1650SOL    HW214541   5.860   7.973   2.680 -0.1207 -1.0709  1.8104
 1651SOL     OW14542   9.805   1.588   3.355  0.3781 -0.2799  0.2051
 1651SOL    HW114543   9.823   1.540   3.269  0.7416 -0.9097  0.6281
 1651SOL    HW214544   9.855   1.544   3.429 -0.8281 -0.4420  0.9409
 1653SOL     OW14545   4.183   3.795   0.115 -0.3527 -0.3898  0.3557
 1653SOL    HW114546   4.093   3.753   0.123 -0.8191  0.7512  1.1202
 1653SOL    HW214547   4.252   3.723   0.100 -1.2921 -1.3141  0.4256
 1654SOL     OW14548   7.742   1.971   0.799  0.5375 -0.0449  0.4144
 1654SOL    HW114549   7.741   1.973   0.899 -2.2987  0.0553  0.4384
 1654SOL    HW214550   7.730   1.877   0.768 -0.1421  0.1019  0.2110
 1655SOL     OW14551   8.804   2.505   1.221  0.6004 -0.0773 -0.3990
 1655SOL    HW114552   8.736   2.516   1.149  0.4930 -0.4050 -0.3528
 1655SOL    HW214553   8.858   2.588   1.230  1.1428 -0.3136 -1.4070
 1656SOL     OW14554   3.051   4.910   3.085 -0.0741  0.1797  0.0566
 1656SOL    HW114555   2.982   4.891   3.015  0.4922  0.8473 -0.6988
 1656SOL    HW214556   3.136   4.941   3.040  0.0797  1.2680  1.0664
 1659SOL     OW14557   0.403   4.815   3.563 -0.0572 -0.5461  0.4682
 1659SOL    HW114558   0.444   4.811   3.654  0.1644  0.4227  0.4157
 1659SOL    HW214559   0.422   4.730   3.514 -0.7326 -1.3432  1.5558
 1660SOL     OW14560   8.385   7.365   2.566 -0.5574  0.1521  0.1522
 1660SOL    HW114561   8.303   7.342   2.514  0.5397  1.1954 -2.0860
 1660SOL    HW214562   8.359   7.392   2.659 -2.6147 -0.7935 -0.1263
 1661SOL     OW14563   8.489   9.950   2.319 -0.1794 -0.0017 -0.0651
 1661SOL    HW114564   8.434   9.868   2.310  1.2425 -0.9248 -0.5751
 1661SOL    HW214565   8.445  10.014   2.382 -0.1512 -2.1510  2.2163
 1663SOL     OW14566   8.888   0.347   1.021  0.7416  0.0681  0.0409
 1663SOL    HW114567   8.836   0.393   0.949 -1.1914 -1.2233  0.5543
 1663SOL    HW214568   8.827   0.285   1.071  1.9717  1.1139  2.9482
 1665SOL     OW14569   1.743   3.357   1.666  0.2911 -0.3313  0.0234
 1665SOL    HW114570   1.651   3.377   1.701 -0.1963 -0.0434 -1.4111
 1665SOL    HW214571   1.753   3.258   1.654 -0.7260 -0.1869 -2.2143
 1666SOL     OW14572   4.533   3.698   0.049 -0.0351  0.5268 -0.5771
 1666SOL    HW114573   4.450   3.644   0.050  0.2234  0.1380  0.1913
 1666SOL    HW214574   4.570   3.701  -0.044  0.6683 -1.7158 -0.3841
 1667SOL     OW14575   2.352   3.891   0.061  0.4188  0.1421  0.2539
 1667SOL    HW114576   2.299   3.810   0.084  1.6287 -0.6343  0.3029
 1667SOL    HW214577   2.301   3.946  -0.006  0.1384 -1.2643 -0.6971
 1668SOL     OW14578   2.619   6.616   3.434  0.6321  0.5229  0.3238
 1668SOL    HW114579   2.570   6.606   3.520  0.1599  0.4339  0.0434
 1668SOL    HW214580   2.621   6.712   3.407  1.7252  0.6956  0.9880
 1669SOL     OW14581   4.288   0.584   2.706  0.1825  0.0673 -0.8211
 1669SOL    HW114582   4.230   0.641   2.765 -0.3491  0.5825 -1.8295
 1669SOL    HW214583   4.267   0.488   2.722  4.2598 -0.2466  4.2952
 1670SOL     OW14584   1.173   9.917   1.592 -0.6023  0.3050 -0.0610
 1670SOL    HW114585   1.098   9.858   1.562 -0.5133  0.8727 -1.4258
 1670SOL    HW214586   1.260   9.871   1.577 -0.6946 -0.8016  2.5373
 1671SOL     OW14587   3.047   5.414   2.822 -0.9140 -0.3406 -0.4149
 1671SOL    HW114588   3.011   5.383   2.910 -3.8406  1.5611 -0.8891
 1671SOL    HW214589   3.105   5.494   2.836 -3.3362  1.4723 -0.3774
 1672SOL     OW14590   7.024   1.365   2.945 -0.4216  0.4873 -0.0229
 1672SOL    HW114591   7.044   1.407   2.857 -1.4680  1.0344 -0.0061
 1672SOL    HW214592   7.096   1.299   2.968  0.5572  1.3331 -0.6436
 1673SOL     OW14593   9.530   0.040   1.430  0.7016  0.2542  0.4515
 1673SOL    HW114594   9.548  -0.024   1.355  1.6252 -0.4291  1.2602
 1673SOL    HW214595   9.454   0.007   1.485  0.4240  0.4492  0.1906
 1674SOL     OW14596   1.507   2.231   0.754  0.4317 -0.3866 -0.1658
 1674SOL    HW114597   1.421   2.199   0.794 -0.4126  0.3872 -1.3461
 1674SOL    HW214598   1.549   2.299   0.815 -0.9557  0.9541 -0.7013
 1675SOL     OW14599   3.257   4.448   2.680  0.1891  0.3831 -0.2483
 1675SOL    HW114600   3.231   4.379   2.747  0.7892  1.1466  0.7975
 1675SOL    HW214601   3.182   4.513   2.669  0.5651  0.9798  0.6491
 1676SOL     OW14602   0.964   2.021   3.042 -0.4163 -0.1318 -0.1620
 1676SOL    HW114603   0.915   1.997   3.126  2.2955  0.4488  1.6634
 1676SOL    HW214604   0.927   2.106   3.005 -0.2066  0.8080  1.7242
 1678SOL     OW14605   5.762   9.346   1.732  0.1677  0.0954 -0.5801
 1678SOL    HW114606   5.687   9.397   1.773 -0.1907 -0.1464 -0.9278
 1678SOL    HW214607   5.805   9.401   1.661 -0.2618 -0.1115 -1.0015
 1679SOL     OW14608   1.355   4.424   0.362  0.1629  0.5271  0.0249
 1679SOL    HW114609   1.348   4.388   0.455  0.8019  0.3019 -0.0078
 1679SOL    HW214610   1.276   4.397   0.309 -0.2083  0.6559  0.5048
 1680SOL     OW14611   1.888   8.472   1.577  0.1936  0.7133  0.0617
 1680SOL    HW114612   1.983   8.487   1.549  1.0485 -0.4395  2.2377
 1680SOL    HW214613   1.870   8.519   1.663 -0.8252 -0.1357  0.3285
 1681SOL     OW14614   2.298   6.808   0.924  0.4640 -0.3666  0.0746
 1681SOL    HW114615   2.257   6.758   0.847  0.9129  0.0006 -0.4029
 1681SOL    HW214616   2.282   6.906   0.914  2.7091 -0.0632 -0.8945
 1682SOL     OW14617   9.274   0.187   2.642 -0.1993 -0.2553 -0.1103
 1682SOL    HW114618   9.217   0.167   2.563  0.5570 -2.1018 -0.2010
 1682SOL    HW214619   9.273   0.110   2.705  0.9648  0.3094  0.6261
 1683SOL     OW14620   1.049   8.743   2.521 -0.0345  1.0166  0.5025
 1683SOL    HW114621   1.016   8.697   2.603 -1.1165  1.6911  0.4645
 1683SOL    HW214622   1.135   8.789   2.540  0.2937  0.2193  0.9442
 1684SOL     OW14623   0.293   0.352   0.166  0.2443  0.1826 -0.3847
 1684SOL    HW114624   0.319   0.439   0.126 -1.4291  0.3505 -1.1361
 1684SOL    HW214625   0.228   0.367   0.240 -0.4816 -0.4610 -0.8834
 1685SOL     OW14626   1.814   7.729   1.111  0.0749  0.4111  0.1651
 1685SOL    HW114627   1.846   7.813   1.068  0.5696 -1.0447 -2.3850
 1685SOL    HW214628   1.715   7.719   1.096 -0.0282  0.6435  0.6731
 1686SOL     OW14629   2.527   8.702   3.345  0.6445  0.5794 -0.1861
 1686SOL    HW114630   2.443   8.648   3.333  1.0939 -0.3820  0.9563
 1686SOL    HW214631   2.518   8.787   3.293 -0.4322 -0.1793 -1.2958
 1688SOL     OW14632   5.779   0.565   3.589 -0.3282 -0.2843 -0.3169
 1688SOL    HW114633   5.731   0.515   3.661 -0.8234 -0.2521 -0.6241
 1688SOL    HW214634   5.874   0.580   3.616 -0.1498 -1.4665 -0.2525
 1689SOL     OW14635   9.179   7.655   1.534  0.0639 -0.2888 -0.0779
 1689SOL    HW114636   9.128   7.738   1.512  1.9012  0.4445 -1.6409
 1689SOL    HW214637   9.182   7.595   1.454  0.4751 -0.9535  0.4305
 1690SOL     OW14638   8.355   3.058   1.255 -0.2910 -0.1707  0.5502
 1690SOL    HW114639   8.414   3.077   1.177 -0.2460 -1.4351  0.2691
 1690SOL    HW214640   8.305   3.141   1.281  0.5573  0.5388 -0.0908
 1691SOL     OW14641   2.967   0.275   2.441  0.3994  0.1481  0.0379
 1691SOL    HW114642   2.907   0.334   2.495 -0.4666 -0.5269 -0.1688
 1691SOL    HW214643   2.971   0.308   2.347  0.6253  0.3922  0.1337
 1692SOL     OW14644   3.900   1.137   3.084 -0.3916 -0.3944  0.4566
 1692SOL    HW114645   3.971   1.097   3.142 -0.0067 -0.0936  0.1948
 1692SOL    HW214646   3.818   1.080   3.088 -0.8566  0.4001  2.4061
 1693SOL     OW14647   9.399   6.297   1.954 -0.0450 -0.6235  0.1625
 1693SOL    HW114648   9.451   6.288   2.039  0.4765  0.0727 -0.0661
 1693SOL    HW214649   9.444   6.365   1.896 -2.0593  1.1506  0.5988
 1694SOL     OW14650   8.939   3.350   1.603 -0.1774 -0.7061  0.0811
 1694SOL    HW114651   8.976   3.354   1.696  1.0681  1.8381 -0.4651
 1694SOL    HW214652   9.006   3.387   1.539 -2.5281  1.3367 -1.3100
 1695SOL     OW14653   9.897   0.259   1.110 -0.2672  0.1558 -0.4762
 1695SOL    HW114654   9.874   0.216   1.023 -1.2690 -0.2005 -0.0383
 1695SOL    HW214655   9.827   0.326   1.134 -1.0490 -1.1700  1.0257
 1696SOL     OW14656   6.483   9.347   3.336 -0.1030  0.5907 -0.1332
 1696SOL    HW114657   6.419   9.423   3.323 -0.1813  0.6792  0.7258
 1696SOL    HW214658   6.556   9.375   3.398 -0.1945 -0.0684  0.2768
 1697SOL     OW14659   0.121   5.178   2.288  0.4429  0.4645  0.4933
 1697SOL    HW114660   0.121   5.082   2.258 -0.0358  0.9497 -1.0749
 1697SOL    HW214661   0.205   5.222   2.258 -0.9528  1.5041 -1.9532
 1698SOL     OW14662   1.249   9.275   0.807  0.4367  0.0723  0.4438
 1698SOL    HW114663   1.162   9.280   0.758  0.4157 -0.9944  0.3591
 1698SOL    HW214664   1.324   9.291   0.743  0.3035  1.2120  0.5582
 1699SOL     OW14665   8.557   1.020   0.268  0.3739 -0.2792  0.0358
 1699SOL    HW114666   8.643   1.033   0.219 -1.7419  1.3714 -3.3507
 1699SOL    HW214667   8.548   0.923   0.294  1.5340 -1.2584 -2.9764
 1700SOL     OW14668   9.453   9.049   2.928  0.3804 -0.0111  0.2477
 1700SOL    HW114669   9.500   9.000   3.001  0.8285  2.9959  2.0804
 1700SOL    HW214670   9.518   9.074   2.857  0.5023 -0.5609  0.1682
 1701SOL     OW14671   1.529   1.178   2.924  0.3409  0.3436  0.8623
 1701SOL    HW114672   1.626   1.169   2.946 -0.2407 -1.2150  2.8934
 1701SOL    HW214673   1.493   1.262   2.963  0.6929  0.5805  0.6867
 1702SOL     OW14674   3.495   2.965   0.243 -0.1982  0.0188  0.5510
 1702SOL    HW114675   3.540   2.880   0.215  1.4318  0.6890  1.0852
 1702SOL    HW214676   3.517   3.038   0.179  3.2348  1.4610  3.1985
 1704SOL     OW14677   0.294   7.291   2.196 -0.4841 -0.4598  0.0778
 1704SOL    HW114678   0.254   7.205   2.229 -1.3743 -0.0776  0.0188
 1704SOL    HW214679   0.268   7.365   2.258 -2.0703  0.2542 -1.4010
 1705SOL     OW14680   4.140   8.289   2.651 -0.2292 -0.0151 -0.5080
 1705SOL    HW114681   4.115   8.246   2.738 -0.1049 -0.7796 -0.8451
 1705SOL    HW214682   4.181   8.221   2.591 -0.6753  0.4197 -1.3161
 1706SOL     OW14683   3.134   7.779   0.844 -0.6651  0.6240 -0.2303
 1706SOL    HW114684   3.183   7.820   0.767 -0.1972 -0.4594 -0.5073
 1706SOL    HW214685   3.200   7.737   0.907 -1.1655  0.0973 -0.0586
 1707SOL     OW14686   4.840   0.476   3.199  0.1455 -0.1315 -0.5689
 1707SOL    HW114687   4.926   0.515   3.165  2.0813 -0.8062  3.2089
 1707SOL    HW214688   4.825   0.387   3.157  3.6304 -1.9615  1.7763
 1710SOL     OW14689   3.192   4.877   1.240  0.6259 -0.0069  0.6474
 1710SOL    HW114690   3.160   4.783   1.254  0.6203  0.2089  2.1497
 1710SOL    HW214691   3.292   4.878   1.237  0.5913 -0.3934 -1.9500
 1711SOL     OW14692   8.086   6.227   0.844 -0.2664  0.2580  0.8534
 1711SOL    HW114693   8.075   6.185   0.934  0.6666 -0.1783  0.7690
 1711SOL    HW214694   8.047   6.319   0.845 -1.1997 -0.1298  1.3969
 1712SOL     OW14695   5.383   9.139   1.468 -0.3179 -0.4807 -0.3799
 1712SOL    HW114696   5.451   9.097   1.528  0.2450  2.0047  0.7744
 1712SOL    HW214697   5.428   9.175   1.387 -0.6459 -1.0953 -0.8424
 1714SOL     OW14698   8.136   8.667   3.460  0.0692  0.2428  0.0739
 1714SOL    HW114699   8.092   8.757   3.457  2.0106  1.2947  1.4592
 1714SOL    HW214700   8.134   8.626   3.369  1.5920  2.9363 -1.2324
 1716SOL     OW14701   3.137   6.735   3.673 -0.1171 -0.4558  0.6856
 1716SOL    HW114702   3.118   6.656   3.615  1.0159 -1.0347  1.0795
 1716SOL    HW214703   3.068   6.739   3.746 -1.0934 -0.1637 -0.2362
 1717SOL     OW14704   8.532   0.291   3.102  1.0612  0.0884  0.2613
 1717SOL    HW114705   8.508   0.250   3.190  2.2862  1.1571  1.1089
 1717SOL    HW214706   8.624   0.263   3.076  0.3162 -1.0749 -1.2158
 1718SOL     OW14707   4.641   0.595   1.155 -0.2920  0.2664 -0.2909
 1718SOL    HW114708   4.679   0.645   1.233 -1.4234 -0.5064  0.7591
 1718SOL    HW214709   4.654   0.649   1.072  1.9258  0.6063  0.2329
 1719SOL     OW14710   4.713   3.435   0.133  0.7572 -0.3235 -0.3557
 1719SOL    HW114711   4.711   3.340   0.101 -0.7044 -0.8493  1.1803
 1719SOL    HW214712   4.689   3.496   0.058 -2.8542 -1.5391 -0.2984
 1721SOL     OW14713   1.795   9.974   1.972  0.2194  0.3938 -0.3977
 1721SOL    HW114714   1.886  10.009   1.949  0.1776  1.0881  0.4545
 1721SOL    HW214715   1.732   9.993   1.897  0.9444 -0.7995 -1.3375
 1722SOL     OW14716   9.627   4.766   0.019 -0.2918  0.1750 -0.1433
 1722SOL    HW114717   9.652   4.740   0.112 -0.2117 -0.9380 -0.4613
 1722SOL    HW214718   9.528   4.775   0.013 -0.1653  2.3209  0.5519
 1723SOL     OW14719   8.549   3.193   0.231  0.0345 -0.1425  0.0972
 1723SOL    HW114720   8.471   3.149   0.187 -1.3336  3.3182 -1.1370
 1723SOL    HW214721   8.521   3.227   0.321  0.5816 -0.2396  0.3070
 1724SOL     OW14722   8.787   0.400   3.355  0.1525  0.1475  0.1800
 1724SOL    HW114723   8.784   0.334   3.431 -1.1920 -1.0898 -0.9153
 1724SOL    HW214724   8.790   0.351   3.268 -0.3884  1.5530 -0.6479
 1725SOL     OW14725   5.540   3.862   0.236 -1.1122  0.0581 -0.1853
 1725SOL    HW114726   5.535   3.955   0.273 -1.1326  0.5986 -1.5206
 1725SOL    HW214727   5.469   3.851   0.166 -2.2562 -1.5341  1.1803
 1726SOL     OW14728   8.774   6.424   0.173 -0.2327  0.0096 -0.1006
 1726SOL    HW114729   8.856   6.368   0.166  0.0943  0.3533  1.0098
 1726SOL    HW214730   8.786   6.508   0.120 -0.1761 -0.2989 -0.5808
 1727SOL     OW14731   8.901   0.652   3.370  0.0483  0.4703 -0.3857
 1727SOL    HW114732   8.935   0.699   3.289  1.7448 -1.0759 -0.5958
 1727SOL    HW214733   8.869   0.561   3.345 -0.5309  0.4220  0.4961
 1728SOL     OW14734   9.589   1.961   0.231  0.2008 -0.2398  0.4794
 1728SOL    HW114735   9.667   1.981   0.172 -0.9545 -0.5994 -1.1965
 1728SOL    HW214736   9.529   2.041   0.236 -0.8052 -0.9092 -0.5883
 1729SOL     OW14737   3.661   4.057   0.834  0.1443  0.4208  0.1368
 1729SOL    HW114738   3.727   4.108   0.890 -0.8657 -1.0028  2.6904
 1729SOL    HW214739   3.709   3.989   0.779  1.1681  1.9792 -0.9700
 1730SOL     OW14740   6.769   8.874   1.475 -0.3735 -0.0696  0.9343
 1730SOL    HW114741   6.696   8.931   1.514 -0.7259 -0.6280  1.1058
 1730SOL    HW214742   6.857   8.920   1.484 -1.0256  1.7874 -1.5917
 1731SOL     OW14743   9.692   3.048   1.831  0.0669  0.2647 -0.3017
 1731SOL    HW114744   9.700   3.143   1.802  1.4922  0.0816 -0.5368
 1731SOL    HW214745   9.626   3.042   1.907  0.8541  1.6111  0.5100
 1732SOL     OW14746   8.329   9.265   3.712  0.0777  0.1429 -0.2077
 1732SOL    HW114747   8.428   9.261   3.719 -0.0092 -1.8751  0.0771
 1732SOL    HW214748   8.299   9.220   3.628 -0.6354 -0.0461  0.1403
 1733SOL     OW14749   0.155   9.282   0.912  0.1716 -0.0846 -0.4559
 1733SOL    HW114750   0.182   9.354   0.848 -0.0704  0.2591 -0.1735
 1733SOL    HW214751   0.237   9.236   0.947  0.4278  1.1208  0.5911
 1735SOL     OW14752   8.855   5.861   3.513  0.1024 -0.1672 -0.8440
 1735SOL    HW114753   8.917   5.935   3.486  0.3353  0.2849  0.8543
 1735SOL    HW214754   8.830   5.873   3.609 -0.3328 -1.9666 -0.7197
 1736SOL     OW14755   1.794   1.634   1.699  0.2023 -0.2308 -0.2991
 1736SOL    HW114756   1.836   1.562   1.644 -0.2277 -0.4876 -0.2929
 1736SOL    HW214757   1.858   1.710   1.709  1.5200 -1.5481  1.5831
 1737SOL     OW14758   5.127   1.413   2.301  0.4948 -0.3059 -0.5263
 1737SOL    HW114759   5.033   1.396   2.329  1.6804 -0.1908  3.8821
 1737SOL    HW214760   5.136   1.509   2.273 -0.4464 -0.0219  0.1151
 1738SOL     OW14761   0.513   6.539   0.954 -0.1067 -0.0930 -0.2450
 1738SOL    HW114762   0.503   6.490   0.868 -0.3164  1.1849 -0.9671
 1738SOL    HW214763   0.456   6.496   1.024 -0.4927 -0.7043 -0.9339
 1739SOL     OW14764   0.030   4.289   0.705  0.4722 -0.6461  0.1405
 1739SOL    HW114765   0.083   4.229   0.764  0.5095  1.7546  2.6255
 1739SOL    HW214766   0.085   4.368   0.679 -0.3032 -0.5358 -1.2588
 1740SOL     OW14767   5.329   9.172   2.933 -0.0209  0.5317 -0.4722
 1740SOL    HW114768   5.321   9.075   2.909  0.0500  0.4677 -0.2345
 1740SOL    HW214769   5.252   9.198   2.992  0.3635  0.4393  0.0686
 1741SOL     OW14770   2.626   8.728   2.554  0.5515 -0.4355 -0.0566
 1741SOL    HW114771   2.624   8.800   2.485 -0.7200  0.0178  0.4452
 1741SOL    HW214772   2.701   8.744   2.617 -0.5208  1.1981  0.8337
 1742SOL     OW14773   0.500   9.135   1.907 -0.1333  0.1986 -0.5344
 1742SOL    HW114774   0.405   9.107   1.901 -0.2554  0.4434  0.2615
 1742SOL    HW214775   0.556   9.057   1.935 -0.1330  0.1190 -0.7553
 1743SOL     OW14776   9.243   9.422   2.632 -0.1890 -0.3764 -0.1496
 1743SOL    HW114777   9.292   9.419   2.719 -0.5503 -0.2242  0.0567
 1743SOL    HW214778   9.255   9.512   2.590 -0.1460 -0.3989 -0.1842
 1745SOL     OW14779   1.488   8.565   0.639  0.6428 -0.4246 -0.3117
 1745SOL    HW114780   1.454   8.562   0.733 -1.2958  2.9870 -0.8223
 1745SOL    HW214781   1.588   8.569   0.638  0.6071  1.5110  1.6986
 1746SOL     OW14782   3.629   8.492   0.922  0.2948 -0.2537 -0.0668
 1746SOL    HW114783   3.665   8.557   0.856 -0.0904 -0.4280 -0.4528
 1746SOL    HW214784   3.581   8.419   0.873  0.3414 -0.5872  0.3854
 1747SOL     OW14785   7.286   9.622   2.323 -0.0088  0.0265 -0.3795
 1747SOL    HW114786   7.345   9.597   2.399  0.1706  0.4809 -0.3681
 1747SOL    HW214787   7.196   9.580   2.335  0.0434  0.0370  0.0463
 1750SOL     OW14788   1.216   9.208   3.029 -0.8426  0.0705 -0.1666
 1750SOL    HW114789   1.236   9.285   2.969 -2.2538 -0.0815 -0.8473
 1750SOL    HW214790   1.118   9.200   3.043 -0.7172 -1.5451 -0.0232
 1752SOL     OW14791   2.171   7.217   3.705  0.8087  0.5794  0.2027
 1752SOL    HW114792   2.079   7.191   3.678  0.7840 -0.1465  0.9705
 1752SOL    HW214793   2.173   7.315   3.727  0.0134  0.4078  1.0534
 1753SOL     OW14794   3.021   3.751   2.833  0.6158 -0.1399  0.0376
 1753SOL    HW114795   3.089   3.823   2.820  0.9267 -0.4388 -0.0019
 1753SOL    HW214796   2.937   3.774   2.783  0.3555  0.6724  0.8245
 1754SOL     OW14797   6.928   9.382   0.735  0.6110 -1.0748  0.4676
 1754SOL    HW114798   6.968   9.445   0.668 -2.1473  0.3025  0.0272
 1754SOL    HW214799   6.831   9.368   0.713  0.3124 -2.6724  2.6671
 1755SOL     OW14800   3.585   7.044   0.954  0.2213  0.1910  0.3672
 1755SOL    HW114801   3.498   7.061   0.907  0.8137  3.9591  0.5516
 1755SOL    HW214802   3.660   7.045   0.888  0.5300  0.6197  0.7241
 1756SOL     OW14803   0.642   0.129   0.327  0.3953 -0.0310 -0.3383
 1756SOL    HW114804   0.642   0.090   0.419 -0.6874  1.2236  0.2135
 1756SOL    HW214805   0.730   0.113   0.283  0.6998 -1.1744  0.6887
 1758SOL     OW14806   7.918   8.294   3.011  0.3712  0.0390  0.1763
 1758SOL    HW114807   7.937   8.367   2.946 -0.1869 -1.7879 -2.1124
 1758SOL    HW214808   7.840   8.319   3.068  1.4325  2.0449  0.8102
 1759SOL     OW14809   1.074   1.034   0.079 -0.6169 -0.0175  0.6059
 1759SOL    HW114810   1.004   1.039   0.007  0.0476  0.4641 -0.0041
 1759SOL    HW214811   1.059   1.107   0.145 -1.3998 -0.6315  1.1233
 1760SOL     OW14812   1.128   8.297   2.118  0.5053  0.5203  0.0627
 1760SOL    HW114813   1.061   8.311   2.191 -0.0366  1.4449 -0.5991
 1760SOL    HW214814   1.144   8.383   2.070  2.0338  0.2576  0.0856
 1761SOL     OW14815   7.241   8.170   3.421  0.3623 -0.6079  0.3694
 1761SOL    HW114816   7.305   8.247   3.426 -1.7323  1.1669  0.6993
 1761SOL    HW214817   7.149   8.202   3.443 -0.7131 -3.0420 -0.4358
 1762SOL     OW14818   0.766   2.259   1.307  0.6482  1.1339  0.0272
 1762SOL    HW114819   0.725   2.202   1.378 -1.8877  0.7396 -1.6973
 1762SOL    HW214820   0.785   2.350   1.343 -0.5270  0.9049  1.2385
 1764SOL     OW14821   3.182   6.419   2.637  0.3518  0.7655  0.5489
 1764SOL    HW114822   3.117   6.393   2.709  0.7906  0.5458  0.8675
 1764SOL    HW214823   3.274   6.393   2.664  0.5803  1.1037  0.1060
 1766SOL     OW14824   1.144   6.625   0.037 -0.1491  0.0802 -0.0556
 1766SOL    HW114825   1.143   6.666   0.128 -0.3482 -0.9000  0.3870
 1766SOL    HW214826   1.234   6.585   0.020 -0.4525 -0.7006  0.1503
 1768SOL     OW14827   2.853   1.194   3.132  0.0855 -0.4846  0.2730
 1768SOL    HW114828   2.773   1.151   3.091 -1.1551 -0.5886  2.7696
 1768SOL    HW214829   2.922   1.125   3.152 -0.0845 -0.6923  0.1454
 1769SOL     OW14830   9.734   3.753   2.863 -0.2540 -0.1109  0.1522
 1769SOL    HW114831   9.776   3.663   2.875 -0.3895 -0.1285  0.4990
 1769SOL    HW214832   9.657   3.745   2.799 -1.3974 -0.5966  1.5522
 1770SOL     OW14833   2.952   4.514   3.716  0.4484 -0.1900  0.5171
 1770SOL    HW114834   2.874   4.564   3.678  0.2705 -0.9055 -0.0778
 1770SOL    HW214835   3.025   4.578   3.738  0.1500  0.3512 -0.0504
 1771SOL     OW14836   4.058   8.545   2.563 -0.4220  0.2263  0.1773
 1771SOL    HW114837   4.065   8.458   2.612 -1.6765 -1.3909 -2.3837
 1771SOL    HW214838   3.998   8.607   2.614 -0.3667 -0.7995  1.5215
 1773SOL     OW14839   5.190   7.741   3.558 -0.8003 -0.2197  0.3789
 1773SOL    HW114840   5.190   7.800   3.639  0.2559 -0.7394  0.7833
 1773SOL    HW214841   5.275   7.754   3.507 -2.9712  2.7516 -2.6835
 1774SOL     OW14842   4.996   8.814   2.958  0.2375 -0.1669 -0.2849
 1774SOL    HW114843   4.944   8.893   2.993 -0.6450 -0.5597 -0.7010
 1774SOL    HW214844   4.960   8.787   2.869  0.2366 -1.3416  0.0688
 1776SOL     OW14845   4.316   3.992   3.634  0.0770 -0.2397 -0.3828
 1776SOL    HW114846   4.397   4.045   3.658 -1.1088  0.8734  1.2474
 1776SOL    HW214847   4.272   4.033   3.554  1.1270 -0.8660 -1.2896
 1777SOL     OW14848   9.667   6.601   2.894  0.0341 -0.0584  1.0565
 1777SOL    HW114849   9.592   6.556   2.844 -0.8247  0.6174  1.7395
 1777SOL    HW214850   9.632   6.680   2.943  1.6443  1.7667 -0.6349
 1778SOL     OW14851   2.035   2.536   1.695 -0.3193 -0.3514 -0.5855
 1778SOL    HW114852   1.949   2.577   1.724  0.1619  0.3117 -0.0856
 1778SOL    HW214853   2.105   2.553   1.764  0.5359  0.1843 -1.5761
 1780SOL     OW14854   0.201   2.330   0.055 -0.0717 -0.6076 -0.3204
 1780SOL    HW114855   0.240   2.413   0.017 -0.5450 -0.5337 -0.6479
 1780SOL    HW214856   0.120   2.353   0.109 -0.8482 -0.9642 -1.3189
 1783SOL     OW14857   2.767   3.814   2.430 -0.4090 -0.0490  0.0297
 1783SOL    HW114858   2.697   3.772   2.372  1.2564 -1.5124 -0.9575
 1783SOL    HW214859   2.854   3.766   2.418  0.2320  0.2890  2.9790
 1785SOL     OW14860   3.622   8.020   0.262 -0.0181  0.2684  0.5454
 1785SOL    HW114861   3.635   8.080   0.182  0.4564 -1.6859 -0.8779
 1785SOL    HW214862   3.526   8.018   0.287 -0.5254 -0.8237 -1.3872
 1786SOL     OW14863   6.176   0.699   3.251 -0.3014 -0.2177  1.2895
 1786SOL    HW114864   6.197   0.795   3.233  0.8351 -0.4202  1.4831
 1786SOL    HW214865   6.088   0.676   3.210 -1.1383  1.2069  2.2164
 1788SOL     OW14866   1.223   0.701   3.573 -0.2370  0.4000  0.5265
 1788SOL    HW114867   1.133   0.733   3.543 -0.1860  0.0461  0.0098
 1788SOL    HW214868   1.271   0.777   3.618 -0.0936  1.0749 -0.7502
 1789SOL     OW14869   2.705   3.801   3.043 -0.0505  0.8258  0.6540
 1789SOL    HW114870   2.715   3.706   3.015  1.4867  1.1187  0.1354
 1789SOL    HW214871   2.688   3.805   3.141 -0.5222  0.0030  0.6098
 1790SOL     OW14872   9.617   1.783   1.188 -0.5498 -0.3836  0.0983
 1790SOL    HW114873   9.632   1.769   1.286 -0.7097  0.4948  0.2542
 1790SOL    HW214874   9.698   1.825   1.147 -0.8440  0.1426  0.0461
 1794SOL     OW14875   7.848   2.775   1.605  0.0766  0.0174 -0.2492
 1794SOL    HW114876   7.866   2.812   1.696 -1.2581  0.2994 -0.0909
 1794SOL    HW214877   7.797   2.689   1.614  2.0003 -1.2159 -0.6589
 1795SOL     OW14878   9.453   4.262   0.090 -0.0381  0.0017 -0.0748
 1795SOL    HW114879   9.387   4.336   0.099 -0.0323 -0.1929  1.7196
 1795SOL    HW214880   9.414   4.178   0.129  0.7676 -0.4381 -0.2026
 1796SOL     OW14881   0.442   6.236   0.149 -0.5129  0.8241  0.8683
 1796SOL    HW114882   0.512   6.193   0.208 -0.9487 -1.6171 -0.3380
 1796SOL    HW214883   0.351   6.211   0.183 -0.7933  1.9539  0.9575
 1797SOL     OW14884   6.509   9.837   2.049  0.2314 -0.1779  0.0641
 1797SOL    HW114885   6.419   9.839   2.092 -0.2710 -0.8258 -0.9667
 1797SOL    HW214886   6.579   9.826   2.120 -0.5512 -0.6104  0.7763
 1798SOL     OW14887   5.093   2.046   2.722  0.0880  0.6639 -0.7339
 1798SOL    HW114888   5.062   2.128   2.769  3.9812  1.8140  0.0084
 1798SOL    HW214889   5.131   2.071   2.633 -0.2321 -0.5551 -1.2191
 1799SOL     OW14890   0.251   8.959   0.025  0.5390 -0.9791  0.0875
 1799SOL    HW114891   0.157   8.988   0.011  1.1378  0.5670 -0.8322
 1799SOL    HW214892   0.264   8.929   0.120 -0.6122 -0.2250  0.4804
 1801SOL     OW14893   3.041   4.548   3.166  0.3336  0.6530 -0.2240
 1801SOL    HW114894   3.013   4.550   3.069 -0.6581 -0.7173  0.0154
 1801SOL    HW214895   2.960   4.536   3.223  1.0941 -0.1364  0.6913
 1802SOL     OW14896   0.031   1.851   2.370  0.0532 -0.1553  0.3544
 1802SOL    HW114897  -0.018   1.918   2.427  0.0731  0.0330  0.1495
 1802SOL    HW214898  -0.034   1.781   2.339 -0.5739  1.3168 -1.7695
 1803SOL     OW14899   7.879   7.134   2.775  0.3015 -0.2462 -0.0527
 1803SOL    HW114900   7.875   7.061   2.706  0.1266 -0.3135  0.0300
 1803SOL    HW214901   7.934   7.103   2.853 -1.2036 -0.9264  0.7484
 1804SOL     OW14902   3.864   2.764   3.228  0.0503  0.1682  0.2330
 1804SOL    HW114903   3.830   2.674   3.199 -0.7394  0.7207 -0.5843
 1804SOL    HW214904   3.848   2.830   3.155  1.8093  0.7065  0.3040
 1805SOL     OW14905   4.091   1.197   1.518  0.3118 -0.0229  0.4989
 1805SOL    HW114906   4.129   1.203   1.425 -0.9943 -0.5232 -0.0716
 1805SOL    HW214907   4.111   1.107   1.556  0.4980  0.0421  0.5573
 1806SOL     OW14908   2.500   3.956   1.502  0.5320  0.4428  0.3908
 1806SOL    HW114909   2.578   4.013   1.528  0.7805  0.6051 -0.6778
 1806SOL    HW214910   2.507   3.933   1.405 -0.7831  0.5126  0.2709
 1807SOL     OW14911   9.525   2.005   3.412  0.2836 -0.5400 -0.1981
 1807SOL    HW114912   9.482   1.923   3.448  0.5530 -0.3738  0.4968
 1807SOL    HW214913   9.587   2.044   3.480  0.1683  0.2294 -0.5231
 1809SOL     OW14914   8.722   5.949   1.510  0.2793 -0.9027 -0.2861
 1809SOL    HW114915   8.697   5.994   1.596 -1.0258  0.0097 -1.1240
 1809SOL    HW214916   8.766   6.015   1.450  1.9106 -1.7355 -0.0262
 1811SOL     OW14917   0.158   7.850   1.353 -0.0520 -0.5422  0.0748
 1811SOL    HW114918   0.191   7.799   1.274 -0.5958 -1.2146  0.2781
 1811SOL    HW214919   0.133   7.787   1.427 -0.1065  0.0438  0.5700
 1812SOL     OW14920   8.501   4.950   0.849 -0.4242  0.3325 -0.5306
 1812SOL    HW114921   8.488   5.044   0.817 -2.1707  0.2525 -0.0974
 1812SOL    HW214922   8.415   4.901   0.842  0.3108 -1.0402 -0.0714
 1813SOL     OW14923   9.943   8.623   1.104  0.4944  0.0398 -0.2018
 1813SOL    HW114924   9.930   8.645   1.008  1.6739  0.0392 -0.3655
 1813SOL    HW214925  10.031   8.577   1.116  0.0825 -0.5030  0.7855
 1814SOL     OW14926   4.424   8.854   2.076 -0.6009  0.6595 -0.0094
 1814SOL    HW114927   4.326   8.859   2.092 -0.5883  0.1103  0.2432
 1814SOL    HW214928   4.469   8.937   2.110 -1.5007  2.9168 -3.9318
 1815SOL     OW14929   1.965   7.618   3.352 -0.2078 -0.0884 -0.5537
 1815SOL    HW114930   1.928   7.574   3.434  0.9346  0.7847  0.4625
 1815SOL    HW214931   1.979   7.550   3.280  1.8172 -1.4617  1.0729
 1817SOL     OW14932   2.354   3.750   3.369  0.0667 -0.4331  0.2022
 1817SOL    HW114933   2.406   3.810   3.430  2.1804 -0.9467 -1.0498
 1817SOL    HW214934   2.277   3.710   3.419  0.8732  0.3460  2.1055
 1818SOL     OW14935   3.353   1.608   0.588  0.0614  0.2099 -0.1140
 1818SOL    HW114936   3.285   1.545   0.626  2.0442 -0.8446  1.8050
 1818SOL    HW214937   3.434   1.557   0.560  0.5622  1.5975 -1.2315
 1820SOL     OW14938   9.878   4.251   0.978 -0.7489 -0.0808 -0.0268
 1820SOL    HW114939   9.823   4.302   0.912 -1.1574 -0.9139 -0.3426
 1820SOL    HW214940   9.969   4.235   0.940 -0.9847 -0.5632 -0.3911
 1821SOL     OW14941   7.697   2.384   3.412  0.2463  0.4212  0.0844
 1821SOL    HW114942   7.677   2.361   3.507  0.0941 -0.8724 -0.2527
 1821SOL    HW214943   7.678   2.481   3.397 -0.3143  0.5014  1.2140
 1822SOL     OW14944   3.674   3.509   0.752 -0.1253 -0.4300 -0.4721
 1822SOL    HW114945   3.617   3.436   0.713 -1.7450  1.2294 -1.2603
 1822SOL    HW214946   3.770   3.478   0.755 -0.8272 -2.7113 -0.4592
 1823SOL     OW14947   2.851   5.568   3.655  0.1982 -0.4061  0.3740
 1823SOL    HW114948   2.852   5.605   3.748  0.5139 -1.9612  1.0123
 1823SOL    HW214949   2.923   5.498   3.646  0.7806  0.3829 -1.3140
 1824SOL     OW14950   0.074   5.532   3.335 -0.8429 -0.5143 -0.3494
 1824SOL    HW114951   0.006   5.506   3.266  0.1263  1.2452 -2.0112
 1824SOL    HW214952   0.134   5.454   3.353  0.9286 -0.0411 -3.9351
 1825SOL     OW14953   0.698   2.790   2.263 -0.3265  0.2397  0.1218
 1825SOL    HW114954   0.725   2.884   2.281 -0.8999  0.6525 -1.0804
 1825SOL    HW214955   0.775   2.739   2.224 -0.3304  0.4971 -0.2166
 1826SOL     OW14956   4.543   7.959   2.469 -0.4255 -0.7087 -0.0110
 1826SOL    HW114957   4.610   7.884   2.470 -0.6586 -0.9066  0.7744
 1826SOL    HW214958   4.464   7.932   2.413 -0.4033 -0.9513  0.0744
 1827SOL     OW14959   8.858   3.611   0.415  0.1236  0.6653  0.1004
 1827SOL    HW114960   8.847   3.615   0.316  0.1064  1.5479  0.1305
 1827SOL    HW214961   8.779   3.652   0.460  1.5203  3.1896  0.3920
 1828SOL     OW14962   9.477   8.190   0.928 -0.1121  0.2581  0.3971
 1828SOL    HW114963   9.427   8.117   0.974  1.5767  0.2067  2.2068
 1828SOL    HW214964   9.485   8.269   0.990 -3.1821  2.5861 -2.0270
 1830SOL     OW14965   3.466   9.359   0.798  0.0578  0.4456  0.1720
 1830SOL    HW114966   3.481   9.451   0.836  3.3787  0.3930 -0.8731
 1830SOL    HW214967   3.509   9.353   0.708  0.2682 -2.3072  0.4323
 1831SOL     OW14968   3.669   6.933   2.466 -0.8456  0.3665 -0.1133
 1831SOL    HW114969   3.657   6.985   2.551 -1.8016  0.5334 -0.3384
 1831SOL    HW214970   3.643   6.991   2.389 -1.2190 -0.2074 -0.4183
 1832SOL     OW14971   0.727   2.013   1.476  0.4476 -0.0136 -0.4177
 1832SOL    HW114972   0.656   1.971   1.533  2.3951 -1.3609  1.1022
 1832SOL    HW214973   0.751   1.950   1.402  0.5116  0.1709 -0.5535
 1833SOL     OW14974   2.176   1.962   1.067  0.0954  0.3039  0.2587
 1833SOL    HW114975   2.212   1.890   1.126  0.3584  1.5823  1.6910
 1833SOL    HW214976   2.189   1.937   0.971  2.1997 -0.5380  0.7430
 1834SOL     OW14977   0.549   1.203   2.350 -0.4061 -0.5550  0.4451
 1834SOL    HW114978   0.478   1.273   2.350 -1.6484 -1.7867 -0.7440
 1834SOL    HW214979   0.537   1.144   2.430 -0.4926 -0.5222  0.4569
 1835SOL     OW14980   3.492   3.943   3.234 -0.1782 -0.5281 -0.1721
 1835SOL    HW114981   3.400   3.919   3.267  0.5991 -2.1829  0.8330
 1835SOL    HW214982   3.501   4.043   3.231 -1.7879 -0.3477  0.3256
 1836SOL     OW14983   6.199   7.182   2.266 -0.4515 -0.5103  0.4671
 1836SOL    HW114984   6.176   7.140   2.354  1.0519 -1.2490  0.5169
 1836SOL    HW214985   6.286   7.147   2.234 -0.9547 -0.1881 -1.3043
 1837SOL     OW14986   0.943   3.792   2.342 -0.0819  0.2329 -0.0268
 1837SOL    HW114987   0.888   3.854   2.399 -0.0673  0.6210 -0.4338
 1837SOL    HW214988   0.934   3.817   2.246  0.7078  0.2240 -0.1122
 1838SOL     OW14989   1.218   1.186   3.766 -0.3674 -0.1365  0.0136
 1838SOL    HW114990   1.317   1.200   3.775 -0.4285  2.1417 -2.2957
 1838SOL    HW214991   1.170   1.256   3.819 -0.7463 -0.8349  0.5961
 1839SOL     OW14992   3.379   4.026   3.503 -0.0117  0.1915 -0.1977
 1839SOL    HW114993   3.300   4.068   3.546  0.2441 -0.3466  0.8213
 1839SOL    HW214994   3.436   4.096   3.460 -2.2283  0.3633 -2.9772
 1840SOL     OW14995   2.420   3.629   1.082 -0.6302 -0.0483  0.3064
 1840SOL    HW114996   2.410   3.707   1.144 -1.4690 -0.5606  0.8253
 1840SOL    HW214997   2.398   3.544   1.131  0.4079 -0.6310 -0.2112
 1841SOL     OW14998   1.020   7.051   1.264 -0.5160  0.3307 -0.2557
 1841SOL    HW114999   1.117   7.028   1.250 -0.1846  1.4751  0.0841
 1841SOL    HW215000   0.993   7.120   1.196 -0.9832  0.3077 -0.0880
 1842SOL     OW15001   0.104   4.806   2.481  0.1060 -0.0398 -0.2297
 1842SOL    HW115002   0.093   4.871   2.556 -0.7308  0.8091 -1.0683
 1842SOL    HW215003   0.087   4.852   2.394 -1.3362 -1.5482 -0.7893
 1843SOL     OW15004   0.572   7.744   2.477 -0.1938 -0.2784 -0.0562
 1843SOL    HW115005   0.497   7.701   2.427 -1.2750  1.8243 -0.2970
 1843SOL    HW215006   0.621   7.675   2.531 -1.4769 -1.8830 -0.9192
 1844SOL     OW15007   8.419   6.520   0.772  0.1343  0.1772 -0.3428
 1844SOL    HW115008   8.372   6.499   0.858 -1.1738  1.3396 -0.7475
 1844SOL    HW215009   8.440   6.435   0.724  0.9848 -0.4797  1.1727
 1846SOL     OW15010   0.166   8.551   3.324 -0.1376 -0.4073  0.0488
 1846SOL    HW115011   0.084   8.607   3.322  0.3614  0.3041 -1.3280
 1846SOL    HW215012   0.141   8.455   3.314 -0.8634 -0.2710  0.5670
 1847SOL     OW15013   7.021   9.574   2.364  0.6051 -0.0710 -0.0292
 1847SOL    HW115014   6.938   9.576   2.308  0.3134 -0.4510  0.3805
 1847SOL    HW215015   6.996   9.572   2.460  1.0616 -1.3232  0.0789
 1848SOL     OW15016   2.664   6.392   1.583  0.0154  0.5618  0.2447
 1848SOL    HW115017   2.604   6.313   1.577 -0.4864  1.0136 -0.7675
 1848SOL    HW215018   2.757   6.366   1.556 -0.2979  0.4742 -0.7659
 1849SOL     OW15019   1.843   5.798   1.444 -0.2846 -0.4510  0.4224
 1849SOL    HW115020   1.792   5.822   1.360  0.5334  1.0344  0.3364
 1849SOL    HW215021   1.939   5.783   1.421  0.0391  0.4583  1.1681
 1851SOL     OW15022   3.001   5.987   0.139  0.3220 -0.9173 -0.4050
 1851SOL    HW115023   3.031   5.930   0.062 -0.3634  0.0907 -1.4320
 1851SOL    HW215024   3.000   6.083   0.111  0.6344 -0.4781  1.0533
 1852SOL     OW15025   0.568   4.792   3.097  0.1136 -0.3126 -0.2192
 1852SOL    HW115026   0.585   4.814   3.193  0.3029 -0.1863 -0.2809
 1852SOL    HW215027   0.652   4.805   3.044  0.0596 -0.5589 -0.3701
 1853SOL     OW15028   3.498   1.243   0.007 -0.3039  0.1079  0.4579
 1853SOL    HW115029   3.428   1.312  -0.010 -1.2733 -1.1024 -0.4780
 1853SOL    HW215030   3.540   1.260   0.097 -0.7086  1.7490  0.3454
 1854SOL     OW15031   5.107   9.367   3.264  0.6838 -0.2617  0.3568
 1854SOL    HW115032   5.029   9.345   3.323  0.2051  1.5002  0.4007
 1854SOL    HW215033   5.183   9.400   3.319 -0.2330  2.7157 -0.0838
 1855SOL     OW15034   6.874   0.100   2.273  0.2382  0.5900  0.2390
 1855SOL    HW115035   6.944   0.162   2.238  1.0651  1.1026  2.7391
 1855SOL    HW215036   6.800   0.154   2.313 -0.9161  0.0131 -1.0641
 1857SOL     OW15037   1.336   4.067   3.113 -0.2218  0.0208  0.2544
 1857SOL    HW115038   1.300   4.127   3.185 -0.1280 -1.3119  1.4377
 1857SOL    HW215039   1.289   4.086   3.027  0.3347  2.2914  0.4354
 1858SOL     OW15040   1.593   5.552   2.874  0.6476 -0.3170 -0.2420
 1858SOL    HW115041   1.515   5.579   2.930 -0.0123 -0.6566 -0.9830
 1858SOL    HW215042   1.615   5.456   2.892  1.0044 -0.1720  0.0947
 1859SOL     OW15043   4.922   8.353   2.115 -0.2213  0.0335  0.5851
 1859SOL    HW115044   4.880   8.300   2.189  0.2836 -0.2274  0.6911
 1859SOL    HW215045   5.001   8.403   2.151  1.3421 -1.7784 -0.2231
 1860SOL     OW15046   7.322   7.593   2.771  0.0890  0.3140  0.0553
 1860SOL    HW115047   7.315   7.503   2.814 -1.0136 -0.2096 -1.1901
 1860SOL    HW215048   7.238   7.645   2.787  0.3438  0.7655 -0.0407
 1861SOL     OW15049   0.671   2.634   0.474 -0.1200 -0.3983  0.4845
 1861SOL    HW115050   0.579   2.671   0.471  0.3879  0.8323 -0.4333
 1861SOL    HW215051   0.693   2.592   0.386  0.5339  0.1695  0.3726
 1862SOL     OW15052   2.848   6.841   3.286 -0.1266  0.0427 -0.5318
 1862SOL    HW115053   2.785   6.827   3.362 -2.1247 -1.7833 -2.4585
 1862SOL    HW215054   2.941   6.846   3.320 -1.1167  0.8390  2.1826
 1863SOL     OW15055   3.900   6.189   3.073 -0.0011 -0.1894 -0.1049
 1863SOL    HW115056   3.879   6.187   2.975 -0.4066  1.0614 -0.0488
 1863SOL    HW215057   3.913   6.096   3.106 -0.9574 -0.6896 -1.1183
 1864SOL     OW15058   8.653   7.560   3.702 -0.2319 -0.1295 -0.2635
 1864SOL    HW115059   8.661   7.465   3.673 -1.0267  0.3925 -2.2552
 1864SOL    HW215060   8.583   7.606   3.648  0.2849  1.6598  0.5395
 1865SOL     OW15061   3.495   0.279   1.923 -0.1768 -0.1743  0.2759
 1865SOL    HW115062   3.567   0.335   1.882 -1.1254  1.4533  0.7795
 1865SOL    HW215063   3.435   0.337   1.979 -2.3483 -1.3506 -0.7501
 1866SOL     OW15064   3.431   6.451   2.772  0.1316  0.4869 -0.6293
 1866SOL    HW115065   3.423   6.550   2.760 -1.4004  0.3938 -0.4912
 1866SOL    HW215066   3.519   6.430   2.815  1.5235  1.5680 -2.8666
 1867SOL     OW15067   9.693   2.329   2.265 -0.4487  0.1024 -0.1631
 1867SOL    HW115068   9.749   2.393   2.212 -1.0293  0.1426 -0.7371
 1867SOL    HW215069   9.600   2.365   2.272 -0.1924  0.4632  1.5436
 1868SOL     OW15070   7.680   1.126   0.905  0.8008 -0.2877 -0.0075
 1868SOL    HW115071   7.702   1.080   0.819  0.4835  0.2762 -0.3988
 1868SOL    HW215072   7.699   1.065   0.982 -1.8957 -1.9871 -0.6105
 1869SOL     OW15073   0.991   5.091   3.399 -0.1308 -0.4910 -0.1578
 1869SOL    HW115074   0.975   4.994   3.415  1.6273 -0.9987 -1.3905
 1869SOL    HW215075   1.006   5.137   3.487 -2.8384 -0.9648  0.5741
 1870SOL     OW15076   8.767   3.476   3.627  0.0134 -0.3306  0.4723
 1870SOL    HW115077   8.706   3.438   3.558  0.5667  1.4177 -1.0155
 1870SOL    HW215078   8.848   3.513   3.583  1.5475 -1.3784  2.2988
 1871SOL     OW15079   1.825   0.557   3.115 -0.0896 -0.1463 -0.7498
 1871SOL    HW115080   1.749   0.495   3.133  1.4231 -1.3724  1.7798
 1871SOL    HW215081   1.806   0.646   3.157 -0.6655 -0.0385 -1.2308
 1872SOL     OW15082   0.467   0.828   1.326 -0.1785  0.5656  0.0004
 1872SOL    HW115083   0.427   0.813   1.416 -0.5635  0.5480 -0.1704
 1872SOL    HW215084   0.551   0.775   1.317 -0.4325  0.1305  0.1530
 1873SOL     OW15085   8.927   0.368   1.394  0.4167  0.4147 -0.2535
 1873SOL    HW115086   8.917   0.365   1.494  2.1149  1.5276 -0.0263
 1873SOL    HW215087   8.965   0.282   1.361 -1.8693 -0.6533 -0.1680
 1874SOL     OW15088   9.011   2.114   1.015  0.0499 -0.3509  0.6725
 1874SOL    HW115089   9.046   2.208   1.007  0.6024 -0.5624  0.5530
 1874SOL    HW215090   8.912   2.114   1.004  0.2668 -0.0354 -1.4015
 1875SOL     OW15091   1.352   2.347   3.568  0.3697 -0.1579 -0.5710
 1875SOL    HW115092   1.279   2.281   3.587  0.9860 -1.1401 -1.5606
 1875SOL    HW215093   1.389   2.330   3.477  0.0246  2.0455 -1.1539
 1876SOL     OW15094   8.161   5.129   3.062  0.0811 -0.4276  0.4634
 1876SOL    HW115095   8.172   5.157   2.966 -1.4159  0.7932  0.6296
 1876SOL    HW215096   8.166   5.029   3.068  1.6174 -0.4333 -0.6863
 1877SOL     OW15097   3.833   2.533   1.648  0.0483  0.4628 -0.4336
 1877SOL    HW115098   3.785   2.619   1.630 -0.2451  0.3154 -0.3556
 1877SOL    HW215099   3.827   2.511   1.745 -1.7090 -0.7370 -0.7930
 1878SOL     OW15100   8.831   6.648   3.699  0.2950  0.4756  0.2304
 1878SOL    HW115101   8.910   6.588   3.704 -0.5238 -0.5023  2.2286
 1878SOL    HW215102   8.851   6.733   3.748 -0.7708 -0.8816  3.1520
 1880SOL     OW15103   1.619   3.605   1.826 -0.3043 -0.2685 -0.7564
 1880SOL    HW115104   1.603   3.605   1.925  0.4460 -0.3868 -0.6299
 1880SOL    HW215105   1.716   3.617   1.808 -0.8255  3.3583 -1.5547
 1881SOL     OW15106   9.787   8.406   3.746  0.4463  0.1328  0.4252
 1881SOL    HW115107   9.722   8.428   3.673  1.1694  1.0166  0.0472
 1881SOL    HW215108   9.739   8.360   3.820 -0.3532 -0.5218 -0.4847
 1882SOL     OW15109   0.908   4.810   1.457 -0.5077 -0.1631 -0.0817
 1882SOL    HW115110   0.912   4.717   1.492  0.1298  0.5135  1.7404
 1882SOL    HW215111   1.001   4.845   1.444 -0.7062  0.8300  1.0070
 1883SOL     OW15112   2.772   7.130   1.590  0.0638 -0.1680 -0.5828
 1883SOL    HW115113   2.747   7.163   1.499 -2.0781 -0.0795  0.0165
 1883SOL    HW215114   2.721   7.046   1.609  1.0354 -0.5642  0.2582
 1884SOL     OW15115   9.208   0.447   1.293 -0.1050 -0.2567  0.2254
 1884SOL    HW115116   9.168   0.466   1.204  0.1637 -0.3581  0.0851
 1884SOL    HW215117   9.153   0.491   1.364 -2.1378 -2.7776  0.2774
 1886SOL     OW15118   8.783   3.291   0.571  0.0096 -0.0686  0.2511
 1886SOL    HW115119   8.856   3.295   0.638  0.8263  0.3924 -0.6591
 1886SOL    HW215120   8.795   3.363   0.503  0.2136 -1.6408 -1.4240
 1887SOL     OW15121   2.944   9.732   1.617  0.3687 -0.0771 -0.6303
 1887SOL    HW115122   2.896   9.662   1.670 -1.4576  1.4026 -0.2953
 1887SOL    HW215123   2.882   9.773   1.550  1.5365  0.9307 -1.1287
 1888SOL     OW15124   3.247   8.591   3.077  0.2611  0.1109 -0.1571
 1888SOL    HW115125   3.230   8.687   3.058 -1.0140  0.4011  2.2892
 1888SOL    HW215126   3.165   8.549   3.116  0.2748 -2.3958 -2.6080
 1889SOL     OW15127   4.660   9.844   3.299  0.2672  0.2352 -0.4769
 1889SOL    HW115128   4.582   9.782   3.286  0.5067 -0.0660 -0.5104
 1889SOL    HW215129   4.628   9.932   3.332 -0.2142  0.5100 -1.6525
 1890SOL     OW15130   6.486   0.199   3.658 -0.1125  0.2696 -0.0193
 1890SOL    HW115131   6.420   0.254   3.607  0.5311  0.4775 -0.6212
 1890SOL    HW215132   6.476   0.218   3.756 -0.4288  0.8596 -0.1662
 1891SOL     OW15133   5.562   9.867   1.580 -0.0734  0.3613  0.0044
 1891SOL    HW115134   5.621   9.800   1.626 -1.2310  0.3309  1.4778
 1891SOL    HW215135   5.466   9.847   1.601 -0.4588  2.1176 -0.0102
 1892SOL     OW15136   1.547   2.429   0.204 -0.1424 -0.1951 -0.2091
 1892SOL    HW115137   1.459   2.425   0.249 -0.0536 -1.5590 -0.1568
 1892SOL    HW215138   1.558   2.519   0.161 -1.7576 -0.1802 -0.6302
 1893SOL     OW15139   2.571   9.110   3.442  0.2869 -0.4632  0.0466
 1893SOL    HW115140   2.489   9.144   3.488 -0.3499 -2.3539  0.3403
 1893SOL    HW215141   2.644   9.098   3.510  0.2322 -0.5492  0.0899
 1894SOL     OW15142   1.336   0.215   1.979 -0.6825  0.0548  0.2781
 1894SOL    HW115143   1.255   0.167   1.947 -0.2367 -1.0137  0.7174
 1894SOL    HW215144   1.312   0.309   2.004 -1.4638  0.2180 -1.0598
 1895SOL     OW15145   2.825   6.022   3.526 -0.0017 -0.0416 -0.1216
 1895SOL    HW115146   2.866   6.066   3.446 -0.4339  1.4861  0.4803
 1895SOL    HW215147   2.820   6.088   3.601 -1.1687 -0.9681  0.6302
 1897SOL     OW15148   4.054   3.390   3.616  0.4598 -0.0690  0.2923
 1897SOL    HW115149   4.017   3.481   3.597 -0.5349 -0.7064 -0.9261
 1897SOL    HW215150   4.036   3.366   3.711 -1.2021  0.1307  0.0467
 1898SOL     OW15151   0.656   7.729   2.979 -0.3021  0.3405  0.1312
 1898SOL    HW115152   0.693   7.686   3.061  1.2249 -0.6678 -1.0623
 1898SOL    HW215153   0.568   7.773   3.001  0.7882  1.3488  2.6215
 1899SOL     OW15154   9.719   4.645   0.246 -0.4550 -0.1883 -0.5387
 1899SOL    HW115155   9.803   4.591   0.247 -0.3599 -0.0522 -1.1877
 1899SOL    HW215156   9.642   4.587   0.273 -0.3053 -0.5681 -0.9186
 1901SOL     OW15157   8.561   1.620   2.146 -0.3455 -0.3203  0.0931
 1901SOL    HW115158   8.467   1.589   2.162 -0.2871 -0.7361 -0.3608
 1901SOL    HW215159   8.607   1.557   2.084  0.9246 -1.3085  1.9963
 1902SOL     OW15160   9.187   5.724   1.265  0.3805 -0.1539  0.3773
 1902SOL    HW115161   9.121   5.657   1.298  0.5780  0.8263  2.9152
 1902SOL    HW215162   9.270   5.678   1.234 -0.5713 -1.2326 -0.6104
 1903SOL     OW15163   8.959   4.756   3.621  0.0119  0.8603  0.2892
 1903SOL    HW115164   8.868   4.740   3.582 -0.4283  1.5789  0.9994
 1903SOL    HW215165   8.960   4.723   3.716  0.5319  0.7327  0.2378
 1904SOL     OW15166   9.793   6.606   3.168 -0.1712  0.4828  0.4804
 1904SOL    HW115167   9.740   6.565   3.094  1.4308 -1.3360  0.3340
 1904SOL    HW215168   9.733   6.620   3.247 -1.1568 -0.4437 -0.0923
 1905SOL     OW15169   2.435   5.510   2.062  0.3388  0.3145 -0.1735
 1905SOL    HW115170   2.434   5.573   2.139  0.3824  1.1863 -0.8750
 1905SOL    HW215171   2.362   5.442   2.072  0.0200  0.7395  0.3638
 1906SOL     OW15172   8.988   1.600   2.298 -0.3402  0.1847 -0.5796
 1906SOL    HW115173   8.947   1.641   2.379  1.0332 -0.2112  0.3362
 1906SOL    HW215174   9.071   1.550   2.324  1.6285  2.2982 -2.5763
 1908SOL     OW15175   4.023   2.282   2.685  0.2802 -0.0514 -0.5081
 1908SOL    HW115176   3.947   2.244   2.632 -0.3822 -0.4638  0.7268
 1908SOL    HW215177   4.028   2.381   2.669 -1.5926  0.2623  0.7233
 1909SOL     OW15178   8.480   8.770   1.608  0.4394 -0.6257 -0.2612
 1909SOL    HW115179   8.569   8.777   1.652  0.7979 -2.0747 -0.7349
 1909SOL    HW215180   8.424   8.702   1.656 -0.4034  0.2642  0.0271
 1910SOL     OW15181   4.976   2.316   2.764  0.0642  0.3295  0.3156
 1910SOL    HW115182   4.895   2.265   2.791  1.0133 -1.6424 -0.4381
 1910SOL    HW215183   4.971   2.338   2.666  1.3260 -1.5613 -0.2015
 1911SOL     OW15184   8.292   8.471   0.430  0.4439 -0.2132  0.0984
 1911SOL    HW115185   8.222   8.410   0.465 -1.8348  0.4299 -3.1135
 1911SOL    HW215186   8.302   8.549   0.492 -1.3454 -0.5601  0.8541
 1912SOL     OW15187   5.932   0.701   2.441 -0.1527 -0.0110 -0.9710
 1912SOL    HW115188   6.013   0.756   2.422  0.2509 -0.4802 -0.6335
 1912SOL    HW215189   5.852   0.741   2.396  0.1541  0.7946 -0.7938
 1915SOL     OW15190   9.393   9.436   0.012 -0.5262 -0.2484  0.0003
 1915SOL    HW115191   9.398   9.479   0.103 -1.1293  0.7660 -0.4378
 1915SOL    HW215192   9.476   9.458  -0.039 -0.7713  0.2921 -0.1722
 1917SOL     OW15193   1.355   5.112   0.283 -0.2703 -0.0037 -0.1036
 1917SOL    HW115194   1.324   5.017   0.277  0.1067 -0.0877 -0.7395
 1917SOL    HW215195   1.445   5.120   0.240 -1.1552  1.0247 -1.7599
 1918SOL     OW15196   9.674   5.388   3.005  0.4605  0.5783 -0.2384
 1918SOL    HW115197   9.677   5.312   3.069  0.0179  1.4355  0.8224
 1918SOL    HW215198   9.722   5.363   2.920  0.1247 -0.9371  0.0082
 1919SOL     OW15199   1.912   6.450   2.381 -0.0247  0.7453  0.2301
 1919SOL    HW115200   1.929   6.450   2.283  2.6368  1.3823  0.6407
 1919SOL    HW215201   1.991   6.411   2.429 -1.9137 -0.9560  2.0441
 1920SOL     OW15202   1.032   0.569   2.123  0.0818  0.3510 -0.0382
 1920SOL    HW115203   0.939   0.550   2.090  0.2069 -0.8880  0.2995
 1920SOL    HW215204   1.028   0.594   2.220 -0.0921  2.2381 -0.5015
 1921SOL     OW15205   9.787   0.545   2.805  0.2923  0.0873  0.2028
 1921SOL    HW115206   9.760   0.457   2.843  0.6393  0.6427  1.7949
 1921SOL    HW215207   9.771   0.546   2.706  0.2324 -1.7246  0.1880
 1922SOL     OW15208   8.855   9.351   1.137  0.0271  0.4583  0.1600
 1922SOL    HW115209   8.890   9.265   1.173 -1.5893 -0.0842  0.4704
 1922SOL    HW215210   8.915   9.384   1.064  1.4385 -0.1873  1.0052
 1923SOL     OW15211   0.931   5.978   1.642 -0.1442  0.2540  0.5563
 1923SOL    HW115212   0.900   5.911   1.710  0.9161 -0.6676  0.1544
 1923SOL    HW215213   0.852   6.021   1.599 -0.9058 -2.2555 -0.6679
 1924SOL     OW15214   8.088   3.492   0.833 -0.2548  0.1254  0.4399
 1924SOL    HW115215   7.999   3.524   0.865  0.3627 -0.8456  3.2228
 1924SOL    HW215216   8.076   3.423   0.762 -1.6961  0.4529  0.3583
 1925SOL     OW15217   1.279   9.795   1.242 -0.2730 -0.0597 -0.2915
 1925SOL    HW115218   1.329   9.808   1.327  2.0439 -1.1329 -1.4408
 1925SOL    HW215219   1.182   9.813   1.257  0.2091  0.5013  2.3716
 1926SOL     OW15220   8.868   8.210   2.705 -0.2714 -0.0818  0.5479
 1926SOL    HW115221   8.833   8.286   2.650  0.6859 -1.2302 -1.7235
 1926SOL    HW215222   8.814   8.128   2.686  0.7028 -0.7320  0.5850
 1927SOL     OW15223   9.484   3.250   3.090 -0.5160  0.1103  0.0924
 1927SOL    HW115224   9.566   3.203   3.058  1.0224  2.3899  0.5553
 1927SOL    HW215225   9.422   3.266   3.013 -0.0066 -0.5746 -0.4688
 1928SOL     OW15226   1.092   8.540   2.336 -0.4078  0.4532 -0.4065
 1928SOL    HW115227   1.090   8.591   2.422  0.5321 -0.6379  0.2774
 1928SOL    HW215228   1.011   8.481   2.330 -0.8918  1.1432 -0.6514
 1929SOL     OW15229   8.693   3.626   1.660 -0.2866  0.7614 -0.0001
 1929SOL    HW115230   8.654   3.557   1.722 -0.4620  1.5150  0.7550
 1929SOL    HW215231   8.759   3.583   1.599 -2.2402 -0.5453 -1.2614
 1930SOL     OW15232   8.014   2.353   1.807 -0.4557 -0.1403  0.1453
 1930SOL    HW115233   7.925   2.370   1.851 -0.4006 -1.5884  0.8250
 1930SOL    HW215234   8.087   2.374   1.871 -0.2215  2.5252 -0.9015
 1931SOL     OW15235   1.628   5.710   0.687  0.7117 -0.0813 -0.3425
 1931SOL    HW115236   1.713   5.762   0.694  1.1345 -0.5561 -1.8492
 1931SOL    HW215237   1.552   5.767   0.720  1.4461  0.7686 -0.0937
 1933SOL     OW15238   2.375   0.260   0.220 -0.3433 -0.2801 -0.5630
 1933SOL    HW115239   2.366   0.160   0.222 -2.2177 -0.1286 -0.7578
 1933SOL    HW215240   2.376   0.295   0.314 -0.3938 -0.4112 -0.5132
 1935SOL     OW15241   2.403   1.710   1.459  0.1557 -0.0386  0.2783
 1935SOL    HW115242   2.437   1.796   1.498 -0.0507  1.6530 -3.0143
 1935SOL    HW215243   2.473   1.671   1.399 -1.6563  0.7012 -2.4102
 1936SOL     OW15244   3.876   5.983   2.343 -0.2843  0.5998 -0.1534
 1936SOL    HW115245   3.870   5.917   2.268  1.9467  1.2971 -0.9935
 1936SOL    HW215246   3.799   6.046   2.339 -2.0284 -1.4591  0.1948
 1937SOL     OW15247   5.670   0.693   2.907  0.5658 -0.7685 -0.0162
 1937SOL    HW115248   5.587   0.639   2.924  1.2240 -1.8672 -0.2664
 1937SOL    HW215249   5.689   0.749   2.988 -0.6000 -0.2459 -0.0792
 1938SOL     OW15250   2.108   1.515   3.666  0.2325  0.1277 -0.0786
 1938SOL    HW115251   2.133   1.591   3.606 -0.0020  1.0365  0.9503
 1938SOL    HW215252   2.188   1.457   3.682  0.6426  0.6849 -0.1215
 1939SOL     OW15253   5.828   0.350   2.143 -0.2323 -0.0635 -0.4462
 1939SOL    HW115254   5.767   0.333   2.220 -0.7760  1.0865 -0.6082
 1939SOL    HW215255   5.900   0.281   2.141 -0.9950 -0.8847  0.2958
 1940SOL     OW15256   8.065   0.717   3.242 -0.1369  0.3185 -0.3869
 1940SOL    HW115257   7.993   0.704   3.309 -0.1074 -1.3736 -0.6505
 1940SOL    HW215258   8.152   0.735   3.289  0.2380 -2.5839  0.1456
 1941SOL     OW15259   8.448   8.970   2.627  0.0494  0.1323 -0.2213
 1941SOL    HW115260   8.395   9.053   2.609  1.5328  1.0671 -0.3555
 1941SOL    HW215261   8.389   8.902   2.671 -1.3433  1.0172 -0.6733
 1943SOL     OW15262   3.065   5.892   0.565  0.1004 -0.2373  0.2606
 1943SOL    HW115263   3.089   5.972   0.619  0.5080  0.2725 -0.6500
 1943SOL    HW215264   3.041   5.816   0.625  1.7774 -0.0755  1.1737
 1944SOL     OW15265   0.717   7.092   3.629  0.5306 -0.6656  0.0550
 1944SOL    HW115266   0.671   7.114   3.543  1.7767 -0.6072 -0.6075
 1944SOL    HW215267   0.673   7.012   3.671 -1.1104  0.2752  0.1953
 1945SOL     OW15268   0.630   1.378   0.754 -0.5815 -0.7958  0.0068
 1945SOL    HW115269   0.542   1.413   0.787 -0.4846  0.9868 -1.5342
 1945SOL    HW215270   0.703   1.441   0.783  0.0483 -1.6360  0.2578
 1947SOL     OW15271   8.527   7.717   0.275  0.1909 -0.2145  0.6554
 1947SOL    HW115272   8.535   7.742   0.179 -0.0284  0.4824  0.8194
 1947SOL    HW215273   8.578   7.782   0.331 -0.3350 -0.1632  1.0770
 1948SOL     OW15274   1.155   2.157   3.610  0.5462 -0.2354  0.5379
 1948SOL    HW115275   1.151   2.101   3.527 -0.9833  0.5460  0.0691
 1948SOL    HW215276   1.090   2.123   3.677 -0.7696  1.2555  0.0544
 1949SOL     OW15277   2.827   4.318   2.908 -0.6423  0.1261  0.5599
 1949SOL    HW115278   2.791   4.241   2.962 -1.1653  1.0721  1.5870
 1949SOL    HW215279   2.778   4.401   2.933 -0.7006  0.6303 -1.2147
 1950SOL     OW15280   2.231   4.236   2.276 -0.1323  0.1576 -0.2939
 1950SOL    HW115281   2.294   4.208   2.204 -1.2487 -1.5452 -0.6534
 1950SOL    HW215282   2.143   4.191   2.262 -0.6664  0.5697  1.5977
 1951SOL     OW15283   6.439   8.668   1.741 -0.1871  0.0843 -0.1843
 1951SOL    HW115284   6.401   8.667   1.648  0.7398 -2.0566 -0.5725
 1951SOL    HW215285   6.537   8.691   1.736  0.6429 -3.1706 -0.1054
 1952SOL     OW15286   4.085   3.497   3.321  0.1848 -0.0052 -0.2341
 1952SOL    HW115287   3.988   3.508   3.342  0.0208  0.6910 -1.3314
 1952SOL    HW215288   4.130   3.586   3.322  0.4943 -0.1454 -1.2473
 1953SOL     OW15289   8.851   9.272   0.193  0.0142 -0.3371  0.4263
 1953SOL    HW115290   8.829   9.369   0.189  2.4220  0.1873 -0.9529
 1953SOL    HW215291   8.782   9.220   0.143  0.0645  0.9333 -0.9941
 1955SOL     OW15292   4.101   0.603   0.122  0.3538 -0.1198 -0.2825
 1955SOL    HW115293   4.200   0.616   0.132  0.1614  0.7516  0.5664
 1955SOL    HW215294   4.065   0.557   0.203 -0.0108 -0.0064 -0.3792
 1956SOL     OW15295   5.337   8.115   2.875 -0.3020 -0.3895 -0.1059
 1956SOL    HW115296   5.422   8.144   2.919  0.8556 -1.8466 -1.3193
 1956SOL    HW215297   5.260   8.134   2.936  0.7418  2.1132  0.4738
 1957SOL     OW15298   2.073   2.625   0.272 -0.2193 -0.6295 -0.1691
 1957SOL    HW115299   2.056   2.547   0.212  0.0641  0.3780 -1.5727
 1957SOL    HW215300   2.069   2.595   0.368  0.7011 -2.5306 -0.7075
 1958SOL     OW15301   9.337   4.894   1.252  0.4712 -0.4031  0.2594
 1958SOL    HW115302   9.343   4.802   1.292  0.7329  0.1658  1.5703
 1958SOL    HW215303   9.259   4.943   1.291  0.7856  0.1970  0.1546
 1959SOL     OW15304   3.326   9.196   1.079 -0.1333  0.3332 -0.2479
 1959SOL    HW115305   3.379   9.136   1.019 -0.4021  0.6812 -0.8408
 1959SOL    HW215306   3.248   9.234   1.027 -0.7882  0.0591  0.5253
 1960SOL     OW15307   4.150   0.973   1.665  0.0602  0.1492  0.2968
 1960SOL    HW115308   4.079   0.903   1.671  0.7775 -0.5241  1.0056
 1960SOL    HW215309   4.182   0.995   1.757  0.6377  0.5903 -0.0097
 1961SOL     OW15310   9.112   4.807   0.175  0.4861 -0.0865  0.4967
 1961SOL    HW115311   9.026   4.847   0.145  0.8170  1.0954  1.0651
 1961SOL    HW215312   9.099   4.758   0.261  0.4880  0.5790  0.8802
 1962SOL     OW15313   2.934   6.570   1.109 -0.0750  0.1094 -0.0200
 1962SOL    HW115314   2.836   6.580   1.125  0.1023 -1.2466  2.1678
 1962SOL    HW215315   2.953   6.574   1.010 -2.6456 -2.1150 -0.6620
 1963SOL     OW15316   8.294   9.725   0.518 -0.1920  0.0496 -0.2483
 1963SOL    HW115317   8.372   9.767   0.565 -1.5456 -0.5944  2.6646
 1963SOL    HW215318   8.218   9.790   0.517 -0.4869 -0.3032 -0.6662
 1964SOL     OW15319   3.180   1.267   2.990  0.1877 -0.0163 -0.2589
 1964SOL    HW115320   3.183   1.354   3.039  1.7762  1.7342 -3.2411
 1964SOL    HW215321   3.254   1.208   3.022  0.7172  0.7895  0.0204
 1965SOL     OW15322   1.721   1.813   1.302 -0.4936 -0.6763 -0.1840
 1965SOL    HW115323   1.663   1.732   1.310 -1.0182 -0.4059 -1.2586
 1965SOL    HW215324   1.695   1.865   1.222  0.0310  0.4208  0.3503
 1966SOL     OW15325   4.892   9.396   2.280  0.3869 -0.0026 -0.5759
 1966SOL    HW115326   4.916   9.299   2.285 -1.2870 -0.2979  2.5925
 1966SOL    HW215327   4.794   9.408   2.296  0.6470  2.2608 -0.4468
 1967SOL     OW15328   2.651   9.203   1.193 -0.6212 -0.2892 -0.0168
 1967SOL    HW115329   2.672   9.134   1.123 -0.1811  1.8626 -2.0818
 1967SOL    HW215330   2.552   9.208   1.206 -0.6240 -1.6336  0.4908
 1969SOL     OW15331   4.548   2.109   0.271  0.2833  0.0298 -0.2523
 1969SOL    HW115332   4.575   2.059   0.189 -1.8445 -1.3943 -0.1304
 1969SOL    HW215333   4.553   2.048   0.351 -0.8569  0.4125  0.1378
 1970SOL     OW15334   7.161   1.101   2.280  0.3007  0.3689  1.0148
 1970SOL    HW115335   7.173   1.200   2.283  1.5822  0.3012 -1.2577
 1970SOL    HW215336   7.065   1.079   2.265  0.2877  1.3066 -0.3282
 1971SOL     OW15337   1.052   5.305   2.394  0.0607  0.0374  0.5447
 1971SOL    HW115338   1.029   5.333   2.301 -1.8175 -1.8116  0.4236
 1971SOL    HW215339   0.971   5.313   2.452  0.4842 -1.5212  1.3607
 1973SOL     OW15340   7.405   0.024   0.487  0.2150  0.1104 -0.5079
 1973SOL    HW115341   7.391   0.121   0.471  1.2895  0.1326 -1.3434
 1973SOL    HW215342   7.349  -0.029   0.423  0.9276  0.1878 -1.1992
 1974SOL     OW15343   1.764   3.558   3.751  0.1746  0.0235 -0.7153
 1974SOL    HW115344   1.758   3.644   3.701  3.4801  1.1735  0.7333
 1974SOL    HW215345   1.784   3.484   3.687  1.1164  0.9746 -1.5471
 1975SOL     OW15346   6.766   9.483   1.739  0.0492  0.1580 -0.2929
 1975SOL    HW115347   6.770   9.466   1.837 -1.1178  1.2682 -0.0385
 1975SOL    HW215348   6.844   9.539   1.711 -0.1856  0.7128  0.1766
 1978SOL     OW15349   3.343   3.945   1.802  0.2007  0.0982  0.3216
 1978SOL    HW115350   3.351   4.021   1.866 -3.2331  1.6209 -0.9204
 1978SOL    HW215351   3.249   3.911   1.803  0.4963 -0.9559 -2.6669
 1979SOL     OW15352   3.150   4.160   2.311  0.1399  0.4484 -0.1488
 1979SOL    HW115353   3.052   4.177   2.306  0.0053  0.0110  0.8643
 1979SOL    HW215354   3.194   4.237   2.358  0.6539  1.9317 -2.9827
 1980SOL     OW15355   9.538   8.498   0.079 -0.1323 -0.2484 -0.0277
 1980SOL    HW115356   9.626   8.541   0.101 -0.2093 -0.7282  1.3077
 1980SOL    HW215357   9.549   8.399   0.077 -1.1031 -0.4413  2.4810
 1984SOL     OW15358   1.154   6.439   1.938  0.0145 -0.1333 -0.2970
 1984SOL    HW115359   1.233   6.379   1.953  1.1879  1.2769 -0.7034
 1984SOL    HW215360   1.084   6.389   1.887  1.0381 -1.1049 -0.7730
 1985SOL     OW15361   0.753   4.439   3.686  0.0930 -0.2818  0.1161
 1985SOL    HW115362   0.785   4.511   3.748 -0.6154  0.3958 -0.3027
 1985SOL    HW215363   0.826   4.371   3.675 -0.2895 -1.2215  2.8878
 1986SOL     OW15364   9.986   5.634   2.892  0.4514  0.0385 -0.2165
 1986SOL    HW115365  10.085   5.635   2.908  0.2819  1.5859  0.8625
 1986SOL    HW215366   9.967   5.674   2.803  0.7080  1.2051  0.2376
 1987SOL     OW15367   6.582   8.225   3.357 -0.1411 -0.6441  1.3641
 1987SOL    HW115368   6.558   8.166   3.280  2.5519  1.4006 -1.1651
 1987SOL    HW215369   6.679   8.214   3.379 -0.2140  0.9167  2.5820
 1988SOL     OW15370   5.499   2.968   0.377 -0.4739  0.2167 -0.1937
 1988SOL    HW115371   5.428   2.899   0.394  1.0660 -1.4063 -0.2660
 1988SOL    HW215372   5.587   2.923   0.363  0.8561  2.2753  1.2193
 1990SOL     OW15373   6.368   8.325   3.086 -0.2871 -0.0098 -0.1564
 1990SOL    HW115374   6.349   8.280   2.999 -0.7909 -1.9860  0.9325
 1990SOL    HW215375   6.461   8.302   3.116 -0.7659 -0.8283  0.7056
 1992SOL     OW15376   9.866   4.939   1.775 -0.1212 -0.1537 -0.2286
 1992SOL    HW115377   9.881   4.887   1.859  0.5557  0.9446  0.3503
 1992SOL    HW215378   9.868   4.877   1.696  0.6823 -0.9908  0.4426
 1993SOL     OW15379   1.689   5.212   0.683  0.0771  0.3935  0.0666
 1993SOL    HW115380   1.763   5.159   0.724 -1.1388 -0.9555  0.5966
 1993SOL    HW215381   1.695   5.208   0.583 -0.3758 -1.3654  0.0794
 1994SOL     OW15382   2.788   9.561   0.313  0.3219 -0.5620  0.4412
 1994SOL    HW115383   2.818   9.656   0.304 -0.7620 -0.2519  0.0046
 1994SOL    HW215384   2.693   9.560   0.344 -0.1333 -1.4970 -0.9622
 1996SOL     OW15385   0.046   5.579   1.502  0.2482  0.2221 -0.0509
 1996SOL    HW115386   0.049   5.638   1.421  2.0093 -1.3115 -1.1434
 1996SOL    HW215387   0.080   5.488   1.479 -0.3918 -0.6078  2.1280
 1997SOL     OW15388   2.095   7.844   2.428 -0.0386  0.4907  1.0081
 1997SOL    HW115389   2.046   7.931   2.417 -1.3131 -0.2678  0.5929
 1997SOL    HW215390   2.029   7.769   2.432  1.0979 -0.5773  0.2251
 1998SOL     OW15391   3.064   2.791   0.888  0.1161  0.1482 -0.5766
 1998SOL    HW115392   3.033   2.847   0.965  1.0966  0.0358 -0.0925
 1998SOL    HW215393   3.131   2.843   0.834  0.6685 -0.3704 -0.3973
 1999SOL     OW15394   1.696   2.223   3.378 -0.5434 -0.0141  0.2497
 1999SOL    HW115395   1.606   2.267   3.375 -0.3989  0.2348 -1.3499
 1999SOL    HW215396   1.686   2.125   3.361 -0.5911 -0.1037  0.8138
 2000SOL     OW15397   9.732   9.899   0.772 -0.6095 -0.5882 -0.3734
 2000SOL    HW115398   9.829   9.894   0.747  0.1400  2.8454  1.5109
 2000SOL    HW215399   9.677   9.909   0.690  1.0393  1.7851 -1.2435
 2001SOL     OW15400   3.971   9.077   1.179 -0.1132 -0.0924  0.4196
 2001SOL    HW115401   4.036   9.082   1.104  0.4716 -1.3311  0.8211
 2001SOL    HW215402   3.956   9.168   1.217  0.5513  0.3566 -0.3837
 2002SOL     OW15403   8.534   5.802   2.299 -0.3600 -0.0983  0.7497
 2002SOL    HW115404   8.523   5.900   2.313 -2.1457 -0.0722 -0.6744
 2002SOL    HW215405   8.628   5.775   2.321 -0.1394  1.7336  2.1441
 2003SOL     OW15406   9.129   2.770   0.533  0.8473  0.2962 -0.7487
 2003SOL    HW115407   9.145   2.810   0.443  1.5159  0.0620 -0.7353
 2003SOL    HW215408   9.214   2.773   0.587  0.4953  0.2878 -0.1856
 2005SOL     OW15409   2.019   3.121   3.114 -0.0030 -0.0526  0.0755
 2005SOL    HW115410   2.117   3.141   3.108  0.8024 -4.0874 -1.8244
 2005SOL    HW215411   1.999   3.077   3.201  0.0126  0.1566  0.1836
 2006SOL     OW15412   7.143   7.495   2.465  0.0013  0.2104 -0.3580
 2006SOL    HW115413   7.154   7.420   2.531  1.9770  2.5607  2.1059
 2006SOL    HW215414   7.218   7.493   2.399 -0.6537 -0.7166 -1.0856
 2007SOL     OW15415   8.132   2.851   3.485  0.4439  0.3783  0.4882
 2007SOL    HW115416   8.039   2.885   3.476  0.0157 -0.7314  0.6863
 2007SOL    HW215417   8.136   2.781   3.557  1.4012  0.3230  0.3968
 2008SOL     OW15418   0.757   3.767   3.148  1.0317  0.2172  0.2944
 2008SOL    HW115419   0.759   3.837   3.220  0.4497 -1.0809  1.6139
 2008SOL    HW215420   0.850   3.734   3.131  0.9879 -0.6612  1.6723
 2009SOL     OW15421   8.709   6.929   0.793 -0.2140 -0.2075  0.1297
 2009SOL    HW115422   8.712   6.830   0.806 -0.2471 -0.2355 -0.0795
 2009SOL    HW215423   8.615   6.958   0.780 -0.1519 -0.2172 -0.3518
 2010SOL     OW15424   4.046   0.989   2.737  0.1366  0.5800  0.1108
 2010SOL    HW115425   4.034   1.004   2.639  0.6949 -0.9526 -0.2113
 2010SOL    HW215426   4.125   1.040   2.769  0.0289  0.9887 -0.2672
 2011SOL     OW15427   9.682   2.453   1.974 -0.1942  0.2187  0.2327
 2011SOL    HW115428   9.767   2.432   2.023 -1.2404  0.0407  1.9963
 2011SOL    HW215429   9.671   2.552   1.966  0.9820  0.2400 -1.4668
 2013SOL     OW15430   9.354   3.318   1.702  0.1943 -0.6766  0.0066
 2013SOL    HW115431   9.346   3.241   1.766  0.0126  0.1740  1.0196
 2013SOL    HW215432   9.318   3.291   1.613 -4.5447 -0.2256  1.6679
 2014SOL     OW15433   3.534   7.840   2.686 -0.5035  0.2856 -0.9831
 2014SOL    HW115434   3.444   7.799   2.672 -0.4233  0.4314 -1.9855
 2014SOL    HW215435   3.604   7.769   2.683 -0.6197  0.0965  0.3464
 2015SOL     OW15436   3.818   0.231   0.192 -0.9169  0.5123  0.2182
 2015SOL    HW115437   3.848   0.150   0.141  0.4585  1.2230 -0.1230
 2015SOL    HW215438   3.794   0.204   0.286 -0.4250 -0.2840  0.1199
 2017SOL     OW15439   3.130   5.113   1.394 -0.2376  0.3371  0.3018
 2017SOL    HW115440   3.147   5.033   1.336 -1.5662  1.3617 -1.5768
 2017SOL    HW215441   3.038   5.107   1.433  1.7572 -1.9333  5.0352
 2018SOL     OW15442   4.697   6.733   3.251 -0.3292  0.0130  0.1085
 2018SOL    HW115443   4.773   6.791   3.223 -1.0504  0.9140 -0.0087
 2018SOL    HW215444   4.729   6.639   3.264  0.8057  0.4002  0.1174
 2019SOL     OW15445   1.940   1.113   1.895 -0.0195 -0.1734  0.1247
 2019SOL    HW115446   1.965   1.185   1.829  0.1124  1.6659  2.1373
 2019SOL    HW215447   1.850   1.076   1.870  0.4483 -0.1992 -1.6477
 2020SOL     OW15448   1.659   6.881   2.162 -0.3898 -0.1957 -0.5071
 2020SOL    HW115449   1.596   6.805   2.173  1.2493 -1.4054  0.7688
 2020SOL    HW215450   1.752   6.847   2.150 -0.0732  1.5220 -3.5806
 2021SOL     OW15451   2.142   0.627   3.714  0.0674  0.0734 -0.3362
 2021SOL    HW115452   2.070   0.654   3.650  0.0874 -1.0662 -0.8548
 2021SOL    HW215453   2.214   0.697   3.713 -0.0145  0.1605 -1.4320
 2022SOL     OW15454   3.301   5.307   1.276 -0.8568 -0.5154  0.1573
 2022SOL    HW115455   3.331   5.395   1.312  0.3797 -1.6377  1.9870
 2022SOL    HW215456   3.206   5.291   1.304 -0.6052 -0.4064  1.1019
 2024SOL     OW15457   3.058   2.959   0.014 -0.2106  0.4657  0.0907
 2024SOL    HW115458   3.068   2.879  -0.045  0.3570 -0.5026  1.4664
 2024SOL    HW215459   3.016   3.034  -0.038 -0.4252 -0.5994 -1.3087
 2025SOL     OW15460   7.167   6.432   2.800  0.0683 -0.7972  0.0532
 2025SOL    HW115461   7.205   6.343   2.775 -1.4234 -0.9985 -1.5996
 2025SOL    HW215462   7.067   6.429   2.791  0.1353  1.6287 -1.9664
 2026SOL     OW15463   8.414   7.484   0.194 -0.4772  0.3805 -0.0551
 2026SOL    HW115464   8.355   7.459   0.271  0.2272  1.1296  0.7310
 2026SOL    HW215465   8.472   7.561   0.219  0.0868  0.3406 -1.1851
 2027SOL     OW15466   4.289   8.937   1.585  0.1361 -0.6620 -0.2572
 2027SOL    HW115467   4.374   8.960   1.536 -0.5780  1.3541 -0.6012
 2027SOL    HW215468   4.211   8.964   1.530 -0.7111 -0.2263  1.1395
 2028SOL     OW15469   3.191   5.584   3.385  0.2182  0.2064 -0.0222
 2028SOL    HW115470   3.268   5.648   3.384  0.8254 -0.4807  1.1160
 2028SOL    HW215471   3.114   5.624   3.337  1.8266  0.2177 -2.6658
 2030SOL     OW15472   9.685   5.328   1.641 -0.3349 -0.2115 -0.1319
 2030SOL    HW115473   9.751   5.396   1.671 -0.2255 -0.2875 -0.2007
 2030SOL    HW215474   9.709   5.295   1.550 -0.6724  0.0251 -0.3065
 2031SOL     OW15475   2.148   8.012   3.062  0.5759  0.1586 -0.6578
 2031SOL    HW115476   2.126   7.936   3.123 -0.2804  0.1857 -0.9323
 2031SOL    HW215477   2.179   8.091   3.117 -0.6636  0.3521 -0.2167
 2032SOL     OW15478   4.781   3.533   2.495  0.1705 -0.0044 -0.2306
 2032SOL    HW115479   4.791   3.513   2.593 -1.1921 -0.2625 -0.1286
 2032SOL    HW215480   4.866   3.572   2.460  0.7747 -0.1921  0.9884
 2035SOL     OW15481   1.671   3.962   1.056 -0.1510 -0.4341  0.5922
 2035SOL    HW115482   1.726   3.928   1.133  0.6013 -0.1512  0.1947
 2035SOL    HW215483   1.725   3.954   0.972 -0.6019  0.1710  0.2479
 2036SOL     OW15484   8.596   9.154   2.807 -1.0696  0.0999 -0.0350
 2036SOL    HW115485   8.573   9.073   2.752 -0.3966  0.3315 -0.6679
 2036SOL    HW215486   8.620   9.229   2.746  0.4115  0.1480  0.5870
 2037SOL     OW15487   0.067   2.984   1.873  0.2517  0.1023  0.1200
 2037SOL    HW115488   0.096   2.909   1.814 -0.1378 -0.5468  0.7535
 2037SOL    HW215489   0.055   3.067   1.818  2.2581  0.1165 -0.3296
 2038SOL     OW15490   3.083   6.022   2.220 -0.2956  0.0012  0.2070
 2038SOL    HW115491   3.081   5.925   2.195  0.0101 -0.6754  2.6509
 2038SOL    HW215492   3.145   6.035   2.298  0.0760  2.2574 -0.4260
 2039SOL     OW15493   0.111   2.916   2.569 -0.2368  0.0107  0.2932
 2039SOL    HW115494   0.034   2.854   2.554 -1.0338  1.3436 -1.3115
 2039SOL    HW215495   0.077   3.004   2.602  0.7330  0.1332  0.9807
 2040SOL     OW15496   8.119   7.635   3.597 -0.2543  0.0397 -0.9757
 2040SOL    HW115497   8.035   7.648   3.650  0.9963  1.2054  0.7550
 2040SOL    HW215498   8.123   7.540   3.565 -1.2486 -0.5761  0.6345
 2041SOL     OW15499   0.580   3.336   2.804  0.7858 -0.8141  0.3099
 2041SOL    HW115500   0.499   3.378   2.765  0.2483 -0.5783  1.6486
 2041SOL    HW215501   0.661   3.392   2.782  0.3715 -0.2300  0.2565
 2042SOL     OW15502   2.603   0.279   1.439 -0.2559  0.7217 -0.4570
 2042SOL    HW115503   2.524   0.233   1.480 -1.4012  1.3176 -1.9642
 2042SOL    HW215504   2.579   0.374   1.419  0.7756  0.8451 -1.1361
 2043SOL     OW15505   0.836   1.497   2.977  0.6326  0.7991  0.2556
 2043SOL    HW115506   0.828   1.581   3.030 -2.0591 -1.5010  3.7372
 2043SOL    HW215507   0.746   1.453   2.971  1.4341 -0.5079 -3.8336
 2045SOL     OW15508   9.810   2.737   0.473  0.1354 -0.2131 -0.0976
 2045SOL    HW115509   9.868   2.813   0.446 -1.0592  0.7672  0.0588
 2045SOL    HW215510   9.795   2.740   0.572 -0.4252 -0.2931 -0.1794
 2047SOL     OW15511   1.396   3.904   1.045 -0.2546  0.6436 -0.4440
 2047SOL    HW115512   1.492   3.932   1.045 -0.4331  1.2548 -0.9183
 2047SOL    HW215513   1.354   3.929   1.132  0.2925 -0.6088  0.2044
 2049SOL     OW15514   2.559   0.119   1.019  0.5518 -0.5755 -0.1850
 2049SOL    HW115515   2.631   0.095   1.084  0.6229  0.6891  0.2101
 2049SOL    HW215516   2.567   0.215   0.994 -1.4158 -0.2463  0.3872
 2050SOL     OW15517   8.941   1.009   1.260 -0.5888 -0.2740 -0.2680
 2050SOL    HW115518   8.891   0.960   1.332 -0.0810 -1.1109 -0.4727
 2050SOL    HW215519   8.876   1.049   1.196 -1.0089 -2.6522 -1.3915
 2051SOL     OW15520   1.154   2.355   2.870  0.3549 -0.3878 -0.6313
 2051SOL    HW115521   1.135   2.433   2.929  3.2177 -0.1662  0.0825
 2051SOL    HW215522   1.076   2.292   2.871 -0.1713  0.2452  2.3878
 2053SOL     OW15523   0.680   1.701   1.407 -0.4334 -0.0003  0.2636
 2053SOL    HW115524   0.613   1.680   1.479 -0.1954  0.1186  0.5222
 2053SOL    HW215525   0.632   1.716   1.321 -0.7140 -0.2554  0.3719
 2054SOL     OW15526   0.953   6.271   3.544 -0.3873  0.3751 -0.4224
 2054SOL    HW115527   1.025   6.249   3.479  0.4863  1.2200  0.2487
 2054SOL    HW215528   0.923   6.365   3.530 -0.5019  0.4195  0.1177
 2055SOL     OW15529   1.688   0.973   1.857 -0.3866  0.1611  0.0598
 2055SOL    HW115530   1.678   0.883   1.899  2.7192 -0.5858 -0.6643
 2055SOL    HW215531   1.672   0.965   1.758 -0.3269  0.4450  0.0272
 2056SOL     OW15532   4.972   8.206   1.608  0.0710  0.1707 -0.3793
 2056SOL    HW115533   4.977   8.234   1.703 -1.2320  0.2480 -0.3250
 2056SOL    HW215534   5.014   8.276   1.550  0.6729  0.2238  0.1175
 2057SOL     OW15535   8.516   9.626   2.740 -0.8392 -0.0042 -0.0581
 2057SOL    HW115536   8.468   9.614   2.826 -0.9889  1.0887  0.0199
 2057SOL    HW215537   8.550   9.720   2.733  0.6358 -0.5386 -0.4429
 2058SOL     OW15538   7.341   0.812   3.393 -0.0368 -0.4371  0.4517
 2058SOL    HW115539   7.433   0.776   3.375  0.0152  0.5175 -1.3436
 2058SOL    HW215540   7.338   0.909   3.367 -1.1999 -0.1340  1.6877
 2059SOL     OW15541   0.076   2.520   0.768 -0.0773 -0.2486  0.0127
 2059SOL    HW115542   0.054   2.608   0.727  0.5776  0.1542  0.5248
 2059SOL    HW215543   0.033   2.514   0.858  0.2493 -0.2687  0.1686
 2060SOL     OW15544   6.185   7.079   2.552 -0.1291  0.5587  0.8396
 2060SOL    HW115545   6.106   7.019   2.538  1.8664 -2.2273  0.9458
 2060SOL    HW215546   6.177   7.125   2.641  0.0327 -2.4606  2.4889
 2061SOL     OW15547   1.378   0.080   2.384  0.0446 -0.1599 -0.3519
 2061SOL    HW115548   1.383  -0.020   2.380 -0.1530 -0.1383 -1.3291
 2061SOL    HW215549   1.448   0.119   2.323  0.3691  0.3042  0.3062
 2062SOL     OW15550   3.033   4.602   2.609  0.0734 -0.0909 -0.2842
 2062SOL    HW115551   3.051   4.691   2.567  1.3256 -0.5283 -0.7029
 2062SOL    HW215552   2.939   4.573   2.586 -0.7394  1.6154  0.7964
 2064SOL     OW15553   9.920   1.353   0.494  0.0657  0.7010  0.3506
 2064SOL    HW115554   9.856   1.390   0.560 -1.2322  1.0491 -1.0779
 2064SOL    HW215555  10.009   1.338   0.538 -0.7319  1.0694  2.1042
 2065SOL     OW15556   0.701   8.037   2.811 -0.4691  0.7364  0.5972
 2065SOL    HW115557   0.714   8.031   2.910 -1.3138 -1.2616  0.6210
 2065SOL    HW215558   0.606   8.012   2.789  0.0127  0.1079 -0.8006
 2066SOL     OW15559   3.390   5.814   2.290  0.2523  0.6703 -0.6708
 2066SOL    HW115560   3.448   5.847   2.215  1.8717  0.2948  0.3860
 2066SOL    HW215561   3.380   5.887   2.357  1.5573 -0.0573  0.3372
 2067SOL     OW15562   1.997   8.919   3.445  0.5212  0.0310 -0.0081
 2067SOL    HW115563   1.901   8.901   3.423 -0.2107  1.2816  2.0384
 2067SOL    HW215564   2.009   8.916   3.544  3.3668 -3.7738 -0.3672
 2068SOL     OW15565   3.659   3.929   2.092  0.3788  0.5177  0.3430
 2068SOL    HW115566   3.719   4.009   2.082  0.3852  0.7420  2.0206
 2068SOL    HW215567   3.671   3.868   2.014  1.7439  1.2558 -0.0400
 2069SOL     OW15568   4.395   7.541   2.109  0.8157 -0.1566 -0.2591
 2069SOL    HW115569   4.332   7.619   2.107  0.3329 -0.5613 -0.8939
 2069SOL    HW215570   4.396   7.502   2.201  0.9011  0.4692  0.0124
 2070SOL     OW15571   8.259   4.823   1.708 -0.1311 -0.3631  0.8271
 2070SOL    HW115572   8.187   4.845   1.773  0.0712  0.6817  0.7027
 2070SOL    HW215573   8.346   4.857   1.742  0.2288 -1.1543  0.7243
 2071SOL     OW15574   1.802   5.164   2.706 -0.0920 -0.1103 -0.4062
 2071SOL    HW115575   1.890   5.119   2.699  0.7040  1.2168  0.6695
 2071SOL    HW215576   1.731   5.097   2.726  1.2048 -0.7974  2.0704
 2073SOL     OW15577   1.945   9.069   2.268 -0.5423  0.1454 -0.6229
 2073SOL    HW115578   1.921   9.066   2.171 -1.6436 -3.5147 -0.3065
 2073SOL    HW215579   2.039   9.039   2.280 -0.3792  0.6779 -0.5440
 2075SOL     OW15580   1.670   5.677   3.615 -0.7652  0.0692  0.3569
 2075SOL    HW115581   1.659   5.761   3.669 -0.5925  1.2220 -1.3704
 2075SOL    HW215582   1.603   5.609   3.646 -2.5660  1.6991  0.1611
 2077SOL     OW15583   9.484   2.213   0.181  0.8839 -0.1013  0.2399
 2077SOL    HW115584   9.416   2.201   0.109  0.3144  2.5033  0.2674
 2077SOL    HW215585   9.565   2.259   0.142  0.1415  2.3122  1.4103
 2078SOL     OW15586   8.411   5.849   2.955  0.5360 -0.1814  0.1377
 2078SOL    HW115587   8.401   5.749   2.961  1.5421 -0.3599 -0.9678
 2078SOL    HW215588   8.335   5.893   3.003  0.2531 -1.4779  0.9073
 2079SOL     OW15589   3.640   3.739   1.422 -0.4772  0.0318 -0.2761
 2079SOL    HW115590   3.597   3.770   1.337  0.0907 -0.3698 -0.7147
 2079SOL    HW215591   3.677   3.647   1.409 -1.9532 -0.7604  0.9472
 2080SOL     OW15592   0.446   5.596   1.118 -0.0599  0.2783 -0.3952
 2080SOL    HW115593   0.398   5.563   1.200 -0.2761  0.3611 -0.4894
 2080SOL    HW215594   0.539   5.560   1.118  0.1665  0.8645  0.2584
 2081SOL     OW15595   8.923   9.028   3.165  0.9174 -0.0473 -0.5987
 2081SOL    HW115596   8.971   8.947   3.130 -1.4095 -0.9145 -1.9279
 2081SOL    HW215597   8.890   9.008   3.257  3.0790  0.5629  0.3321
 2084SOL     OW15598   4.138   4.243   0.812 -0.1336  0.0518  0.1571
 2084SOL    HW115599   4.193   4.313   0.858  1.2546 -0.1604 -1.1453
 2084SOL    HW215600   4.198   4.183   0.760 -1.6379  0.0341 -1.5774
 2085SOL     OW15601   9.517   7.779   1.417 -0.5565 -0.2783 -0.0404
 2085SOL    HW115602   9.503   7.840   1.495 -0.4679 -0.5347  0.1787
 2085SOL    HW215603   9.518   7.684   1.449  0.4337 -0.3340 -0.2222
 2086SOL     OW15604   1.260   6.833   1.563  0.0078  0.4456  0.5934
 2086SOL    HW115605   1.165   6.804   1.559 -0.1481  0.8648  1.1970
 2086SOL    HW215606   1.317   6.756   1.591  0.1838 -0.5006 -2.1833
 2087SOL     OW15607   3.598   5.950   3.727  0.0408 -0.5062  0.2469
 2087SOL    HW115608   3.582   6.049   3.734 -1.0068 -0.5588 -1.1703
 2087SOL    HW215609   3.561   5.905   3.807  0.3261  0.2315  0.8025
 2088SOL     OW15610   9.639   0.231   1.587 -0.6094  0.7084  0.2507
 2088SOL    HW115611   9.591   0.313   1.555 -0.1334 -0.0187 -2.3836
 2088SOL    HW215612   9.602   0.150   1.541  1.4852 -0.1226 -0.0192
 2089SOL     OW15613   8.790   4.118   3.293 -0.1217  0.2689 -0.5434
 2089SOL    HW115614   8.864   4.167   3.339 -0.3756  0.4871 -0.3686
 2089SOL    HW215615   8.750   4.052   3.356  2.2163 -2.3462 -1.6579
 2090SOL     OW15616   2.566   4.562   1.818  0.0878 -0.3081 -0.0712
 2090SOL    HW115617   2.574   4.475   1.867 -0.5365 -0.1384  0.3359
 2090SOL    HW215618   2.477   4.568   1.774  0.2786 -0.0397 -0.4261
 2091SOL     OW15619   8.749   6.739   1.582  0.0699 -0.6223 -0.1480
 2091SOL    HW115620   8.833   6.788   1.607  0.2992 -1.5034  0.8209
 2091SOL    HW215621   8.720   6.769   1.491  1.6538 -0.5898 -0.6713
 2092SOL     OW15622   0.160   7.602   3.754 -0.2327  0.1150  0.3052
 2092SOL    HW115623   0.249   7.643   3.732  0.7689 -1.7416  0.7664
 2092SOL    HW215624   0.129   7.546   3.677  0.2462 -1.3022  1.1259
 2093SOL     OW15625   9.811   6.781   1.613  0.3591  0.3153  0.1039
 2093SOL    HW115626   9.871   6.822   1.543  0.6987  1.7721  1.2236
 2093SOL    HW215627   9.865   6.763   1.695 -0.4927  0.5462  0.7121
 2095SOL     OW15628   1.351   2.498   1.048 -0.1712 -0.0343 -0.0458
 2095SOL    HW115629   1.298   2.569   1.002 -0.1006 -0.1496 -0.3067
 2095SOL    HW215630   1.302   2.411   1.043 -0.5534  0.1323  0.8301
 2097SOL     OW15631   0.309   0.107   3.155  0.1983  0.3964  0.2709
 2097SOL    HW115632   0.340   0.090   3.249 -0.2486  0.6030  0.4584
 2097SOL    HW215633   0.370   0.174   3.111 -1.6530  3.0895  1.6269
 2099SOL     OW15634   3.105   4.267   2.838 -0.1429  0.2915 -0.4016
 2099SOL    HW115635   3.155   4.311   2.913 -2.1840 -0.5851  1.5355
 2099SOL    HW215636   3.007   4.270   2.857 -0.7398  0.5112 -3.3341
 2100SOL     OW15637   0.727   9.211   2.979 -0.1193  0.5885  0.5286
 2100SOL    HW115638   0.639   9.230   3.023 -0.9328 -2.8400  0.5280
 2100SOL    HW215639   0.718   9.221   2.880 -0.3901  0.6922  0.5641
 2101SOL     OW15640   7.259   0.640   2.223  0.3137  0.4289 -0.1986
 2101SOL    HW115641   7.322   0.717   2.232 -1.0631  1.5439  0.0447
 2101SOL    HW215642   7.305   0.557   2.255  1.4296  1.3340  0.6369
 2102SOL     OW15643   0.158   3.175   0.786 -0.1425  0.2405 -0.5879
 2102SOL    HW115644   0.103   3.214   0.859 -1.1788 -1.6637 -0.2996
 2102SOL    HW215645   0.160   3.075   0.796 -0.3916 -0.0682 -3.1840
 2103SOL     OW15646   8.653   1.335   1.434  0.2890 -0.4770 -0.5399
 2103SOL    HW115647   8.671   1.406   1.367 -1.7558  0.7867  0.1889
 2103SOL    HW215648   8.565   1.353   1.478  0.4486 -2.6377  0.7245
 2104SOL     OW15649   1.929   6.940   1.264  0.5498  0.7104  0.0093
 2104SOL    HW115650   1.837   6.977   1.275 -0.6163 -2.0803  0.0137
 2104SOL    HW215651   1.941   6.908   1.170  0.5312 -1.3716  0.6829
 2105SOL     OW15652   5.039   9.889   1.221  0.2869  0.4318 -0.1684
 2105SOL    HW115653   4.947   9.904   1.185  0.6639 -0.7781 -1.7214
 2105SOL    HW215654   5.048   9.794   1.251  0.6183  0.9003  1.2448
 2107SOL     OW15655   9.021   6.286   3.253  0.1206 -0.3583 -0.4709
 2107SOL    HW115656   8.977   6.340   3.325  1.5888  0.1848  0.0257
 2107SOL    HW215657   8.971   6.297   3.167 -1.0015 -0.1408  0.2076
 2108SOL     OW15658   9.784   7.151   2.485  0.6387 -0.3048 -0.0515
 2108SOL    HW115659   9.714   7.175   2.553  0.2844  0.4030 -0.6679
 2108SOL    HW215660   9.796   7.052   2.484  0.1381 -0.3754  0.5475
 2110SOL     OW15661   9.648   8.748   1.808 -0.0953 -0.1378  0.4652
 2110SOL    HW115662   9.636   8.666   1.864  1.7282 -1.0526 -0.4241
 2110SOL    HW215663   9.674   8.721   1.715 -1.0224  1.4227 -0.2679
 2112SOL     OW15664   2.170   3.164   2.303  0.0725  0.4942 -0.5268
 2112SOL    HW115665   2.112   3.232   2.256  0.6431  0.8114 -0.7739
 2112SOL    HW215666   2.263   3.200   2.312 -0.4819  1.2658  2.6418
 2114SOL     OW15667   4.395   3.023   2.441  0.5280 -0.7685  0.1262
 2114SOL    HW115668   4.426   3.102   2.494  1.5268 -0.0357 -1.5026
 2114SOL    HW215669   4.475   2.975   2.403 -0.2068 -0.7353 -1.4683
 2116SOL     OW15670   0.978   1.933   2.362  0.2007  0.5295 -0.4706
 2116SOL    HW115671   0.990   1.903   2.267 -2.0845 -0.0578 -0.6155
 2116SOL    HW215672   0.944   1.856   2.417 -0.4283  1.3981  0.3776
 2117SOL     OW15673   0.143   5.889   3.751  0.7041  0.0413  0.1127
 2117SOL    HW115674   0.127   5.937   3.665  1.7777 -0.8342 -0.5925
 2117SOL    HW215675   0.081   5.811   3.758  0.6549  0.0798  0.1103
 2118SOL     OW15676   8.479   3.458   0.795  0.1321  0.5245  0.5337
 2118SOL    HW115677   8.497   3.438   0.891 -0.8096 -0.9428  0.4244
 2118SOL    HW215678   8.426   3.383   0.754 -1.1862  2.0338 -0.6175
 2119SOL     OW15679   2.759   9.760   1.852  0.3537 -0.3471  0.0923
 2119SOL    HW115680   2.848   9.804   1.863 -0.3176  0.9235  0.4158
 2119SOL    HW215681   2.773   9.661   1.840  1.6388 -0.6017  3.2229
 2120SOL     OW15682   1.667   9.720   2.614 -0.6295 -0.4855  0.3026
 2120SOL    HW115683   1.692   9.795   2.553 -2.2034 -0.9982 -1.0110
 2120SOL    HW215684   1.718   9.728   2.700 -0.8271  2.1059  0.2030
 2121SOL     OW15685   1.573   1.589   0.183  0.0132  0.0653  0.9482
 2121SOL    HW115686   1.521   1.606   0.266  0.0298 -0.7190  1.1223
 2121SOL    HW215687   1.670   1.597   0.202  0.2823 -4.2362  2.0573
 2122SOL     OW15688   4.198   7.204   1.884 -0.8345  0.7262  0.6815
 2122SOL    HW115689   4.154   7.172   1.800 -0.7449  0.4702  0.7332
 2122SOL    HW215690   4.252   7.130   1.924  2.2804  1.8651 -1.1302
 2123SOL     OW15691   2.092   8.437   3.678 -0.5139 -0.4464 -0.4141
 2123SOL    HW115692   2.036   8.418   3.597  0.2055  0.9583 -1.2729
 2123SOL    HW215693   2.187   8.412   3.658 -0.4672 -0.8089  0.2725
 2124SOL     OW15694   9.020   1.728   1.341  0.7649 -0.3097  0.3171
 2124SOL    HW115695   8.944   1.734   1.276  1.8401  1.8258 -0.7669
 2124SOL    HW215696   9.055   1.634   1.343 -0.0607 -0.6579 -1.2829
 2125SOL     OW15697   3.734   5.102   3.376 -0.1630 -0.3450  0.1818
 2125SOL    HW115698   3.780   5.183   3.415  0.9995 -0.4576 -0.9201
 2125SOL    HW215699   3.695   5.125   3.287  0.3140 -1.0245 -0.2117
 2126SOL     OW15700   7.703   9.518   1.793 -0.0660 -0.0385  0.1518
 2126SOL    HW115701   7.696   9.419   1.800 -0.3378 -0.3009 -2.8792
 2126SOL    HW215702   7.798   9.544   1.773  0.2496  0.4206  2.2105
 2127SOL     OW15703   9.475   5.450   1.000  0.9256  0.2563  0.4874
 2127SOL    HW115704   9.550   5.456   0.935  0.3025 -1.0525 -0.3768
 2127SOL    HW215705   9.453   5.354   1.017 -0.3015  0.6190  1.0296
 2128SOL     OW15706   9.447   3.620   1.013  0.4074 -0.0178 -0.8431
 2128SOL    HW115707   9.395   3.581   0.937 -0.1001 -0.6900 -0.1587
 2128SOL    HW215708   9.389   3.682   1.065  0.1078 -1.1960  0.2511
 2129SOL     OW15709   4.397   2.546   0.441  0.2867  0.1037  0.5881
 2129SOL    HW115710   4.420   2.478   0.372 -0.6060  0.1804  0.1940
 2129SOL    HW215711   4.301   2.535   0.467 -0.0272  1.5553  0.1044
 2130SOL     OW15712   0.435   6.157   0.672  0.5853  0.2999 -0.2397
 2130SOL    HW115713   0.475   6.241   0.636 -1.5293  1.0147 -1.0529
 2130SOL    HW215714   0.337   6.155   0.650  0.0664 -1.1812  1.9635
 2131SOL     OW15715   3.404   1.668   2.061  0.7796  0.0945  0.1979
 2131SOL    HW115716   3.449   1.742   2.012  0.5536 -0.1024 -0.3218
 2131SOL    HW215717   3.347   1.616   1.997 -0.9014  0.8893  1.0210
 2132SOL     OW15718   0.708   4.946   0.734 -0.0260  0.1870 -0.1077
 2132SOL    HW115719   0.736   4.927   0.828 -0.5998  0.0221  0.0331
 2132SOL    HW215720   0.726   4.865   0.677 -0.9430 -0.2093  0.1493
 2133SOL     OW15721   8.933   7.611   3.690 -0.5605 -0.4624  0.4837
 2133SOL    HW115722   8.915   7.664   3.774  0.2476  0.4066  0.1197
 2133SOL    HW215723   8.846   7.579   3.652 -1.2097  1.7679 -0.0164
 2134SOL     OW15724   5.185   6.649   3.011 -0.2160 -0.1122 -0.4332
 2134SOL    HW115725   5.134   6.696   3.082 -0.2579 -1.8173  0.6850
 2134SOL    HW215726   5.123   6.593   2.956  0.2855 -1.3995  0.2927
 2135SOL     OW15727   7.598   5.045   0.177  0.2372  0.0121 -0.2092
 2135SOL    HW115728   7.622   5.000   0.263 -3.0079  2.0127  1.8622
 2135SOL    HW215729   7.585   4.976   0.105 -0.5190 -2.0144  1.8285
 2136SOL     OW15730   4.654   2.069   1.989 -0.6302 -0.3068  0.4380
 2136SOL    HW115731   4.638   2.009   2.067  0.0506 -0.5418  0.4015
 2136SOL    HW215732   4.599   2.152   1.998  0.0909  0.0539  1.5954
 2137SOL     OW15733   0.512   3.977   2.579 -0.1363 -0.1692  0.2784
 2137SOL    HW115734   0.455   3.923   2.640  0.1219 -1.9281 -0.9935
 2137SOL    HW215735   0.575   3.917   2.530  1.1734  1.4591 -0.1076
 2138SOL     OW15736   4.268   2.915   0.718  0.2625  0.5179 -0.4417
 2138SOL    HW115737   4.338   2.890   0.651  0.1025  0.4274 -0.5744
 2138SOL    HW215738   4.309   2.973   0.788  1.1285 -1.6187  0.9059
 2139SOL     OW15739   8.711   3.267   2.173 -0.0712 -0.1898  0.7832
 2139SOL    HW115740   8.741   3.215   2.253  2.6519  0.7066  0.3671
 2139SOL    HW215741   8.644   3.212   2.122  1.3680 -2.5632  1.3435
 2140SOL     OW15742   1.033   9.999   3.558  0.4778  0.4273 -0.0656
 2140SOL    HW115743   1.077   9.914   3.531  0.0215  0.1567  0.0386
 2140SOL    HW215744   0.945   9.979   3.601  0.9579  0.8770  1.1438
 2141SOL     OW15745   3.722   2.830   0.717  0.1153  0.3163  0.0999
 2141SOL    HW115746   3.641   2.774   0.700  0.2507 -0.0113  0.5378
 2141SOL    HW215747   3.797   2.773   0.750  0.7404  0.5128 -0.9495
 2142SOL     OW15748   2.425   8.009   0.165  0.2834 -0.5413  0.6580
 2142SOL    HW115749   2.445   8.054   0.078 -1.3011  2.7325  1.8804
 2142SOL    HW215750   2.359   7.935   0.150 -0.6927  0.5893 -0.8122
 2143SOL     OW15751   8.612   2.567   1.032  0.0472  0.1575  0.0123
 2143SOL    HW115752   8.583   2.639   1.095  0.3064 -0.4995  0.9092
 2143SOL    HW215753   8.617   2.603   0.939  0.7952  1.4677  0.5442
 2144SOL     OW15754   2.194   0.320   2.889 -0.1078 -0.7728  0.7145
 2144SOL    HW115755   2.153   0.388   2.949  0.2439  1.2013 -1.2208
 2144SOL    HW215756   2.173   0.228   2.922 -0.5032  0.2695  3.4180
 2145SOL     OW15757   3.320   2.061   2.063 -0.2834  0.0334 -0.3976
 2145SOL    HW115758   3.315   2.026   2.157 -0.3589 -0.5846 -0.6316
 2145SOL    HW215759   3.268   2.146   2.056 -1.0611 -0.4154 -0.1053
 2146SOL     OW15760   5.426   6.664   2.664  0.5907  0.1546 -0.0469
 2146SOL    HW115761   5.352   6.665   2.597  0.1956 -0.7566  0.3742
 2146SOL    HW215762   5.410   6.736   2.732  0.5200  0.4933 -0.4222
 2147SOL     OW15763   4.385   9.375   3.005 -0.1642 -0.2640 -0.3729
 2147SOL    HW115764   4.416   9.357   3.099  1.7404 -0.9026 -1.0907
 2147SOL    HW215765   4.422   9.462   2.974  0.9689 -1.0444 -1.2528
 2148SOL     OW15766   4.504   6.768   2.700 -0.0717  0.1426 -0.4378
 2148SOL    HW115767   4.600   6.791   2.689  0.4856 -1.6512  0.3787
 2148SOL    HW215768   4.457   6.841   2.749  1.5083 -0.2128  1.6759
 2150SOL     OW15769   5.901   9.860   2.452  0.1885 -0.0410 -0.0239
 2150SOL    HW115770   5.881   9.957   2.465 -0.9484 -0.3315  0.4189
 2150SOL    HW215771   5.891   9.812   2.539  0.5368 -0.5963 -0.2854
 2151SOL     OW15772   3.961   9.656   2.076 -0.0876  0.7115 -0.1576
 2151SOL    HW115773   3.925   9.586   2.014 -0.6364  1.2428 -0.4504
 2151SOL    HW215774   3.912   9.742   2.060  0.5597  1.1523  0.2155
 2152SOL     OW15775   0.663   5.424   1.011  0.0561  0.8550  0.2287
 2152SOL    HW115776   0.714   5.339   1.023 -0.3191  0.6533  0.3942
 2152SOL    HW215777   0.652   5.444   0.914  0.3427  0.8362  0.1916
 2153SOL     OW15778   5.219   0.528   2.361  0.1311  0.2624  0.1572
 2153SOL    HW115779   5.303   0.536   2.414  0.6298  0.3491 -0.6456
 2153SOL    HW215780   5.208   0.609   2.303 -0.9758  0.6770  0.9398
 2155SOL     OW15781   8.257   5.851   2.669 -0.0131 -0.7144  0.3705
 2155SOL    HW115782   8.173   5.797   2.663 -0.8209  0.7652 -2.1205
 2155SOL    HW215783   8.242   5.931   2.728 -0.2968 -0.5229  0.0340
 2157SOL     OW15784   0.627   6.139   1.436 -0.5294  0.0399  0.3357
 2157SOL    HW115785   0.629   6.047   1.397  2.0539  0.6960 -1.2428
 2157SOL    HW215786   0.601   6.205   1.365  3.0718  1.1079 -0.1263
 2158SOL     OW15787   8.710   9.286   0.684  0.6287  0.1554  0.3352
 2158SOL    HW115788   8.633   9.284   0.620  0.3446  1.9871  0.5933
 2158SOL    HW215789   8.675   9.296   0.777  1.1430 -0.2435  0.5776
 2159SOL     OW15790   1.772   3.380   0.453  0.2430 -0.3595  0.0940
 2159SOL    HW115791   1.680   3.356   0.482  1.5818 -3.2284  2.2615
 2159SOL    HW215792   1.814   3.301   0.406  2.1145  0.3553  0.5186
 2160SOL     OW15793   0.095   3.621   3.119  0.2892  0.4727  0.1280
 2160SOL    HW115794   0.071   3.559   3.193 -0.8246  4.1308  3.0016
 2160SOL    HW215795   0.186   3.659   3.137  0.5768  0.3871 -1.1147
 2162SOL     OW15796   0.124   7.177   0.784  0.1648 -0.2553  0.4529
 2162SOL    HW115797   0.056   7.113   0.821 -0.1237  0.6539  1.4837
 2162SOL    HW215798   0.140   7.251   0.848  2.0114 -0.3468  0.1429
 2163SOL     OW15799   2.714   3.587   3.724  0.4114  0.0535 -0.0799
 2163SOL    HW115800   2.623   3.587   3.682  0.5026 -0.2590 -0.2777
 2163SOL    HW215801   2.782   3.561   3.655  0.2734 -2.9224  0.8749
 2164SOL     OW15802   4.534   3.608   3.357 -0.3148 -0.1692  0.2541
 2164SOL    HW115803   4.496   3.582   3.269  1.7753  0.8113 -0.9756
 2164SOL    HW215804   4.505   3.543   3.427  0.7864 -2.9338 -1.8105
 2165SOL     OW15805   9.621   4.790   2.082  0.1749  0.1294  0.3353
 2165SOL    HW115806   9.677   4.857   2.131 -0.7951  1.3826 -0.2282
 2165SOL    HW215807   9.586   4.722   2.146 -0.7839  1.5451  1.3579
 2166SOL     OW15808   7.316   0.693   3.075 -0.3533  0.4223 -0.6647
 2166SOL    HW115809   7.220   0.679   3.100 -0.3798  1.6394 -0.0806
 2166SOL    HW215810   7.373   0.690   3.158 -0.2543  2.8227 -0.6178
 2167SOL     OW15811   0.695   8.515   0.929 -0.1083 -0.5950  0.4393
 2167SOL    HW115812   0.624   8.502   0.998 -0.6195 -0.4003 -0.0415
 2167SOL    HW215813   0.754   8.434   0.926 -0.7947 -1.1024  0.2922
 2168SOL     OW15814   7.373   0.278   0.957  0.8515 -0.3179 -0.5666
 2168SOL    HW115815   7.452   0.336   0.938  1.1885 -1.0021 -1.2951
 2168SOL    HW215816   7.394   0.214   1.031  0.9729 -0.4847 -0.7453
 2169SOL     OW15817   8.386   8.645   0.631  0.7646 -0.7968  0.7454
 2169SOL    HW115818   8.464   8.583   0.644  1.6365 -0.1390 -1.1142
 2169SOL    HW215819   8.419   8.739   0.625  0.1801 -0.7336 -2.7195
 2170SOL     OW15820   3.324   4.934   2.726 -0.0635  0.0046  0.5785
 2170SOL    HW115821   3.407   4.895   2.685 -1.9108 -1.6941 -1.6586
 2170SOL    HW215822   3.349   5.017   2.777  2.9597 -0.2749 -0.3072
 2171SOL     OW15823   3.845   4.779   2.227 -0.3919  0.4327  0.1516
 2171SOL    HW115824   3.907   4.824   2.162 -0.9327  2.6777  1.1227
 2171SOL    HW215825   3.869   4.682   2.235 -0.2087  0.1254 -3.2499
 2172SOL     OW15826   0.437   4.933   2.483 -0.0169 -0.0910  0.3694
 2172SOL    HW115827   0.518   4.953   2.538 -1.0031 -1.2588  2.3153
 2172SOL    HW215828   0.355   4.960   2.533 -0.9188 -0.6766 -0.7637
 2173SOL     OW15829   1.217   8.510   1.937 -0.8594 -0.2773  0.1981
 2173SOL    HW115830   1.305   8.525   1.981 -1.2606 -0.1022  0.9354
 2173SOL    HW215831   1.222   8.541   1.842 -0.0405 -0.5355  0.1542
 2174SOL     OW15832   0.049   3.339   3.681 -0.4849 -0.4709  0.1261
 2174SOL    HW115833   0.030   3.253   3.728 -0.3180 -0.0919  0.8877
 2174SOL    HW215834  -0.027   3.402   3.693 -0.4211 -0.3531 -0.0698
 2175SOL     OW15835   9.243   1.336   1.593 -0.2255  0.4699 -0.8370
 2175SOL    HW115836   9.342   1.341   1.579  0.0594 -2.5282 -0.0221
 2175SOL    HW215837   9.222   1.266   1.660 -3.0397 -0.2624 -2.4167
 2176SOL     OW15838   2.260   3.137   0.195 -0.3453  0.2128  0.2890
 2176SOL    HW115839   2.192   3.205   0.169 -0.3615  0.4257  0.9001
 2176SOL    HW215840   2.352   3.171   0.174 -0.2998  0.7880  1.4380
 2177SOL     OW15841   7.896   9.063   1.449 -0.4709 -0.1046 -0.5360
 2177SOL    HW115842   7.978   9.119   1.460  0.4320 -1.2253 -1.4497
 2177SOL    HW215843   7.891   9.030   1.354 -2.8975  1.3951 -0.9696
 2179SOL     OW15844   1.305   5.521   2.422 -0.0306  0.1939 -0.6794
 2179SOL    HW115845   1.310   5.560   2.330  0.9299  0.4300 -0.5341
 2179SOL    HW215846   1.245   5.441   2.421 -2.2141  1.7819 -0.9334
 2180SOL     OW15847   6.899   8.357   2.457  0.2590  0.8467  0.7966
 2180SOL    HW115848   6.941   8.267   2.468  1.8861  1.2735 -1.4425
 2180SOL    HW215849   6.851   8.361   2.369 -0.8202  1.7729  1.4160
 2181SOL     OW15850   9.652   1.886   0.685 -0.1169  0.8480  0.8355
 2181SOL    HW115851   9.724   1.923   0.744  0.2341 -0.6461  1.3527
 2181SOL    HW215852   9.614   1.803   0.725  1.2767 -1.1746 -1.8084
 2182SOL     OW15853   2.832   3.148   1.074 -0.6673 -0.2428  0.4795
 2182SOL    HW115854   2.830   3.241   1.039 -2.2599 -0.7363 -0.7964
 2182SOL    HW215855   2.762   3.137   1.146 -0.4146 -0.4245  0.7009
 2183SOL     OW15856   1.247   3.063   2.378 -0.5627 -0.1427 -0.0181
 2183SOL    HW115857   1.178   3.112   2.431 -0.7491  0.8078 -1.1286
 2183SOL    HW215858   1.321   3.125   2.354  2.5845 -1.9926  4.3209
 2185SOL     OW15859   3.227   8.950   2.405 -0.3348  0.6129 -0.6970
 2185SOL    HW115860   3.299   8.966   2.337 -0.1318  1.1377 -0.3696
 2185SOL    HW215861   3.198   8.855   2.402  0.8318  0.2397 -0.3972
 2186SOL     OW15862   0.739   6.132   3.652 -0.0805 -0.4724 -0.2584
 2186SOL    HW115863   0.712   6.205   3.716 -2.5714  0.0315 -1.8016
 2186SOL    HW215864   0.806   6.168   3.587  0.2333 -0.1348  0.2484
 2187SOL     OW15865   7.071   9.482   3.208 -0.6882 -0.4494 -0.6488
 2187SOL    HW115866   7.104   9.491   3.114  0.3619  0.8247 -0.1789
 2187SOL    HW215867   7.144   9.446   3.266 -0.6275  0.8566  0.0987
 2188SOL     OW15868   3.891   9.911   0.829 -0.3544 -0.0210  0.4973
 2188SOL    HW115869   3.956   9.835   0.841 -0.7993 -0.4312  0.3388
 2188SOL    HW215870   3.938   9.998   0.843 -0.2773 -0.3816  2.6567
 2189SOL     OW15871   0.704   2.720   1.267  0.2052 -0.0747  0.4901
 2189SOL    HW115872   0.745   2.811   1.275 -1.0848  0.6754 -1.1882
 2189SOL    HW215873   0.695   2.695   1.171 -1.1193 -1.1978  0.8849
 2190SOL     OW15874   9.825   7.003   1.989 -0.2096 -0.5549 -0.5764
 2190SOL    HW115875   9.751   6.942   1.961 -1.1452  0.9966 -1.5634
 2190SOL    HW215876   9.787   7.093   2.012  1.3170  0.1282 -0.6722
 2192SOL     OW15877   0.010   1.903   3.234  0.1504 -0.5363  0.7999
 2192SOL    HW115878  -0.014   1.938   3.324 -0.3975 -0.8154  0.7600
 2192SOL    HW215879   0.064   1.819   3.244  0.3092 -0.4247  0.8730
 2194SOL     OW15880   0.868   0.857   3.122  0.2011 -0.0740  0.2664
 2194SOL    HW115881   0.886   0.905   3.208  0.9207 -0.1958  0.1879
 2194SOL    HW215882   0.923   0.898   3.050  1.4426 -1.5219  0.3597
 2196SOL     OW15883   6.821   0.619   3.022  0.1342 -0.0557  0.1773
 2196SOL    HW115884   6.800   0.568   2.938  1.8617 -1.1849  0.4019
 2196SOL    HW215885   6.766   0.582   3.097 -1.5537  1.0813 -0.4764
 2197SOL     OW15886   0.638   4.198   2.707  0.0721 -0.2901 -0.0691
 2197SOL    HW115887   0.619   4.217   2.803 -2.0832  1.5981 -0.8293
 2197SOL    HW215888   0.579   4.124   2.675  0.9188 -1.0454  0.0704
 2198SOL     OW15889   1.355   7.372   3.125 -0.1477 -0.8180  0.5290
 2198SOL    HW115890   1.361   7.315   3.043  1.6008  0.4551 -0.2811
 2198SOL    HW215891   1.444   7.416   3.141 -1.3506  1.4077  1.2855
 2199SOL     OW15892   2.593   3.414   0.673 -0.8991  0.4800  0.6774
 2199SOL    HW115893   2.592   3.319   0.705 -0.7082  0.6383  1.1563
 2199SOL    HW215894   2.613   3.416   0.575  1.9487  0.1702  1.2002
 2200SOL     OW15895   4.696   3.300   2.624 -0.2430 -0.2296 -0.2249
 2200SOL    HW115896   4.716   3.366   2.552 -2.7505 -0.1926 -0.9496
 2200SOL    HW215897   4.770   3.233   2.630 -0.0812 -0.3431 -2.9807
 2202SOL     OW15898   1.748   0.305   0.869 -0.2307 -0.2462 -0.6657
 2202SOL    HW115899   1.686   0.344   0.801  1.7838  3.3676 -0.5470
 2202SOL    HW215900   1.695   0.262   0.942 -2.4892  0.3260 -1.9300
 2203SOL     OW15901   1.576   2.044   2.152  0.6070  0.8967  0.0813
 2203SOL    HW115902   1.635   2.124   2.148  3.0821 -0.8076  1.0614
 2203SOL    HW215903   1.633   1.961   2.154 -1.7990 -0.7667  1.9443
 2204SOL     OW15904   1.078   7.465   2.906  0.7275  0.0202  0.4425
 2204SOL    HW115905   1.118   7.392   2.961  2.1045  0.9252  0.6734
 2204SOL    HW215906   1.126   7.551   2.925  1.3312  0.3111 -2.3099
 2205SOL     OW15907   3.167   0.169   0.478  0.2399 -0.2936 -0.5481
 2205SOL    HW115908   3.114   0.253   0.473 -0.2934 -0.4258  2.1672
 2205SOL    HW215909   3.263   0.189   0.455  0.5876  1.5527  2.2488
 2206SOL     OW15910   0.902   2.545   0.263  0.3154  0.3029  0.2991
 2206SOL    HW115911   0.926   2.448   0.262  2.0141  0.6959  1.1382
 2206SOL    HW215912   0.982   2.599   0.291 -0.6399  1.9360 -0.0523
 2208SOL     OW15913   3.488   9.029   0.870  0.7189  0.0980  0.6011
 2208SOL    HW115914   3.547   9.102   0.836  1.6797 -0.8794  0.1398
 2208SOL    HW215915   3.463   8.969   0.794 -1.1167  0.6597  0.7308
 2209SOL     OW15916   8.081   8.367   2.017 -0.5822  0.1560  1.0321
 2209SOL    HW115917   8.077   8.288   1.956  0.7714  2.1103 -1.7208
 2209SOL    HW215918   8.014   8.356   2.091  0.3832 -4.0264  1.3682
 2211SOL     OW15919   5.720   7.221   2.488 -0.6958 -0.1166  0.9170
 2211SOL    HW115920   5.674   7.186   2.407 -1.2984 -1.1696  1.6840
 2211SOL    HW215921   5.810   7.178   2.497 -0.7088 -0.1454  0.9077
 2212SOL     OW15922   9.338   8.246   1.776 -0.3444 -0.0711  0.2232
 2212SOL    HW115923   9.282   8.287   1.703  0.6052 -0.7898 -0.9325
 2212SOL    HW215924   9.303   8.275   1.865 -0.9212  1.6111 -0.5329
 2213SOL     OW15925   1.161   4.865   1.434  0.6072 -0.2618  0.1423
 2213SOL    HW115926   1.182   4.902   1.344 -2.5557 -1.1154 -1.0314
 2213SOL    HW215927   1.238   4.880   1.495  2.1979  1.7824 -2.2472
 2214SOL     OW15928   0.968   7.572   2.565  0.6047 -0.5508  0.3257
 2214SOL    HW115929   0.955   7.594   2.662  1.1655  1.1935  0.0170
 2214SOL    HW215930   0.974   7.656   2.512  0.2147 -1.5029 -1.2521
 2215SOL     OW15931   9.379   1.073   2.739  0.2906  0.2770  0.3756
 2215SOL    HW115932   9.386   1.167   2.706 -0.9389  0.7136  1.3040
 2215SOL    HW215933   9.448   1.016   2.694  1.1779  1.6600 -0.0444
 2216SOL     OW15934   8.469   6.392   1.192  0.0861  0.5939 -0.1464
 2216SOL    HW115935   8.567   6.414   1.191  0.1569  0.3638  0.8804
 2216SOL    HW215936   8.419   6.461   1.139  0.7110  1.2110  0.0491
 2217SOL     OW15937   7.657   0.413   0.352  0.0534 -0.3614 -0.2905
 2217SOL    HW115938   7.666   0.413   0.452 -1.4490  0.5569 -0.1408
 2217SOL    HW215939   7.660   0.507   0.318  1.4111 -0.7338 -1.1932
 2219SOL     OW15940   8.510   5.207   0.758  0.4235  0.6209 -0.1467
 2219SOL    HW115941   8.502   5.235   0.662 -1.5309  2.2315  0.4699
 2219SOL    HW215942   8.519   5.288   0.816 -0.0848 -0.2657  1.1901
 2221SOL     OW15943   4.595   1.192   0.616  0.2372 -0.0070  0.3982
 2221SOL    HW115944   4.547   1.124   0.672  2.3799  0.3591  2.7695
 2221SOL    HW215945   4.566   1.284   0.641  1.2169  0.1622  0.9440
 2222SOL     OW15946   1.107   2.755   1.582 -0.2706 -0.0185 -0.0350
 2222SOL    HW115947   1.122   2.697   1.502 -1.2069  0.0961 -0.2960
 2222SOL    HW215948   1.034   2.716   1.638 -0.9543  0.9424 -0.2519
 2224SOL     OW15949   3.205   7.384   2.366 -0.3466 -0.0706 -1.2128
 2224SOL    HW115950   3.155   7.297   2.368 -1.0700  0.3469  0.2004
 2224SOL    HW215951   3.149   7.455   2.409  1.2779  0.5162 -0.0037
 2225SOL     OW15952   8.787   0.833   0.880  0.0049  0.4510  0.1030
 2225SOL    HW115953   8.731   0.788   0.810 -1.4571  1.7906  0.3720
 2225SOL    HW215954   8.783   0.932   0.867  0.4296  0.6719  1.5430
 2226SOL     OW15955   3.898   3.815   1.327 -0.4718 -0.1283  0.1010
 2226SOL    HW115956   3.964   3.865   1.382  0.1889 -2.5146  1.5652
 2226SOL    HW215957   3.807   3.824   1.368 -0.4456  0.2692  0.0739
 2227SOL     OW15958   3.495   3.068   0.826  0.0641  0.2312  0.3633
 2227SOL    HW115959   3.570   3.060   0.891 -0.2548  1.9724  0.9581
 2227SOL    HW215960   3.510   3.146   0.766  0.3234 -1.3188 -1.6581
 2228SOL     OW15961   2.580   2.666   1.269  0.1310  0.2858 -0.6068
 2228SOL    HW115962   2.598   2.664   1.367  0.1819  1.7009 -0.5753
 2228SOL    HW215963   2.624   2.746   1.229  0.1696 -0.3236 -1.7980
 2229SOL     OW15964   3.169   5.796   0.333 -0.3615 -0.0776 -0.2435
 2229SOL    HW115965   3.125   5.829   0.250  2.0555  0.5893 -1.2815
 2229SOL    HW215966   3.126   5.838   0.413 -1.2512  0.9495 -1.2570
 2231SOL     OW15967   0.625   6.566   1.970  0.1690  0.0918 -0.2834
 2231SOL    HW115968   0.719   6.581   2.003  0.1813 -0.2275 -0.1794
 2231SOL    HW215969   0.601   6.470   1.979 -0.5111  0.3366  0.5748
 2232SOL     OW15970   1.573   5.002   1.209  0.0110 -0.0371 -0.6186
 2232SOL    HW115971   1.645   4.938   1.183  0.9884  0.9894 -0.4774
 2232SOL    HW215972   1.580   5.085   1.154  0.7566  1.2603  1.3621
 2233SOL     OW15973   1.946   3.360   2.254 -0.1978  0.1686 -0.2417
 2233SOL    HW115974   1.972   3.433   2.317  1.1871 -1.8831  1.6473
 2233SOL    HW215975   1.957   3.391   2.160 -1.7636  3.1006  0.4954
 2234SOL     OW15976   0.617   6.767   1.170  0.4896 -0.2694 -1.1016
 2234SOL    HW115977   0.678   6.758   1.249 -0.6338  0.6129 -0.1032
 2234SOL    HW215978   0.641   6.699   1.101  0.1984 -2.4531  0.8763
 2235SOL     OW15979   1.506   6.535   2.493  0.2266  0.3698 -0.0750
 2235SOL    HW115980   1.474   6.443   2.513  2.2711 -1.0439 -2.9508
 2235SOL    HW215981   1.572   6.564   2.563 -0.3372 -0.3590  0.7653
 2239SOL     OW15982   0.041   7.574   1.144 -0.3355  0.3296  0.2053
 2239SOL    HW115983  -0.018   7.567   1.225 -1.1644 -1.6103 -0.5517
 2239SOL    HW215984  -0.006   7.630   1.075 -0.0452  1.1716  0.6779
 2241SOL     OW15985   8.631   4.249   3.105  0.2849  0.5594  0.2104
 2241SOL    HW115986   8.702   4.203   3.157  0.1394  0.8896  0.7160
 2241SOL    HW215987   8.549   4.259   3.163 -0.6770 -1.0954 -0.8308
 2242SOL     OW15988   2.751   2.304   0.701  0.5120 -0.0672 -0.0129
 2242SOL    HW115989   2.847   2.277   0.693  0.5054 -0.3576  0.8179
 2242SOL    HW215990   2.707   2.298   0.611  1.1549 -0.3732 -0.3113
 2244SOL     OW15991   6.720   8.733   1.742  0.9233 -0.6233 -0.0875
 2244SOL    HW115992   6.742   8.801   1.813 -0.3130  0.3485 -0.6210
 2244SOL    HW215993   6.755   8.765   1.654 -1.2540  0.2435 -0.6807
 2247SOL     OW15994   7.439   9.591   0.203 -0.1245 -0.2532 -0.4917
 2247SOL    HW115995   7.467   9.668   0.259 -1.0192  0.3326 -0.8328
 2247SOL    HW215996   7.463   9.608   0.107 -3.2501  1.1114 -1.0931
 2248SOL     OW15997   0.390   1.762   0.587  0.4900 -0.2347 -0.7384
 2248SOL    HW115998   0.368   1.679   0.535 -0.3733 -0.4727 -0.0149
 2248SOL    HW215999   0.305   1.812   0.607  1.0016  0.7744 -1.0946
 2249SOL     OW16000   5.957   8.548   2.053 -0.6373  0.2851  0.3030
 2249SOL    HW116001   5.969   8.631   1.998 -0.6767 -1.5401 -2.5482
 2249SOL    HW216002   5.860   8.524   2.057 -0.5167 -0.2077  0.2639
 2252SOL     OW16003   4.229   6.177   3.016  0.2233 -0.3594 -0.6596
 2252SOL    HW116004   4.296   6.103   3.024  1.1803  0.4313 -1.2778
 2252SOL    HW216005   4.240   6.240   3.093 -0.8702 -1.0740  0.0944
 2256SOL     OW16006   0.083   7.336   0.409  0.0443 -0.0957 -0.2058
 2256SOL    HW116007   0.148   7.282   0.355 -0.1047 -0.9260  0.4294
 2256SOL    HW216008   0.019   7.274   0.454 -0.8881  0.6853 -0.4398
 2257SOL     OW16009   9.918   7.773   2.355 -0.6258 -0.2421  0.0178
 2257SOL    HW116010   9.870   7.792   2.441  0.5427 -0.5270  0.7565
 2257SOL    HW216011   9.985   7.846   2.339 -1.1633  0.0462 -0.8869
 2258SOL     OW16012   1.440   6.965   3.200  0.0339  0.4468 -0.1291
 2258SOL    HW116013   1.505   7.026   3.155  0.1755 -0.3928 -1.0826
 2258SOL    HW216014   1.488   6.886   3.238 -0.4059 -0.1480 -0.7843
 2260SOL     OW16015   8.532   2.228   2.437  0.0502  0.3766  0.1592
 2260SOL    HW116016   8.433   2.218   2.444  0.0386  0.7121  0.5190
 2260SOL    HW216017   8.555   2.325   2.439  0.4750  0.2550  1.3787
 2261SOL     OW16018   4.789   0.994   1.964  0.3586  0.1043  0.3568
 2261SOL    HW116019   4.822   1.056   2.035  1.3011 -0.5579  0.5033
 2261SOL    HW216020   4.703   0.952   1.993 -0.6552  1.8405 -0.0283
 2262SOL     OW16021   0.615   8.457   3.350 -0.6753  0.3275 -0.1178
 2262SOL    HW116022   0.646   8.413   3.265 -0.9370  0.2359 -0.1659
 2262SOL    HW216023   0.693   8.501   3.395 -0.5574  0.4934 -0.4765
 2264SOL     OW16024   2.750   9.185   2.247 -0.0707 -0.4345  0.3304
 2264SOL    HW116025   2.725   9.280   2.230 -1.6765 -0.7702  0.7390
 2264SOL    HW216026   2.759   9.170   2.345  0.7877 -0.5643  0.2375
 2265SOL     OW16027   1.826   2.919   0.834 -0.0612 -0.0086 -0.4897
 2265SOL    HW116028   1.735   2.889   0.862  0.3037 -0.1931  0.4872
 2265SOL    HW216029   1.896   2.864   0.879  0.5319 -0.8244 -2.3318
 2266SOL     OW16030   9.108   1.211   2.582  0.3158 -0.1280 -0.4466
 2266SOL    HW116031   9.075   1.235   2.673 -1.4206 -2.1942 -0.4740
 2266SOL    HW216032   9.033   1.222   2.516  0.0766 -3.3652 -0.7852
 2267SOL     OW16033   4.394   9.997   1.716 -0.5290  0.2912  0.1600
 2267SOL    HW116034   4.296  10.015   1.722 -0.4458  0.9075 -0.2867
 2267SOL    HW216035   4.423   9.944   1.796 -1.4761 -1.0865 -0.3902
 2268SOL     OW16036   2.862   8.144   2.425  0.2673  0.2700  0.1643
 2268SOL    HW116037   2.866   8.203   2.505  0.5856  0.0280  0.3233
 2268SOL    HW216038   2.872   8.049   2.452 -0.1962  0.1413 -0.0998
 2269SOL     OW16039   2.291   9.165   3.518  0.3823 -0.2911  0.0245
 2269SOL    HW116040   2.256   9.104   3.447 -0.6773  1.1400 -0.7007
 2269SOL    HW216041   2.216   9.192   3.579  0.5484  1.4821 -0.5562
 2272SOL     OW16042   8.362   3.195   1.858  0.4776  0.1120 -0.7557
 2272SOL    HW116043   8.348   3.294   1.862  2.2598  0.3653 -0.2000
 2272SOL    HW216044   8.392   3.170   1.766  2.3572  0.4439 -0.2560
 2273SOL     OW16045   6.755   6.765   2.924 -0.2354 -0.1305  0.0661
 2273SOL    HW116046   6.785   6.719   3.008  0.1555  1.6474  0.9340
 2273SOL    HW216047   6.656   6.755   2.915 -0.0836 -1.6508 -0.0965
 2275SOL     OW16048   0.878   5.897   3.143 -0.0560  0.3813 -0.3602
 2275SOL    HW116049   0.969   5.858   3.128  0.8316  1.6825  1.4425
 2275SOL    HW216050   0.813   5.824   3.165  1.2212 -0.2789  1.3557
 2276SOL     OW16051   3.362   7.990   0.202  0.0526  0.1013  0.2196
 2276SOL    HW116052   3.358   7.921   0.130  0.0310 -0.2658  0.5727
 2276SOL    HW216053   3.301   8.066   0.178  0.1347  0.0386 -0.2050
 2277SOL     OW16054   3.765   6.393   3.555  0.0128  0.1300  0.0486
 2277SOL    HW116055   3.799   6.479   3.593  0.3756 -0.4186  0.9912
 2277SOL    HW216056   3.840   6.327   3.552 -0.8098 -0.8996  1.5616
 2278SOL     OW16057   4.802   2.419   1.095 -0.3233  0.1663 -0.7686
 2278SOL    HW116058   4.792   2.479   1.016  0.3843  1.3907  0.0651
 2278SOL    HW216059   4.772   2.467   1.178 -3.9528 -2.0980 -0.6385
 2280SOL     OW16060   4.444   1.827   0.699  0.3395  0.2643  0.2491
 2280SOL    HW116061   4.408   1.744   0.743  0.2133 -1.2712 -2.6029
 2280SOL    HW216062   4.372   1.897   0.697 -0.0855 -0.1284  1.2211
 2281SOL     OW16063   7.961   2.230   0.470  0.1924 -0.2146 -0.0152
 2281SOL    HW116064   7.915   2.149   0.431  1.1531 -1.0294  0.5309
 2281SOL    HW216065   7.901   2.272   0.537 -0.3227 -0.4666 -0.3096
 2283SOL     OW16066   4.157   9.085   0.975 -0.0173  0.2712 -0.1857
 2283SOL    HW116067   4.132   9.066   0.880 -1.5142 -0.6221  0.3698
 2283SOL    HW216068   4.207   9.171   0.980 -0.2399  0.5039 -1.7349
 2284SOL     OW16069   8.493   1.559   3.671  0.1933  0.0982 -0.1383
 2284SOL    HW116070   8.412   1.615   3.655  0.5928 -0.0109 -2.6698
 2284SOL    HW216071   8.465   1.463   3.680  0.0502  0.0393 -1.1670
 2285SOL     OW16072   3.130   1.939   0.236  0.6051 -0.1380  0.4861
 2285SOL    HW116073   3.161   1.847   0.260  0.6651 -0.1033  0.5399
 2285SOL    HW216074   3.048   1.933   0.179  0.5187 -0.2204  0.6205
 2286SOL     OW16075   9.105   0.940   2.540 -0.4162 -0.4147 -0.1598
 2286SOL    HW116076   9.122   1.038   2.542  2.1495 -0.7863 -1.2492
 2286SOL    HW216077   9.103   0.905   2.634 -3.4286  0.9584  0.3323
 2287SOL     OW16078   8.265   9.794   2.748 -1.1048 -0.2845 -0.2103
 2287SOL    HW116079   8.308   9.709   2.717  1.2901  1.1294 -0.8769
 2287SOL    HW216080   8.325   9.840   2.813 -2.1873  1.1211 -0.1856
 2288SOL     OW16081   8.003   2.095   1.446  0.0832  0.2980 -0.0587
 2288SOL    HW116082   8.073   2.163   1.424 -0.3099  0.3710 -1.1109
 2288SOL    HW216083   7.932   2.097   1.376 -0.4214 -0.5298  0.4263
 2289SOL     OW16084   8.762   3.867   1.897  0.1537 -0.5520 -0.3387
 2289SOL    HW116085   8.741   3.944   1.957 -1.4784 -1.7539  0.6886
 2289SOL    HW216086   8.734   3.890   1.803  0.4810  0.4204 -0.2063
 2290SOL     OW16087   3.983   8.985   0.371 -0.1119 -0.4093  0.6299
 2290SOL    HW116088   3.918   8.935   0.428 -1.9368  0.3057 -0.7793
 2290SOL    HW216089   4.076   8.963   0.401 -0.7890 -4.7866 -0.0344
 2291SOL     OW16090   1.091   5.262   2.088  0.1509  0.3298 -0.1732
 2291SOL    HW116091   1.069   5.182   2.144  0.8056  0.2365 -0.0460
 2291SOL    HW216092   1.011   5.288   2.034 -0.1430 -0.2504 -0.0189
 2292SOL     OW16093   8.609   8.472   0.670  0.6801 -0.3604 -0.1532
 2292SOL    HW116094   8.561   8.450   0.755 -0.0221 -3.3671 -1.2704
 2292SOL    HW216095   8.707   8.477   0.689  0.3466  1.3994  1.2777
 2294SOL     OW16096   4.115   2.569   1.717  0.1323  0.0412 -0.0771
 2294SOL    HW116097   4.028   2.574   1.668 -0.8650  1.0931  1.7405
 2294SOL    HW216098   4.176   2.506   1.669 -1.0361  0.5102 -2.2647
 2296SOL     OW16099   3.587   6.528   3.350  0.7301 -0.6563 -0.6631
 2296SOL    HW116100   3.575   6.529   3.250  1.3443  0.1704 -0.7348
 2296SOL    HW216101   3.666   6.472   3.373  0.5503 -0.8981 -0.6380
 2297SOL     OW16102   9.297   0.645   0.509 -0.8529  0.2487 -1.0890
 2297SOL    HW116103   9.358   0.601   0.442 -0.4730  0.6156 -0.9883
 2297SOL    HW216104   9.323   0.742   0.518 -1.0412  0.2478 -0.5664
 2298SOL     OW16105   1.374   5.232   0.691  0.2114 -0.2761 -0.0074
 2298SOL    HW116106   1.445   5.299   0.713  0.0630 -0.6170  1.5678
 2298SOL    HW216107   1.295   5.247   0.750 -0.5112 -0.7426 -0.8419
 2299SOL     OW16108   3.099   6.252   1.871  0.1724  0.2244  0.6756
 2299SOL    HW116109   3.078   6.170   1.818  3.2624 -0.3874  0.2957
 2299SOL    HW216110   3.055   6.246   1.960 -0.8007 -1.1763  0.1153
 2300SOL     OW16111   8.944   3.123   0.409  0.4784  0.1354 -0.0481
 2300SOL    HW116112   8.884   3.096   0.334  0.0912  1.4029 -0.2216
 2300SOL    HW216113   8.895   3.188   0.468  1.2460  0.1937  0.5281
 2301SOL     OW16114   3.526   8.492   2.700 -0.2894  0.1781  0.2044
 2301SOL    HW116115   3.608   8.446   2.734 -0.2999 -0.5334 -0.7021
 2301SOL    HW216116   3.450   8.426   2.697 -0.2170  0.1391 -1.4448
 2302SOL     OW16117   1.619   5.436   3.223  0.3187  0.0729  0.0279
 2302SOL    HW116118   1.573   5.515   3.184  0.2159 -0.7408 -1.5357
 2302SOL    HW216119   1.713   5.460   3.246 -0.1786  1.0817  1.0462
 2303SOL     OW16120   3.270   3.189   0.191  0.5196  0.6638  0.8036
 2303SOL    HW116121   3.354   3.167   0.141 -0.0406 -0.9647  0.5326
 2303SOL    HW216122   3.234   3.105   0.233 -1.4932  1.1481  0.0930
 2304SOL     OW16123   3.562   5.677   1.842 -0.1440 -0.3475 -0.0040
 2304SOL    HW116124   3.584   5.597   1.898 -0.7541  0.1729  0.9946
 2304SOL    HW216125   3.497   5.650   1.771  0.0472 -0.8539  0.0096
 2306SOL     OW16126   8.021   8.715   1.764  0.2864  0.0852  0.5476
 2306SOL    HW116127   8.065   8.696   1.676  1.6343  1.5744  0.8807
 2306SOL    HW216128   7.952   8.786   1.752  0.1776 -0.0095  0.6124
 2307SOL     OW16129   0.470   0.571   0.101 -0.3432 -0.0949  0.1709
 2307SOL    HW116130   0.537   0.509   0.141  0.8231 -0.0868 -1.7143
 2307SOL    HW216131   0.510   0.662   0.091 -0.5872 -0.1160 -1.0679
 2308SOL     OW16132   4.508   4.739   1.961 -0.2404 -0.3468 -0.2708
 2308SOL    HW116133   4.457   4.759   1.877 -0.6070 -2.4152 -0.5652
 2308SOL    HW216134   4.486   4.647   1.992  2.8272 -1.0452 -0.0338
 2309SOL     OW16135   0.760   1.370   2.317  0.0164 -0.1110 -0.7387
 2309SOL    HW116136   0.724   1.459   2.347 -1.7382 -0.9761 -0.1820
 2309SOL    HW216137   0.686   1.303   2.316  1.0602 -1.2868 -2.3604
 2310SOL     OW16138   2.943   2.719   0.591  0.0440 -0.3637 -0.0777
 2310SOL    HW116139   2.869   2.786   0.600  1.2085  1.1883 -1.6579
 2310SOL    HW216140   2.973   2.691   0.682 -3.2047 -1.8773  0.5932
 2311SOL     OW16141   2.061   7.647   0.840 -0.2145 -0.5725 -0.7309
 2311SOL    HW116142   2.011   7.561   0.837  0.5062 -1.1054  1.6164
 2311SOL    HW216143   2.158   7.630   0.822 -0.0578 -0.2525 -0.1872
 2312SOL     OW16144   1.244   3.777   2.827 -0.2128  0.4455 -0.5656
 2312SOL    HW116145   1.150   3.805   2.811  0.1848  1.7444 -0.7005
 2312SOL    HW216146   1.300   3.858   2.846  0.6046 -0.4325  0.8766
 2313SOL     OW16147   8.714   6.145   2.124  0.0975  0.4001  0.5220
 2313SOL    HW116148   8.657   6.126   2.203  0.7512  2.1821  1.4409
 2313SOL    HW216149   8.672   6.218   2.069 -0.7835 -1.3828 -1.2556
 2314SOL     OW16150   9.401   2.406   2.246 -0.7798 -0.1456 -0.2899
 2314SOL    HW116151   9.417   2.365   2.336 -0.6742 -0.6636 -0.5444
 2314SOL    HW216152   9.307   2.387   2.218 -0.7078 -0.2810 -0.4406
 2315SOL     OW16153   3.311   4.174   0.056 -0.9417 -0.1406 -0.0150
 2315SOL    HW116154   3.273   4.198   0.146 -1.1667 -1.7888  0.3454
 2315SOL    HW216155   3.350   4.082   0.060 -0.7335 -0.1274 -1.5447
 2316SOL     OW16156   1.572   1.548   3.204 -0.1961  0.4695  0.5688
 2316SOL    HW116157   1.547   1.482   3.133  0.1810 -1.0011  1.7786
 2316SOL    HW216158   1.669   1.540   3.225 -0.0577  1.6883  0.4697
 2317SOL     OW16159   9.708   5.269   0.289 -0.0001 -0.1648  0.0883
 2317SOL    HW116160   9.654   5.208   0.347 -0.1156  0.9214  1.1739
 2317SOL    HW216161   9.734   5.350   0.343  0.4193  0.5780 -1.2134
 2318SOL     OW16162   3.199   4.430   1.253  0.0742 -0.2678  0.0687
 2318SOL    HW116163   3.147   4.345   1.243 -0.4308 -0.4030  3.1634
 2318SOL    HW216164   3.293   4.408   1.281  0.8486  0.1080 -2.1404
 2319SOL     OW16165   0.313   0.180   1.224 -0.2239 -0.3362 -0.4191
 2319SOL    HW116166   0.244   0.238   1.180 -1.8324 -1.3663  0.6892
 2319SOL    HW216167   0.283   0.157   1.317  2.6335  0.9750  0.8964
 2320SOL     OW16168   9.934   6.694   1.281 -0.0059  0.1169  0.0012
 2320SOL    HW116169   9.964   6.741   1.364 -3.6300 -0.7408  1.8664
 2320SOL    HW216170   9.945   6.596   1.293 -1.3122 -0.0611 -0.1623
 2321SOL     OW16171   0.682   4.084   0.925  0.0762 -0.1888 -0.1947
 2321SOL    HW116172   0.698   4.161   0.987  0.3299  0.5166 -1.1226
 2321SOL    HW216173   0.644   4.118   0.839 -0.3958 -1.1745 -0.3774
 2322SOL     OW16174   2.084   4.271   3.173 -0.4844 -0.2469  0.9969
 2322SOL    HW116175   2.104   4.173   3.172  0.1394 -0.1164 -0.7124
 2322SOL    HW216176   2.107   4.311   3.084 -2.0380  1.1864  1.2072
 2323SOL     OW16177   0.162   7.944   2.380 -0.0268 -0.4538 -0.2582
 2323SOL    HW116178   0.081   7.991   2.415 -0.5403  0.4601 -2.5928
 2323SOL    HW216179   0.233   8.012   2.359  0.8501 -1.1287  0.4442
 2324SOL     OW16180   2.707   3.072   2.033  0.6936 -0.0260 -0.0984
 2324SOL    HW116181   2.713   3.146   2.100  1.4713  0.1830 -0.3976
 2324SOL    HW216182   2.613   3.065   2.001  0.6335  0.9062 -0.1458
 2325SOL     OW16183   1.033   1.243   3.553 -0.0207 -0.3145  0.4227
 2325SOL    HW116184   0.940   1.256   3.586  0.3272  0.6906  1.0117
 2325SOL    HW216185   1.098   1.253   3.628  0.6050 -0.5490 -0.0700
 2327SOL     OW16186   9.411   2.433   1.921  0.4236 -0.0740  0.0576
 2327SOL    HW116187   9.423   2.426   1.822 -0.9510 -1.5273 -0.0202
 2327SOL    HW216188   9.500   2.424   1.965  0.6960 -2.4321 -0.9117
 2328SOL     OW16189   1.966   3.747   0.614  0.2816 -0.2617  0.0435
 2328SOL    HW116190   2.017   3.726   0.697  0.6434  0.7223  0.0749
 2328SOL    HW216191   2.030   3.776   0.542 -0.2471  1.2814  0.1751
 2329SOL     OW16192   1.333   6.233   2.791 -0.2607  0.1604  0.1582
 2329SOL    HW116193   1.424   6.208   2.824 -1.0175 -1.9050  0.7921
 2329SOL    HW216194   1.333   6.233   2.691  0.1701 -0.9604  0.1444
 2331SOL     OW16195   9.145   7.270   3.489 -0.4236 -0.4109  0.3783
 2331SOL    HW116196   9.078   7.199   3.508 -0.5344 -0.0752  1.2565
 2331SOL    HW216197   9.208   7.237   3.418  0.5316 -2.0443  1.9232
 2332SOL     OW16198   3.467   7.613   2.352 -0.0243 -0.1915  0.0549
 2332SOL    HW116199   3.422   7.544   2.296  0.5732 -1.9861  1.7351
 2332SOL    HW216200   3.466   7.701   2.304  0.0600 -1.5581 -2.5173
 2333SOL     OW16201   9.061   6.705   0.563  0.3965  0.4303  0.5882
 2333SOL    HW116202   9.018   6.616   0.576  0.3300  0.7783  3.0947
 2333SOL    HW216203   8.992   6.777   0.574  0.7036  0.8397 -0.1245
 2334SOL     OW16204   2.880   7.800   0.747  0.1829  0.8053  0.6032
 2334SOL    HW116205   2.809   7.742   0.786 -0.0623  0.4149 -0.4182
 2334SOL    HW216206   2.969   7.774   0.784 -0.1939  1.3262  1.9215
 2335SOL     OW16207   0.372   6.859   2.991  0.1928  0.4440  0.6255
 2335SOL    HW116208   0.409   6.951   2.979 -0.2830  0.3698 -1.6573
 2335SOL    HW216209   0.440   6.801   3.037  1.5492  1.2098 -0.4006
 2336SOL     OW16210   6.476   0.536   2.744  0.2677  0.8788 -0.2377
 2336SOL    HW116211   6.477   0.532   2.844 -0.7465  1.5819 -0.1818
 2336SOL    HW216212   6.382   0.525   2.712  0.4787  1.4816 -1.0709
 2338SOL     OW16213   9.523   0.337   3.147  0.3033 -0.3110  0.3595
 2338SOL    HW116214   9.438   0.287   3.158  0.2435  0.0251  1.5115
 2338SOL    HW216215   9.579   0.328   3.230  0.0897  1.8724  0.7892
 2339SOL     OW16216   9.391   9.862   3.284  0.6662 -0.6855 -0.0013
 2339SOL    HW116217   9.438   9.830   3.202  0.7382  0.0642 -0.2564
 2339SOL    HW216218   9.448   9.929   3.331  0.5169 -0.9239  0.5268
 2341SOL     OW16219   5.426   4.685   1.069  0.2529  0.0258 -0.0339
 2341SOL    HW116220   5.488   4.608   1.060 -0.7465 -0.9634  1.3847
 2341SOL    HW216221   5.332   4.654   1.050 -0.1010  0.9662  0.1612
 2342SOL     OW16222   3.830   8.917   0.888 -0.5179  0.7040 -0.4207
 2342SOL    HW116223   3.929   8.904   0.894 -0.5926 -0.2768 -1.2363
 2342SOL    HW216224   3.787   8.832   0.859 -1.4369  1.6149 -1.7749
 2343SOL     OW16225   3.222   1.237   1.294  0.2210 -0.1019 -0.3331
 2343SOL    HW116226   3.307   1.187   1.281  0.8541 -0.0558  3.1964
 2343SOL    HW216227   3.160   1.218   1.217  2.9971 -0.8758 -2.4612
 2345SOL     OW16228   1.978   1.851   1.679 -0.0332 -0.1387 -0.2125
 2345SOL    HW116229   2.039   1.885   1.607 -1.0338  1.6022 -0.2760
 2345SOL    HW216230   1.902   1.915   1.691  0.2930 -0.2022  2.6397
 2346SOL     OW16231   3.640   7.979   0.611 -0.2460 -0.1031 -0.0924
 2346SOL    HW116232   3.725   8.033   0.610  0.0350 -0.5610 -1.3157
 2346SOL    HW216233   3.576   8.016   0.544 -1.3317  0.7330  1.3963
 2347SOL     OW16234   8.031   9.526   2.453  0.2112  0.1800  0.0030
 2347SOL    HW116235   8.087   9.535   2.371 -0.2532  1.1631 -0.2109
 2347SOL    HW216236   7.943   9.571   2.439  0.2093  0.5287  1.1071
 2349SOL     OW16237   7.748   2.340   3.006 -0.6966 -0.2554  0.2431
 2349SOL    HW116238   7.807   2.275   2.958 -0.5795  0.3265 -0.4109
 2349SOL    HW216239   7.663   2.353   2.955 -0.9463 -0.2930  0.6438
 2350SOL     OW16240   2.395   3.776   0.692 -0.1826  0.4442 -0.0919
 2350SOL    HW116241   2.467   3.845   0.706 -1.6439  2.1721 -0.9120
 2350SOL    HW216242   2.399   3.743   0.598 -0.8649  1.0249 -0.3283
 2351SOL     OW16243   6.845   9.938   1.722 -0.2511  0.3175 -0.1474
 2351SOL    HW116244   6.756   9.974   1.697 -2.0013 -3.7395 -0.0420
 2351SOL    HW216245   6.861   9.953   1.820 -0.7253  1.2020 -0.2047
 2352SOL     OW16246   0.119   8.128   4.785 -0.5038  0.0823  0.8471
 2352SOL    HW116247   0.058   8.146   4.708 -1.4660 -0.1845  1.5480
 2352SOL    HW216248   0.205   8.178   4.771 -0.7456  0.1858 -0.3044
 2354SOL     OW16249   9.951   3.472   1.597  0.1999  0.2345 -0.2067
 2354SOL    HW116250   9.957   3.501   1.693  2.0402 -2.4957  0.5502
 2354SOL    HW216251   9.919   3.378   1.593  0.3322  0.2662 -2.3037
 2356SOL     OW16252   1.220   5.367   2.880 -0.1864 -0.2454 -0.1924
 2356SOL    HW116253   1.197   5.289   2.821  1.2508 -1.2548  0.5576
 2356SOL    HW216254   1.250   5.444   2.823 -0.5477 -0.6049 -0.8749
 2357SOL     OW16255   1.200   6.076   2.087 -0.0128 -0.5859 -0.0102
 2357SOL    HW116256   1.235   6.003   2.145  0.9691  0.2445  0.4554
 2357SOL    HW216257   1.150   6.036   2.010  3.7153 -1.9600 -1.8769
 2358SOL     OW16258   1.834   5.547   0.997  0.2675  0.2906 -0.5601
 2358SOL    HW116259   1.760   5.510   0.941  0.7060  0.1615 -1.0639
 2358SOL    HW216260   1.870   5.630   0.955  0.9029 -0.0578 -0.7278
 2359SOL     OW16261   4.315   2.205   3.265 -0.8825  0.0422 -0.0549
 2359SOL    HW116262   4.368   2.232   3.185  0.4136  0.2863  0.8575
 2359SOL    HW216263   4.243   2.272   3.283 -0.7266  0.3545 -0.5933
 2363SOL     OW16264   1.081   3.365   2.345 -0.5581 -0.0410  0.2909
 2363SOL    HW116265   1.058   3.403   2.434  0.4397 -1.7430  1.3154
 2363SOL    HW216266   1.127   3.434   2.289  0.8531  0.4056  1.9529
 2364SOL     OW16267   0.007   7.675   2.958  0.0825  0.2717 -0.4636
 2364SOL    HW116268  -0.072   7.711   3.009  0.6444 -0.2010  0.7564
 2364SOL    HW216269  -0.024   7.638   2.871 -1.1002 -0.2391  0.1636
 2365SOL     OW16270   0.880   9.727   3.472 -0.4842  0.0540 -0.3330
 2365SOL    HW116271   0.846   9.754   3.562  0.1878  0.1987 -0.1261
 2365SOL    HW216272   0.818   9.763   3.402 -0.6873  0.4389  0.0403
 2366SOL     OW16273   4.877   8.963   2.139 -0.0373  0.4949  0.1274
 2366SOL    HW116274   4.812   9.033   2.169 -1.9447 -1.2095  0.0336
 2366SOL    HW216275   4.914   8.916   2.219  0.0727  0.5561  0.1125
 2367SOL     OW16276   2.228   1.773   1.265  0.0048  0.2315 -0.1467
 2367SOL    HW116277   2.285   1.770   1.347 -0.2447  0.5243  0.0407
 2367SOL    HW216278   2.150   1.711   1.276 -0.2517  0.5770  0.0099
 2368SOL     OW16279   2.254   6.299   3.337 -0.3946  0.2938 -0.1295
 2368SOL    HW116280   2.286   6.315   3.430 -0.3852 -2.9722  0.4779
 2368SOL    HW216281   2.155   6.316   3.332 -0.3464  0.7328  0.4139
 2369SOL     OW16282   3.148   8.317   1.145  0.4055 -0.0688 -0.1129
 2369SOL    HW116283   3.082   8.253   1.183 -1.3812  1.0365 -1.2664
 2369SOL    HW216284   3.104   8.373   1.075  2.0972  1.9229  0.3482
 2371SOL     OW16285   0.718   7.410   1.477  0.2630  0.1858 -0.6731
 2371SOL    HW116286   0.706   7.362   1.390  1.0232 -1.4037  0.0823
 2371SOL    HW216287   0.682   7.355   1.552  1.7138  0.4807  0.2772
 2372SOL     OW16288   5.432   9.983   1.266 -0.2679 -0.8131 -0.6461
 2372SOL    HW116289   5.359   9.980   1.334 -1.5637  0.0276 -1.9719
 2372SOL    HW216290   5.511  10.030   1.304 -1.2032  0.1725  0.0939
 2373SOL     OW16291   8.247   6.894   2.021  0.0451 -0.3008  0.2147
 2373SOL    HW116292   8.292   6.812   1.985  0.3321  0.6071 -1.5131
 2373SOL    HW216293   8.225   6.956   1.946  0.8398  1.7213  1.6198
 2374SOL     OW16294   3.923   2.303   2.213 -0.1741  0.1471 -0.2619
 2374SOL    HW116295   4.020   2.288   2.232  0.1105  2.9606  0.7177
 2374SOL    HW216296   3.891   2.234   2.148  2.5656 -0.6094 -0.8730
 2375SOL     OW16297   7.837   2.599   2.060 -0.2963 -0.1025 -0.6507
 2375SOL    HW116298   7.829   2.655   1.978 -0.5125  1.3415  0.3379
 2375SOL    HW216299   7.933   2.590   2.085 -0.3485  1.0212 -0.0152
 2376SOL     OW16300   8.705   7.783   3.123 -0.3491  0.3715  0.3858
 2376SOL    HW116301   8.624   7.798   3.067 -0.7101  0.5915  0.9627
 2376SOL    HW216302   8.684   7.716   3.195 -0.1472  0.7420  0.7970
 2377SOL     OW16303   9.963   1.260   1.463  0.4423 -0.7975 -0.1886
 2377SOL    HW116304  10.017   1.292   1.541 -1.7297 -1.2799  1.5722
 2377SOL    HW216305   9.897   1.330   1.437  1.0780 -0.6840 -1.5586
 2379SOL     OW16306   3.531   9.794   2.074  0.5197  0.0407  0.2518
 2379SOL    HW116307   3.532   9.848   2.158  0.0364  1.0354 -0.3721
 2379SOL    HW216308   3.445   9.810   2.025  0.2441 -1.5274  0.2055
 2381SOL     OW16309   7.229   0.154   2.311 -0.0979 -0.1969 -0.6895
 2381SOL    HW116310   7.175   0.147   2.227 -0.1429 -1.5013 -0.5484
 2381SOL    HW216311   7.294   0.079   2.316 -0.6529 -0.5906  0.8391
 2383SOL     OW16312   0.887   2.955   0.737 -0.1930 -0.0712 -0.0819
 2383SOL    HW116313   0.966   2.998   0.781 -0.0058 -0.5158  0.0245
 2383SOL    HW216314   0.884   2.981   0.641  1.1851 -1.5628 -0.5535
 2384SOL     OW16315   3.591   0.566   2.486  0.1554  0.1001 -0.8712
 2384SOL    HW116316   3.681   0.541   2.452  0.1633  0.7773 -1.3645
 2384SOL    HW216317   3.601   0.636   2.557 -0.0164  0.7522 -1.4780
 2385SOL     OW16318   7.412   0.754   2.528  0.2375 -0.3123  0.0086
 2385SOL    HW116319   7.460   0.787   2.610 -0.7653  1.1306  0.0392
 2385SOL    HW216320   7.326   0.803   2.519  0.4165 -0.3493 -2.0258
 2388SOL     OW16321   1.995   0.683   1.379  0.8177  0.2255  0.0380
 2388SOL    HW116322   1.964   0.730   1.462 -0.7732  1.5156 -1.2309
 2388SOL    HW216323   1.923   0.621   1.347  1.3103 -0.0580 -0.5317
 2389SOL     OW16324   5.246   7.400   1.786 -0.8052  0.1386  0.0851
 2389SOL    HW116325   5.286   7.319   1.829 -1.9709 -0.1710  0.6126
 2389SOL    HW216326   5.222   7.380   1.691  1.1887  0.6312 -0.5485
 2390SOL     OW16327   4.269   8.156   2.998  0.0544 -0.1785  0.1661
 2390SOL    HW116328   4.327   8.237   2.986  1.1615 -1.2806 -2.3270
 2390SOL    HW216329   4.174   8.179   2.978  0.3358  0.5682 -0.3172
 2391SOL     OW16330   2.982   5.484   2.570  0.0228 -0.0753  0.1995
 2391SOL    HW116331   2.926   5.567   2.565 -0.0657 -0.1567 -0.1622
 2391SOL    HW216332   2.990   5.455   2.666  0.6701  0.7681  0.4116
 2393SOL     OW16333   8.379   3.187   3.173  0.1105  0.5105 -1.1098
 2393SOL    HW116334   8.393   3.140   3.260  1.9208 -0.4848 -1.9057
 2393SOL    HW216335   8.300   3.248   3.180 -1.1556 -1.2732  0.5032
 2396SOL     OW16336   8.722   6.572   1.225  0.6320  0.4140  0.0243
 2396SOL    HW116337   8.657   6.630   1.274  0.8136  0.3608  0.3309
 2396SOL    HW216338   8.814   6.611   1.234  0.6713  0.3777 -0.2324
 2397SOL     OW16339   8.291   1.366   3.102 -0.9969 -0.4889  0.2695
 2397SOL    HW116340   8.325   1.454   3.070 -1.6409 -0.0993  0.6602
 2397SOL    HW216341   8.333   1.293   3.048 -0.5872  0.0612 -0.1632
 2399SOL     OW16342   7.071   9.802   3.520 -0.2984 -0.2878 -0.4310
 2399SOL    HW116343   7.014   9.777   3.442 -0.5973 -0.2950 -0.2156
 2399SOL    HW216344   7.111   9.893   3.505  0.4260 -0.6992 -1.0151
 2401SOL     OW16345   9.453   5.988   0.993  0.1111  0.2378  0.0239
 2401SOL    HW116346   9.459   6.080   1.032 -0.9042  0.1515  0.3812
 2401SOL    HW216347   9.526   5.931   1.032 -1.4124 -0.0896  2.4622
 2402SOL     OW16348   2.448   5.814   1.783  0.3477 -0.3547  0.3948
 2402SOL    HW116349   2.527   5.787   1.838  0.9466  1.9276  0.7097
 2402SOL    HW216350   2.477   5.830   1.689  0.3971  1.0313  0.6316
 2404SOL     OW16351   8.962   8.391   2.123  0.2872  0.4931  0.3540
 2404SOL    HW116352   8.917   8.470   2.166 -0.7484 -0.1712  0.4984
 2404SOL    HW216353   8.961   8.404   2.024  0.8109  1.0281  0.4134
 2405SOL     OW16354   8.224   8.390   2.589 -0.5661  0.0849  0.3011
 2405SOL    HW116355   8.316   8.428   2.593 -0.2226 -0.9386  2.8243
 2405SOL    HW216356   8.157   8.462   2.608 -0.1892  0.3932  0.4538
 2406SOL     OW16357   2.010   9.746   1.283  0.2103 -0.2463 -0.3154
 2406SOL    HW116358   2.030   9.810   1.358 -0.6855  0.0001 -0.2793
 2406SOL    HW216359   2.094   9.727   1.233  0.9283 -0.8492  1.0885
 2407SOL     OW16360   0.740   2.105   2.389  0.0877 -0.5167 -0.4058
 2407SOL    HW116361   0.835   2.073   2.395  0.9165  1.9341  0.4352
 2407SOL    HW216362   0.712   2.109   2.293  0.8589 -1.1677 -0.6651
 2408SOL     OW16363   8.123   6.711   2.207  0.0926 -0.7374  0.1582
 2408SOL    HW116364   8.147   6.767   2.127 -0.5012 -0.2137  0.3399
 2408SOL    HW216365   8.034   6.741   2.243  1.4364  0.6835  2.4727
 2409SOL     OW16366   0.978   2.946   2.967 -0.0319 -0.0666 -0.1712
 2409SOL    HW116367   1.047   2.973   2.899  0.9052 -0.1242  0.7444
 2409SOL    HW216368   0.967   3.019   3.034  0.0665 -0.5874  0.4116
 2410SOL     OW16369   9.611   4.972   2.928  0.2727  0.4452 -0.3567
 2410SOL    HW116370   9.529   4.919   2.908  1.5242 -1.1705 -1.3420
 2410SOL    HW216371   9.619   5.047   2.862  0.7339 -0.7427 -1.7026
 2411SOL     OW16372   3.846   7.688   3.244 -0.1850  0.4914 -0.3028
 2411SOL    HW116373   3.792   7.772   3.257 -1.2271 -0.0212 -1.2834
 2411SOL    HW216374   3.888   7.690   3.153  1.9681  1.1611  0.6689
 2413SOL     OW16375   2.904   5.102   3.279 -0.1389 -0.2596  0.6943
 2413SOL    HW116376   2.990   5.088   3.328  0.2880 -4.0330 -0.9079
 2413SOL    HW216377   2.918   5.083   3.181 -2.5858 -0.1162  0.2845
 2414SOL     OW16378   0.401   5.016   2.091  0.1593  0.5958  0.1470
 2414SOL    HW116379   0.357   5.106   2.089  1.4477  1.2315  0.1427
 2414SOL    HW216380   0.442   5.001   2.181 -0.0625 -0.0062  0.1535
 2415SOL     OW16381   5.502   8.560   2.404 -0.1717  0.4274  0.2547
 2415SOL    HW116382   5.487   8.622   2.327 -1.7726 -0.3599 -0.0638
 2415SOL    HW216383   5.511   8.466   2.371  1.0920  0.3157  0.8594
 2416SOL     OW16384   9.461   8.588   0.372  0.7549 -0.0626  0.6682
 2416SOL    HW116385   9.455   8.681   0.336  0.0301  0.2708  1.6237
 2416SOL    HW216386   9.369   8.552   0.388  1.0281  0.2645  3.3061
 2418SOL     OW16387   2.317   1.132   0.664 -0.1641 -0.1282 -0.0078
 2418SOL    HW116388   2.224   1.099   0.680 -0.1700 -0.3792 -0.5309
 2418SOL    HW216389   2.345   1.191   0.739 -1.5559  1.7207 -0.9157
 2419SOL     OW16390   3.165   2.028   0.534  0.3028 -0.1186  0.4285
 2419SOL    HW116391   3.209   2.116   0.551 -1.4857  0.6347  1.2567
 2419SOL    HW216392   3.142   2.020   0.437 -0.1199  0.5961  0.4702
 2420SOL     OW16393   8.856   1.148   1.515  0.5527 -0.5054 -0.3727
 2420SOL    HW116394   8.786   1.212   1.484  0.6481  0.8756  2.1149
 2420SOL    HW216395   8.942   1.197   1.532  0.4959 -1.1457  1.9904
 2421SOL     OW16396   4.192   0.365   1.217 -0.3315  0.3030 -0.3874
 2421SOL    HW116397   4.281   0.409   1.225 -0.7458  1.2557 -0.8137
 2421SOL    HW216398   4.167   0.321   1.303  0.2101  0.6870 -0.0368
 2422SOL     OW16399   2.654   7.936   3.697  0.3271 -0.2981 -0.1136
 2422SOL    HW116400   2.706   7.866   3.648  1.3137  1.2492 -1.3379
 2422SOL    HW216401   2.557   7.925   3.677  0.4537 -1.3868 -0.1817
 2423SOL     OW16402   2.783   6.164   1.125 -0.3525 -0.1560 -0.0806
 2423SOL    HW116403   2.856   6.200   1.183  0.0513 -1.1926  0.0753
 2423SOL    HW216404   2.711   6.232   1.116  0.3598  0.6568  0.2535
 2424SOL     OW16405   1.079   5.046   0.457 -0.0372 -0.5612  0.4865
 2424SOL    HW116406   1.173   5.017   0.475 -0.4521 -1.6646  0.9288
 2424SOL    HW216407   1.067   5.065   0.359  0.3461 -1.5093  0.2563
 2425SOL     OW16408   8.022   7.905   2.045 -0.0634 -0.0777 -0.2617
 2425SOL    HW116409   8.058   7.915   1.953 -1.0828 -0.1824 -0.6835
 2425SOL    HW216410   8.052   7.982   2.101  0.7102 -0.1083 -0.6261
 2426SOL     OW16411   2.106   1.118   2.143  0.0907  0.9455 -0.0653
 2426SOL    HW116412   2.033   1.112   2.075 -1.7936  0.7909  1.9099
 2426SOL    HW216413   2.134   1.026   2.170 -1.3578  0.9893  1.6329
 2427SOL     OW16414   8.014   5.967   0.695  0.2452 -0.3245 -0.1661
 2427SOL    HW116415   8.096   5.911   0.710  0.4260 -0.3296 -1.1307
 2427SOL    HW216416   8.008   6.037   0.766  1.5120  0.1630 -0.5316
 2428SOL     OW16417   4.063   2.098   1.520 -0.1670  0.4913  0.0506
 2428SOL    HW116418   4.013   2.171   1.566  1.1121  1.5748 -0.2531
 2428SOL    HW216419   4.033   2.010   1.557 -0.3081  1.2622  1.8470
 2429SOL     OW16420   2.067   6.368   1.669  0.0030 -0.2451 -0.1485
 2429SOL    HW116421   1.973   6.378   1.701  0.5602 -1.6232  1.9988
 2429SOL    HW216422   2.099   6.456   1.632 -1.6494  0.6090  0.4087
 2430SOL     OW16423   2.963   0.270   3.626  0.2333  0.6022  0.0923
 2430SOL    HW116424   2.890   0.282   3.694  0.1473 -0.3340  0.1755
 2430SOL    HW216425   3.024   0.349   3.628 -0.9900  1.5702 -0.2380
 2431SOL     OW16426   8.444   8.767   2.901  0.0505 -0.2058  0.6778
 2431SOL    HW116427   8.522   8.794   2.957  1.0293  0.4663 -0.9656
 2431SOL    HW216428   8.466   8.681   2.854  0.2034  0.4642 -0.5130
 2432SOL     OW16429   8.288   4.926   2.844  0.2540  0.2700 -0.1368
 2432SOL    HW116430   8.329   4.835   2.857 -1.0190 -0.0728  1.6586
 2432SOL    HW216431   8.359   4.995   2.845  1.1038 -0.5873 -0.1788
 2433SOL     OW16432   9.639   3.140   2.768  0.0167  0.2541 -0.5020
 2433SOL    HW116433   9.702   3.096   2.833 -0.0502 -0.7586 -1.1100
 2433SOL    HW216434   9.681   3.223   2.733  1.6032 -1.1023 -1.9049
 2434SOL     OW16435   8.730   8.676   1.698 -1.0603 -0.3106 -0.3958
 2434SOL    HW116436   8.720   8.676   1.798 -0.1086 -1.5449 -0.2943
 2434SOL    HW216437   8.712   8.584   1.663  0.9791 -0.4520 -1.1175
 2435SOL     OW16438   3.281   9.126   3.710 -0.3445 -0.3742 -0.1940
 2435SOL    HW116439   3.247   9.178   3.632 -0.0251  1.1252  0.6583
 2435SOL    HW216440   3.204   9.082   3.757 -0.7671  0.4235 -0.1297
 2436SOL     OW16441   3.434   1.187   3.044 -0.2762 -0.0115  0.1865
 2436SOL    HW116442   3.510   1.230   3.093 -1.4763  1.3154  0.9150
 2436SOL    HW216443   3.452   1.089   3.034  2.1642  0.5008 -0.8617
 2437SOL     OW16444   1.046   0.962   1.768  0.1493  0.0092  0.6570
 2437SOL    HW116445   1.093   0.895   1.711  0.1422  0.4833  0.0827
 2437SOL    HW216446   1.102   0.983   1.848 -0.1658 -1.2068  1.2149
 2440SOL     OW16447   3.309   8.862   3.018 -0.1569 -0.5309  0.0590
 2440SOL    HW116448   3.307   8.951   2.974 -1.8714 -0.0456  1.0645
 2440SOL    HW216449   3.309   8.874   3.117 -0.7917 -1.6347  0.2039
 2441SOL     OW16450   0.308   3.189   0.149 -0.5678  0.0831  0.3052
 2441SOL    HW116451   0.259   3.277   0.154 -1.6108 -0.5324  1.0862
 2441SOL    HW216452   0.242   3.114   0.149  0.3650 -0.7594  1.0700
 2442SOL     OW16453   3.214   7.856   1.714 -0.3052  0.1347 -0.0103
 2442SOL    HW116454   3.222   7.877   1.616  1.4947 -1.0927 -0.1419
 2442SOL    HW216455   3.221   7.940   1.767  0.5965  0.5880 -0.8401
 2443SOL     OW16456   8.475   0.864   1.485 -0.3262 -0.2989 -0.0113
 2443SOL    HW116457   8.454   0.849   1.582  0.8276  1.0104  0.4586
 2443SOL    HW216458   8.445   0.955   1.458  0.3126 -0.2639 -0.6119
 2444SOL     OW16459   0.506   0.642   3.656  0.3723 -0.2006 -0.0205
 2444SOL    HW116460   0.599   0.606   3.662  0.9576  1.6218  2.3264
 2444SOL    HW216461   0.448   0.596   3.723  0.4770  1.2038  1.0620
 2446SOL     OW16462   9.641   6.194   3.684 -0.1989 -0.6113 -0.0903
 2446SOL    HW116463   9.688   6.119   3.731 -0.5798 -0.5821  0.3404
 2446SOL    HW216464   9.561   6.159   3.637  0.1614 -0.6332 -0.6887
 2447SOL     OW16465   7.939   3.520   1.236 -0.1105  0.8227  0.3551
 2447SOL    HW116466   7.978   3.506   1.145 -0.0655  0.0800  0.4861
 2447SOL    HW216467   7.948   3.436   1.290  0.2811  1.3974  1.2008
 2448SOL     OW16468   2.089   3.437   1.444 -0.2884 -0.0720 -0.8627
 2448SOL    HW116469   2.129   3.351   1.411  0.0124 -0.1401 -0.3350
 2448SOL    HW216470   2.030   3.418   1.522 -0.8211  0.1124 -1.2231
 2449SOL     OW16471   9.205   8.613   1.780  0.1085  0.0628  0.1722
 2449SOL    HW116472   9.167   8.693   1.826 -0.2407  0.3225 -0.5659
 2449SOL    HW216473   9.296   8.593   1.817 -0.2425  0.1625  1.1007
 2450SOL     OW16474   2.598   7.833   3.297  0.3673 -0.6863 -0.4988
 2450SOL    HW116475   2.535   7.910   3.289 -1.3126 -2.0834 -1.2846
 2450SOL    HW216476   2.602   7.785   3.209  3.3492 -0.0387 -0.7656
 2453SOL     OW16477   2.537   4.023   0.717  0.0156  0.1913 -0.2260
 2453SOL    HW116478   2.627   4.045   0.680  0.0178  0.6439  0.0505
 2453SOL    HW216479   2.492   4.106   0.749  0.0880 -0.2203  0.9592
 2455SOL     OW16480   6.519   9.747   0.909  0.3381  0.1115 -0.0403
 2455SOL    HW116481   6.529   9.761   1.008 -1.7862 -3.4180  0.7655
 2455SOL    HW216482   6.607   9.718   0.870  0.2858 -2.4641  1.6249
 2456SOL     OW16483   3.400   1.305   0.934  0.0298  0.0209 -0.1663
 2456SOL    HW116484   3.305   1.310   0.903  0.4137 -0.7245 -1.4519
 2456SOL    HW216485   3.405   1.247   1.016 -0.3250 -1.5756 -1.2584
 2457SOL     OW16486   4.376   1.694   2.454  0.2970  0.1546  0.2017
 2457SOL    HW116487   4.354   1.598   2.435  2.3539 -0.3866  0.4158
 2457SOL    HW216488   4.334   1.722   2.540  0.7914 -0.9584  0.8121
 2459SOL     OW16489   2.765   8.351   1.139  0.1414  0.2604  0.1737
 2459SOL    HW116490   2.778   8.377   1.235 -2.5359 -0.3479  0.7180
 2459SOL    HW216491   2.811   8.264   1.122 -0.7608 -0.4461  1.3148
 2460SOL     OW16492   3.886   5.733   2.911 -0.3861  0.1847  0.3182
 2460SOL    HW116493   3.825   5.812   2.900 -0.7119  0.0540  1.1803
 2460SOL    HW216494   3.972   5.752   2.863 -0.8288  0.6601 -0.3081
 2461SOL     OW16495   4.156   1.737   0.215 -0.2094 -0.0609  0.5566
 2461SOL    HW116496   4.143   1.835   0.201 -1.4424 -0.1470  0.9943
 2461SOL    HW216497   4.252   1.718   0.236  0.1117  1.0020  0.0989
 2462SOL     OW16498   2.016   5.084   0.034  0.1042 -0.1436 -0.6169
 2462SOL    HW116499   2.048   4.993   0.010 -1.0328 -0.9097  0.6976
 2462SOL    HW216500   1.987   5.085   0.130 -0.4706  1.4316 -0.7888
 2463SOL     OW16501   2.979   8.442   3.146 -0.0420  0.2146 -0.0182
 2463SOL    HW116502   2.936   8.353   3.163  1.2716 -0.5912 -0.8195
 2463SOL    HW216503   2.915   8.501   3.097 -0.7022 -0.5142 -0.0416
 2464SOL     OW16504   0.855   6.364   2.237  0.1141  0.2661  0.3552
 2464SOL    HW116505   0.928   6.432   2.242 -1.5391  2.0383  0.6726
 2464SOL    HW216506   0.784   6.386   2.304 -0.7887 -1.3619 -0.0461
 2465SOL     OW16507   8.475   9.209   0.528 -0.1639 -0.7750 -0.1164
 2465SOL    HW116508   8.467   9.215   0.429  2.5176  0.0429 -0.3273
 2465SOL    HW216509   8.384   9.215   0.570 -1.2225 -0.1136 -2.4456
 2466SOL     OW16510   2.470   5.537   0.239  0.0776 -0.1718  0.2357
 2466SOL    HW116511   2.385   5.584   0.214  1.3070  2.3314  0.5843
 2466SOL    HW216512   2.454   5.438   0.241 -3.0856  0.2894  1.3036
 2467SOL     OW16513   8.164   7.024   2.274  0.0812  0.1941  0.4973
 2467SOL    HW116514   8.080   7.022   2.328 -0.3360  1.7779 -0.0502
 2467SOL    HW216515   8.153   6.969   2.192 -0.3171  0.1403  0.5854
 2468SOL     OW16516   2.726   8.986   1.382  0.3004  0.2364  0.1365
 2468SOL    HW116517   2.655   9.044   1.342  1.3007  2.2986  1.2815
 2468SOL    HW216518   2.725   8.897   1.337  0.2601  1.8748 -3.2804
 2469SOL     OW16519   0.546   6.962   1.345  0.0452  0.0024 -0.6600
 2469SOL    HW116520   0.510   6.910   1.422 -0.1125 -0.9571 -1.3618
 2469SOL    HW216521   0.552   6.902   1.265  3.6854 -0.0118 -0.4567
 2470SOL     OW16522   9.214   1.661   0.189  0.7606 -0.5260  0.3324
 2470SOL    HW116523   9.213   1.569   0.229 -1.2192 -1.6240 -2.1197
 2470SOL    HW216524   9.299   1.674   0.138  0.9924 -1.0520  0.5834
 2471SOL     OW16525   5.427   0.588   2.915 -0.1056 -0.0901  0.5373
 2471SOL    HW116526   5.376   0.542   2.842  2.2204 -0.7297 -0.7443
 2471SOL    HW216527   5.367   0.652   2.962 -1.7700  0.0419 -1.6862
 2472SOL     OW16528   9.369   1.440   0.337 -1.2032 -0.2517 -0.0661
 2472SOL    HW116529   9.281   1.423   0.382 -2.2068 -0.6836 -2.1551
 2472SOL    HW216530   9.431   1.484   0.403 -2.8455 -0.2403  1.5387
 2473SOL     OW16531   8.795   9.165   1.785  0.3820  0.1666  0.8320
 2473SOL    HW116532   8.697   9.156   1.804  0.7154 -0.5761  2.2532
 2473SOL    HW216533   8.845   9.174   1.871  1.6559 -0.4319  0.1686
 2474SOL     OW16534   5.454   8.861   2.455  0.2871 -0.0354  0.2745
 2474SOL    HW116535   5.416   8.803   2.383 -0.4397 -1.5663  1.8594
 2474SOL    HW216536   5.541   8.823   2.485  0.5243  0.5337  0.3147
 2475SOL     OW16537   1.481   4.591   3.075  0.5148 -0.1597 -0.1279
 2475SOL    HW116538   1.426   4.583   3.158  1.2744 -0.9694  0.2966
 2475SOL    HW216539   1.420   4.590   2.995 -0.0064 -2.5237  0.2694
 2476SOL     OW16540   8.947   0.990   1.761  0.1405  0.3210 -0.0690
 2476SOL    HW116541   8.891   1.009   1.680  0.4228 -0.7460 -0.5397
 2476SOL    HW216542   8.889   0.955   1.834 -0.0796  1.0392  0.1000
 2477SOL     OW16543   4.566   3.086   0.315 -0.6978  0.1144  0.6061
 2477SOL    HW116544   4.614   3.061   0.399 -0.8183 -2.3115 -0.0018
 2477SOL    HW216545   4.626   3.072   0.237 -1.7219 -1.0264  0.0036
 2478SOL     OW16546   2.785   4.227   1.305  0.1211  0.3980  0.2430
 2478SOL    HW116547   2.791   4.134   1.342 -0.2025  0.2363 -0.1110
 2478SOL    HW216548   2.863   4.244   1.245  0.1405  0.3284  0.2482
 2479SOL     OW16549   0.806   2.841   0.241  0.0705  0.4022  0.2529
 2479SOL    HW116550   0.837   2.751   0.270 -0.8166  1.1607  3.8702
 2479SOL    HW216551   0.881   2.907   0.252 -0.5059  0.8424  1.6721
 2480SOL     OW16552   8.704   8.230   1.149  0.2620 -0.1631  0.3541
 2480SOL    HW116553   8.625   8.275   1.190 -1.0978 -2.5737  0.4350
 2480SOL    HW216554   8.681   8.136   1.125  2.2952 -0.1008 -2.1017
 2482SOL     OW16555   4.841   8.801   0.431 -0.1175  0.2213  0.1250
 2482SOL    HW116556   4.774   8.788   0.505  0.4921  1.0632  0.8292
 2482SOL    HW216557   4.836   8.723   0.369 -1.7208  0.2349  0.1987
 2483SOL     OW16558   1.845   8.649   3.558  0.1537  0.4254  0.4882
 2483SOL    HW116559   1.812   8.575   3.616  1.1339  0.0299  0.5466
 2483SOL    HW216560   1.789   8.731   3.573 -0.9438 -0.2987  0.4070
 2484SOL     OW16561   3.932   1.610   3.489  0.3401  0.1884 -0.2452
 2484SOL    HW116562   3.842   1.602   3.446 -0.3950 -0.5197  1.4005
 2484SOL    HW216563   3.957   1.524   3.531  1.5754  0.5399 -0.2289
 2485SOL     OW16564   0.456   0.435   1.233 -0.0168  0.1381  0.0759
 2485SOL    HW116565   0.363   0.400   1.221 -0.0093  0.1922 -0.1437
 2485SOL    HW216566   0.485   0.422   1.328 -0.2529  0.1309  0.1466
 2486SOL     OW16567   3.356   9.839   1.171  0.3306  0.2461 -0.1269
 2486SOL    HW116568   3.264   9.862   1.140  0.5218  1.6903  0.3361
 2486SOL    HW216569   3.377   9.744   1.147 -0.9059  0.2124 -1.0976
 2487SOL     OW16570   8.634   3.670   0.888 -0.5989 -0.0479  0.0590
 2487SOL    HW116571   8.587   3.596   0.840  0.4123 -0.5794 -0.1263
 2487SOL    HW216572   8.719   3.635   0.928  0.3998  1.2448 -0.8974
 2488SOL     OW16573   0.373   2.937   2.593 -0.9249  0.2361  0.1148
 2488SOL    HW116574   0.273   2.934   2.585 -0.8758 -1.0134 -0.2417
 2488SOL    HW216575   0.408   2.843   2.598  0.3222  0.6328 -0.9209
 2489SOL     OW16576   2.020   7.599   1.239 -0.6167  0.0323 -0.2618
 2489SOL    HW116577   1.937   7.646   1.209 -0.4646  0.4717  0.0015
 2489SOL    HW216578   2.058   7.645   1.319 -1.2217 -1.3331  0.8368
 2490SOL     OW16579   3.577   8.517   0.081 -0.1770  0.1180 -0.5524
 2490SOL    HW116580   3.559   8.509   0.179 -0.8545 -1.6288 -0.8068
 2490SOL    HW216581   3.612   8.609   0.061 -1.2172  0.9135  1.1411
 2493SOL     OW16582   2.010   3.568   0.348 -0.1110 -0.0777  0.1265
 2493SOL    HW116583   1.918   3.569   0.310 -0.3877 -1.0247  0.7742
 2493SOL    HW216584   2.010   3.522   0.437  0.9705 -0.0085  0.1752
 2496SOL     OW16585   0.772   4.541   1.843  0.2185 -0.5222  0.4655
 2496SOL    HW116586   0.749   4.523   1.939  1.2104  1.8147  1.1814
 2496SOL    HW216587   0.872   4.543   1.833  0.1602  1.9296 -0.0221
 2497SOL     OW16588   6.241   7.862   2.744  0.6908  0.6612 -0.1788
 2497SOL    HW116589   6.243   7.935   2.813  0.9233  0.3768  0.1194
 2497SOL    HW216590   6.223   7.902   2.654  0.0240  0.9950  0.0977
 2498SOL     OW16591   0.384   5.534   2.696  0.3570  0.0788 -0.0100
 2498SOL    HW116592   0.396   5.554   2.599  0.8427 -2.1581 -0.4342
 2498SOL    HW216593   0.474   5.521   2.739  0.1082  0.0153  0.5002
 2499SOL     OW16594   7.378   6.565   2.718  0.1167  0.0648  0.9278
 2499SOL    HW116595   7.354   6.657   2.689  0.6720 -0.4194 -1.1278
 2499SOL    HW216596   7.296   6.519   2.754 -0.5242  0.7808  0.3813
 2500SOL     OW16597   1.375   2.405   1.577  0.3045 -0.5615  0.0624
 2500SOL    HW116598   1.398   2.463   1.499  0.7668 -0.7764  0.0375
 2500SOL    HW216599   1.276   2.404   1.589  0.3367  0.9969  0.6381
 2503SOL     OW16600   1.331   1.498   3.418  0.1126 -0.1016 -0.2812
 2503SOL    HW116601   1.378   1.500   3.329 -0.1659 -2.3985 -0.5112
 2503SOL    HW216602   1.397   1.474   3.490 -0.5248 -2.7539 -0.5262
 2504SOL     OW16603   7.389   9.786   2.127  0.1520 -0.0159  0.7880
 2504SOL    HW116604   7.361   9.720   2.197 -0.3740 -0.0513  0.5508
 2504SOL    HW216605   7.328   9.778   2.048 -0.9109  1.8078  1.3807
 2505SOL     OW16606   9.176   0.058   3.756  0.1725 -0.2823  0.5915
 2505SOL    HW116607   9.154  -0.026   3.706  0.2997 -0.4521  0.8183
 2505SOL    HW216608   9.122   0.133   3.720  0.8210 -0.2434 -0.2980
 2507SOL     OW16609   1.412   1.467   2.306  1.2028 -0.2895 -0.0686
 2507SOL    HW116610   1.423   1.464   2.405 -0.8585 -0.7340  0.1594
 2507SOL    HW216611   1.403   1.374   2.271 -2.2711  0.0130 -0.1507
 2508SOL     OW16612   7.843   2.212   2.527  1.1539 -0.0471 -0.0307
 2508SOL    HW116613   7.775   2.145   2.559  1.4039  0.1167  0.8736
 2508SOL    HW216614   7.811   2.255   2.443  0.2887 -0.2135  0.2079
 2510SOL     OW16615   3.238   0.307   2.323  0.4707 -0.1295  0.0775
 2510SOL    HW116616   3.279   0.219   2.302 -0.2173 -0.4745  0.1839
 2510SOL    HW216617   3.160   0.294   2.385  0.9614  0.6354  0.8730
 2511SOL     OW16618   9.075   8.279   2.366 -0.8226 -0.3997  0.3515
 2511SOL    HW116619   9.042   8.302   2.274  0.9933 -0.1771 -0.2649
 2511SOL    HW216620   9.020   8.205   2.404 -1.5887 -0.4949 -0.9226
 2512SOL     OW16621   1.711   2.286   2.038 -0.5565 -0.2405 -0.0921
 2512SOL    HW116622   1.760   2.219   1.982 -0.3112  1.0569 -1.4485
 2512SOL    HW216623   1.630   2.318   1.989 -2.3168 -1.6940  1.7561
 2513SOL     OW16624   4.537   8.761   1.539  0.8188 -0.2391 -0.2044
 2513SOL    HW116625   4.601   8.720   1.474  0.3377 -1.9489  0.3684
 2513SOL    HW216626   4.498   8.690   1.597 -0.2138  1.0173  0.6860
 2515SOL     OW16627   4.307   3.448   0.519 -0.0508 -0.2696 -0.2124
 2515SOL    HW116628   4.336   3.355   0.539  1.6577  0.0575 -1.1025
 2515SOL    HW216629   4.243   3.447   0.442  1.0316 -0.5842 -1.1167
 2517SOL     OW16630   4.839   1.386   1.782 -0.2481 -0.2603  0.0024
 2517SOL    HW116631   4.929   1.412   1.747  0.0925  0.4920  1.4110
 2517SOL    HW216632   4.770   1.448   1.743  0.4490  2.2791  2.6298
 2518SOL     OW16633   1.082   8.871   0.680  0.2094  0.2194 -0.0723
 2518SOL    HW116634   1.047   8.911   0.765  0.0108 -1.1725  0.5210
 2518SOL    HW216635   1.105   8.775   0.696  1.5937  0.3478 -1.2099
 2519SOL     OW16636   5.461   3.721   0.452  0.3974 -0.5251  0.4376
 2519SOL    HW116637   5.389   3.662   0.416  2.9890 -2.7127 -1.3450
 2519SOL    HW216638   5.508   3.767   0.377  1.2324  0.4780  1.5449
 2520SOL     OW16639   2.594   6.106   2.834 -0.3322  0.3070  0.6303
 2520SOL    HW116640   2.676   6.138   2.881  0.5403  0.8978 -1.2547
 2520SOL    HW216641   2.528   6.072   2.901  0.9287  1.0176  2.2555
 2522SOL     OW16642   4.456   9.643   1.224  0.2277 -0.5337  0.1869
 2522SOL    HW116643   4.372   9.697   1.220 -0.4267 -1.5588 -0.4024
 2522SOL    HW216644   4.516   9.668   1.148  0.9081  0.9088  1.1854
 2523SOL     OW16645   9.974   0.252   2.077  0.1897 -0.0078  0.3206
 2523SOL    HW116646  10.060   0.234   2.124  0.0479 -0.9921  0.2152
 2523SOL    HW216647   9.992   0.272   1.980  0.4961  2.1846  0.8033
 2524SOL     OW16648   2.577   6.458   3.149 -0.5655 -0.1930 -0.0936
 2524SOL    HW116649   2.632   6.465   3.066 -0.4916  3.8213  0.1766
 2524SOL    HW216650   2.638   6.453   3.228 -0.5102  2.1776  0.0633
 2526SOL     OW16651   9.844   6.199   2.152  0.3561  0.3111 -0.8290
 2526SOL    HW116652   9.848   6.100   2.168 -0.8904  0.5006  0.8445
 2526SOL    HW216653   9.843   6.217   2.054 -2.2988 -1.5050 -1.1913
 2527SOL     OW16654   3.937   0.732   1.631 -0.3137 -0.2842 -0.3720
 2527SOL    HW116655   3.984   0.671   1.695  0.8792  0.5823 -0.4042
 2527SOL    HW216656   3.925   0.686   1.543 -0.2971 -0.8134 -0.0994
 2531SOL     OW16657   1.448   2.822   1.381 -0.5199  0.5625  0.5171
 2531SOL    HW116658   1.409   2.861   1.297  0.6023  2.8765  1.0076
 2531SOL    HW216659   1.432   2.885   1.457  0.6436 -0.3342  1.5190
 2532SOL     OW16660   4.754   6.686   2.043  0.2006  0.1277  0.1417
 2532SOL    HW116661   4.693   6.609   2.061  0.5037 -0.1950 -0.2242
 2532SOL    HW216662   4.709   6.751   1.982 -0.4128  0.6930  1.1844
 2533SOL     OW16663   3.153   9.566   1.469  0.0186 -0.3524 -0.2543
 2533SOL    HW116664   3.067   9.604   1.503  0.2843 -0.2255  0.2740
 2533SOL    HW216665   3.154   9.572   1.369  0.4254  1.8069 -0.1223
 2534SOL     OW16666   0.820   4.208   3.489 -0.8384  0.9128  0.2947
 2534SOL    HW116667   0.773   4.184   3.574  2.7145 -0.1505  2.0676
 2534SOL    HW216668   0.794   4.143   3.417 -1.6681  0.0471  1.3562
 2535SOL     OW16669   0.368   0.931   0.164 -0.2235 -0.3916  0.3436
 2535SOL    HW116670   0.285   0.891   0.204 -0.1937  0.0983  0.9028
 2535SOL    HW216671   0.376   0.903   0.069 -0.8703 -0.6956  0.3773
 2539SOL     OW16672   1.508   9.734   3.440  0.4219 -0.1377 -0.2285
 2539SOL    HW116673   1.502   9.730   3.540 -0.7940 -0.6219 -0.3108
 2539SOL    HW216674   1.581   9.674   3.409 -0.5001 -1.5187  0.2447
 2540SOL     OW16675   3.905   7.429   3.261  0.2139  0.5517  0.1771
 2540SOL    HW116676   3.809   7.403   3.252  0.3158  0.8953 -2.1823
 2540SOL    HW216677   3.912   7.529   3.267  0.4324  0.5435  0.0683
 2541SOL     OW16678   3.586   3.803   0.424 -0.0671  0.0646 -0.2304
 2541SOL    HW116679   3.653   3.735   0.394  0.8971  0.3708  1.2057
 2541SOL    HW216680   3.611   3.837   0.514 -2.1678  0.1923  0.3159
 2542SOL     OW16681   3.873   5.912   3.179  0.4522 -0.4064 -0.4830
 2542SOL    HW116682   3.890   5.829   3.127 -0.1138 -0.1088 -1.1569
 2542SOL    HW216683   3.838   5.889   3.270 -0.3868 -0.9014 -0.9206
 2543SOL     OW16684   2.842   0.246   3.082 -0.3110  0.2748  0.7122
 2543SOL    HW116685   2.910   0.271   3.151  1.4330  0.5470 -1.0774
 2543SOL    HW216686   2.813   0.151   3.097 -1.6863  1.0289  3.1853
 2544SOL     OW16687   3.115   7.136   1.170 -0.0154  0.4888  0.1532
 2544SOL    HW116688   3.173   7.215   1.193 -1.5910  2.0296 -1.0591
 2544SOL    HW216689   3.021   7.154   1.200 -0.6592 -0.3620 -1.3059
 2545SOL     OW16690   3.445   8.591   1.520  0.3925  0.1216 -0.0798
 2545SOL    HW116691   3.411   8.553   1.606  0.1750 -0.1963 -0.3044
 2545SOL    HW216692   3.391   8.554   1.444 -0.2508  1.3626 -0.2458
 2546SOL     OW16693   3.578   1.521   0.151 -0.5412 -0.3140  0.7010
 2546SOL    HW116694   3.649   1.542   0.083 -0.9720  2.3162  1.0270
 2546SOL    HW216695   3.604   1.437   0.200  1.7011 -0.1183 -0.0652
 2547SOL     OW16696   8.699   0.532   0.333  0.1256  0.5396  0.2919
 2547SOL    HW116697   8.709   0.468   0.409 -0.4608  0.6330  0.4449
 2547SOL    HW216698   8.612   0.581   0.340  0.9385  1.9804  0.6500
 2548SOL     OW16699   2.988   0.298   2.150 -0.6279  0.1947 -0.6410
 2548SOL    HW116700   3.043   0.216   2.144  1.2930  1.4293 -0.2760
 2548SOL    HW216701   2.943   0.315   2.062 -1.1532 -1.2823 -0.6754
 2549SOL     OW16702   4.867   3.820   0.586  0.4153  0.2253 -0.4354
 2549SOL    HW116703   4.943   3.816   0.522 -0.4206  1.5576 -1.5461
 2549SOL    HW216704   4.789   3.769   0.550  0.0061  0.8190 -0.4106
 2551SOL     OW16705   8.067   1.711   1.534  0.6443 -0.2202  0.1498
 2551SOL    HW116706   8.149   1.720   1.478 -0.0135 -0.7976 -0.9192
 2551SOL    HW216707   7.999   1.778   1.504  0.4590 -0.2123  0.5772
 2552SOL     OW16708   0.334   3.558   2.361 -0.0834  0.6678 -1.0684
 2552SOL    HW116709   0.386   3.473   2.360 -0.1957  0.5810 -0.3241
 2552SOL    HW216710   0.368   3.620   2.290  1.3407  0.7910 -0.2870
 2553SOL     OW16711   1.127   7.200   2.683 -0.0479  0.3441 -0.3467
 2553SOL    HW116712   1.087   7.228   2.770 -1.6203 -0.3770 -0.8310
 2553SOL    HW216713   1.208   7.256   2.665 -0.0193  0.8697  1.3101
 2554SOL     OW16714   0.876   8.205   1.968 -0.2196  0.2129 -0.1382
 2554SOL    HW116715   0.972   8.217   1.993  0.1389 -1.7653 -0.4701
 2554SOL    HW216716   0.871   8.165   1.876 -1.3144 -1.0763  0.4670
 2555SOL     OW16717   0.672   3.823   2.386  0.4086  0.4616 -0.2152
 2555SOL    HW116718   0.647   3.868   2.300  1.4857  1.4356 -0.0330
 2555SOL    HW216719   0.667   3.724   2.375 -2.7989  0.6122 -0.3820
 2557SOL     OW16720   0.527   3.153   2.558  0.8064 -0.8223  0.1512
 2557SOL    HW116721   0.465   3.076   2.571  0.1312 -0.1848  0.7487
 2557SOL    HW216722   0.558   3.187   2.647  0.0401  0.4421 -0.0466
 2558SOL     OW16723   9.758   0.935   2.226 -0.4193  0.1493  0.2610
 2558SOL    HW116724   9.857   0.937   2.214 -0.5227 -0.1184 -0.6805
 2558SOL    HW216725   9.723   0.844   2.205 -1.0386  0.6348 -0.9137
 2559SOL     OW16726   0.648   9.915   1.229  0.1536 -0.1489 -0.1562
 2559SOL    HW116727   0.703   9.842   1.189  0.2689 -0.1187 -0.0500
 2559SOL    HW216728   0.616   9.977   1.157  2.1459  1.1325  0.0199
 2560SOL     OW16729   9.186   7.321   1.121  0.0468 -0.2130 -0.3829
 2560SOL    HW116730   9.173   7.222   1.134  0.9150 -0.3504 -0.5607
 2560SOL    HW216731   9.181   7.343   1.024 -0.8301  0.0220 -0.2912
 2561SOL     OW16732   0.115   6.029   2.363  0.3585 -0.1105 -0.2333
 2561SOL    HW116733   0.036   5.985   2.404  1.2655 -0.0490  1.6367
 2561SOL    HW216734   0.192   5.965   2.359  0.5059  0.1084 -1.1653
 2562SOL     OW16735   1.680   6.553   0.359  0.2095  0.1705 -0.1357
 2562SOL    HW116736   1.743   6.475   0.355  2.5150  1.9254  0.9630
 2562SOL    HW216737   1.731   6.636   0.382 -2.7148  1.4327  2.1405
 2564SOL     OW16738   5.322   3.455   0.740 -0.6468  0.4290  0.3570
 2564SOL    HW116739   5.326   3.412   0.830  1.9347 -1.4058 -0.5626
 2564SOL    HW216740   5.392   3.526   0.734 -0.5049  0.2367 -0.3279
 2565SOL     OW16741   8.506   3.926   0.870  0.1949  0.7380 -0.4531
 2565SOL    HW116742   8.459   3.947   0.956  1.9762  1.0487  0.4685
 2565SOL    HW216743   8.560   3.843   0.880  1.9503  1.8269 -0.6464
 2566SOL     OW16744   2.590   7.369   1.047 -0.1409 -0.0916  0.0639
 2566SOL    HW116745   2.549   7.438   1.106 -0.9259 -0.2052 -0.3306
 2566SOL    HW216746   2.591   7.281   1.094 -1.8617 -0.4413 -0.5146
 2567SOL     OW16747   8.367   5.635   0.910 -0.7525  0.7350  0.3937
 2567SOL    HW116748   8.339   5.552   0.958 -1.1324  0.7218  0.1578
 2567SOL    HW216749   8.401   5.703   0.975 -0.4375  0.3899  0.5857
 2568SOL     OW16750   4.270   3.857   0.772 -0.0876  0.3141 -0.0943
 2568SOL    HW116751   4.296   3.782   0.710  1.9288  1.2572 -0.4214
 2568SOL    HW216752   4.299   3.836   0.865  0.8456  0.8523 -0.2566
 2569SOL     OW16753   9.061   5.006   2.203 -0.3113  0.4374  0.0262
 2569SOL    HW116754   9.084   4.934   2.137 -3.3577 -0.1050 -0.5127
 2569SOL    HW216755   9.083   4.973   2.295  0.0718 -0.4339 -0.3631
 2570SOL     OW16756   3.254   6.534   3.186 -0.0956  0.0227 -0.1572
 2570SOL    HW116757   3.279   6.477   3.108  0.6313 -0.2745  0.2853
 2570SOL    HW216758   3.157   6.560   3.179 -0.1326 -0.3119 -0.9535
 2571SOL     OW16759   1.893   5.635   1.645 -0.3989  0.0899  0.1590
 2571SOL    HW116760   1.989   5.637   1.617 -0.6845  0.0678 -0.8372
 2571SOL    HW216761   1.837   5.683   1.578 -1.0238  0.5880  1.0121
 2572SOL     OW16762   0.145   9.540   1.289  0.4239 -0.7425  0.2049
 2572SOL    HW116763   0.240   9.553   1.260  0.3428 -2.8560 -1.0462
 2572SOL    HW216764   0.104   9.464   1.239 -1.8791 -0.0014  0.8939
 2573SOL     OW16765   1.325   4.678   2.833  0.0759  0.8218  0.1317
 2573SOL    HW116766   1.364   4.756   2.784 -2.8777  1.7738 -0.7730
 2573SOL    HW216767   1.241   4.705   2.879 -0.4164 -1.5557  0.7013
 2574SOL     OW16768   9.152   5.222   0.125  0.5712  0.5266  0.7662
 2574SOL    HW116769   9.219   5.148   0.138  1.4675  1.1763 -0.0544
 2574SOL    HW216770   9.190   5.307   0.161 -1.2209  0.2532  3.4513
 2575SOL     OW16771   0.023   1.321   2.779 -0.3033  0.5697 -0.2263
 2575SOL    HW116772  -0.057   1.378   2.760  0.3427  0.7650 -2.5448
 2575SOL    HW216773   0.025   1.244   2.715  0.4412 -0.3948  0.9460
 2577SOL     OW16774   1.911   6.048   1.551  0.2221  0.5508 -0.3911
 2577SOL    HW116775   1.866   5.982   1.490  0.9254  0.1373 -0.4746
 2577SOL    HW216776   1.989   6.004   1.595 -0.0435  0.9673  0.5093
 2578SOL     OW16777   3.000   5.025   1.127  0.1102  0.0119 -0.1117
 2578SOL    HW116778   3.001   5.068   1.037 -0.2824 -0.2339 -0.2350
 2578SOL    HW216779   3.082   4.967   1.137  0.8793  1.1442  0.2370
 2580SOL     OW16780   0.535   9.580   0.608 -0.1356  0.2248  0.5283
 2580SOL    HW116781   0.616   9.537   0.569 -0.5967 -0.2001  0.0349
 2580SOL    HW216782   0.545   9.586   0.708  0.8913  0.9964  0.3914
 2581SOL     OW16783   2.801   5.392   1.380 -0.1850 -0.1045  0.3872
 2581SOL    HW116784   2.755   5.447   1.450  0.4750  0.6456  0.2425
 2581SOL    HW216785   2.738   5.372   1.305  0.7018  3.9661 -1.5436
 2582SOL     OW16786   9.375   8.010   1.089  0.1748 -0.1790 -0.3846
 2582SOL    HW116787   9.302   8.013   1.158  0.3771  2.8477 -0.1996
 2582SOL    HW216788   9.464   8.018   1.135  0.4581 -0.9194 -0.8101
 2583SOL     OW16789   1.377   1.833   3.471  0.0589  0.0821  0.0812
 2583SOL    HW116790   1.430   1.828   3.387 -0.2872  1.0356 -0.1964
 2583SOL    HW216791   1.371   1.928   3.502 -1.8456  0.0398 -0.1192
 2584SOL     OW16792   2.873   5.141   1.475 -0.0390  0.2325  0.1389
 2584SOL    HW116793   2.784   5.118   1.514  0.4523 -0.4999  0.8474
 2584SOL    HW216794   2.870   5.233   1.436 -0.8227  0.5872  1.0307
 2585SOL     OW16795   0.883   5.337   3.659  0.0547 -0.7359  0.5694
 2585SOL    HW116796   0.794   5.346   3.702  0.7449  0.8181  1.6979
 2585SOL    HW216797   0.953   5.376   3.718  1.5865 -2.5079 -0.0107
 2586SOL     OW16798   2.315   1.217   2.827 -0.6216  0.0620  0.2632
 2586SOL    HW116799   2.231   1.168   2.806 -0.9214  0.6160  0.1408
 2586SOL    HW216800   2.378   1.212   2.749 -0.1824 -1.0926  0.6895
 2587SOL     OW16801   9.666   1.091   2.435 -0.2850  0.3233 -0.0177
 2587SOL    HW116802   9.638   1.007   2.480  0.0868  1.8103  3.0879
 2587SOL    HW216803   9.712   1.069   2.349  0.9141 -2.6741  1.3361
 2589SOL     OW16804   2.975   6.795   2.607 -0.2249 -0.1068 -0.1842
 2589SOL    HW116805   3.030   6.737   2.547 -2.8925 -0.4691 -2.3633
 2589SOL    HW216806   3.036   6.847   2.667  2.3575 -2.4640 -0.6341
 2590SOL     OW16807   8.846   8.935   1.190 -0.6763  0.2741  0.0951
 2590SOL    HW116808   8.908   9.012   1.202  0.1654 -0.3349 -0.2824
 2590SOL    HW216809   8.801   8.915   1.276  0.4392  0.0652  0.6429
 2592SOL     OW16810   6.565   8.960   1.640  0.6673  0.6329 -0.0017
 2592SOL    HW116811   6.565   9.057   1.664 -0.8519  0.9705 -1.2453
 2592SOL    HW216812   6.560   8.905   1.723  0.5764  1.6455  0.6699
 2593SOL     OW16813   4.129   8.128   0.961 -0.3205  0.3686 -0.3792
 2593SOL    HW116814   4.169   8.104   1.050 -1.3809  0.4462  0.1268
 2593SOL    HW216815   4.112   8.227   0.959 -2.6376  0.0026  0.3111
 2594SOL     OW16816   9.569   0.259   1.871 -0.7709 -0.7416 -0.4182
 2594SOL    HW116817   9.600   0.252   1.777 -0.5275  0.0229 -0.3914
 2594SOL    HW216818   9.490   0.320   1.876 -0.6677 -0.6340 -0.0947
 2595SOL     OW16819   0.702   5.140   1.616 -0.0249 -0.5218 -0.5300
 2595SOL    HW116820   0.670   5.136   1.522 -1.9136 -0.4642  0.0958
 2595SOL    HW216821   0.625   5.158   1.677  0.6239 -3.7422  1.3550
 2596SOL     OW16822   8.783   1.535   2.599  0.1116 -0.2669 -0.0508
 2596SOL    HW116823   8.700   1.576   2.637  0.6858 -1.3120  2.4476
 2596SOL    HW216824   8.759   1.453   2.547 -0.7296  1.4143 -2.3986
 2597SOL     OW16825   5.799   9.531   2.187  0.0400 -0.3809  0.1203
 2597SOL    HW116826   5.796   9.501   2.092 -0.8440 -0.3343  0.1314
 2597SOL    HW216827   5.848   9.618   2.193  0.5935 -0.6637 -0.2104
 2599SOL     OW16828   2.380   9.581   0.403  0.0994  0.0342 -0.3882
 2599SOL    HW116829   2.360   9.650   0.473 -1.8060  1.6310 -2.4244
 2599SOL    HW216830   2.430   9.505   0.445 -0.0370  1.4249  2.4617
 2600SOL     OW16831   5.068   1.880   0.854  0.1126 -0.3361 -0.3565
 2600SOL    HW116832   5.000   1.810   0.872 -1.4680  1.1376 -0.4866
 2600SOL    HW216833   5.032   1.970   0.881  1.0327  0.7856 -2.7578
 2601SOL     OW16834   9.569   1.355   1.815 -0.3435 -0.3336 -0.6289
 2601SOL    HW116835   9.503   1.299   1.864  0.5229  0.0465  1.0188
 2601SOL    HW216836   9.573   1.446   1.857 -0.2577  0.2965 -1.9933
 2602SOL     OW16837   9.779   7.468   0.297  0.0263 -0.3930 -0.4992
 2602SOL    HW116838   9.777   7.443   0.393  1.0837 -2.0609 -0.8940
 2602SOL    HW216839   9.694   7.514   0.272 -1.1441 -1.8675  0.7286
 2603SOL     OW16840   0.318   5.962   0.402 -0.2652 -0.2109 -0.6492
 2603SOL    HW116841   0.282   5.899   0.470 -0.4729  0.0291 -0.5370
 2603SOL    HW216842   0.256   6.040   0.391  1.1277  1.1901  0.9420
 2604SOL     OW16843   3.719   7.093   1.961 -0.5253  0.2501 -0.2648
 2604SOL    HW116844   3.804   7.052   1.928 -0.2812 -0.7893  1.6098
 2604SOL    HW216845   3.712   7.187   1.927  1.0543  0.1269 -0.9714
 2606SOL     OW16846   4.144   0.150   3.609 -0.1163  0.8823 -0.3369
 2606SOL    HW116847   4.071   0.149   3.541 -2.3143  0.2393  1.9771
 2606SOL    HW216848   4.226   0.105   3.571 -1.7440 -0.7334 -2.0195
 2607SOL     OW16849   7.908   2.820   1.887  0.6017 -0.3122 -0.1858
 2607SOL    HW116850   7.880   2.889   1.954 -0.5657 -0.0744 -0.9039
 2607SOL    HW216851   8.007   2.809   1.891  0.6181  0.1840  1.1092
 2608SOL     OW16852   8.202   7.459   1.713 -0.7505  0.0641 -0.3989
 2608SOL    HW116853   8.238   7.421   1.799 -0.7312 -0.5450 -0.6701
 2608SOL    HW216854   8.269   7.521   1.673 -0.5399 -0.0598 -0.2414
 2609SOL     OW16855   0.526   3.422   1.209  0.0623  0.0816  0.4747
 2609SOL    HW116856   0.440   3.373   1.199  0.4454 -0.5769  0.3147
 2609SOL    HW216857   0.534   3.491   1.137  0.0577 -0.4554 -0.0485
 2610SOL     OW16858   1.520   0.138   1.404 -0.2161 -0.0698 -0.0560
 2610SOL    HW116859   1.421   0.143   1.418 -0.1067  1.7374  0.2782
 2610SOL    HW216860   1.566   0.195   1.472  1.0536 -0.8386 -0.2575
 2611SOL     OW16861   4.051   7.150   1.671 -0.1884  0.0907 -0.1337
 2611SOL    HW116862   4.084   7.125   1.579  0.6108  2.8482 -0.6491
 2611SOL    HW216863   3.970   7.208   1.662  0.0718  0.6201  0.8859
 2612SOL     OW16864   2.917   0.015   3.610  0.3054  0.2794 -0.0674
 2612SOL    HW116865   2.917   0.114   3.621  1.6900  0.6526 -2.9377
 2612SOL    HW216866   3.009  -0.020   3.627  0.1431 -0.3267 -0.4062
 2613SOL     OW16867   8.018   8.106   3.680  0.3995  0.1373  0.6782
 2613SOL    HW116868   8.086   8.046   3.637 -0.6899 -0.8618  0.3349
 2613SOL    HW216869   8.065   8.180   3.728  1.6740  0.6762 -1.3480
 2614SOL     OW16870   9.298   5.632   2.184 -0.5017  0.6101 -0.0963
 2614SOL    HW116871   9.264   5.585   2.266  0.3328 -1.0686 -0.6891
 2614SOL    HW216872   9.266   5.584   2.102  1.2719  0.4244 -0.6909
 2615SOL     OW16873   5.129   1.991   1.430  0.5431 -0.4879  0.2524
 2615SOL    HW116874   5.037   2.030   1.426  0.9812  0.6988  1.2976
 2615SOL    HW216875   5.138   1.919   1.361 -1.2953 -0.9049  0.4174
 2616SOL     OW16876   0.929   8.671   1.964  0.1729 -0.0186 -0.3505
 2616SOL    HW116877   0.865   8.641   2.035 -0.0703  1.3758  0.0417
 2616SOL    HW216878   1.016   8.623   1.975  1.4019  2.7556  3.1987
 2617SOL     OW16879   8.994   3.423   0.232 -0.0890 -0.5525 -0.1854
 2617SOL    HW116880   8.896   3.414   0.213  0.4943 -2.6460 -2.4976
 2617SOL    HW216881   9.021   3.356   0.302 -0.4230  0.5793  1.0561
 2619SOL     OW16882   8.299   1.914   1.258  0.0174  0.2599 -0.5199
 2619SOL    HW116883   8.261   1.989   1.205 -1.2925 -0.1472 -0.1773
 2619SOL    HW216884   8.287   1.932   1.356 -1.8970 -1.1899 -0.4646
 2620SOL     OW16885   7.697   5.321   3.213  0.5960  0.2414  0.5774
 2620SOL    HW116886   7.762   5.282   3.148  0.5661 -1.2935  1.4482
 2620SOL    HW216887   7.616   5.352   3.164 -0.2093 -2.5472  0.0577
 2621SOL     OW16888   3.615   7.196   2.596  0.2436 -0.3242  0.0175
 2621SOL    HW116889   3.515   7.193   2.598  0.1836  2.1250  1.4378
 2621SOL    HW216890   3.645   7.244   2.513  0.2712 -1.1509 -0.4619
 2622SOL     OW16891   9.664   6.284   2.941  0.4390 -0.8128  0.1744
 2622SOL    HW116892   9.626   6.346   2.872  2.5132  1.0518  0.6450
 2622SOL    HW216893   9.637   6.190   2.920 -2.2562  0.1650 -0.9033
 2623SOL     OW16894   0.868   3.041   0.498  0.1715  0.4716  0.6653
 2623SOL    HW116895   0.770   3.041   0.480  0.0208  3.5020  1.1183
 2623SOL    HW216896   0.917   3.046   0.411 -0.2474  3.0794  0.5178
 2624SOL     OW16897   8.456   4.420   0.521  0.1031 -0.0006  0.4652
 2624SOL    HW116898   8.388   4.439   0.450 -0.1886  0.6789  0.9250
 2624SOL    HW216899   8.454   4.322   0.543 -0.1211 -0.1357 -0.1366
 2625SOL     OW16900   8.544   4.365   1.997 -0.5221 -0.5970  0.2514
 2625SOL    HW116901   8.461   4.418   1.984 -1.1124 -1.4975  0.2615
 2625SOL    HW216902   8.530   4.298   2.070  0.3454 -0.4916  0.5262
 2626SOL     OW16903   0.589   7.633   3.524  0.7665 -0.2074 -0.0195
 2626SOL    HW116904   0.540   7.646   3.438  1.6787  1.1614 -0.3485
 2626SOL    HW216905   0.661   7.703   3.532  0.8208 -0.4550  1.7503
 2627SOL     OW16906   9.867   5.151   3.376 -0.8645  0.1636  0.5285
 2627SOL    HW116907   9.810   5.220   3.421 -0.7319  0.8603 -0.3569
 2627SOL    HW216908   9.955   5.147   3.422 -0.4265  1.4636 -0.1570
 2628SOL     OW16909   7.535   6.697   3.013 -0.3347 -0.0233  0.5234
 2628SOL    HW116910   7.503   6.674   2.921  2.0589 -0.9026 -0.1330
 2628SOL    HW216911   7.534   6.796   3.025 -1.0319  0.0750 -0.3154
 2629SOL     OW16912   2.587   1.944   3.370  0.8173 -0.5619  0.0784
 2629SOL    HW116913   2.551   2.010   3.304 -0.3148  0.1628  1.3837
 2629SOL    HW216914   2.643   1.992   3.437  0.1919 -0.9611  0.8918
 2630SOL     OW16915   9.649   3.050   0.243 -0.4648 -0.1673  0.3547
 2630SOL    HW116916   9.704   3.111   0.186 -1.3826  0.5040  0.1786
 2630SOL    HW216917   9.601   2.985   0.185 -0.0906 -0.5575  0.4849
 2631SOL     OW16918   1.907   6.542   3.120  0.1169  0.1146  0.4169
 2631SOL    HW116919   1.995   6.495   3.113 -0.0805 -0.2148  0.1104
 2631SOL    HW216920   1.878   6.572   3.029  0.3383  1.0146  0.6369
 2632SOL     OW16921   0.784   3.644   1.695  0.3799  0.2978  0.1945
 2632SOL    HW116922   0.808   3.584   1.772 -1.0708  0.3934  0.7501
 2632SOL    HW216923   0.733   3.723   1.729 -1.2538 -0.2211 -0.9556
 2633SOL     OW16924   1.502   9.235   1.846 -0.2526 -0.3759  0.0245
 2633SOL    HW116925   1.560   9.155   1.860  1.8721  1.5258  2.7174
 2633SOL    HW216926   1.543   9.294   1.776 -1.8202 -1.5487 -1.9631
 2634SOL     OW16927   1.158   4.002   0.697 -0.4226  0.2831  0.5463
 2634SOL    HW116928   1.159   4.013   0.796 -1.4903 -1.3327  0.7566
 2634SOL    HW216929   1.142   4.090   0.654  1.1375  1.1899  1.7577
 2635SOL     OW16930   2.764   2.603   1.826 -0.1250 -0.4771  0.4594
 2635SOL    HW116931   2.737   2.507   1.827 -0.7354 -0.3044  1.1454
 2635SOL    HW216932   2.705   2.655   1.888  0.8349  0.1732  0.8328
 2636SOL     OW16933   3.793   0.945   2.822  0.2068 -0.3249 -0.3801
 2636SOL    HW116934   3.891   0.964   2.809  0.4531  0.8683  2.6523
 2636SOL    HW216935   3.781   0.890   2.905 -1.7222  0.1655 -0.3136
 2637SOL     OW16936   0.733   3.369   0.283 -0.2936 -0.3346 -0.3698
 2637SOL    HW116937   0.657   3.305   0.294 -2.1801  1.8516 -0.3373
 2637SOL    HW216938   0.752   3.413   0.371  0.4402 -0.2633 -0.5643
 2638SOL     OW16939   7.465   8.425   2.735  0.1549  0.2212 -0.3192
 2638SOL    HW116940   7.450   8.327   2.719 -0.6370  0.0559  1.3758
 2638SOL    HW216941   7.524   8.462   2.663  0.4176 -1.4925 -0.9987
 2639SOL     OW16942   4.405   8.092   1.598  0.1371  0.0596  0.5079
 2639SOL    HW116943   4.389   8.001   1.637  0.0614  1.4015  3.7376
 2639SOL    HW216944   4.500   8.119   1.615  0.2281  0.4851 -0.6762
 2640SOL     OW16945   4.492   0.367   2.419 -0.0607 -0.3182 -0.7143
 2640SOL    HW116946   4.445   0.280   2.432  0.8147 -0.6087  0.5860
 2640SOL    HW216947   4.541   0.392   2.503 -0.6545  1.6405 -0.9187
 2641SOL     OW16948   8.534   6.661   3.675  0.3658 -0.0500  0.2210
 2641SOL    HW116949   8.631   6.640   3.685  0.5956  1.5338  1.5868
 2641SOL    HW216950   8.523   6.759   3.660 -0.9913 -0.3025 -0.4516
 2642SOL     OW16951   2.179   4.627   0.656 -0.0861  0.5645 -0.4244
 2642SOL    HW116952   2.158   4.701   0.719  0.2797  2.1912 -2.1729
 2642SOL    HW216953   2.109   4.555   0.665  0.6939  0.1640  2.7051
 2644SOL     OW16954   8.394   4.994   1.248 -0.1832  0.3143  0.2370
 2644SOL    HW116955   8.328   4.996   1.323 -1.5390 -0.1317 -0.9058
 2644SOL    HW216956   8.464   4.926   1.267 -0.5016  0.2323  1.1197
 2646SOL     OW16957   9.979   9.759   1.280 -0.4235 -0.2150 -0.3225
 2646SOL    HW116958  10.029   9.673   1.292  0.0267 -0.1429 -1.6276
 2646SOL    HW216959   9.975   9.807   1.368 -2.4163 -2.4769  0.9196
 2647SOL     OW16960   9.349   1.315   2.616 -0.2283  0.2425  0.0977
 2647SOL    HW116961   9.255   1.282   2.622 -0.6405  1.4004  0.1183
 2647SOL    HW216962   9.350   1.415   2.614  0.9226  0.2303 -1.1296
 2648SOL     OW16963   3.864   4.497   3.343 -0.0288 -0.0480 -0.1795
 2648SOL    HW116964   3.919   4.574   3.375 -0.6925  0.6398 -0.7087
 2648SOL    HW216965   3.851   4.432   3.419  0.9761  0.0922  0.1169
 2649SOL     OW16966   2.990   1.205   2.793 -0.0225 -0.2003 -0.2541
 2649SOL    HW116967   3.042   1.214   2.878 -1.5286  1.6776  0.5064
 2649SOL    HW216968   3.051   1.212   2.715  1.5416 -2.9911  0.6403
 2652SOL     OW16969   2.182   7.323   2.638 -0.1958  0.6525 -0.0101
 2652SOL    HW116970   2.086   7.328   2.610  0.1510 -1.4575 -1.6560
 2652SOL    HW216971   2.239   7.363   2.567  0.4211 -1.4851 -0.7352
 2653SOL     OW16972   9.539   9.432   3.580  0.5791 -0.3056 -0.4165
 2653SOL    HW116973   9.443   9.424   3.554  0.1584  0.0755  0.9831
 2653SOL    HW216974   9.588   9.349   3.553 -0.3837 -0.9743 -0.1446
 2654SOL     OW16975   4.394   0.312   3.375 -0.1622 -0.0981  0.1782
 2654SOL    HW116976   4.447   0.394   3.352 -1.1207  0.6206  0.5464
 2654SOL    HW216977   4.305   0.316   3.329 -0.2675 -0.8693  0.3138
 2655SOL     OW16978   0.560   0.231   1.614 -0.1588 -0.1126 -0.2556
 2655SOL    HW116979   0.628   0.215   1.542 -0.5028  1.6973 -1.0148
 2655SOL    HW216980   0.471   0.248   1.572 -0.8190 -1.1753  0.6942
 2656SOL     OW16981   3.753   1.419   3.720 -0.3517 -0.0688  0.6429
 2656SOL    HW116982   3.761   1.447   3.815  1.4602  0.9863  0.1998
 2656SOL    HW216983   3.843   1.397   3.683 -0.9449  0.1107 -0.9978
 2657SOL     OW16984   9.901   7.154   1.366  0.3487 -0.1445  0.1384
 2657SOL    HW116985   9.820   7.106   1.399  0.6903  0.0167  1.2343
 2657SOL    HW216986   9.874   7.224   1.299 -0.5235  0.5287  1.1715
 2658SOL     OW16987   1.438   8.991   2.149  0.7245 -0.0994  0.3554
 2658SOL    HW116988   1.528   9.023   2.178  0.5585  2.6751 -1.9620
 2658SOL    HW216989   1.382   9.070   2.121 -0.8406 -2.1364 -2.4964
 2660SOL     OW16990   4.642   0.092   2.447  0.4463 -0.3117  0.8320
 2660SOL    HW116991   4.666   0.018   2.510 -0.2461  0.8390  2.4900
 2660SOL    HW216992   4.545   0.113   2.455  0.1677 -0.6968 -1.2551
 2663SOL     OW16993   7.787   0.109   0.035 -0.2936 -0.0431  0.2230
 2663SOL    HW116994   7.745   0.198   0.019  2.3883  1.1894 -0.2048
 2663SOL    HW216995   7.820   0.103   0.129  0.0884 -0.3354  0.0750
 2664SOL     OW16996   1.032   9.078   2.808  0.0719 -0.6116  0.4671
 2664SOL    HW116997   1.031   9.165   2.759  0.3311 -0.2593  1.0728
 2664SOL    HW216998   1.058   9.095   2.903 -0.2760 -1.3040  0.6832
 2666SOL     OW16999   1.702   5.367   1.936  0.4062  0.5508 -0.4204
 2666SOL    HW117000   1.686   5.278   1.892  0.2145  1.1830 -1.6645
 2666SOL    HW217001   1.682   5.440   1.871 -1.4523  1.5553  1.2356
 2667SOL     OW17002   4.269   9.079   2.618 -0.3337  0.1716  0.0807
 2667SOL    HW117003   4.304   9.120   2.702 -0.7785 -0.4649  0.5837
 2667SOL    HW217004   4.238   9.152   2.556  0.5247  0.6689  0.2196
 2668SOL     OW17005   1.503   0.439   1.102  0.5847 -0.2087  0.0397
 2668SOL    HW117006   1.557   0.521   1.086  2.8788 -1.5276  0.8396
 2668SOL    HW217007   1.559   0.358   1.085 -1.5345 -1.6259 -0.3744
 2669SOL     OW17008   4.142   8.162   3.674  0.0351 -0.6809 -0.1735
 2669SOL    HW117009   4.047   8.186   3.695  0.2083 -0.3275  0.2133
 2669SOL    HW217010   4.181   8.112   3.751  0.0100 -1.2663 -0.5375
 2670SOL     OW17011   8.296   5.301   3.251  0.8039 -0.1399 -0.0866
 2670SOL    HW117012   8.326   5.264   3.338  0.6335  0.5180  0.2551
 2670SOL    HW217013   8.253   5.229   3.196 -0.4295 -0.2176  0.9733
 2671SOL     OW17014   9.233   6.306   2.978 -0.0239 -0.3626 -0.0870
 2671SOL    HW117015   9.212   6.254   2.896 -0.7721 -3.2355  1.8238
 2671SOL    HW217016   9.149   6.347   3.014  0.3280  1.0154 -0.8185
 2672SOL     OW17017   2.883   3.746   0.756  0.0771 -0.5109  0.9043
 2672SOL    HW117018   2.805   3.734   0.818 -0.0811  0.7892  0.9581
 2672SOL    HW217019   2.931   3.659   0.747 -0.8406 -1.1025  1.5928
 2674SOL     OW17020   9.386   0.514   2.964 -0.1278 -0.3447 -0.0369
 2674SOL    HW117021   9.311   0.472   2.912  1.7334 -0.9232 -2.3392
 2674SOL    HW217022   9.412   0.454   3.039 -2.4025  0.1740  1.2213
 2675SOL     OW17023   2.363   7.393   1.695  0.1725 -0.3759  0.7296
 2675SOL    HW117024   2.373   7.321   1.626 -0.1802  0.7167 -0.4705
 2675SOL    HW217025   2.271   7.390   1.733  0.0431 -0.3210  0.4192
 2676SOL     OW17026   1.662   8.832   2.521 -0.1940  0.3426 -0.5131
 2676SOL    HW117027   1.700   8.924   2.513  1.0799 -0.4198 -4.5439
 2676SOL    HW217028   1.575   8.827   2.474 -0.0462 -0.6215 -0.7039
 2677SOL     OW17029   4.936   7.404   0.509 -0.3077  0.2804  0.1987
 2677SOL    HW117030   4.932   7.404   0.609  0.3859 -0.8096  0.2311
 2677SOL    HW217031   4.885   7.326   0.474  2.2004 -1.2501 -0.1569
 2678SOL     OW17032   5.060   8.153   0.340  0.3301 -0.4602  0.1602
 2678SOL    HW117033   4.970   8.117   0.317  0.6607 -0.8509 -0.5405
 2678SOL    HW217034   5.085   8.224   0.274  1.2634 -1.5478 -0.6674
 2679SOL     OW17035   0.415   8.716   0.429  0.0844  0.1626 -0.5849
 2679SOL    HW117036   0.347   8.687   0.497  1.6538  0.3364  1.1276
 2679SOL    HW217037   0.410   8.657   0.349 -1.7545 -0.1170 -0.2874
 2680SOL     OW17038   9.823   1.483   3.091  0.5097 -0.2088  0.2117
 2680SOL    HW117039   9.915   1.449   3.113 -0.0193 -1.7881  0.0407
 2680SOL    HW217040   9.778   1.420   3.028 -0.3617  1.0266 -0.4191
 2683SOL     OW17041   8.172   8.618   1.995 -0.7760 -0.0551 -0.4259
 2683SOL    HW117042   8.152   8.526   2.029 -3.2949  1.0583  1.3044
 2683SOL    HW217043   8.103   8.643   1.927 -0.4161  0.7246 -0.5021
 2684SOL     OW17044   3.082   4.800   3.697 -0.2834 -0.1432 -0.1576
 2684SOL    HW117045   3.181   4.815   3.694 -0.3417  0.3456  0.2992
 2684SOL    HW217046   3.053   4.756   3.612 -0.0411  1.9342 -1.3415
 2685SOL     OW17047   9.590   1.677   0.838 -0.6411  0.2079  0.3489
 2685SOL    HW117048   9.542   1.633   0.914 -1.7143 -0.1117 -0.4960
 2685SOL    HW217049   9.680   1.634   0.826 -0.5015  0.1985  1.3707
 2686SOL     OW17050   0.790   0.030   3.052 -0.4747 -0.4373 -0.2278
 2686SOL    HW117051   0.839   0.097   2.997 -1.5656 -0.6695 -1.5114
 2686SOL    HW217052   0.695   0.024   3.021 -0.5029 -2.2677  0.1420
 2687SOL     OW17053   8.812   6.339   1.106  0.3194 -0.2260  0.1967
 2687SOL    HW117054   8.786   6.433   1.129 -1.8566 -0.1443 -2.2619
 2687SOL    HW217055   8.779   6.277   1.176 -1.2650  0.5335  0.1499
 2689SOL     OW17056   7.894   2.632   2.726 -0.6160  0.2835 -0.5247
 2689SOL    HW117057   7.910   2.559   2.793 -0.8882 -0.9160 -1.7411
 2689SOL    HW217058   7.944   2.714   2.753  2.4968 -1.4114 -0.9363
 2690SOL     OW17059   0.223   5.468   0.459 -0.8287  0.2806  0.0357
 2690SOL    HW117060   0.322   5.457   0.446 -0.7415  2.0328 -0.8858
 2690SOL    HW217061   0.174   5.419   0.387 -0.5556  1.9531 -1.2990
 2691SOL     OW17062   8.818   9.729   0.657 -0.2491 -0.2292 -0.3784
 2691SOL    HW117063   8.731   9.683   0.637 -0.0277 -0.4441 -0.8371
 2691SOL    HW217064   8.890   9.660   0.670 -0.4374 -0.1242  1.4314
 2692SOL     OW17065   2.119   2.221   0.318  0.2753  0.1139 -0.4493
 2692SOL    HW117066   2.088   2.268   0.235  1.1412  2.7803  0.6902
 2692SOL    HW217067   2.191   2.157   0.295  0.5529  0.8785 -1.7623
 2693SOL     OW17068   9.986   2.377   2.418 -0.6143  0.0599 -0.2141
 2693SOL    HW117069   9.897   2.358   2.460 -1.6883 -0.3735 -2.6472
 2693SOL    HW217070   9.982   2.358   2.320  1.9894  0.6436 -0.4693
 2694SOL     OW17071   8.752   0.236   3.604 -0.1209 -0.1282  0.0812
 2694SOL    HW117072   8.734   0.141   3.630 -0.9745  0.2994  1.0432
 2694SOL    HW217073   8.696   0.298   3.658 -0.0532  0.9098 -1.0022
 2695SOL     OW17074   8.477   8.847   0.191 -0.7800  0.0075 -0.3140
 2695SOL    HW117075   8.476   8.755   0.230 -0.9328 -0.3953 -1.2473
 2695SOL    HW217076   8.440   8.844   0.098  0.9929  0.6848 -1.0658
 2699SOL     OW17077   0.317   8.074   0.368 -0.2216  0.3039 -0.3933
 2699SOL    HW117078   0.381   8.142   0.331  0.4823 -1.2580 -2.1112
 2699SOL    HW217079   0.345   7.983   0.339 -1.4152 -0.7066  1.5161
 2700SOL     OW17080   0.917   8.488   3.090  0.1764  0.1147 -0.5983
 2700SOL    HW117081   0.992   8.487   3.024  0.5569  0.7066 -0.1758
 2700SOL    HW217082   0.874   8.579   3.091 -0.6319 -0.2524 -0.9249
 2701SOL     OW17083   8.418   1.628   0.578 -0.1529  0.4475  0.2226
 2701SOL    HW117084   8.500   1.641   0.634 -0.7590 -0.2022  1.2802
 2701SOL    HW217085   8.348   1.582   0.632 -0.9756  0.3748 -0.8912
 2702SOL     OW17086   5.617   7.466   3.543 -0.3106  0.0093 -0.0244
 2702SOL    HW117087   5.535   7.504   3.501 -1.0069 -1.1276  0.2950
 2702SOL    HW217088   5.592   7.390   3.603  0.9735 -0.3149  0.1111
 2704SOL     OW17089   2.179   9.138   1.036  0.2047 -0.6718  0.2072
 2704SOL    HW117090   2.124   9.221   1.027  0.8870 -0.2060  0.2640
 2704SOL    HW217091   2.243   9.133   0.959 -2.2035 -2.9717 -1.7845
 2706SOL     OW17092   2.545   9.281   0.265 -0.5901  0.0399  0.1926
 2706SOL    HW117093   2.483   9.205   0.246  1.1236 -0.8179 -2.1761
 2706SOL    HW217094   2.638   9.247   0.275  0.2235  1.8297 -0.9917
 2707SOL     OW17095   3.496   9.951   0.321 -0.4234  0.2943  0.2886
 2707SOL    HW117096   3.592   9.923   0.317 -0.8946 -1.1409 -1.8839
 2707SOL    HW217097   3.443   9.880   0.367 -0.8344 -0.1606 -0.8557
 2708SOL     OW17098   1.259   0.533   0.230 -0.0650  0.1976 -0.1900
 2708SOL    HW117099   1.279   0.440   0.200 -2.4345 -0.0459 -1.1247
 2708SOL    HW217100   1.264   0.538   0.330  0.4757 -0.8196 -0.1644
 2709SOL     OW17101   0.241   2.307   2.988  0.0159  0.4399 -0.0200
 2709SOL    HW117102   0.314   2.282   2.923  0.1711 -1.6799  0.9399
 2709SOL    HW217103   0.156   2.323   2.937  0.7376  1.2607 -0.9900
 2710SOL     OW17104   7.353   0.910   2.188 -0.0159  0.4658  0.1591
 2710SOL    HW117105   7.275   0.964   2.222  0.2923  0.2502  1.1888
 2710SOL    HW217106   7.402   0.964   2.119 -0.9526  0.6841 -0.3549
 2712SOL     OW17107   8.416   0.664   2.230 -0.2084  0.0508  0.0884
 2712SOL    HW117108   8.414   0.696   2.324  0.7106 -1.2379  0.5668
 2712SOL    HW217109   8.394   0.566   2.228 -1.4753  0.3380 -1.1728
 2713SOL     OW17110   2.566   5.637   3.664  0.2714 -0.1443 -0.0698
 2713SOL    HW117111   2.663   5.615   3.674  0.5323  0.5077 -1.1497
 2713SOL    HW217112   2.556   5.732   3.635 -0.7169 -0.0242  0.6496
 2714SOL     OW17113   9.946   7.999   0.529 -0.4717  0.2453 -0.0212
 2714SOL    HW117114   9.932   8.093   0.498 -0.6629  0.2726  0.1509
 2714SOL    HW217115   9.983   7.999   0.622  2.4053  0.2237 -1.0877
 2716SOL     OW17116   1.372   0.051   3.149  0.9531  0.3240  0.3975
 2716SOL    HW117117   1.387   0.147   3.124  0.8638 -0.5238 -3.1092
 2716SOL    HW217118   1.274   0.035   3.161  0.8422  0.3289 -0.4967
 2717SOL     OW17119   1.378   9.798   2.372  0.0139 -0.2270 -0.4499
 2717SOL    HW117120   1.280   9.788   2.386 -0.0293 -0.3972 -0.8962
 2717SOL    HW217121   1.402   9.774   2.278  0.5732 -0.8453 -0.1583
 2718SOL     OW17122   0.123   6.835   3.088 -0.4351 -0.1269  0.6334
 2718SOL    HW117123   0.081   6.745   3.074  0.4687 -0.7920  2.0160
 2718SOL    HW217124   0.215   6.836   3.049 -0.3142  0.0885  0.9213
 2720SOL     OW17125   8.155   8.921   2.385 -0.3906 -0.3584 -0.1699
 2720SOL    HW117126   8.223   8.972   2.332 -0.3171 -0.9945 -0.6922
 2720SOL    HW217127   8.063   8.948   2.355 -0.3906  1.3702  1.3567
 2721SOL     OW17128   1.884   2.017   2.899 -0.3830 -0.1475  0.1096
 2721SOL    HW117129   1.875   1.925   2.937  0.8792  0.4198  1.8260
 2721SOL    HW217130   1.823   2.079   2.948  0.5011  0.3904  0.5327
 2722SOL     OW17131   3.748   7.668   2.419 -0.0863 -0.2625  0.2865
 2722SOL    HW117132   3.781   7.674   2.513  0.2131 -1.3583  0.2578
 2722SOL    HW217133   3.662   7.617   2.417 -0.6942  0.7625  0.1038
 2724SOL     OW17134   3.338   5.224   3.685 -0.3894  0.3084  0.0819
 2724SOL    HW117135   3.424   5.204   3.733  0.6211  0.0832 -1.7558
 2724SOL    HW217136   3.336   5.321   3.660 -0.5176  0.2358 -0.1841
 2725SOL     OW17137   9.523   8.685   0.947  0.0316 -0.6968 -0.0532
 2725SOL    HW117138   9.558   8.756   1.008  0.8004  0.1479 -1.4435
 2725SOL    HW217139   9.437   8.716   0.907 -0.8395 -1.5509  1.1347
 2727SOL     OW17140   0.890   6.162   1.186 -0.2369 -0.6412 -0.1487
 2727SOL    HW117141   0.793   6.182   1.170  0.2055  1.0189 -0.8926
 2727SOL    HW217142   0.900   6.069   1.222 -2.2880 -0.0619  2.0596
 2728SOL     OW17143   2.404   8.042   3.266 -0.0810  0.3429  0.1197
 2728SOL    HW117144   2.344   8.057   3.345 -0.5263 -0.1445 -0.1164
 2728SOL    HW217145   2.374   8.100   3.190 -1.5455 -1.3660 -0.6591
 2729SOL     OW17146   1.455   0.494   1.430  0.1561 -0.4453  0.1529
 2729SOL    HW117147   1.430   0.426   1.361 -1.4784 -0.1158  0.3858
 2729SOL    HW217148   1.472   0.582   1.385  0.1208 -0.4862  0.0588
 2730SOL     OW17149   2.001   8.741   2.856 -0.2236  0.0064 -0.0612
 2730SOL    HW117150   1.979   8.835   2.829 -0.2581  0.0135 -0.0092
 2730SOL    HW217151   2.076   8.707   2.801 -0.6081 -0.1448 -0.4937
 2731SOL     OW17152   9.379   5.855   0.771 -0.6818 -0.1068 -0.0162
 2731SOL    HW117153   9.321   5.780   0.802 -1.5010  0.4396 -0.2047
 2731SOL    HW217154   9.419   5.901   0.851 -0.7116 -0.3303  0.1272
 2732SOL     OW17155   1.941   5.822   0.949 -0.2271  0.0371  0.0852
 2732SOL    HW117156   2.024   5.832   1.005 -0.0814 -0.8075  0.0377
 2732SOL    HW217157   1.893   5.909   0.943  1.0867  0.7315 -0.5384
 2733SOL     OW17158   4.637   1.329   1.355  0.2357  0.4924  0.0698
 2733SOL    HW117159   4.626   1.428   1.346  1.3567  0.5436 -0.8232
 2733SOL    HW217160   4.580   1.296   1.431 -0.4082  1.7613  0.1576
 2737SOL     OW17161   2.398   7.913   0.616 -0.0548  0.1725 -0.3437
 2737SOL    HW117162   2.465   7.908   0.542  2.3140 -0.7889  1.8029
 2737SOL    HW217163   2.409   8.000   0.664  1.0373 -0.8226  1.2498
 2739SOL     OW17164   0.958   0.263   3.514  0.3649  0.0490  0.2610
 2739SOL    HW117165   0.992   0.175   3.547 -2.6827 -1.3164 -0.1710
 2739SOL    HW217166   0.983   0.275   3.418  1.5994  0.1175  0.5745
 2741SOL     OW17167   8.926   4.425   2.904 -0.0186 -0.5576  0.2963
 2741SOL    HW117168   8.904   4.431   2.806  0.5474  1.4563  0.2654
 2741SOL    HW217169   8.846   4.452   2.958  0.1992 -0.0155  0.3479
 2744SOL     OW17170   5.557   9.567   2.462 -0.6870 -0.1326 -0.1174
 2744SOL    HW117171   5.541   9.579   2.560 -2.3457  0.5119 -0.4504
 2744SOL    HW217172   5.528   9.475   2.435 -2.5865  0.5498 -0.4568
 2745SOL     OW17173   1.021   7.019   2.504  0.4280 -0.4664  0.9063
 2745SOL    HW117174   1.060   7.101   2.544  0.3820  0.0757 -0.1303
 2745SOL    HW217175   0.922   7.029   2.497  0.5933  0.2072 -0.9666
 2746SOL     OW17176   6.351   8.822   2.312  0.3017  0.1647  0.3963
 2746SOL    HW117177   6.369   8.846   2.408 -0.0337 -1.0416  0.7720
 2746SOL    HW217178   6.312   8.730   2.308  0.6281  0.0781 -0.9303
 2747SOL     OW17179   1.048   4.750   0.425 -0.0838 -0.0954  0.0152
 2747SOL    HW117180   1.051   4.737   0.326 -0.7758  1.5852 -0.2251
 2747SOL    HW217181   1.061   4.846   0.447 -0.0965 -0.4331  1.5627
 2749SOL     OW17182   3.057   5.545   0.444 -0.0195 -0.6788  0.1376
 2749SOL    HW117183   3.052   5.469   0.379 -1.2725 -1.2344  0.8579
 2749SOL    HW217184   3.093   5.626   0.398  0.7730 -1.5443 -0.7904
 2750SOL     OW17185   9.091   2.157   1.487  0.0800  0.4521 -0.5996
 2750SOL    HW117186   9.030   2.189   1.414  0.4582 -0.0361 -1.1254
 2750SOL    HW217187   9.056   2.071   1.524 -0.8496  1.3699  0.7101
 2751SOL     OW17188   9.793   5.812   0.198  0.1769  0.3721 -0.2024
 2751SOL    HW117189   9.838   5.802   0.286  0.7611 -1.2073 -0.6472
 2751SOL    HW217190   9.704   5.765   0.201  0.7546 -0.7895 -0.8209
 2752SOL     OW17191   4.149   2.161   0.005  0.4012  0.3686 -0.1227
 2752SOL    HW117192   4.198   2.076  -0.012  0.7738  0.5668 -0.0337
 2752SOL    HW217193   4.066   2.141   0.058  0.5539  0.0804  0.0085
 2753SOL     OW17194   8.494   0.875   0.909 -0.8360  0.1388  0.0894
 2753SOL    HW117195   8.528   0.900   0.819 -1.9427 -0.4783 -0.5117
 2753SOL    HW217196   8.560   0.815   0.955 -0.8969 -0.6716 -0.8715
 2754SOL     OW17197   2.180   2.586   2.389  0.5949 -0.7104  0.1345
 2754SOL    HW117198   2.262   2.530   2.398 -0.0647 -1.5600  1.0737
 2754SOL    HW217199   2.118   2.565   2.465 -0.5719 -0.2330 -0.6755
 2755SOL     OW17200   8.955   5.022   0.698 -0.3099  0.3950  0.1935
 2755SOL    HW117201   9.055   5.025   0.702 -0.1790 -2.2352  0.0451
 2755SOL    HW217202   8.926   5.008   0.604 -0.8795  2.1784  0.0915
 2757SOL     OW17203   2.621   4.749   0.333 -0.0263  0.5864 -0.0006
 2757SOL    HW117204   2.596   4.721   0.426  0.0544  1.4040  0.2663
 2757SOL    HW217205   2.556   4.709   0.268  0.1023 -0.2509  0.3737
 2759SOL     OW17206   5.223   6.652   2.422 -0.3916  0.0367 -0.2348
 2759SOL    HW117207   5.174   6.721   2.370  0.5068 -0.7469 -2.1624
 2759SOL    HW217208   5.190   6.561   2.397  0.4523 -0.3788  0.1297
 2760SOL     OW17209   2.405   0.613   2.382  0.2104  0.4759 -0.3032
 2760SOL    HW117210   2.311   0.641   2.402 -0.2345 -0.4594 -1.0241
 2760SOL    HW217211   2.468   0.677   2.424 -0.7151  0.1247  1.7032
 2761SOL     OW17212   0.934   4.454   0.433 -0.0146  0.0243 -0.2150
 2761SOL    HW117213   0.937   4.554   0.427 -2.1485  0.2949  2.4095
 2761SOL    HW217214   0.839   4.424   0.437  0.6369 -1.8103  3.0352
 2762SOL     OW17215   6.672   9.647   3.646 -0.2843 -0.3516 -0.3433
 2762SOL    HW117216   6.723   9.617   3.726  2.5901  0.8245 -1.6727
 2762SOL    HW217217   6.669   9.574   3.578  1.4295  0.2398 -1.0831
 2763SOL     OW17218   1.982   9.947   0.227 -0.4574 -0.2552 -0.4679
 2763SOL    HW117219   1.961   9.898   0.312  2.9828  1.0106  1.2275
 2763SOL    HW217220   2.061   9.905   0.184  0.4714  1.7314 -0.7513
 2764SOL     OW17221   8.890   3.741   2.866 -0.0780  0.2613 -0.5054
 2764SOL    HW117222   8.884   3.646   2.897  0.6195 -0.2130 -1.7814
 2764SOL    HW217223   8.811   3.792   2.899  0.2510 -0.4104  1.3698
 2765SOL     OW17224   1.109   0.438   1.242 -0.0348  0.4247 -0.5316
 2765SOL    HW117225   1.020   0.408   1.208  0.1107 -1.0363  0.3263
 2765SOL    HW217226   1.110   0.433   1.341  1.4285 -0.8139 -0.5925
 2766SOL     OW17227   2.727   3.678   0.347  0.8165  0.3745 -0.9659
 2766SOL    HW117228   2.748   3.656   0.252  1.4268 -1.5004 -0.4124
 2766SOL    HW217229   2.804   3.729   0.387 -0.0516  2.4521 -1.8724
 2767SOL     OW17230   3.545   4.943   1.394 -0.0360 -0.0582  0.1260
 2767SOL    HW117231   3.506   4.995   1.319  1.0873 -1.9330 -1.8442
 2767SOL    HW217232   3.616   4.997   1.440 -1.7687  1.6513  0.8119
 2769SOL     OW17233   1.374   8.519   0.367 -0.0456 -0.0256 -0.1617
 2769SOL    HW117234   1.428   8.522   0.451 -0.1513 -0.8627 -0.0590
 2769SOL    HW217235   1.432   8.491   0.291 -0.5174 -1.8333  0.1169
 2770SOL     OW17236   3.420   3.647   0.847 -0.6719  0.1939 -0.3956
 2770SOL    HW117237   3.351   3.598   0.794 -0.7342  1.0199 -1.0884
 2770SOL    HW217238   3.510   3.632   0.806 -0.7382  0.9423 -0.8283
 2771SOL     OW17239   4.878   2.092   1.443 -0.1309 -0.2785 -0.0729
 2771SOL    HW117240   4.794   2.140   1.417 -0.0147  0.5037  0.9373
 2771SOL    HW217241   4.885   2.090   1.543  2.4378  2.1727 -0.1192
 2773SOL     OW17242   7.663   7.790   1.531 -0.7237 -0.1805  1.0150
 2773SOL    HW117243   7.585   7.851   1.546  0.8591  1.9684  0.7410
 2773SOL    HW217244   7.734   7.810   1.598  0.6533 -0.3347 -0.3801
 2774SOL     OW17245   3.213   4.317   0.584 -0.4132  0.0508  0.3844
 2774SOL    HW117246   3.181   4.290   0.675 -0.1177  0.7901  0.7099
 2774SOL    HW217247   3.309   4.342   0.589 -0.3599 -0.0485 -0.1636
 2776SOL     OW17248   2.428   2.056   0.741  0.3387 -0.1274  0.0600
 2776SOL    HW117249   2.379   1.984   0.789  2.3390 -1.6575 -0.1102
 2776SOL    HW217250   2.526   2.044   0.756  0.7890  1.4105 -1.5904
 2777SOL     OW17251   5.066   0.385   2.157  0.2635 -0.0549  0.1995
 2777SOL    HW117252   5.144   0.429   2.202  0.2950 -0.5709  0.6475
 2777SOL    HW217253   5.092   0.294   2.127 -0.2330 -0.3108  0.5434
 2778SOL     OW17254   8.428   9.843   2.958  0.7952 -0.1563  0.1976
 2778SOL    HW117255   8.520   9.880   2.970  1.5495 -1.1503 -2.0961
 2778SOL    HW217256   8.398   9.797   3.042  2.8725 -0.8469  0.5849
 2779SOL     OW17257   4.399   0.991   0.688  0.5836 -0.3712  0.1577
 2779SOL    HW117258   4.470   0.921   0.688  0.5529 -0.4012  0.0492
 2779SOL    HW217259   4.373   1.013   0.594  1.3665  0.5608  0.1497
 2780SOL     OW17260   9.331   2.006   1.720  0.1911  0.4694 -0.2789
 2780SOL    HW117261   9.370   2.061   1.794 -0.7966  1.2787 -0.3417
 2780SOL    HW217262   9.355   2.047   1.632 -2.1544  1.9636 -0.2822
 2781SOL     OW17263   9.885   4.997   2.573  0.4999 -0.7843  0.0393
 2781SOL    HW117264   9.800   5.028   2.532  0.7073 -0.4586 -0.1496
 2781SOL    HW217265   9.951   5.073   2.575  1.2399 -1.3908 -1.0247
 2782SOL     OW17266   0.935   3.381   2.851 -0.2631 -0.0232  0.3179
 2782SOL    HW117267   0.988   3.387   2.936  0.3315  1.6306 -0.1620
 2782SOL    HW217268   0.948   3.290   2.810  0.4475 -0.3864  1.3320
 2783SOL     OW17269   1.881   4.404   2.320 -0.0004  0.1942  0.2958
 2783SOL    HW117270   1.976   4.371   2.330 -0.0721  0.1027  0.6741
 2783SOL    HW217271   1.850   4.385   2.227 -0.1126 -1.0254  0.5670
 2784SOL     OW17272   3.190   5.514   0.688 -0.3761 -0.5314 -0.3716
 2784SOL    HW117273   3.178   5.559   0.777  0.6632  0.0668 -0.5293
 2784SOL    HW217274   3.138   5.563   0.618 -0.0737 -0.1874 -0.3528
 2785SOL     OW17275   3.859   8.731   2.746  0.3387 -0.0264  0.3261
 2785SOL    HW117276   3.881   8.817   2.702 -1.2394 -0.7995 -2.1012
 2785SOL    HW217277   3.778   8.743   2.803  0.8053  0.3648  0.9058
 2786SOL     OW17278   9.116   2.320   2.239  0.1842 -0.0506  0.0172
 2786SOL    HW117279   9.137   2.269   2.156  1.1724 -1.7504  1.2727
 2786SOL    HW217280   9.040   2.383   2.221  0.4463 -0.3174 -2.1747
 2787SOL     OW17281   5.210   3.334   0.512  0.3531 -0.2789 -0.2183
 2787SOL    HW117282   5.258   3.251   0.485  0.6077 -0.4316  0.6904
 2787SOL    HW217283   5.258   3.377   0.588  0.0475  0.5352 -0.4777
 2788SOL     OW17284   3.750   5.349   3.527  0.1168  0.1426  0.4343
 2788SOL    HW117285   3.687   5.297   3.584  0.9185 -0.7858  0.4726
 2788SOL    HW217286   3.700   5.424   3.482 -0.5714  0.7278  2.1306
 2790SOL     OW17287   6.956   7.661   2.516  0.2401  0.1480  0.0716
 2790SOL    HW117288   6.914   7.640   2.604 -0.1497  0.0578 -0.1361
 2790SOL    HW217289   7.033   7.599   2.500  0.9353  0.8071  0.7968
 2792SOL     OW17290   2.696   4.694   2.009 -0.0694  0.2248  0.3132
 2792SOL    HW117291   2.627   4.653   1.949  0.2243  0.7870 -0.4187
 2792SOL    HW217292   2.674   4.791   2.024  0.2018  0.2419  0.6065
 2793SOL     OW17293   0.037   5.293   1.209 -0.4995 -0.0417 -0.2580
 2793SOL    HW117294   0.076   5.246   1.288 -0.6586  0.7432  0.2953
 2793SOL    HW217295  -0.055   5.260   1.192  0.2055 -1.5573 -1.2711
 2794SOL     OW17296   9.769   3.565   2.321  0.0471 -0.3046 -0.7820
 2794SOL    HW117297   9.857   3.520   2.308  0.1579 -0.7430  1.3550
 2794SOL    HW217298   9.730   3.539   2.410 -0.6779  2.4848 -0.2138
 2795SOL     OW17299   8.625   5.523   2.726 -0.4884 -0.2353  0.2815
 2795SOL    HW117300   8.664   5.515   2.818 -2.3974  1.3678  1.2765
 2795SOL    HW217301   8.537   5.571   2.731 -0.1816  0.7220 -2.4967
 2796SOL     OW17302   1.642   8.219   2.072  0.0494 -0.0174  0.0408
 2796SOL    HW117303   1.692   8.259   1.995 -2.5839  4.6608  0.5685
 2796SOL    HW217304   1.565   8.166   2.039 -0.4527  1.0922 -0.5804
 2797SOL     OW17305   3.091   0.991   1.594 -0.2497 -1.1347 -0.0963
 2797SOL    HW117306   3.033   1.036   1.525 -0.8386 -4.0200 -1.5649
 2797SOL    HW217307   3.162   0.937   1.548  0.5829 -1.5247  1.6054
 2799SOL     OW17308   0.937   1.503   1.340  0.4379  0.2019 -0.2675
 2799SOL    HW117309   0.907   1.483   1.246  2.1871  1.1640 -1.0475
 2799SOL    HW217310   1.036   1.489   1.347  0.4776  1.1195  1.1687
 2800SOL     OW17311   0.509   5.560   1.795  0.1122  0.2384 -0.2312
 2800SOL    HW117312   0.441   5.577   1.867  0.5512  1.3525 -0.0587
 2800SOL    HW217313   0.462   5.530   1.712 -0.2116 -3.2016  1.1416
 2802SOL     OW17314   0.518   2.704   2.585  0.7586  0.4322  0.8211
 2802SOL    HW117315   0.618   2.710   2.577  0.7455  0.0976  0.3604
 2802SOL    HW217316   0.495   2.658   2.670  1.0358 -0.7830  0.2544
 2805SOL     OW17317   3.630   5.538   3.364 -0.1317  0.0534 -0.1125
 2805SOL    HW117318   3.621   5.603   3.440 -0.8897  0.3335 -0.4270
 2805SOL    HW217319   3.684   5.580   3.291  0.0552  0.0305  0.0135
 2807SOL     OW17320   9.212   2.753   1.369  0.1273 -0.3281  0.3689
 2807SOL    HW117321   9.251   2.662   1.353  0.1619  0.0452 -1.7980
 2807SOL    HW217322   9.270   2.804   1.432  0.9060 -1.2691  0.4177
 2808SOL     OW17323   2.871   9.658   0.017  0.2242 -0.3784  0.0776
 2808SOL    HW117324   2.846   9.707   0.101  1.2717  0.9242 -0.3505
 2808SOL    HW217325   2.814   9.577   0.008 -1.0128  0.3404  1.2121
 2809SOL     OW17326   9.667   3.249   1.151  0.0073  0.2797  0.5100
 2809SOL    HW117327   9.604   3.259   1.073  1.4912  0.5783 -0.6731
 2809SOL    HW217328   9.749   3.304   1.135  1.2476 -1.2729  1.3565
 2810SOL     OW17329   4.260   7.566   3.135  0.2407  0.4146 -0.5637
 2810SOL    HW117330   4.222   7.643   3.187 -0.6713  0.1231 -0.7982
 2810SOL    HW217331   4.309   7.505   3.198  1.5898  1.5543 -0.4825
 2811SOL     OW17332   2.004   6.375   1.122 -0.0809  0.1700 -0.4207
 2811SOL    HW117333   1.977   6.283   1.149  0.6291 -0.4192 -1.7195
 2811SOL    HW217334   1.983   6.439   1.197 -3.4242 -0.5269 -0.6992
 2812SOL     OW17335   3.660   2.222   0.889 -0.1292  0.1245  0.3496
 2812SOL    HW117336   3.601   2.158   0.937 -0.8108  0.0554 -0.5633
 2812SOL    HW217337   3.635   2.225   0.792  0.3972  1.1959  0.2288
 2813SOL     OW17338   8.617   7.066   3.469  1.1600  0.8003  0.3438
 2813SOL    HW117339   8.583   6.985   3.421 -0.8500  0.7129  1.8413
 2813SOL    HW217340   8.717   7.065   3.470  1.1600 -2.3595  1.4865
 2814SOL     OW17341   8.481   7.856   1.714  0.2405  0.1967  0.5051
 2814SOL    HW117342   8.567   7.889   1.675 -0.3141  0.3063 -0.6234
 2814SOL    HW217343   8.408   7.922   1.697 -0.4331 -0.6698 -0.0072
 2815SOL     OW17344   1.957   3.207   1.268 -0.6313  0.3211  0.0406
 2815SOL    HW117345   2.011   3.267   1.209  0.6468 -0.1484  0.7195
 2815SOL    HW217346   1.879   3.259   1.305  0.1646  1.4175  0.2160
 2817SOL     OW17347   4.616   9.497   3.419  0.1409  0.0228  0.5056
 2817SOL    HW117348   4.709   9.486   3.384  0.3448  1.1862  0.6589
 2817SOL    HW217349   4.614   9.481   3.517  0.1849  0.0243  0.5065
 2818SOL     OW17350   4.818   4.440   1.682  0.2574 -0.0593 -1.0881
 2818SOL    HW117351   4.811   4.389   1.597  1.4974  0.5958 -1.6002
 2818SOL    HW217352   4.761   4.523   1.676  0.4825  0.0773 -1.3487
 2819SOL     OW17353   8.746   6.522   1.750 -0.1928  0.4810  0.2334
 2819SOL    HW117354   8.695   6.597   1.708  0.9351  1.4399  0.5635
 2819SOL    HW217355   8.831   6.557   1.789 -1.0874 -0.4226  3.1081
 2820SOL     OW17356   1.593   0.833   1.566 -0.0573 -0.2597  0.0805
 2820SOL    HW117357   1.577   0.788   1.478  0.9584  0.3548 -0.4259
 2820SOL    HW217358   1.642   0.919   1.551 -0.1759  0.0148  1.2196
 2821SOL     OW17359   3.122   0.075   2.123  0.1588  0.8594  0.4705
 2821SOL    HW117360   3.220   0.072   2.143  0.2002 -0.9776  0.1104
 2821SOL    HW217361   3.082  -0.014   2.143 -1.2682  1.3293 -0.2766
 2822SOL     OW17362   2.611   1.608   1.270  0.0052 -0.3914 -0.9417
 2822SOL    HW117363   2.672   1.538   1.233  1.4515 -0.4818  1.5395
 2822SOL    HW217364   2.664   1.684   1.306 -1.3738 -0.1214  0.5797
 2823SOL     OW17365   8.356   6.367   1.630 -0.2459  0.2680  0.2091
 2823SOL    HW117366   8.299   6.296   1.588  0.7286  0.0681 -0.7871
 2823SOL    HW217367   8.368   6.346   1.727 -0.8881 -0.3292  0.1632
 2824SOL     OW17368   0.364   6.467   2.365  0.0206 -0.1566  0.4691
 2824SOL    HW117369   0.277   6.417   2.361  0.6492 -1.2470 -0.1153
 2824SOL    HW217370   0.363   6.532   2.441 -0.3618 -1.9869  2.0775
 2825SOL     OW17371   0.261   6.753   3.651 -0.1806 -0.7022  0.1411
 2825SOL    HW117372   0.326   6.677   3.645  1.5886  0.7520  0.4732
 2825SOL    HW217373   0.247   6.791   3.559  1.7737  0.8661  0.4537
 2826SOL     OW17374   7.690   7.534   1.710  0.7678  0.0203  0.3492
 2826SOL    HW117375   7.662   7.600   1.640  0.8686 -0.5055 -0.1914
 2826SOL    HW217376   7.786   7.510   1.697 -0.1876 -2.9630 -1.7031
 2827SOL     OW17377   7.644   6.044   2.631  0.1373 -0.3126 -0.1300
 2827SOL    HW117378   7.670   5.954   2.595  2.0817  0.9126 -1.8997
 2827SOL    HW217379   7.572   6.033   2.700 -1.1831 -3.0376 -1.8567
 2828SOL     OW17380   8.872   1.934   0.527 -0.2714  0.1714  0.0801
 2828SOL    HW117381   8.960   1.916   0.571 -0.1432 -0.3366 -0.3794
 2828SOL    HW217382   8.875   2.022   0.479 -0.0295  0.1747  0.1035
 2830SOL     OW17383   3.509   1.381   3.555  0.0800 -0.4083  0.5133
 2830SOL    HW117384   3.598   1.401   3.597  1.5404 -0.5214 -2.3282
 2830SOL    HW217385   3.513   1.290   3.512 -1.1077 -0.0241 -0.4177
 2831SOL     OW17386   8.326   6.408   0.115 -0.2644 -0.1526  0.2602
 2831SOL    HW117387   8.360   6.412   0.209 -0.0137  2.2184  0.0969
 2831SOL    HW217388   8.315   6.313   0.087 -0.4035 -0.8725  2.7139
 2832SOL     OW17389   0.049   7.867   2.116 -0.6671 -0.6276 -0.2080
 2832SOL    HW117390  -0.029   7.925   2.141  1.2179  1.3534  1.3351
 2832SOL    HW217391   0.073   7.809   2.193  1.2872  1.0270  0.4813
 2833SOL     OW17392   3.649   2.081   2.736 -0.1191 -0.3539  0.2320
 2833SOL    HW117393   3.686   2.144   2.805 -0.9441 -2.6937  2.8855
 2833SOL    HW217394   3.705   1.999   2.732 -0.7418 -0.7296 -1.0824
 2835SOL     OW17395   0.485   2.231   3.694 -0.3816 -0.1189  0.5284
 2835SOL    HW117396   0.548   2.305   3.715 -1.0271  0.1411  1.6189
 2835SOL    HW217397   0.465   2.230   3.596 -1.4185  2.0135  0.6913
 2836SOL     OW17398   9.676   3.195   3.612  0.0988  0.2951  0.4737
 2836SOL    HW117399   9.704   3.256   3.538  0.3667  0.2036  0.4971
 2836SOL    HW217400   9.690   3.240   3.700 -0.8390  0.6486  0.4402
 2837SOL     OW17401   0.464   3.863   1.026 -0.0862  0.0919  0.1006
 2837SOL    HW117402   0.373   3.823   1.011  1.4124 -3.8701  0.9696
 2837SOL    HW217403   0.498   3.899   0.939 -1.9792  0.5149 -0.4953
 2838SOL     OW17404   4.866   1.495   2.071 -0.2011  0.0127 -0.1166
 2838SOL    HW117405   4.808   1.427   2.115 -0.7257  0.9051  0.6045
 2838SOL    HW217406   4.903   1.459   1.986  1.4795 -2.0547  1.4305
 2839SOL     OW17407   8.475   8.111   0.802 -0.1064  0.0247 -0.4466
 2839SOL    HW117408   8.470   8.013   0.822  1.9035  0.2043  1.0417
 2839SOL    HW217409   8.457   8.126   0.705 -1.4312 -1.7162 -0.4943
 2840SOL     OW17410   8.031   1.723   0.858 -0.6836 -0.0815  0.5580
 2840SOL    HW117411   8.123   1.689   0.880 -1.1492 -1.7460  0.0202
 2840SOL    HW217412   8.039   1.803   0.798  0.4340  0.6322  1.6223
 2841SOL     OW17413   8.910   0.832   0.446  0.0818 -0.8181  0.9335
 2841SOL    HW117414   8.994   0.847   0.498  1.2535  0.2494 -1.1727
 2841SOL    HW217415   8.924   0.757   0.382 -0.5565 -0.6245  0.5650
 2842SOL     OW17416   4.775   3.403   3.558 -0.2413 -0.6524  0.5725
 2842SOL    HW117417   4.811   3.319   3.600  1.3270 -0.0307  0.5058
 2842SOL    HW217418   4.747   3.383   3.464 -1.5684 -1.5019  1.1243
 2843SOL     OW17419   1.666   0.642   1.038 -0.0757  0.1726  0.3958
 2843SOL    HW117420   1.712   0.628   0.951  0.4275 -2.0778  1.0007
 2843SOL    HW217421   1.640   0.738   1.047  0.5706  0.5777 -1.8731
 2844SOL     OW17422   2.662   1.059   3.011 -0.3669 -0.2452 -0.2649
 2844SOL    HW117423   2.644   0.964   2.986  3.1081 -0.2603 -3.1420
 2844SOL    HW217424   2.592   1.118   2.971 -0.9168 -1.3222 -0.9265
 2845SOL     OW17425   3.176   0.943   2.089 -0.4764 -0.0571 -0.1256
 2845SOL    HW117426   3.191   1.038   2.118  1.1743 -1.0372  2.3178
 2845SOL    HW217427   3.082   0.916   2.110 -0.6875  0.7406 -0.0241
 2846SOL     OW17428   9.365   1.161   0.629 -0.1609 -0.1556 -0.6228
 2846SOL    HW117429   9.407   1.179   0.540  1.1268  2.9801  0.5612
 2846SOL    HW217430   9.281   1.109   0.615  0.7020 -0.9250 -3.5425
 2847SOL     OW17431   3.064   5.294   0.279 -0.0358 -0.0970 -0.0905
 2847SOL    HW117432   3.061   5.332   0.187  1.0326 -0.2441 -0.1921
 2847SOL    HW217433   2.983   5.238   0.294 -0.8041  0.8978 -0.5144
 2848SOL     OW17434   1.982   4.152   0.944  0.0788  0.5048 -0.6697
 2848SOL    HW117435   1.964   4.245   0.976 -1.1872  0.1130 -0.2436
 2848SOL    HW217436   2.049   4.156   0.869 -0.4066  1.8036 -1.0528
 2849SOL     OW17437   4.003   2.762   2.071  0.2179  0.3162  0.1920
 2849SOL    HW117438   3.914   2.773   2.026 -0.5994  0.4337  1.7831
 2849SOL    HW217439   4.075   2.795   2.011 -1.0469  2.5464 -0.1360
 2850SOL     OW17440   3.185   4.793   1.666  0.2147 -0.3276 -0.0578
 2850SOL    HW117441   3.109   4.815   1.603  1.6139  1.6287 -1.1231
 2850SOL    HW217442   3.260   4.754   1.614  0.7776 -0.1771  0.6430
 2851SOL     OW17443   3.054   5.505   1.378 -0.1182 -0.0406 -0.0610
 2851SOL    HW117444   3.119   5.483   1.450 -0.8978  1.5543  1.1686
 2851SOL    HW217445   2.975   5.445   1.384 -0.4247  0.4420  0.7611
 2852SOL     OW17446   3.004   4.585   1.327 -0.7802 -0.5838  0.2699
 2852SOL    HW117447   3.075   4.516   1.308 -0.2525  0.4006 -1.4466
 2852SOL    HW217448   3.008   4.611   1.423  0.7494 -1.0361  0.3400
 2853SOL     OW17449   2.992   9.165   3.003 -0.6883 -0.1311  0.1238
 2853SOL    HW117450   2.983   9.155   2.904 -0.9772 -1.2168  0.2644
 2853SOL    HW217451   3.089   9.175   3.026 -0.3010 -3.3253  0.0484
 2855SOL     OW17452   9.616   9.003   1.613 -0.1264  0.0519 -0.3618
 2855SOL    HW117453   9.554   8.929   1.639 -0.6846  0.2719 -1.0302
 2855SOL    HW217454   9.566   9.069   1.556  0.0832  1.5061  1.1269
 2856SOL     OW17455   1.715   3.070   1.160  0.4774  0.5079  0.0596
 2856SOL    HW117456   1.639   3.126   1.194  0.9761  1.3408 -0.1841
 2856SOL    HW217457   1.802   3.113   1.185  0.8525  0.6479 -1.4480
 2860SOL     OW17458   8.730   3.948   1.647  0.0069  0.6427  0.2208
 2860SOL    HW117459   8.671   4.010   1.595 -2.1012 -0.7870  0.7973
 2860SOL    HW217460   8.734   3.859   1.601  0.8756  0.4109  0.7354
 2861SOL     OW17461   9.974   9.442   0.666 -0.0444  0.0994 -0.6279
 2861SOL    HW117462   9.988   9.359   0.612  0.7072 -0.0506 -0.2042
 2861SOL    HW217463   9.949   9.518   0.605  0.7921 -0.0665 -1.1805
 2863SOL     OW17464   0.670   5.220   3.470  0.3422  0.1073 -0.8220
 2863SOL    HW117465   0.768   5.233   3.451  0.2986 -1.2651 -2.0828
 2863SOL    HW217466   0.653   5.124   3.490 -0.8345  0.2574 -1.1010
 2864SOL     OW17467   3.532   7.975   2.922 -0.6143 -0.0975 -0.2887
 2864SOL    HW117468   3.520   7.949   2.826  1.5719  0.0750 -0.6377
 2864SOL    HW217469   3.563   7.895   2.974  1.1344  0.5020 -0.3526
 2865SOL     OW17470   8.573   6.840   2.107 -0.2661  0.4982 -0.0300
 2865SOL    HW117471   8.627   6.763   2.140 -1.9136 -1.0015 -0.7650
 2865SOL    HW217472   8.513   6.872   2.179 -0.4717  0.2802 -0.1038
 2866SOL     OW17473   8.329   1.277   3.743  0.1307 -0.5548  0.3745
 2866SOL    HW117474   8.278   1.343   3.798  1.4079 -0.1544  1.0844
 2866SOL    HW217475   8.317   1.186   3.781  0.5189 -0.3638  0.9472
 2867SOL     OW17476   7.824   2.372   1.127  0.1099  0.4220  0.1139
 2867SOL    HW117477   7.921   2.350   1.135  0.5994  2.3303 -0.1928
 2867SOL    HW217478   7.784   2.320   1.053  0.2250 -2.4892  2.0288
 2868SOL     OW17479   5.382   8.085   2.396 -0.1083 -0.1371  0.1897
 2868SOL    HW117480   5.294   8.074   2.350 -0.7927 -0.8760  1.6393
 2868SOL    HW217481   5.445   8.013   2.364 -0.8965 -1.2620  1.1335
 2869SOL     OW17482   1.152   4.566   0.598 -0.8729 -0.6229  0.5232
 2869SOL    HW117483   1.112   4.476   0.576 -0.7478 -0.7125  0.6632
 2869SOL    HW217484   1.129   4.631   0.526 -3.8550  0.1023  2.0299
 2871SOL     OW17485   0.861   3.624   0.923  0.4533  1.2300  0.1460
 2871SOL    HW117486   0.885   3.608   1.019 -1.9600 -0.1312  0.5793
 2871SOL    HW217487   0.883   3.718   0.898  2.0979  1.2826  1.7202
 2872SOL     OW17488   1.769   2.324   1.129  0.0934  0.3235 -0.2539
 2872SOL    HW117489   1.799   2.317   1.224  1.7918  0.2027 -0.7876
 2872SOL    HW217490   1.685   2.271   1.117 -0.3239  0.6202  1.2476
 2874SOL     OW17491   3.441   0.107   3.419  0.3578 -0.6085  0.2357
 2874SOL    HW117492   3.442   0.128   3.516 -1.3513 -0.5579  0.2550
 2874SOL    HW217493   3.349   0.118   3.383  1.0421 -0.2526 -1.4839
 2876SOL     OW17494   0.341   6.114   2.488 -0.3709  0.1846  0.6160
 2876SOL    HW117495   0.429   6.122   2.441 -0.9724  1.2717 -0.3556
 2876SOL    HW217496   0.271   6.164   2.436 -1.6507 -1.0295  1.1414
 2877SOL     OW17497   3.536   6.395   1.511 -0.0986 -0.3056 -0.2195
 2877SOL    HW117498   3.535   6.477   1.454 -0.3554 -0.2675 -0.1593
 2877SOL    HW217499   3.468   6.404   1.584 -0.5925 -0.8563 -0.6098
 2878SOL     OW17500   9.797   0.214   0.515 -0.3909  0.6327 -0.4974
 2878SOL    HW117501   9.742   0.183   0.592  1.1131 -0.0453  0.3288
 2878SOL    HW217502   9.860   0.142   0.487 -1.8483  0.3533 -3.2776
 2879SOL     OW17503   0.134   9.693   1.793  0.5000  0.0596  0.1112
 2879SOL    HW117504   0.110   9.647   1.708  0.6940 -1.7212  0.9856
 2879SOL    HW217505   0.052   9.703   1.850  0.7456 -0.7886  0.6389
 2880SOL     OW17506   1.910   3.444   1.991  0.2599  0.0005  0.2301
 2880SOL    HW117507   1.829   3.393   2.018  0.8445 -0.7060  0.6767
 2880SOL    HW217508   1.883   3.530   1.948 -0.7150 -0.1315  0.5704
 2883SOL     OW17509   0.663   8.927   1.953  0.4310  0.2663 -1.0538
 2883SOL    HW117510   0.684   8.841   1.998 -1.1001  1.1521  1.4610
 2883SOL    HW217511   0.718   9.001   1.993  0.4321  0.7625 -1.9435
 2884SOL     OW17512   0.684   6.998   0.138 -0.1422 -0.5077  0.5630
 2884SOL    HW117513   0.758   6.966   0.199 -0.2405 -0.3290  0.7760
 2884SOL    HW217514   0.718   7.001   0.044  0.1266 -0.4153  0.6618
 2886SOL     OW17515   5.576   9.974   2.741 -0.1112  0.4542 -0.6655
 2886SOL    HW117516   5.652   9.912   2.757  0.3862  1.4528  0.9339
 2886SOL    HW217517   5.536   9.955   2.651  1.4043 -0.7224 -1.1138
 2888SOL     OW17518   0.762   8.027   3.080  0.3135 -0.4507  0.1159
 2888SOL    HW117519   0.699   8.004   3.154  0.4051 -0.9144  0.0521
 2888SOL    HW217520   0.844   7.971   3.088  1.9276  2.0366  1.8134
 2889SOL     OW17521   6.275   9.067   1.608 -0.3598 -0.1381 -0.0563
 2889SOL    HW117522   6.214   9.126   1.660  0.1037  0.7104 -0.4633
 2889SOL    HW217523   6.334   9.016   1.671 -0.5924  0.0198  0.2876
 2890SOL     OW17524   0.169   4.305   1.519 -0.2826 -0.6934  0.4639
 2890SOL    HW117525   0.129   4.267   1.603  0.2451 -1.4718  0.3736
 2890SOL    HW217526   0.193   4.230   1.457 -1.6626 -0.0750 -0.8584
 2891SOL     OW17527   9.932   0.791   3.301 -0.0038  0.0061  0.8346
 2891SOL    HW117528   9.944   0.752   3.392  2.0251  2.4018  1.6358
 2891SOL    HW217529   9.909   0.717   3.237  0.8611 -2.0604  2.8081
 2892SOL     OW17530   3.564   3.257   0.629  0.0935  0.2196 -0.0682
 2892SOL    HW117531   3.522   3.283   0.542  0.3237  0.8496  0.0001
 2892SOL    HW217532   3.632   3.185   0.614 -0.6049 -0.3988 -0.2590
 2894SOL     OW17533   2.550   6.065   1.361 -0.3954 -0.0796  0.0767
 2894SOL    HW117534   2.493   6.145   1.381  0.4994  0.2644  1.3406
 2894SOL    HW217535   2.638   6.095   1.325 -0.0413 -0.4831  0.5919
 2895SOL     OW17536   8.065   4.999   2.684  0.3077  0.0789  0.0163
 2895SOL    HW117537   8.076   5.069   2.614  1.5525 -0.3899 -0.2732
 2895SOL    HW217538   8.149   4.994   2.739 -0.3326 -0.1564  0.9830
 2896SOL     OW17539   8.057   5.420   2.204  0.4841  0.4747 -0.0904
 2896SOL    HW117540   8.043   5.325   2.232 -1.3365  0.6569 -0.3181
 2896SOL    HW217541   8.062   5.478   2.286  1.6809  0.1931  0.0516
 2897SOL     OW17542   3.833   7.301   1.653  0.2194  0.5742 -0.2061
 2897SOL    HW117543   3.758   7.291   1.587 -0.0961  2.1507 -0.1139
 2897SOL    HW217544   3.796   7.291   1.745  0.1121  1.3837 -0.1594
 2898SOL     OW17545   8.719   7.962   0.709  0.1872 -0.0768  0.1431
 2898SOL    HW117546   8.785   7.906   0.758 -0.5185 -0.1135  1.0562
 2898SOL    HW217547   8.718   8.054   0.747  1.9753  0.8397 -1.9167
 2899SOL     OW17548   9.014   9.458   0.953 -0.4480 -0.1058 -0.0171
 2899SOL    HW117549   9.109   9.488   0.951 -0.2703 -0.7126 -0.8355
 2899SOL    HW217550   8.983   9.436   0.861 -1.5158  0.4715  0.1879
 2900SOL     OW17551   9.743   8.588   0.256  0.1312 -0.3177 -0.3464
 2900SOL    HW117552   9.778   8.609   0.347  1.9113 -2.1950 -0.5532
 2900SOL    HW217553   9.665   8.526   0.263  0.7471 -1.0752 -0.1092
 2902SOL     OW17554   7.566   2.112   2.561  0.5691 -0.0371  0.5094
 2902SOL    HW117555   7.526   2.029   2.521 -0.1620  0.4434  0.2413
 2902SOL    HW217556   7.493   2.177   2.582  1.2961  1.2602 -0.9318
 2903SOL     OW17557   9.704   5.173   3.168 -0.3582 -0.1413 -0.0703
 2903SOL    HW117558   9.657   5.086   3.153 -0.3393  0.2534 -2.5845
 2903SOL    HW217559   9.758   5.168   3.252 -3.1947 -1.3064  1.7496
 2904SOL     OW17560   8.432   2.727   2.058 -0.0824 -0.0790 -0.1482
 2904SOL    HW117561   8.399   2.775   1.977  1.1508 -1.1931 -1.3649
 2904SOL    HW217562   8.415   2.629   2.047  0.2320 -0.2494  0.8676
 2905SOL     OW17563   6.273   0.916   2.812 -0.1732 -0.7764  0.6572
 2905SOL    HW117564   6.250   1.009   2.839  0.3825  0.1157 -1.7709
 2905SOL    HW217565   6.200   0.854   2.842 -1.1378  0.6051  1.2499
 2906SOL     OW17566   3.581   6.152   3.313  0.0864 -0.0837 -0.1379
 2906SOL    HW117567   3.615   6.233   3.361  0.8795  0.3454 -1.4105
 2906SOL    HW217568   3.642   6.075   3.330  1.3896  0.5373 -1.9451
 2908SOL     OW17569   8.764   5.285   2.341 -0.3438 -0.3708  0.2027
 2908SOL    HW117570   8.805   5.256   2.255  0.3751 -0.5785  0.6070
 2908SOL    HW217571   8.703   5.213   2.375  0.2491 -0.7743  0.4299
 2909SOL     OW17572   4.491   9.788   0.817  0.9150 -0.1157  0.0747
 2909SOL    HW117573   4.427   9.865   0.830  0.8809 -0.3208  1.1557
 2909SOL    HW217574   4.525   9.789   0.723  1.3409  1.5515  0.2270
 2911SOL     OW17575   1.418   1.416   3.013 -0.6964  0.0279 -0.5306
 2911SOL    HW117576   1.325   1.423   3.049 -1.2252 -1.0990 -1.6307
 2911SOL    HW217577   1.425   1.471   2.929 -0.0517  1.0010  0.1550
 2912SOL     OW17578   1.450   2.506   2.072  0.3501 -0.1814 -0.3024
 2912SOL    HW117579   1.444   2.540   1.978 -1.1598 -0.3888 -0.3033
 2912SOL    HW217580   1.364   2.461   2.096  1.4959 -2.0201  0.4614
 2914SOL     OW17581   3.214   2.144   3.407 -0.3335  0.3722  0.3602
 2914SOL    HW117582   3.241   2.094   3.490  0.2448 -1.1545 -0.7127
 2914SOL    HW217583   3.158   2.222   3.432 -0.2437 -0.1185  2.1926
 2915SOL     OW17584   8.709   4.888   0.484 -0.4415  0.0096  0.5179
 2915SOL    HW117585   8.734   4.809   0.429  1.2895  1.0144 -0.1964
 2915SOL    HW217586   8.714   4.864   0.581  1.0432 -0.4999  0.3321
 2916SOL     OW17587   3.067   8.798   2.823  0.1386  0.1789  0.2655
 2916SOL    HW117588   3.134   8.860   2.863  0.0804  0.1109  0.4699
 2916SOL    HW217589   3.113   8.734   2.761  0.1829  0.4958 -0.0288
 2917SOL     OW17590   8.243   2.910   3.201  0.7556 -0.0700 -0.1695
 2917SOL    HW117591   8.227   2.872   3.292  0.8056  1.7381  0.6271
 2917SOL    HW217592   8.301   2.991   3.209  1.3515 -0.3126 -1.8920
 2918SOL     OW17593   2.288   8.016   2.009  0.4211  0.4320  0.3937
 2918SOL    HW117594   2.228   7.970   1.944  0.7066 -0.2563  0.6026
 2918SOL    HW217595   2.300   8.111   1.982 -1.0230  0.6584  0.5431
 2919SOL     OW17596   0.176   6.659   1.533 -0.0356 -0.2829 -0.2655
 2919SOL    HW117597   0.240   6.623   1.601 -0.4438 -0.2200  0.1459
 2919SOL    HW217598   0.149   6.585   1.471  0.8870 -0.1864 -0.8013
 2920SOL     OW17599   8.314   1.434   3.375 -0.7686 -0.4402 -0.1528
 2920SOL    HW117600   8.274   1.518   3.339  0.7002  0.4036  0.1398
 2920SOL    HW217601   8.313   1.363   3.304 -2.1318 -0.2286 -0.3569
 2921SOL     OW17602   0.210   8.078   2.013 -0.3014 -0.4617 -0.3638
 2921SOL    HW117603   0.269   8.001   1.990 -1.0272 -1.2797  0.4519
 2921SOL    HW217604   0.154   8.054   2.092  0.3609  1.3808  0.6706
 2925SOL     OW17605   3.833   9.317   0.887 -0.4917 -0.3987  0.8386
 2925SOL    HW117606   3.762   9.369   0.934 -1.0201 -2.5084  2.4401
 2925SOL    HW217607   3.790   9.257   0.820  0.1157  1.1386 -0.9753
 2926SOL     OW17608   9.967   5.243   3.052  0.0018  0.3992 -0.6168
 2926SOL    HW117609   9.873   5.215   3.068 -0.4994  1.9389 -0.8422
 2926SOL    HW217610  10.026   5.161   3.049 -1.0960 -0.4766  0.8956
 2928SOL     OW17611   1.856   1.824   2.366  0.3087 -0.1312  0.0113
 2928SOL    HW117612   1.828   1.913   2.401 -0.6932 -0.0668 -0.9134
 2928SOL    HW217613   1.857   1.826   2.266  0.7059 -1.0283 -0.0114
 2930SOL     OW17614   9.187   9.866   2.023 -0.1599  0.2623 -0.0502
 2930SOL    HW117615   9.106   9.901   2.070 -0.7702 -0.1228 -0.8018
 2930SOL    HW217616   9.180   9.885   1.925 -0.9532 -2.7737 -0.6246
 2931SOL     OW17617   7.484   1.329   0.982 -0.3769 -0.5856  0.1927
 2931SOL    HW117618   7.400   1.330   0.928 -1.4126  1.7623  1.7833
 2931SOL    HW217619   7.539   1.250   0.955 -2.4176 -1.3821 -1.8663
 2932SOL     OW17620   3.089   2.385   3.485 -0.8855  0.2885  0.1124
 2932SOL    HW117621   3.117   2.438   3.565 -0.9769  0.5692 -0.0445
 2932SOL    HW217622   3.062   2.446   3.411 -0.3447  0.0369 -0.3001
 2933SOL     OW17623   4.948   8.201   0.587  0.2706  0.2562 -0.3002
 2933SOL    HW117624   5.001   8.219   0.505  0.5358 -0.7459 -0.3477
 2933SOL    HW217625   4.971   8.111   0.623 -1.3648 -0.1743 -0.2964
 2934SOL     OW17626   8.211   7.582   1.330 -0.1389  0.4167  0.1061
 2934SOL    HW117627   8.303   7.615   1.351  0.3201  0.4651 -1.8965
 2934SOL    HW217628   8.159   7.653   1.283 -1.3856  0.5618  1.6661
 2935SOL     OW17629   0.353   8.016   1.295  0.6271 -0.1162 -0.3510
 2935SOL    HW117630   0.269   7.974   1.330  0.6528  1.3408  1.5174
 2935SOL    HW217631   0.405   7.947   1.244 -0.9631 -1.4356 -0.2513
 2936SOL     OW17632   8.381   0.658   0.625 -0.4304  0.3488  0.5261
 2936SOL    HW117633   8.342   0.646   0.717  0.2079 -0.6356  0.6780
 2936SOL    HW217634   8.317   0.622   0.557 -1.0220  1.3238  0.5654
 2937SOL     OW17635   1.846   6.512   1.744  0.8001 -0.0150 -0.2174
 2937SOL    HW117636   1.816   6.579   1.676  2.0997 -0.0301 -0.8168
 2937SOL    HW217637   1.851   6.557   1.834 -0.4011  0.1377 -0.2141
 2939SOL     OW17638   3.801   8.150   2.382 -0.8405 -0.1473 -0.1400
 2939SOL    HW117639   3.780   8.213   2.307  0.6938  1.3748  0.6739
 2939SOL    HW217640   3.878   8.091   2.356  0.6059  1.3239  0.7210
 2940SOL     OW17641   4.519   8.317   0.519 -0.3213  0.6044  0.1268
 2940SOL    HW117642   4.613   8.350   0.517 -0.4304  0.9231  0.2536
 2940SOL    HW217643   4.457   8.392   0.496 -0.5228  0.3090 -0.2978
 2941SOL     OW17644   2.497   4.989   0.043 -0.7117  0.4681  0.3376
 2941SOL    HW117645   2.469   4.903   0.000 -0.1620  0.4687 -0.0344
 2941SOL    HW217646   2.438   5.008   0.121 -0.0338 -0.8982  1.1997
 2942SOL     OW17647   8.307   1.042   0.138  0.4261  0.1666 -0.0479
 2942SOL    HW117648   8.379   1.032   0.207 -0.7814  0.5382  1.2798
 2942SOL    HW217649   8.318   1.129   0.091  0.9824  0.1148 -0.0193
 2943SOL     OW17650   5.089   7.633   3.095 -0.5656  0.2223 -0.3389
 2943SOL    HW117651   5.016   7.638   3.026 -0.7971  0.5245 -0.0751
 2943SOL    HW217652   5.048   7.627   3.186 -0.2559  0.4119 -0.1874
 2946SOL     OW17653   9.521   8.431   3.608 -0.2550 -0.6232  0.0410
 2946SOL    HW117654   9.437   8.390   3.646  0.3182 -0.9899  0.9324
 2946SOL    HW217655   9.499   8.478   3.523 -1.5571  0.1471  0.7792
 2947SOL     OW17656   8.292   7.898   3.301 -0.0974 -0.1478 -0.6762
 2947SOL    HW117657   8.355   7.973   3.279  0.8868 -0.8365 -0.2577
 2947SOL    HW217658   8.260   7.856   3.216  1.6698 -1.1386 -0.8881
 2948SOL     OW17659   6.084   8.420   3.441 -0.1106  0.6838 -0.3907
 2948SOL    HW117660   6.002   8.381   3.483  1.0711 -1.4011  0.0295
 2948SOL    HW217661   6.093   8.388   3.347 -0.1662  1.5104 -0.6840
 2949SOL     OW17662   1.645   0.011   0.351  0.2108 -0.6124  0.5780
 2949SOL    HW117663   1.741  -0.011   0.334 -0.0083  0.0004 -1.6243
 2949SOL    HW217664   1.607   0.058   0.271 -1.8803 -0.6892  1.4948
 2950SOL     OW17665   7.596   9.291   2.977  0.2631 -0.0283  0.1666
 2950SOL    HW117666   7.693   9.288   3.002  0.4490 -0.9435 -0.6385
 2950SOL    HW217667   7.565   9.198   2.955 -0.7408  0.2971  0.2141
 2951SOL     OW17668   4.215   0.055   2.092 -0.6562 -0.0629  0.0638
 2951SOL    HW117669   4.172  -0.019   2.041  1.2454 -0.4640 -0.9821
 2951SOL    HW217670   4.216   0.138   2.036  0.3963 -0.1965 -0.1211
 2952SOL     OW17671   4.922   9.990   3.044  0.4666 -1.0056 -0.3383
 2952SOL    HW117672   4.870   9.937   3.111  0.6135  0.4271  0.9284
 2952SOL    HW217673   5.013   9.949   3.033  1.0819 -0.2421  1.6666
 2953SOL     OW17674   8.243   2.808   1.297 -0.1684 -0.1387  0.1576
 2953SOL    HW117675   8.307   2.883   1.279  1.0673 -0.6486  2.2806
 2953SOL    HW217676   8.173   2.840   1.361  0.0773 -0.6503  0.6814
 2954SOL     OW17677   9.808   4.817   3.034 -0.2369  0.4341 -0.5699
 2954SOL    HW117678   9.736   4.868   2.988 -0.4789  0.3517 -0.2812
 2954SOL    HW217679   9.840   4.868   3.114 -1.5497 -0.5667  0.6139
 2955SOL     OW17680   1.159   0.394   3.628 -0.3151  0.1285 -0.0925
 2955SOL    HW117681   1.083   0.342   3.590  0.9236 -0.4371 -1.8858
 2955SOL    HW217682   1.180   0.471   3.568  0.7388  0.0914  0.2167
 2956SOL     OW17683   4.209   7.604   0.025  0.2714 -0.0632 -0.2894
 2956SOL    HW117684   4.223   7.693   0.068  1.6858 -0.2641 -0.3035
 2956SOL    HW217685   4.291   7.548   0.037 -0.2576 -1.0229 -1.0763
 2957SOL     OW17686   4.007   3.822   0.483  0.1158 -0.5957 -0.1283
 2957SOL    HW117687   3.959   3.887   0.541  0.4972 -0.6303  0.2247
 2957SOL    HW217688   4.035   3.743   0.537  0.1722 -0.7852 -0.4299
 2958SOL     OW17689   1.140   1.675   3.172 -0.0786  0.3208  0.3018
 2958SOL    HW117690   1.154   1.596   3.113  1.7849  1.0494 -0.2983
 2958SOL    HW217691   1.166   1.758   3.122 -2.3698  1.3544  0.7849
 2959SOL     OW17692   0.088   3.824   1.714  0.1313 -0.1554  0.6792
 2959SOL    HW117693   0.066   3.738   1.762 -0.6308 -0.0941  0.4504
 2959SOL    HW217694   0.031   3.831   1.632  1.3594 -0.2142 -0.1981
 2960SOL     OW17695   5.194   6.867   2.144  0.4472  0.1191  0.5750
 2960SOL    HW117696   5.273   6.808   2.126  1.4299  1.6118 -0.1204
 2960SOL    HW217697   5.170   6.916   2.060 -0.1936  0.9058  1.2177
 2961SOL     OW17698   5.022   9.041   2.631  0.2481 -0.4348 -0.4960
 2961SOL    HW117699   4.953   8.968   2.629 -0.4117  0.1246  1.1689
 2961SOL    HW217700   5.008   9.102   2.552 -1.1473 -0.3548 -0.2002
 2962SOL     OW17701   3.189   5.583   0.968 -0.1527 -0.0174 -0.6362
 2962SOL    HW117702   3.102   5.597   1.016  0.5995 -1.1300  1.1040
 2962SOL    HW217703   3.224   5.492   0.989  1.8772  0.7393 -0.5944
 2963SOL     OW17704   9.578   4.948   3.242 -0.0729 -0.0784 -0.2863
 2963SOL    HW117705   9.541   4.907   3.159 -2.1054  0.4636  0.3028
 2963SOL    HW217706   9.668   4.909   3.263 -0.1851 -1.2448 -1.9400
 2964SOL     OW17707   0.523   8.805   2.808  0.2212  0.1101  0.6440
 2964SOL    HW117708   0.573   8.842   2.730  1.5123 -0.2957  1.2708
 2964SOL    HW217709   0.435   8.852   2.817 -1.4623 -2.0840 -3.0718
 2965SOL     OW17710   1.996   1.659   3.179  0.0147 -0.6636  0.3955
 2965SOL    HW117711   2.017   1.714   3.260  0.9120 -0.9222  0.3402
 2965SOL    HW217712   2.075   1.657   3.118 -0.0149 -2.0047  0.3884
 2966SOL     OW17713   4.643   1.908   1.013 -0.7447 -0.1655 -0.3519
 2966SOL    HW117714   4.602   1.819   1.034 -2.6501  0.4947 -1.2316
 2966SOL    HW217715   4.575   1.980   1.023  0.7139  1.1880  0.0886
 2967SOL     OW17716   8.508   4.743   0.241  0.0149  0.7853 -0.0281
 2967SOL    HW117717   8.481   4.837   0.260 -1.4777  0.4464 -0.3816
 2967SOL    HW217718   8.607   4.737   0.237  0.0977  2.6356 -1.4866
 2968SOL     OW17719   3.905   6.840   1.636 -0.0461  0.0702  0.2931
 2968SOL    HW117720   3.905   6.879   1.544  0.1933 -1.5830 -0.4340
 2968SOL    HW217721   3.842   6.762   1.639  2.0279 -1.6511  0.7373
 2970SOL     OW17722   4.084   2.757   0.597 -0.1459  0.0310 -0.4254
 2970SOL    HW117723   4.077   2.765   0.498 -2.6239  1.5897 -0.1506
 2970SOL    HW217724   4.149   2.825   0.631  1.2554 -0.9841 -1.0238
 2971SOL     OW17725   0.797   8.779   2.398 -0.5320  0.4320  0.0950
 2971SOL    HW117726   0.762   8.702   2.346  0.2694  1.8031 -2.5639
 2971SOL    HW217727   0.890   8.760   2.430 -0.5560  0.0773 -0.0538
 2972SOL     OW17728   1.748   8.596   0.571  0.1088 -0.2010 -0.1207
 2972SOL    HW117729   1.763   8.642   0.483 -0.7434 -1.1115 -0.7637
 2972SOL    HW217730   1.803   8.513   0.575  0.5906  0.1454  0.4545
 2973SOL     OW17731   6.377   9.549   2.448 -0.1811  0.1804 -0.3090
 2973SOL    HW117732   6.293   9.546   2.393  0.6583 -3.0633 -1.5452
 2973SOL    HW217733   6.455   9.528   2.390  1.0329 -0.7925  1.6296
 2974SOL     OW17734   7.980   2.597   1.407  0.4449  0.0136 -0.0631
 2974SOL    HW117735   7.966   2.506   1.445 -0.8007 -0.2712 -1.1344
 2974SOL    HW217736   7.966   2.666   1.478 -0.4698 -0.5629  0.3268
 2975SOL     OW17737   7.490   6.123   2.192  0.0544  0.2315  0.0703
 2975SOL    HW117738   7.547   6.046   2.162  1.5832  1.8243 -1.2822
 2975SOL    HW217739   7.521   6.155   2.281  0.0742 -0.0934  0.1791
 2977SOL     OW17740   2.710   8.428   2.263 -0.4116 -0.0018  0.5883
 2977SOL    HW117741   2.646   8.401   2.334 -3.0521  0.8942 -1.3586
 2977SOL    HW217742   2.744   8.347   2.215 -0.2468 -0.4639  1.4798
 2978SOL     OW17743   7.539   8.200   3.081  0.1918  0.3717 -0.1772
 2978SOL    HW117744   7.605   8.259   3.127 -1.6555  2.2993  0.0586
 2978SOL    HW217745   7.447   8.222   3.112 -0.5785 -2.4691 -0.3097
 2979SOL     OW17746   4.394   4.785   1.717  0.1981 -0.1436 -0.2003
 2979SOL    HW117747   4.297   4.785   1.691 -0.5300  1.8123  2.2269
 2979SOL    HW217748   4.439   4.863   1.674  0.7498 -1.1369 -1.4443
 2980SOL     OW17749   3.037   1.133   0.298  0.2610  0.0116 -0.2396
 2980SOL    HW117750   3.108   1.131   0.228  0.2234 -1.7025 -0.2401
 2980SOL    HW217751   2.953   1.170   0.258  0.9291  1.3823 -0.4197
 2981SOL     OW17752   1.800   3.339   3.610  0.3963  0.4980 -0.2761
 2981SOL    HW117753   1.879   3.278   3.619 -0.1795 -0.4324 -1.4814
 2981SOL    HW217754   1.734   3.299   3.546 -0.9530  1.3699  0.5529
 2982SOL     OW17755   4.425   9.815   2.964 -0.4467  0.3824 -0.4190
 2982SOL    HW117756   4.506   9.756   2.968 -1.0372 -0.3908  0.4449
 2982SOL    HW217757   4.343   9.759   2.956 -1.2064  0.9035  2.7936
 2984SOL     OW17758   4.925   9.995   1.721 -0.1162 -0.0528  0.5560
 2984SOL    HW117759   4.925  10.095   1.730 -0.9694 -0.0532  0.6005
 2984SOL    HW217760   4.880   9.955   1.801 -2.2568 -0.3455 -0.7444
 2985SOL     OW17761   0.378   3.928   0.209  0.0361  0.0763 -0.5841
 2985SOL    HW117762   0.443   3.908   0.136  1.2406  0.1622  0.4595
 2985SOL    HW217763   0.343   4.021   0.198  1.0380  0.4766 -0.4343
 2987SOL     OW17764   8.699   9.055   0.132 -0.0409  0.5489 -0.1160
 2987SOL    HW117765   8.773   8.990   0.150  0.2318  0.7269 -0.5828
 2987SOL    HW217766   8.610   9.008   0.141  0.1416  0.2207 -0.0123
 2990SOL     OW17767   5.079   2.810   1.568 -0.0263 -0.3924 -0.2413
 2990SOL    HW117768   5.123   2.748   1.633  1.4168  0.4024 -0.4390
 2990SOL    HW217769   5.143   2.834   1.495 -1.5079 -0.9849 -1.7878
 2992SOL     OW17770   8.768   0.370   2.758  0.3622 -0.6366  0.0692
 2992SOL    HW117771   8.748   0.461   2.794 -1.6073 -0.9264 -0.2166
 2992SOL    HW217772   8.727   0.360   2.667  2.6810 -0.9668 -0.9796
 2993SOL     OW17773   9.021   9.776   0.169 -0.3246 -0.4878 -0.1527
 2993SOL    HW117774   8.954   9.784   0.243 -0.0812  1.7689 -0.1392
 2993SOL    HW217775   8.987   9.824   0.088  0.4176 -0.9832 -0.7600
 2994SOL     OW17776   9.066   6.385   1.187  0.3103  0.6122  0.3879
 2994SOL    HW117777   8.977   6.364   1.146 -0.0995  0.7089  1.2059
 2994SOL    HW217778   9.138   6.334   1.139 -0.4457 -1.2110  1.1386
 2995SOL     OW17779   9.024   8.023   2.869  0.3336 -0.0475 -0.2977
 2995SOL    HW117780   9.080   7.964   2.811 -0.0013  1.0832 -1.8341
 2995SOL    HW217781   8.968   8.083   2.810  0.2008  1.3352  1.2042
 2996SOL     OW17782   5.438   7.471   2.630  0.3499  0.1139 -0.1086
 2996SOL    HW117783   5.482   7.384   2.653  0.9135  0.9766  2.2047
 2996SOL    HW217784   5.495   7.522   2.566  0.2744 -0.9555 -1.0492
 2997SOL     OW17785   2.876   0.379   2.841  0.1609 -0.2870 -0.2245
 2997SOL    HW117786   2.907   0.472   2.860 -2.5619  0.1683  2.3206
 2997SOL    HW217787   2.864   0.330   2.927  1.3158 -2.9682 -1.5273
 2998SOL     OW17788   4.508   9.603   1.495  0.7973 -0.1861 -0.0298
 2998SOL    HW117789   4.464   9.635   1.411 -1.8680 -0.8220  1.0645
 2998SOL    HW217790   4.552   9.515   1.477  1.1510  0.1891 -1.0243
 2999SOL     OW17791   4.625   2.288   2.268 -0.8523 -0.3420 -0.4538
 2999SOL    HW117792   4.724   2.281   2.254 -0.8205  0.6158 -0.7500
 2999SOL    HW217793   4.578   2.273   2.181 -1.1073 -3.2969  0.1452
 3000SOL     OW17794   7.385   9.974   1.369  0.5574 -0.2906  0.4271
 3000SOL    HW117795   7.363   9.957   1.273 -0.3009 -0.5562  0.6624
 3000SOL    HW217796   7.388   9.887   1.418  0.8895 -0.1470  0.6635
 3001SOL     OW17797   9.835   7.321   0.894  0.3501  0.2224 -0.1639
 3001SOL    HW117798   9.906   7.360   0.835  0.2183  0.4074 -0.2025
 3001SOL    HW217799   9.745   7.339   0.853  0.2963 -0.2979 -0.2868
 3002SOL     OW17800   3.655   7.329   1.882 -0.1009 -0.1079 -0.5152
 3002SOL    HW117801   3.672   7.428   1.880  1.0711 -0.1072  3.9632
 3002SOL    HW217802   3.558   7.312   1.896  0.0217  0.5152  1.2185
 3003SOL     OW17803   1.845   8.916   1.117 -0.3360  0.3421 -0.4582
 3003SOL    HW117804   1.812   8.961   1.200  2.8032  1.8489  0.0568
 3003SOL    HW217805   1.860   8.819   1.135 -0.5192  0.4821  0.4563
 3004SOL     OW17806   0.580   9.582   0.231 -0.1617 -0.2501 -0.1444
 3004SOL    HW117807   0.670   9.567   0.188  1.9446  1.9095  3.3053
 3004SOL    HW217808   0.547   9.496   0.270  0.6119 -0.9706 -1.0426
 3005SOL     OW17809   1.482   2.094   1.874 -0.2184 -0.3871  0.2882
 3005SOL    HW117810   1.486   2.048   1.963  4.5564 -1.1294 -0.1507
 3005SOL    HW217811   1.437   2.183   1.885  1.3271  0.0781  3.7512
 3007SOL     OW17812   8.573   0.678   2.535 -0.3756 -0.2004 -0.3406
 3007SOL    HW117813   8.649   0.710   2.592  1.2491 -1.7008 -1.6137
 3007SOL    HW217814   8.513   0.619   2.589  1.3389 -1.8886 -0.2626
 3008SOL     OW17815   9.177   9.732   2.795 -0.0392  0.1599  0.6530
 3008SOL    HW117816   9.195   9.687   2.883 -0.0543 -0.3850  0.3807
 3008SOL    HW217817   9.080   9.720   2.772 -0.0669  0.4231  0.6307
 3009SOL     OW17818   5.214   1.190   3.050  0.1825  0.2625 -0.5023
 3009SOL    HW117819   5.139   1.164   3.110 -0.7754  2.3959 -0.7522
 3009SOL    HW217820   5.179   1.246   2.975  1.9253  0.6928 -1.0098
 3010SOL     OW17821   7.193   7.289   3.126  0.3430  0.2337  0.0779
 3010SOL    HW117822   7.117   7.229   3.101 -0.2179  1.5863 -1.6319
 3010SOL    HW217823   7.202   7.293   3.225 -0.1637 -1.9624  0.2334
 3011SOL     OW17824   3.371   9.331   0.193  0.2462 -0.0620 -0.2260
 3011SOL    HW117825   3.320   9.248   0.215  0.4193 -0.4328 -1.2232
 3011SOL    HW217826   3.330   9.375   0.113  0.4882  0.5264 -0.0287
 3012SOL     OW17827   1.092   7.751   2.956  0.3605 -0.8258 -0.0990
 3012SOL    HW117828   1.018   7.717   2.898  0.3585 -0.6388 -0.2081
 3012SOL    HW217829   1.165   7.788   2.898  0.3616 -0.6448  0.0183
 3013SOL     OW17830   5.339   7.460   3.347  0.2345  0.2405  0.0715
 3013SOL    HW117831   5.291   7.542   3.377  1.1090 -0.5484  3.8581
 3013SOL    HW217832   5.293   7.379   3.384  0.8214 -0.8495 -1.5358
 3015SOL     OW17833   5.073   2.077   2.390  0.2552 -0.3160 -0.3616
 3015SOL    HW117834   4.999   2.012   2.373 -0.2540  0.2106 -0.1809
 3015SOL    HW217835   5.077   2.144   2.316 -1.4697  1.5196  1.1597
 3016SOL     OW17836   1.259   0.504   0.690 -0.1776  0.0689 -0.4809
 3016SOL    HW117837   1.164   0.536   0.701  0.5047  1.5589  1.4310
 3016SOL    HW217838   1.321   0.581   0.703  1.4277 -1.5400  1.7535
 3017SOL     OW17839   7.379   8.670   1.937  0.2433  0.0543  0.6273
 3017SOL    HW117840   7.371   8.747   1.874  0.1959  0.3231  0.9595
 3017SOL    HW217841   7.310   8.678   2.009 -1.6039 -1.7772 -0.8849
 3018SOL     OW17842   5.872   8.927   3.247  0.3714  0.2627  0.2083
 3018SOL    HW117843   5.920   8.962   3.328  1.2178  0.4460 -0.3566
 3018SOL    HW217844   5.824   9.002   3.202 -0.1160  0.1559  0.5565
 3019SOL     OW17845   8.862   4.815   1.397 -0.1008 -0.1505 -0.0695
 3019SOL    HW117846   8.842   4.720   1.419  0.0764 -0.0610  0.4716
 3019SOL    HW217847   8.793   4.874   1.439  0.6097  0.0676  0.8087
 3020SOL     OW17848   6.791   9.429   2.732 -0.3131  0.1232 -0.1966
 3020SOL    HW117849   6.751   9.397   2.646  0.3980 -1.2746 -0.0149
 3020SOL    HW217850   6.862   9.365   2.762  0.7209  1.5694  0.4834
 3021SOL     OW17851   1.536   0.140   2.189  0.6496  0.2358  0.5937
 3021SOL    HW117852   1.490   0.211   2.136 -0.3199  0.2040  1.3963
 3021SOL    HW217853   1.557   0.062   2.129  0.3064  0.5453  0.0689
 3026SOL     OW17854   1.115   0.913   0.697 -0.0551 -0.3863 -0.3688
 3026SOL    HW117855   1.153   0.907   0.790  1.6551  1.3106 -0.9141
 3026SOL    HW217856   1.023   0.952   0.702 -0.1977 -0.8229  0.6538
 3027SOL     OW17857   0.222   3.083   2.062  0.3736  1.0838  0.1728
 3027SOL    HW117858   0.180   3.173   2.070  1.3323  1.5372  0.1110
 3027SOL    HW217859   0.176   3.030   1.991 -0.6049  1.2860  0.6462
 3028SOL     OW17860   8.617   6.245   0.033  0.5164  0.0379  0.0163
 3028SOL    HW117861   8.668   6.327   0.058 -0.0416  0.2484  0.4671
 3028SOL    HW217862   8.563   6.214   0.111 -0.2178 -0.0616 -0.5205
 3029SOL     OW17863   2.732   1.546   2.227  0.1204 -0.2193  0.2122
 3029SOL    HW117864   2.761   1.495   2.146  1.3726  2.3295 -0.9851
 3029SOL    HW217865   2.768   1.639   2.223 -1.2932  0.4929  2.8398
 3030SOL     OW17866   8.657   6.466   2.645 -0.2775  0.3106  0.3288
 3030SOL    HW117867   8.670   6.505   2.736 -1.9218  1.0789  0.2533
 3030SOL    HW217868   8.638   6.368   2.653  0.7238  0.1412  0.7226
 3031SOL     OW17869   3.247   6.862   0.789 -0.2935 -0.1777 -0.4821
 3031SOL    HW117870   3.263   6.797   0.864 -2.4055 -0.3890 -0.1881
 3031SOL    HW217871   3.243   6.955   0.826 -0.3965 -0.1916 -0.4577
 3032SOL     OW17872   2.068   0.416   2.391 -0.3025  0.1428 -0.3705
 3032SOL    HW117873   2.117   0.394   2.306  1.2192 -1.2142  0.8338
 3032SOL    HW217874   2.017   0.336   2.421 -4.0845  1.7790 -2.0723
 3033SOL     OW17875   0.815   9.583   0.054 -0.1678  0.5031  0.3748
 3033SOL    HW117876   0.777   9.621  -0.031 -1.3574  1.6437  1.3802
 3033SOL    HW217877   0.907   9.549   0.038  0.1526  2.0077 -1.0598
 3034SOL     OW17878   5.604   0.356   1.462 -0.0659 -0.5856 -0.6898
 3034SOL    HW117879   5.618   0.271   1.411  0.1351 -0.4975 -0.7810
 3034SOL    HW217880   5.516   0.352   1.511  0.0703 -0.9589 -0.4742
 3035SOL     OW17881   8.188   3.080   2.175  0.5825  0.7904  0.3696
 3035SOL    HW117882   8.144   3.121   2.255  0.8747  1.2348  0.3029
 3035SOL    HW217883   8.251   3.145   2.134 -0.9413  1.2275 -1.3370
 3036SOL     OW17884   4.775   7.492   1.730  0.0059 -0.2653  0.3515
 3036SOL    HW117885   4.829   7.549   1.668  1.9010 -1.0140  1.2867
 3036SOL    HW217886   4.792   7.520   1.824 -1.8059 -0.0482  0.6426
 3037SOL     OW17887   9.532   9.903   2.804  0.1909 -0.1608  0.3579
 3037SOL    HW117888   9.438   9.938   2.806  0.4791  0.6592 -0.2076
 3037SOL    HW217889   9.558   9.882   2.710  0.7012 -0.0404  0.4721
 3038SOL     OW17890   2.173   0.858   2.258 -0.1785  0.1333 -0.3927
 3038SOL    HW117891   2.170   0.795   2.335 -0.5546  0.2053 -0.3457
 3038SOL    HW217892   2.214   0.813   2.179  1.3822  0.4656  0.2153
 3039SOL     OW17893   3.627   3.375   0.985  0.5588  0.2172  0.0834
 3039SOL    HW117894   3.703   3.416   1.035  2.1235 -1.8826 -0.4669
 3039SOL    HW217895   3.628   3.407   0.890  0.2648  0.8257  0.2886
 3040SOL     OW17896   2.821   3.912   0.534  0.0840 -0.7074  0.1912
 3040SOL    HW117897   2.817   4.002   0.578 -0.1019  0.3317 -1.8776
 3040SOL    HW217898   2.848   3.843   0.601 -0.3849  0.7875  1.9547
 3041SOL     OW17899   0.174   7.065   2.303 -0.2244  0.1461 -0.2780
 3041SOL    HW117900   0.254   7.023   2.259  1.4047  0.4797  2.2336
 3041SOL    HW217901   0.155   7.017   2.389 -1.3798  1.4659  0.2078
 3042SOL     OW17902   5.215   7.218   3.156  0.1155 -0.1590 -0.0803
 3042SOL    HW117903   5.304   7.211   3.111  0.4000 -0.0758  0.4645
 3042SOL    HW217904   5.226   7.258   3.246 -0.3362 -1.1574  0.4260
 3043SOL     OW17905   6.952   8.798   1.952 -0.3505 -0.8997  0.1686
 3043SOL    HW117906   6.947   8.699   1.942 -0.6920 -0.7642 -1.0639
 3043SOL    HW217907   6.882   8.828   2.017  0.5162 -1.5795  1.4279
 3044SOL     OW17908   5.283   9.606   3.699  0.3772  0.2914 -0.8827
 3044SOL    HW117909   5.243   9.605   3.790 -0.2980 -2.3362 -1.1793
 3044SOL    HW217910   5.281   9.700   3.663 -1.5795  0.9440  0.8219
 3045SOL     OW17911   5.457   6.923   1.927 -0.0944 -0.1997  0.4866
 3045SOL    HW117912   5.440   6.863   2.005 -2.7098  0.1020  0.1961
 3045SOL    HW217913   5.448   6.871   1.842 -1.4639  0.3984  0.2642
 3046SOL     OW17914   4.492   7.732   3.173  0.3193 -0.2160  0.2077
 3046SOL    HW117915   4.551   7.760   3.097  0.4912  1.2536  0.8655
 3046SOL    HW217916   4.420   7.672   3.139  1.0471 -0.4492 -0.9349
 3047SOL     OW17917   3.995   1.984   0.692  0.7303 -0.7392 -0.8175
 3047SOL    HW117918   3.975   1.893   0.728  2.0849 -0.8801 -0.4089
 3047SOL    HW217919   3.911   2.023   0.653 -0.6914 -0.7086  2.1483
 3049SOL     OW17920   1.129   8.998   3.512 -0.1304  0.5723 -0.1999
 3049SOL    HW117921   1.227   9.020   3.508 -0.4795  1.8098 -2.4264
 3049SOL    HW217922   1.113   8.913   3.462 -0.0872 -0.0987  0.9043
 3050SOL     OW17923   5.172   0.183   2.741  0.1850  0.1715  0.3792
 3050SOL    HW117924   5.118   0.128   2.678 -2.7043  2.0009  1.1562
 3050SOL    HW217925   5.128   0.272   2.755  2.8010  1.3078  1.9731
 3052SOL     OW17926   0.913   5.490   3.248  0.6907 -0.3345 -0.0511
 3052SOL    HW117927   0.884   5.417   3.186  1.8404  1.6896 -3.0738
 3052SOL    HW217928   0.850   5.567   3.240  1.1989  0.1845  0.8500
 3053SOL     OW17929   2.316   6.973   3.642 -0.0047  0.7372  0.3115
 3053SOL    HW117930   2.247   7.041   3.617 -1.5390 -0.9458 -0.2078
 3053SOL    HW217931   2.329   6.909   3.566  0.4917 -0.2745  1.2265
 3054SOL     OW17932   7.875   8.526   1.414  0.2160  0.6327 -0.5149
 3054SOL    HW117933   7.788   8.490   1.448 -0.0985  0.4032 -1.5406
 3054SOL    HW217934   7.941   8.531   1.489 -0.2414 -0.5715 -0.0206
 3055SOL     OW17935   6.527   0.149   2.907  0.3867 -0.3812 -0.6213
 3055SOL    HW117936   6.453   0.118   2.967  0.9718 -1.0778 -0.2425
 3055SOL    HW217937   6.615   0.115   2.942  0.5536 -2.6555 -3.0392
 3056SOL     OW17938   9.794   2.157   1.902  0.2542  0.5122  0.2046
 3056SOL    HW117939   9.733   2.108   1.965  0.4293  0.7587  0.5675
 3056SOL    HW217940   9.763   2.251   1.891  0.5651  0.6395  0.3898
 3058SOL     OW17941   3.701   3.782   0.690  0.5807  0.7458 -0.0600
 3058SOL    HW117942   3.678   3.686   0.702 -0.2019  0.9396  0.0082
 3058SOL    HW217943   3.795   3.798   0.721  1.0816 -0.2024 -1.0477
 3059SOL     OW17944   1.101   4.725   2.986  0.1652 -0.1547 -0.1851
 3059SOL    HW117945   1.087   4.653   3.054  0.8848  1.2505  1.4940
 3059SOL    HW217946   1.013   4.767   2.964 -0.0941 -0.7139 -0.2276
 3061SOL     OW17947   0.346   2.914   2.259 -0.1909 -0.0980 -0.5712
 3061SOL    HW117948   0.277   2.967   2.209 -0.4576  0.7586  0.6926
 3061SOL    HW217949   0.336   2.930   2.357  0.3334 -1.7681 -0.2294
 3062SOL     OW17950   3.668   0.156   2.451  0.1106 -0.1347 -0.2194
 3062SOL    HW117951   3.767   0.170   2.463  0.4128 -2.8793  0.8602
 3062SOL    HW217952   3.620   0.184   2.534  0.1931 -0.7818  0.0450
 3063SOL     OW17953   1.703   6.292   3.711  0.4397  0.1198  0.3524
 3063SOL    HW117954   1.763   6.359   3.754 -0.5873 -0.1648  2.3124
 3063SOL    HW217955   1.686   6.317   3.616  1.9010  1.3724  0.4230
 3064SOL     OW17956   9.884   7.953   0.052  0.0713 -0.2957 -0.5749
 3064SOL    HW117957   9.880   8.036  -0.004  0.6249 -0.5476 -0.9889
 3064SOL    HW217958   9.968   7.952   0.104  0.1465 -0.6820 -0.7027
 3065SOL     OW17959   3.799   8.178   1.583  0.6632  0.5593 -0.3532
 3065SOL    HW117960   3.837   8.261   1.623 -0.5304  0.5868  0.7655
 3065SOL    HW217961   3.803   8.104   1.650 -1.9311  0.7641  0.0773
 3066SOL     OW17962   7.936   6.664   1.194  0.3858  0.1855 -0.5662
 3066SOL    HW117963   7.969   6.576   1.160 -0.2253 -0.2534 -0.0432
 3066SOL    HW217964   7.884   6.649   1.279 -1.0280  0.8687 -1.2948
 3067SOL     OW17965   4.293   7.219   2.640  0.1748 -0.2313 -0.5288
 3067SOL    HW117966   4.344   7.216   2.725 -0.5502 -1.6820 -0.1233
 3067SOL    HW217967   4.222   7.290   2.646  1.5258  1.1595 -0.7582
 3068SOL     OW17968   9.964   2.964   0.406  0.0652 -0.5827 -0.4546
 3068SOL    HW117969   9.987   2.988   0.312 -1.4003  1.8257 -0.2338
 3068SOL    HW217970  10.004   3.031   0.468 -0.3485 -1.2295  0.5322
 3071SOL     OW17971   9.333   2.450   3.404  0.0980  0.3116 -0.3160
 3071SOL    HW117972   9.336   2.479   3.309 -1.1461  1.1334 -0.1160
 3071SOL    HW217973   9.241   2.466   3.441  0.8142  0.8570  1.2805
 3072SOL     OW17974   3.936   9.688   3.476  0.1476 -0.0067 -0.0127
 3072SOL    HW117975   3.972   9.768   3.429  1.6414 -1.8265 -2.0832
 3072SOL    HW217976   4.001   9.659   3.546 -1.3408  1.7633  2.1448
 3073SOL     OW17977   0.984   1.381   0.623  0.3718  0.3096 -0.1755
 3073SOL    HW117978   1.072   1.337   0.603 -0.3714 -1.3540  0.1333
 3073SOL    HW217979   0.967   1.380   0.722  0.0557  0.7491 -0.2197
 3074SOL     OW17980   1.554   4.378   2.657  0.0704  0.0278 -0.3073
 3074SOL    HW117981   1.465   4.422   2.667  1.2885  2.0965  1.6409
 3074SOL    HW217982   1.594   4.404   2.568 -1.3080 -1.0547 -1.2680
 3075SOL     OW17983   8.555   2.358   0.179 -0.1341  0.3349  0.2577
 3075SOL    HW117984   8.589   2.340   0.087  1.4537  0.5516  0.7777
 3075SOL    HW217985   8.552   2.457   0.194 -0.4951  0.3019  0.4029
 3076SOL     OW17986   8.626   2.009   2.539 -0.9354  0.0762  0.1085
 3076SOL    HW117987   8.568   2.078   2.497  0.0818  0.8745  0.0048
 3076SOL    HW217988   8.641   1.934   2.475 -2.0436 -0.2556  0.2254
 3077SOL     OW17989   8.472   1.203   0.797 -0.4717 -0.3467 -0.2247
 3077SOL    HW117990   8.387   1.226   0.845 -0.5398  1.3534 -1.1198
 3077SOL    HW217991   8.458   1.214   0.698  1.1503  1.2033 -0.2977
 3078SOL     OW17992   1.671   9.885   0.796 -0.1759 -0.5118 -0.1059
 3078SOL    HW117993   1.667   9.791   0.763  1.8980 -0.3341 -0.8840
 3078SOL    HW217994   1.603   9.940   0.748 -0.6681 -1.3650 -0.3979
 3080SOL     OW17995   2.313   3.560   0.830 -0.2584 -0.5216 -0.6824
 3080SOL    HW117996   2.332   3.543   0.927 -1.4975  1.3903 -0.0904
 3080SOL    HW217997   2.347   3.650   0.805  0.3097 -1.1320 -2.1056
 3082SOL     OW17998   7.039   7.546   2.857 -0.8755  0.4587  0.1000
 3082SOL    HW117999   7.074   7.453   2.857 -2.1920 -0.0580 -1.2688
 3082SOL    HW218000   6.952   7.549   2.808 -0.7264  2.4555 -0.0834
 3083SOL     OW18001   4.513   0.848   1.952  0.1806  0.3887 -0.6714
 3083SOL    HW118002   4.467   0.932   1.923 -3.9125 -1.7519 -0.8715
 3083SOL    HW218003   4.558   0.805   1.874  0.5429  1.3315 -0.9909
 3084SOL     OW18004   9.722   6.627   1.975 -0.0007 -0.0404  0.1902
 3084SOL    HW118005   9.810   6.663   1.943 -0.0116 -0.5792 -0.4538
 3084SOL    HW218006   9.659   6.703   1.988  0.4130  0.3096  0.1861
 3086SOL     OW18007   1.371   3.169   1.973 -0.0528 -0.3149 -0.5811
 3086SOL    HW118008   1.288   3.165   1.919  0.4825 -1.9180 -1.3196
 3086SOL    HW218009   1.384   3.083   2.022  1.3704 -0.2346 -0.7816
 3087SOL     OW18010   3.197   0.013   3.741 -0.4285  0.3684  0.1112
 3087SOL    HW118011   3.204   0.007   3.840  1.1533  3.5808  0.2328
 3087SOL    HW218012   3.263   0.079   3.706  0.4927 -2.2174 -3.3212
 3088SOL     OW18013   9.259   7.957   1.712 -0.1355 -0.5153 -0.7306
 3088SOL    HW118014   9.267   7.952   1.812  1.3018  0.1220 -0.7908
 3088SOL    HW218015   9.321   8.028   1.678 -3.3409  1.9067 -1.7728
 3089SOL     OW18016   2.351   0.010   1.341  0.0560  0.1710 -0.2100
 3089SOL    HW118017   2.411  -0.066   1.367 -0.6781 -0.7528 -1.1668
 3089SOL    HW218018   2.349   0.077   1.415  1.7557 -0.0911  0.1008
 3090SOL     OW18019   0.322   5.536   2.244  0.4037  0.2731  0.2079
 3090SOL    HW118020   0.230   5.502   2.267  0.6554  0.2173  1.1355
 3090SOL    HW218021   0.326   5.555   2.146  0.1108 -1.9658 -0.2826
 3091SOL     OW18022   2.980   6.198   3.386  0.0039  0.0503  0.3168
 3091SOL    HW118023   3.013   6.199   3.291  1.1173  1.6837  0.7093
 3091SOL    HW218024   2.923   6.279   3.402 -1.7375 -1.1849  0.5235
 3092SOL     OW18025   0.670   1.704   0.306  0.0708 -0.2685 -0.5085
 3092SOL    HW118026   0.737   1.709   0.379  1.8850 -0.4796 -2.1082
 3092SOL    HW218027   0.603   1.778   0.316  1.1785  0.6042  0.4949
 3093SOL     OW18028   1.411   0.270   3.586  0.6680  0.2865 -0.1430
 3093SOL    HW118029   1.406   0.182   3.540  1.7493  0.7613 -1.1894
 3093SOL    HW218030   1.320   0.294   3.621 -0.2787  0.1112 -2.3787
 3096SOL     OW18031   1.115   3.408   0.281  0.2978  0.2480  0.2115
 3096SOL    HW118032   1.055   3.472   0.233 -0.2463 -0.6975 -0.3866
 3096SOL    HW218033   1.071   3.379   0.366  0.9989  1.4561  1.0056
 3097SOL     OW18034   7.691   8.053   1.802 -0.4395 -1.2022  0.3500
 3097SOL    HW118035   7.731   7.968   1.835  3.7623  0.4189 -0.2751
 3097SOL    HW218036   7.689   8.119   1.878 -2.2203 -1.3164  0.4241
 3098SOL     OW18037   8.753   0.029   0.623  0.2419 -0.1486  0.0356
 3098SOL    HW118038   8.813   0.040   0.544  0.5630  0.1394  0.3144
 3098SOL    HW218039   8.792   0.077   0.701 -0.1844 -0.2430  0.3106
 3099SOL     OW18040   8.076   1.448   1.236 -0.6301  0.0712  0.3014
 3099SOL    HW118041   8.072   1.358   1.280  1.0588  0.0243  0.4010
 3099SOL    HW218042   8.035   1.443   1.146 -3.6779  0.0439  1.6277
 3100SOL     OW18043   0.559   9.225   2.394  0.0301 -0.2323  0.4332
 3100SOL    HW118044   0.599   9.137   2.367  0.7264  0.0310  0.5797
 3100SOL    HW218045   0.527   9.220   2.489 -1.4360 -0.8307 -0.0822
 3101SOL     OW18046   2.536   9.613   0.707  0.3887  0.2397 -0.7353
 3101SOL    HW118047   2.587   9.687   0.662  1.7219  0.4995  1.1329
 3101SOL    HW218048   2.600   9.548   0.746 -0.7347  0.0306  0.7890
 3102SOL     OW18049   7.986   1.101   2.952  0.3995 -0.1263 -0.3799
 3102SOL    HW118050   8.010   1.195   2.974  0.6224 -0.3288  0.2358
 3102SOL    HW218051   7.927   1.100   2.871 -0.3836  0.6078  0.1744
 3103SOL     OW18052   5.320   1.902   1.656 -0.4863  0.6969  0.1038
 3103SOL    HW118053   5.256   1.937   1.588  0.6807 -0.2987 -1.5241
 3103SOL    HW218054   5.282   1.819   1.697 -0.3978  0.3116 -0.5934
 3104SOL     OW18055   8.236   0.692   2.909  0.1790  0.1578 -0.0570
 3104SOL    HW118056   8.137   0.677   2.917  0.3098 -0.3465  0.7259
 3104SOL    HW218057   8.262   0.770   2.967 -0.0254  1.4668 -1.6837
 3105SOL     OW18058   3.283   6.840   3.223  0.1035 -0.4537  0.0243
 3105SOL    HW118059   3.242   6.759   3.181  0.2305 -0.7467  0.4480
 3105SOL    HW218060   3.378   6.818   3.249  0.0925 -0.2125  0.2645
 3106SOL     OW18061   5.003   2.366   0.809  0.6389  0.4137  0.0114
 3106SOL    HW118062   5.091   2.317   0.801  1.3904  1.6212  0.7078
 3106SOL    HW218063   4.996   2.435   0.737  0.3904  0.5222  0.1392
 3107SOL     OW18064   6.353   9.846   2.389 -0.4255 -0.0670 -0.4217
 3107SOL    HW118065   6.348   9.906   2.469  0.1252 -0.1383 -0.3344
 3107SOL    HW218066   6.360   9.751   2.419 -2.5817 -0.2961 -0.5577
 3108SOL     OW18067   1.922   3.534   0.940  0.1811  0.1289 -0.4719
 3108SOL    HW118068   1.959   3.625   0.924  0.4528  0.2056  0.5874
 3108SOL    HW218069   1.929   3.480   0.856  0.6115  0.8703 -0.9131
 3109SOL     OW18070   2.835   5.153   0.333 -0.4656  0.4789  0.0190
 3109SOL    HW118071   2.776   5.141   0.413 -1.6700  0.1166 -0.9270
 3109SOL    HW218072   2.811   5.086   0.263  1.0339  0.3580 -0.3939
 3110SOL     OW18073   3.849   8.632   3.325 -0.0964 -0.3039  0.3388
 3110SOL    HW118074   3.828   8.638   3.227 -0.6275  1.7729  0.5585
 3110SOL    HW218075   3.946   8.651   3.339 -0.2090  0.2985  0.3028
 3112SOL     OW18076   9.864   3.525   2.943 -0.6748  0.4616 -0.5062
 3112SOL    HW118077   9.891   3.472   2.862 -0.2055 -1.9531  1.1716
 3112SOL    HW218078   9.940   3.528   3.008 -1.3765  1.5576  0.2802
 3113SOL     OW18079   3.129   6.951   1.811 -0.1029  0.2513  0.3379
 3113SOL    HW118080   3.175   7.039   1.806 -0.5484  0.4546 -0.3323
 3113SOL    HW218081   3.121   6.913   1.719  0.0577 -0.4745  0.6196
 3116SOL     OW18082   3.027   7.496   0.970 -0.0684 -0.3240 -0.1565
 3116SOL    HW118083   3.027   7.509   1.070 -0.4233 -2.4394  0.1340
 3116SOL    HW218084   3.086   7.565   0.928 -0.6187  1.1583  1.4352
 3118SOL     OW18085   9.966   6.258   0.156 -0.0298 -0.1741  0.3296
 3118SOL    HW118086   9.911   6.340   0.173  0.7090 -0.3412  3.8052
 3118SOL    HW218087   9.907   6.182   0.132 -0.8719  0.8639 -0.9938
 3119SOL     OW18088   5.438   0.290   3.593 -0.4966  0.5132  0.2625
 3119SOL    HW118089   5.346   0.329   3.581 -0.0004  1.6327  0.1000
 3119SOL    HW218090   5.495   0.355   3.643  0.3791  0.0410 -0.1300
 3120SOL     OW18091   0.060   0.445   3.575 -0.0063  0.5462 -0.1906
 3120SOL    HW118092   0.111   0.369   3.617 -1.6111  0.2042  1.2235
 3120SOL    HW218093   0.045   0.425   3.478 -1.0806 -1.3459  0.3325
 3121SOL     OW18094   4.340   8.369   1.107 -0.6275  0.7744 -0.5979
 3121SOL    HW118095   4.413   8.322   1.058 -0.9600 -1.6301  1.1062
 3121SOL    HW218096   4.370   8.460   1.134  1.1087  0.4603 -1.4223
 3122SOL     OW18097   0.651   1.837   1.172  0.6959  0.5574  0.3345
 3122SOL    HW118098   0.577   1.789   1.125  0.7981  0.1141  0.6149
 3122SOL    HW218099   0.653   1.932   1.144 -3.2869  1.9190  4.1836
 3123SOL     OW18100   9.324   1.501   3.687 -0.5777 -0.3728  0.5111
 3123SOL    HW118101   9.369   1.436   3.627 -1.7418 -0.1736 -0.6043
 3123SOL    HW218102   9.233   1.522   3.651 -0.4292  1.4415  1.1582
 3125SOL     OW18103   8.238   6.120   3.416  0.5426  0.2057  0.0538
 3125SOL    HW118104   8.141   6.129   3.394  0.3034 -0.4103  0.8011
 3125SOL    HW218105   8.283   6.208   3.407 -0.2870  0.6967  0.6284
 3126SOL     OW18106   8.734   5.150   0.440 -0.5734  0.3091  0.1442
 3126SOL    HW118107   8.657   5.194   0.487  0.0255  1.3182  0.1768
 3126SOL    HW218108   8.729   5.051   0.454 -2.2168  0.2983 -0.3565
 3127SOL     OW18109   1.398   3.117   1.509 -0.1055  0.4521 -0.3963
 3127SOL    HW118110   1.388   3.216   1.501 -0.1299  0.4094 -0.8706
 3127SOL    HW218111   1.465   3.096   1.581 -2.3642  0.7542  1.8691
 3128SOL     OW18112   9.401   0.925   3.484  0.1064  0.3078  0.0431
 3128SOL    HW118113   9.409   0.898   3.389 -1.2746 -0.8056  0.2470
 3128SOL    HW218114   9.488   0.966   3.514  0.7800  0.0017 -1.4638
 3129SOL     OW18115   0.167   8.745   2.495  0.0376  0.4356  0.0138
 3129SOL    HW118116   0.103   8.797   2.438 -1.1483  0.4125  1.3124
 3129SOL    HW218117   0.260   8.779   2.479 -0.4417  1.3585 -0.9024
 3131SOL     OW18118   7.449   7.271   1.937  0.4284  0.2060  0.4295
 3131SOL    HW118119   7.414   7.221   1.857  0.8150 -0.5395  0.7195
 3131SOL    HW218120   7.461   7.207   2.013 -0.3242  0.9789  1.2155
 3132SOL     OW18121   0.223   6.849   3.393  0.2465 -0.1874  0.0476
 3132SOL    HW118122   0.250   6.942   3.367 -0.6516  0.1853  0.4104
 3132SOL    HW218123   0.191   6.800   3.312 -1.9644  0.7695  0.3102
 3133SOL     OW18124   4.286   0.238   2.979 -0.0393  0.4208  0.0497
 3133SOL    HW118125   4.297   0.175   3.056  2.1511 -1.2946 -1.6067
 3133SOL    HW218126   4.347   0.316   2.991 -0.8775  0.9724  0.8222
 3135SOL     OW18127   8.176   2.273   3.227  0.2000  0.0744 -0.0720
 3135SOL    HW118128   8.210   2.361   3.193 -0.6313 -0.1958 -1.6711
 3135SOL    HW218129   8.081   2.284   3.258  0.2130 -0.1739  0.0561
 3137SOL     OW18130   9.509   9.205   1.495 -0.4945  0.1688 -0.2398
 3137SOL    HW118131   9.564   9.268   1.440 -1.1738  0.1958 -0.9056
 3137SOL    HW218132   9.416   9.243   1.505 -0.4025  0.1232  0.8557
 3138SOL     OW18133   6.822   0.068   2.646  0.1385 -0.0563  0.1383
 3138SOL    HW118134   6.837   0.055   2.744  0.3787 -0.9878 -0.0190
 3138SOL    HW218135   6.766   0.150   2.632  0.7090  0.4968  1.0094
 3139SOL     OW18136   8.803   5.251   0.745  0.6614  0.2672  0.0203
 3139SOL    HW118137   8.712   5.292   0.749  0.4663 -0.0649 -0.9100
 3139SOL    HW218138   8.834   5.230   0.838  0.0667  0.9767  0.3847
 3140SOL     OW18139   1.720   6.780   0.861 -0.0971  0.2906  0.2094
 3140SOL    HW118140   1.642   6.836   0.888 -1.1202 -0.9540 -0.0730
 3140SOL    HW218141   1.690   6.710   0.796  1.1876 -0.4401  0.3719
 3143SOL     OW18142   0.428   7.670   3.764 -0.0062  0.1995  0.1032
 3143SOL    HW118143   0.438   7.666   3.863  1.3662  0.1634 -0.0280
 3143SOL    HW218144   0.477   7.593   3.722 -3.0193 -1.5210 -0.4596
 3144SOL     OW18145   3.730   5.907   1.935  0.2690 -0.4443  0.4070
 3144SOL    HW118146   3.678   5.951   2.008 -0.5268 -0.8893  0.1138
 3144SOL    HW218147   3.682   5.825   1.904 -1.3166  1.6996 -3.1447
 3145SOL     OW18148   9.622   5.185   2.727 -0.7398  0.5905  0.0240
 3145SOL    HW118149   9.540   5.238   2.750 -1.6898 -0.3036 -1.2552
 3145SOL    HW218150   9.703   5.244   2.738 -1.4062  1.1160  2.5026
 3146SOL     OW18151   0.872   0.955   2.182 -0.0284  0.5257 -0.1341
 3146SOL    HW118152   0.963   0.914   2.189 -0.3739 -0.3768 -0.8293
 3146SOL    HW218153   0.880   1.053   2.166  0.8193  0.5707  0.5749
 3147SOL     OW18154   4.798   0.123   2.718  0.1037  0.6797  0.0074
 3147SOL    HW118155   4.799   0.029   2.753  2.1511  2.0655  3.9897
 3147SOL    HW218156   4.852   0.127   2.634 -0.0194 -1.7083 -0.2266
 3148SOL     OW18157   5.054   5.618   1.783  0.8104  0.5785 -0.4868
 3148SOL    HW118158   5.105   5.540   1.818 -0.3225  0.8037  1.7794
 3148SOL    HW218159   4.993   5.588   1.710 -0.0913 -0.8275  0.8053
 3149SOL     OW18160   0.683   2.630   0.993  0.6000 -0.1427 -0.1925
 3149SOL    HW118161   0.594   2.594   1.020  0.5810  0.6877  0.8936
 3149SOL    HW218162   0.682   2.655   0.896 -0.6321  0.7314  0.0442
 3150SOL     OW18163   8.995   1.864   2.133 -0.1295  0.2370  0.9423
 3150SOL    HW118164   9.022   1.785   2.189 -0.9022 -1.3109 -0.8035
 3150SOL    HW218165   8.907   1.845   2.089  1.3202  0.5548 -2.3059
 3151SOL     OW18166   4.131   9.558   3.612  0.3817 -0.1499  0.0015
 3151SOL    HW118167   4.114   9.473   3.563 -0.8862 -0.0389  0.2324
 3151SOL    HW218168   4.091   9.553   3.703 -0.6637  1.0879 -0.3652
 3154SOL     OW18169   0.209   7.112   0.278 -0.5413  0.1138 -0.2152
 3154SOL    HW118170   0.155   7.100   0.195  0.6987  1.0652 -1.1923
 3154SOL    HW218171   0.303   7.136   0.253  0.1456 -0.7547  1.4539
 3156SOL     OW18172   1.339   4.967   0.565  0.4566  0.0136 -0.6232
 3156SOL    HW118173   1.390   5.051   0.550  0.7529 -0.4588 -2.3750
 3156SOL    HW218174   1.401   4.889   0.558  0.1087 -0.3934  0.5920
 3157SOL     OW18175   1.118   4.061   2.890  0.2241 -0.7151  0.1157
 3157SOL    HW118176   1.186   4.108   2.834 -0.1351  0.2563  0.4745
 3157SOL    HW218177   1.037   4.041   2.834  0.2240 -0.5465  0.0540
 3158SOL     OW18178   2.622   6.920   1.579 -0.4926  0.8081 -0.1860
 3158SOL    HW118179   2.525   6.897   1.591 -0.1474 -0.2656  0.5668
 3158SOL    HW218180   2.675   6.836   1.570  0.2627  1.4167 -1.5178
 3159SOL     OW18181   0.034   6.233   2.749 -0.5435  0.0586  0.0310
 3159SOL    HW118182   0.126   6.195   2.752 -0.0128  1.1764 -1.5918
 3159SOL    HW218183  -0.031   6.160   2.726  0.0919 -0.4774 -0.0884
 3160SOL     OW18184   8.915   0.182   2.885  0.5358 -0.2794  0.0833
 3160SOL    HW118185   8.910   0.094   2.838  0.8915  1.2150 -2.8625
 3160SOL    HW218186   8.859   0.249   2.837  1.3942  1.4714  1.4475
 3161SOL     OW18187   6.456   8.791   1.462 -0.1625  0.3658  0.1102
 3161SOL    HW118188   6.522   8.846   1.513  1.5762  0.2312 -1.9173
 3161SOL    HW218189   6.384   8.851   1.427  1.5859  1.3625 -1.8737
 3163SOL     OW18190   9.182   3.422   0.607  0.0691 -0.1253 -0.4411
 3163SOL    HW118191   9.246   3.351   0.577 -0.8833 -1.0555 -0.2819
 3163SOL    HW218192   9.109   3.380   0.661 -1.3235  0.7674 -1.6134
 3164SOL     OW18193   0.602   6.338   1.184 -0.2209 -0.2928  0.4667
 3164SOL    HW118194   0.657   6.415   1.153 -0.3236  0.0150  1.0362
 3164SOL    HW218195   0.505   6.356   1.165 -0.2391 -0.3090  0.5441
 3165SOL     OW18196   2.671   7.447   0.570  0.2814  0.4895 -0.0348
 3165SOL    HW118197   2.738   7.480   0.503  1.3484 -1.3522  0.1090
 3165SOL    HW218198   2.670   7.347   0.570 -3.0184  0.4746 -0.5646
 3166SOL     OW18199   4.352   1.781   2.051  0.3212 -0.3762 -0.2497
 3166SOL    HW118200   4.420   1.830   2.105 -0.7138  1.8274 -0.9096
 3166SOL    HW218201   4.272   1.839   2.037 -0.2233 -1.6042 -2.4992
 3167SOL     OW18202   1.671   6.618   1.209  0.0364 -0.5260  0.3978
 3167SOL    HW118203   1.697   6.539   1.153 -2.0430 -0.6557 -0.4396
 3167SOL    HW218204   1.663   6.699   1.150 -1.2924 -0.4719  0.6318
 3169SOL     OW18205   9.468   2.380   2.513 -0.1629 -0.2348  0.2082
 3169SOL    HW118206   9.470   2.449   2.585  2.3545  0.0343 -0.0690
 3169SOL    HW218207   9.470   2.288   2.553 -1.5974 -0.1450  0.5218
 3170SOL     OW18208   8.307   0.276   1.007  0.3682 -0.0412  0.0956
 3170SOL    HW118209   8.280   0.200   0.948 -1.0758  0.4399  0.1071
 3170SOL    HW218210   8.278   0.257   1.101 -0.0655  0.5565  0.0840
 3173SOL     OW18211   3.258   3.220   0.692 -0.3040  0.0695 -0.1940
 3173SOL    HW118212   3.245   3.231   0.594  3.3467  0.6022 -0.7042
 3173SOL    HW218213   3.234   3.126   0.718 -0.0575 -0.4699 -1.8327
 3174SOL     OW18214   4.166   1.648   0.497 -0.1666 -0.0239 -0.2625
 3174SOL    HW118215   4.098   1.710   0.457 -0.7510 -0.9000 -0.6463
 3174SOL    HW218216   4.200   1.586   0.426  0.0572 -0.4617  0.2290
 3175SOL     OW18217   5.216   9.991   1.045  0.1864 -0.3682 -0.3954
 3175SOL    HW118218   5.141   9.954   1.099 -0.3683  1.0784 -0.1565
 3175SOL    HW218219   5.301   9.946   1.071 -0.4381 -1.3601 -0.0112
 3176SOL     OW18220   6.754   0.173   1.913  0.4854 -0.0785  0.2784
 3176SOL    HW118221   6.678   0.181   1.849  0.7068  0.1898  0.0550
 3176SOL    HW218222   6.824   0.241   1.892  0.9178 -0.5082  0.3134
 3177SOL     OW18223   3.447   0.019   2.784  0.2238  0.1915  0.0747
 3177SOL    HW118224   3.435   0.020   2.883 -0.0967  0.0017  0.0398
 3177SOL    HW218225   3.364   0.052   2.740  0.4589  0.5224 -0.1253
 3178SOL     OW18226   8.570   1.159   3.166 -0.4472 -0.2053  0.0118
 3178SOL    HW118227   8.621   1.075   3.184  1.5963  0.4805 -2.1932
 3178SOL    HW218228   8.514   1.147   3.083 -0.2035  0.5538 -0.2734
 3179SOL     OW18229   3.288   0.146   2.593 -0.1497  1.0286  0.1484
 3179SOL    HW118230   3.224   0.157   2.669  1.1380  2.2231  1.0871
 3179SOL    HW218231   3.254   0.075   2.530 -0.9356 -0.3876  2.1323
 3180SOL     OW18232   1.338   7.630   1.871  0.2938  0.0558  0.0750
 3180SOL    HW118233   1.315   7.604   1.777 -0.2351  0.7624  0.0078
 3180SOL    HW218234   1.430   7.669   1.874  0.4329 -0.2559 -0.0953
 3182SOL     OW18235   0.810   0.529   0.501  0.4267  0.3167  0.3404
 3182SOL    HW118236   0.884   0.516   0.435  1.2652  1.4322  1.0485
 3182SOL    HW218237   0.776   0.623   0.496 -1.0422 -0.2166 -0.0690
 3183SOL     OW18238   8.991   9.460   2.305  0.0675  0.0354  0.0670
 3183SOL    HW118239   9.007   9.490   2.211  1.6440  0.4233  0.4402
 3183SOL    HW218240   8.965   9.364   2.305 -0.4149  0.1620 -0.8020
 3184SOL     OW18241   8.119   8.694   1.482  0.2287  0.9052 -0.0285
 3184SOL    HW118242   8.193   8.639   1.522 -0.1730  1.5488  1.6377
 3184SOL    HW218243   8.158   8.776   1.439  0.3955  1.9292  2.0263
 3185SOL     OW18244   3.504   9.867   2.554  0.0618 -0.1174 -0.3208
 3185SOL    HW118245   3.484   9.937   2.623  2.2702 -0.4146  0.6567
 3185SOL    HW218246   3.449   9.786   2.572  1.2588 -0.5363  1.6879
 3187SOL     OW18247   8.461   7.443   1.971 -0.1095 -0.2562  0.0462
 3187SOL    HW118248   8.470   7.358   2.022 -0.6166 -1.2400 -1.4778
 3187SOL    HW218249   8.507   7.435   1.883  0.8113  1.4505  0.3429
 3188SOL     OW18250   4.145   3.116   0.211  0.0742 -0.4588 -0.2838
 3188SOL    HW118251   4.067   3.120   0.149  0.5697 -1.3857 -0.9707
 3188SOL    HW218252   4.150   3.026   0.254  0.1764 -0.0704  0.5309
 3190SOL     OW18253   2.147   6.111   2.744 -0.0506  0.4842  0.0122
 3190SOL    HW118254   2.222   6.165   2.782  0.4284 -0.2614  0.1247
 3190SOL    HW218255   2.060   6.149   2.776  0.2781  1.2238  0.0497
 3191SOL     OW18256   3.439   0.957   2.550  0.0829 -0.1348 -0.3656
 3191SOL    HW118257   3.497   1.037   2.567  0.4937 -0.5657  0.2738
 3191SOL    HW218258   3.483   0.876   2.588 -0.6740 -0.5512 -0.3868
 3192SOL     OW18259   3.440   1.303   0.571 -0.0150 -0.6219 -0.5780
 3192SOL    HW118260   3.407   1.231   0.509 -0.5667  0.7685 -1.9180
 3192SOL    HW218261   3.370   1.322   0.640 -0.6530 -0.0487 -1.3728
 3193SOL     OW18262   4.012   3.767   2.104 -0.3198 -0.4552  0.0845
 3193SOL    HW118263   3.948   3.760   2.028 -0.3504 -0.1767  0.0848
 3193SOL    HW218264   4.106   3.758   2.068 -0.1924  2.1660 -0.3476
 3194SOL     OW18265   3.333   7.580   1.036 -0.4621  0.3543 -0.7540
 3194SOL    HW118266   3.368   7.626   1.118  0.8050  0.7010 -1.4723
 3194SOL    HW218267   3.335   7.481   1.050  0.1836  0.3953 -0.5293
 3195SOL     OW18268   2.267   3.672   2.746  0.3220  0.1656 -0.6478
 3195SOL    HW118269   2.315   3.596   2.790  0.7206  1.0179  0.3763
 3195SOL    HW218270   2.332   3.743   2.721 -0.3088  0.9759  0.0236
 3196SOL     OW18271   1.305   3.931   2.056 -0.4632  0.4560  0.7318
 3196SOL    HW118272   1.286   3.852   2.114  0.9839 -0.8069 -0.4631
 3196SOL    HW218273   1.403   3.934   2.036 -0.9433  0.7836 -1.7330
 3197SOL     OW18274   8.695   5.673   1.987  0.0060  0.1932  0.2907
 3197SOL    HW118275   8.723   5.757   1.941 -0.9385  0.8875  0.9710
 3197SOL    HW218276   8.628   5.625   1.931  0.9177 -0.3784 -0.3334
 3198SOL     OW18277   8.549   2.800   1.414 -0.3292  0.0995  0.1073
 3198SOL    HW118278   8.630   2.748   1.440 -0.3523  1.7234  3.7313
 3198SOL    HW218279   8.468   2.742   1.422  0.1277 -0.6480 -0.5880
 3199SOL     OW18280   0.028   1.199   1.102  0.6494  0.6921  0.1706
 3199SOL    HW118281  -0.040   1.271   1.091  0.9367  0.9490  0.0737
 3199SOL    HW218282   0.042   1.179   1.199 -1.8585 -1.5412  0.1162
 3201SOL     OW18283   1.166   6.688   0.906 -0.5444 -0.2480 -0.0602
 3201SOL    HW118284   1.231   6.673   0.981  0.3558 -0.7360 -0.9214
 3201SOL    HW218285   1.074   6.695   0.943 -0.0983 -0.3525  1.1102
 3202SOL     OW18286   7.358   1.296   2.646  0.2025 -0.0098  0.4675
 3202SOL    HW118287   7.419   1.354   2.700  2.0231 -0.9046 -0.5904
 3202SOL    HW218288   7.327   1.219   2.702  1.1625 -0.3044  0.6102
 3204SOL     OW18289   0.234   8.449   3.670  0.0456 -0.3570 -0.4508
 3204SOL    HW118290   0.281   8.419   3.588  0.7118  3.5292 -1.6238
 3204SOL    HW218291   0.137   8.425   3.665  0.5967 -2.4307 -1.1515
 3205SOL     OW18292   8.972   2.945   2.435 -0.2605 -0.0309 -0.3173
 3205SOL    HW118293   8.988   2.847   2.446 -1.8015 -0.0771  1.7668
 3205SOL    HW218294   9.033   2.997   2.496 -1.0975  0.1887  0.3485
 3206SOL     OW18295   8.512   6.534   3.379 -0.2686 -0.3484  0.0083
 3206SOL    HW118296   8.536   6.609   3.440  0.6870  0.4798 -1.3378
 3206SOL    HW218297   8.562   6.451   3.407  0.6885  0.1995 -0.0432
 3208SOL     OW18298   9.635   9.654   3.355 -0.2103 -0.2568  0.2237
 3208SOL    HW118299   9.562   9.591   3.379 -0.2623 -0.0574  0.6035
 3208SOL    HW218300   9.629   9.735   3.413 -1.8669  1.3876 -2.1627
 3209SOL     OW18301   1.674   0.237   1.135  0.4291  0.1435 -0.2942
 3209SOL    HW118302   1.749   0.230   1.201 -0.5621  0.6245  0.8825
 3209SOL    HW218303   1.645   0.145   1.109  1.1732 -0.0485 -0.4792
 3210SOL     OW18304   8.709   3.023   2.338 -0.6792 -0.2970  0.4956
 3210SOL    HW118305   8.773   3.017   2.414  0.3080  0.8364 -0.2298
 3210SOL    HW218306   8.673   2.932   2.318  1.4160 -1.1301  0.3224
 3212SOL     OW18307   8.297   2.530   3.224  0.3682  0.5622 -0.2153
 3212SOL    HW118308   8.281   2.582   3.140 -1.1948  0.7044  0.1735
 3212SOL    HW218309   8.377   2.568   3.271  0.7434  1.0184 -1.2040
 3213SOL     OW18310   0.711   3.200   1.170  0.3860  0.3390 -0.1312
 3213SOL    HW118311   0.657   3.278   1.202  0.4903  0.5077 -0.3654
 3213SOL    HW218312   0.698   3.188   1.071 -0.9799 -1.0028  0.1935
 3215SOL     OW18313   8.073   6.122   2.502  0.1304  1.1275  0.5217
 3215SOL    HW118314   8.119   6.133   2.590 -0.2233  2.0033  0.6044
 3215SOL    HW218315   8.042   6.211   2.469  1.8017  1.0530 -1.3445
 3216SOL     OW18316   3.379   8.499   2.286  0.3809  0.1393  0.3523
 3216SOL    HW118317   3.467   8.487   2.333  0.5754 -1.9715 -0.4911
 3216SOL    HW218318   3.341   8.410   2.264 -1.4194  1.0636 -0.3666
 3217SOL     OW18319   8.773   9.304   2.976 -0.2207  0.5160  0.6991
 3217SOL    HW118320   8.710   9.248   2.923 -0.5343  0.1471  1.4607
 3217SOL    HW218321   8.866   9.294   2.939  0.3053 -3.0269  2.7914
 3218SOL     OW18322   4.601   9.700   1.740  0.0113  1.0840  0.0935
 3218SOL    HW118323   4.580   9.652   1.655  0.4198 -0.1022  0.6436
 3218SOL    HW218324   4.661   9.778   1.721  0.9569  0.2122 -0.5918
 3219SOL     OW18325   3.616   5.369   2.449  0.1834 -0.0715  0.1057
 3219SOL    HW118326   3.527   5.411   2.465  0.6955  2.1355 -2.5634
 3219SOL    HW218327   3.604   5.283   2.400 -0.4832 -0.0165  0.1684
 3220SOL     OW18328   8.199   8.482   1.243 -0.2394  0.6252 -0.1823
 3220SOL    HW118329   8.251   8.414   1.293 -0.3966 -0.3487 -1.3154
 3220SOL    HW218330   8.146   8.538   1.307  0.9106  0.5577  0.8428
 3221SOL     OW18331   8.951   1.998   2.632 -0.0245 -0.2013 -0.1704
 3221SOL    HW118332   8.871   1.973   2.578  0.6093 -0.3687 -1.0520
 3221SOL    HW218333   9.020   2.040   2.573 -0.0623  1.3162  0.8609
 3222SOL     OW18334   8.824   0.742   2.225  0.0258 -0.6296  0.1449
 3222SOL    HW118335   8.745   0.737   2.286  0.0746 -1.1750  0.1620
 3222SOL    HW218336   8.893   0.803   2.264 -0.6069  0.2748 -0.1230
 3223SOL     OW18337   2.645   2.994   0.941  0.7613  0.4559 -0.3680
 3223SOL    HW118338   2.719   3.041   0.989  0.3943 -0.4048  1.0624
 3223SOL    HW218339   2.579   2.959   1.007  0.4035 -1.0092 -1.4714
 3224SOL     OW18340   5.165   2.103   1.862 -0.2802 -0.3234  0.2123
 3224SOL    HW118341   5.188   2.037   1.933 -0.2433  1.5464  2.0038
 3224SOL    HW218342   5.248   2.132   1.815 -0.1536 -0.7245  0.1917
 3225SOL     OW18343   0.721   4.024   3.274 -0.2236  0.7405  0.2145
 3225SOL    HW118344   0.723   4.095   3.204  0.8229 -0.9107 -1.4996
 3225SOL    HW218345   0.626   4.005   3.300 -0.7291  0.5972 -1.6316
 3227SOL     OW18346   4.907   1.804   1.730  0.4173  0.5179  0.0572
 3227SOL    HW118347   4.844   1.769   1.660  2.2887  0.8132 -1.8126
 3227SOL    HW218348   4.904   1.904   1.729 -0.8375  0.5132  1.6221
 3228SOL     OW18349   8.498   4.517   1.482 -0.8806 -0.3130  0.0397
 3228SOL    HW118350   8.538   4.474   1.401 -1.0708 -0.7949  0.1964
 3228SOL    HW218351   8.572   4.547   1.543 -0.7441 -0.9431  0.1953
 3229SOL     OW18352   4.561   2.031   2.893 -1.0429  0.1685  0.2396
 3229SOL    HW118353   4.573   1.937   2.861  0.4578  0.4909 -0.1757
 3229SOL    HW218354   4.542   2.030   2.991  0.6661 -0.5008  0.5910
 3230SOL     OW18355   8.907   7.794   0.510 -0.5354  0.1027 -0.0961
 3230SOL    HW118356   8.879   7.742   0.429 -0.5656 -0.6264  0.3789
 3230SOL    HW218357   8.979   7.859   0.485 -0.2067 -0.4563 -0.6110
 3231SOL     OW18358   0.435   2.537   1.052 -0.5769  0.0532 -0.0566
 3231SOL    HW118359   0.397   2.531   0.959  2.7279  1.7719 -1.5990
 3231SOL    HW218360   0.414   2.628   1.090  0.1570  0.2365 -0.0870
 3232SOL     OW18361   2.758   6.502   2.919 -0.2178  0.1722  0.1105
 3232SOL    HW118362   2.774   6.592   2.877  0.3767 -0.2839 -0.6675
 3232SOL    HW218363   2.846   6.462   2.946 -0.3984 -0.5341 -0.3225
 3233SOL     OW18364   8.711   5.778   2.527 -0.4725 -0.3151 -0.0406
 3233SOL    HW118365   8.762   5.759   2.444 -2.6916  0.4825 -1.6165
 3233SOL    HW218366   8.660   5.697   2.555  1.5076 -1.0794  1.4767
 3234SOL     OW18367   6.342   8.804   3.680 -0.4306  0.5078 -0.6302
 3234SOL    HW118368   6.279   8.766   3.613 -0.5697 -1.3744  0.5495
 3234SOL    HW218369   6.289   8.845   3.755 -0.2637  1.0370 -0.8006
 3235SOL     OW18370   3.364   4.986   3.249 -0.2053  0.2667 -0.5756
 3235SOL    HW118371   3.286   5.044   3.274  0.2653 -0.0392  1.7127
 3235SOL    HW218372   3.331   4.897   3.219 -0.8458  1.0421 -2.2267
 3236SOL     OW18373   3.172   3.302   1.987  0.4387 -0.1990  0.2610
 3236SOL    HW118374   3.154   3.301   1.888  1.0183  0.3579  0.1493
 3236SOL    HW218375   3.210   3.391   2.013  1.0019 -0.6082  0.8556
 3237SOL     OW18376   5.660   7.541   1.704  0.5653  0.0195  0.7021
 3237SOL    HW118377   5.732   7.568   1.768  0.5476  0.4480  0.5416
 3237SOL    HW218378   5.574   7.584   1.730  0.7539  0.9055 -0.1303
 3238SOL     OW18379   4.468   9.896   1.954 -0.2494 -0.0678  0.3537
 3238SOL    HW118380   4.509   9.941   2.033  2.1668  3.0361 -2.5190
 3238SOL    HW218381   4.539   9.853   1.899 -1.4371  0.5943 -1.7778
 3241SOL     OW18382   3.084   3.355   0.433  0.7760  0.5078  0.2821
 3241SOL    HW118383   3.080   3.255   0.441  0.0015  0.5286  0.1843
 3241SOL    HW218384   3.050   3.382   0.343  1.2212  0.8465  0.2154
 3242SOL     OW18385   1.081   9.019   2.129  0.6190  0.7729 -0.2588
 3242SOL    HW118386   1.152   9.065   2.076 -1.1332 -0.5821 -3.9618
 3242SOL    HW218387   1.104   8.922   2.139  0.8209  0.9636  1.3418
 3243SOL     OW18388   3.341   2.716   2.876  0.5847 -1.0389  0.0065
 3243SOL    HW118389   3.335   2.621   2.847  1.2181 -1.3598  0.9040
 3243SOL    HW218390   3.418   2.760   2.831 -0.1537 -0.7310 -0.9837
 3245SOL     OW18391   1.191   8.605   0.711 -0.1962 -0.7052 -0.6085
 3245SOL    HW118392   1.120   8.539   0.688 -0.6434 -0.1312 -0.8665
 3245SOL    HW218393   1.265   8.599   0.643 -0.2343 -0.9329 -0.6329
 3246SOL     OW18394   8.679   2.848   0.015 -0.8259  0.0431  0.0635
 3246SOL    HW118395   8.733   2.841  -0.069 -0.6266  1.4687  0.0650
 3246SOL    HW218396   8.582   2.853  -0.009 -0.7515  0.7646 -0.1068
 3247SOL     OW18397   0.050   3.216   1.733  0.0602  0.0257  0.3335
 3247SOL    HW118398   0.090   3.211   1.642 -0.7338 -1.2371  0.0340
 3247SOL    HW218399  -0.050   3.215   1.725 -0.1327  4.2477  0.9910
 3248SOL     OW18400   6.403   6.919   2.528  0.6065 -0.3882 -0.6282
 3248SOL    HW118401   6.315   6.965   2.534  0.2773 -0.9433 -1.1986
 3248SOL    HW218402   6.473   6.985   2.500  0.4677  0.1565  0.2688
 3249SOL     OW18403   8.347   4.644   2.800 -0.2338  0.3430 -0.1641
 3249SOL    HW118404   8.255   4.663   2.765  0.0078  0.6524 -0.6261
 3249SOL    HW218405   8.376   4.553   2.770 -0.2286  0.4065 -0.3549
 3251SOL     OW18406   4.300   6.630   1.897 -0.0187  0.0096  0.5188
 3251SOL    HW118407   4.231   6.557   1.894  0.3069 -0.2609 -0.8668
 3251SOL    HW218408   4.282   6.695   1.822  0.6629  0.4620  0.7502
 3253SOL     OW18409   9.250   6.754   0.747 -0.2214 -0.4776  0.2847
 3253SOL    HW118410   9.245   6.853   0.760 -0.9575 -0.5899  0.8746
 3253SOL    HW218411   9.193   6.727   0.670 -0.7026 -0.5423  0.6602
 3254SOL     OW18412   4.653   1.549   1.635  0.1101  0.3812  0.6769
 3254SOL    HW118413   4.608   1.619   1.690 -1.6640 -0.2365  0.0567
 3254SOL    HW218414   4.651   1.575   1.538  0.6079  0.0871  0.5827
 3255SOL     OW18415   6.882   9.682   0.055 -0.6217  0.0279 -0.3484
 3255SOL    HW118416   6.868   9.658   0.151 -0.5685  1.5965  0.0537
 3255SOL    HW218417   6.887   9.781   0.045 -1.0050 -0.1008 -2.0222
 3256SOL     OW18418   0.231   2.804   3.082  0.6446  0.1236 -0.6496
 3256SOL    HW118419   0.145   2.784   3.128  0.8405 -1.0535 -0.7769
 3256SOL    HW218420   0.267   2.721   3.040  1.1678  0.8868 -1.7477
 3258SOL     OW18421   0.337   1.317   3.076  0.1414  0.0598 -0.5407
 3258SOL    HW118422   0.417   1.263   3.101 -1.1485 -0.7015  2.1727
 3258SOL    HW218423   0.262   1.255   3.053 -0.0561  0.7460 -1.7505
 3259SOL     OW18424   8.539   4.752   1.904  0.7637 -0.2729 -0.6772
 3259SOL    HW118425   8.470   4.682   1.921  0.9549 -0.1290  0.8476
 3259SOL    HW218426   8.627   4.721   1.940  1.1025  0.2746 -1.0147
 3260SOL     OW18427   2.272   7.459   1.975 -0.2167  0.4325  0.1406
 3260SOL    HW118428   2.320   7.482   2.060  2.7498  0.1177 -1.3835
 3260SOL    HW218429   2.307   7.516   1.901 -2.5001  0.4304 -0.9615
 3261SOL     OW18430   7.671   7.259   2.917 -0.0261 -0.2800  0.2283
 3261SOL    HW118431   7.739   7.209   2.863  1.6525  0.2252  1.8070
 3261SOL    HW218432   7.704   7.352   2.935 -0.4772 -0.4612  2.1700
 3263SOL     OW18433   0.064   8.481   0.537 -0.2374  0.5658 -0.2881
 3263SOL    HW118434  -0.020   8.430   0.553 -0.0117  0.3134  0.1361
 3263SOL    HW218435   0.072   8.504   0.440  0.3793 -1.5017 -0.7570
 3264SOL     OW18436   6.355   8.302   2.008 -0.3004  0.2485 -0.3109
 3264SOL    HW118437   6.449   8.273   1.994  0.1759  0.8734  1.4380
 3264SOL    HW218438   6.329   8.369   1.939  0.5684  0.1466 -0.7362
 3265SOL     OW18439   2.748   7.296   0.203  0.5429  0.1695 -0.1119
 3265SOL    HW118440   2.751   7.261   0.110  0.2237  0.9958 -0.4468
 3265SOL    HW218441   2.663   7.349   0.216  0.6372  0.1575  0.6077
 3267SOL     OW18442   2.556   8.369   1.941  0.2406 -0.4352  0.4249
 3267SOL    HW118443   2.631   8.332   1.886 -0.9398  0.6634 -2.0534
 3267SOL    HW218444   2.573   8.466   1.960 -0.3883 -0.2472  0.0765
 3268SOL     OW18445   0.704   8.586   1.798  0.0492 -0.1460  0.3508
 3268SOL    HW118446   0.657   8.515   1.851  2.4526 -1.3502  0.9362
 3268SOL    HW218447   0.774   8.629   1.855  0.4677  0.8054 -0.8666
 3269SOL     OW18448   2.396   1.892   2.968  0.5033  0.5288  0.0178
 3269SOL    HW118449   2.444   1.908   2.882 -0.4240 -1.1340 -0.8432
 3269SOL    HW218450   2.411   1.969   3.030  2.0609  1.2514 -1.2260
 3271SOL     OW18451   3.843   5.367   1.978  0.1236  0.0471  0.0845
 3271SOL    HW118452   3.833   5.335   1.884 -2.8036  0.7870  0.1041
 3271SOL    HW218453   3.899   5.450   1.980 -0.6473  0.6028 -1.1221
 3272SOL     OW18454   1.727   6.338   2.548 -0.0500  0.1350 -0.1788
 3272SOL    HW118455   1.784   6.323   2.628 -1.3443 -1.5336  0.4618
 3272SOL    HW218456   1.782   6.382   2.476  1.0258  1.9782  1.6980
 3273SOL     OW18457   1.521   9.959   1.048  0.7076 -0.0899  0.5340
 3273SOL    HW118458   1.503   9.957   0.950 -0.1285  0.2413  0.6716
 3273SOL    HW218459   1.439   9.990   1.096  1.4818  0.8789  1.2543
 3274SOL     OW18460   3.735   3.218   1.349  0.0355 -0.3649  0.4245
 3274SOL    HW118461   3.735   3.197   1.251 -1.6605  0.3368  0.2613
 3274SOL    HW218462   3.719   3.135   1.402 -0.7058 -0.4707  0.0323
 3275SOL     OW18463   1.563   8.137   0.155  0.2304  0.0552  0.3444
 3275SOL    HW118464   1.483   8.104   0.205  0.5240 -0.3149  0.5774
 3275SOL    HW218465   1.645   8.089   0.188  0.5451  0.4192  0.0986
 3276SOL     OW18466   2.399   5.416   0.646  0.1913 -0.7358 -0.1945
 3276SOL    HW118467   2.377   5.344   0.581 -0.5451  0.7282 -1.5914
 3276SOL    HW218468   2.498   5.415   0.665  0.4656 -0.9606 -1.6067
 3277SOL     OW18469   9.514   7.337   2.283  0.0092 -0.0285 -0.1923
 3277SOL    HW118470   9.466   7.401   2.224  1.5326 -1.1807 -2.7496
 3277SOL    HW218471   9.578   7.387   2.341 -0.7384  1.0211 -0.2679
 3279SOL     OW18472   8.936   2.931   0.625  0.5939  0.1244  0.1893
 3279SOL    HW118473   8.956   3.011   0.568  0.7849 -0.3404 -0.3959
 3279SOL    HW218474   9.005   2.860   0.610  0.6050 -0.0377  0.9441
 3280SOL     OW18475   4.250   4.043   0.051 -0.0091 -0.3188  0.0253
 3280SOL    HW118476   4.192   4.094   0.113 -0.2536  1.8697 -1.9345
 3280SOL    HW218477   4.238   3.945   0.067 -1.8393  0.1556  1.7688
 3282SOL     OW18478   4.270   0.396   1.622 -0.0408 -0.2511  0.1323
 3282SOL    HW118479   4.232   0.398   1.715  0.6259  0.3932  0.3942
 3282SOL    HW218480   4.200   0.365   1.558 -0.9163  0.5914  0.6634
 3283SOL     OW18481   0.542   6.285   1.960  0.2676  0.7489 -0.7052
 3283SOL    HW118482   0.539   6.269   1.861 -1.4388  2.7639 -1.0364
 3283SOL    HW218483   0.467   6.236   2.004  1.0028 -0.1146 -0.3876
 3284SOL     OW18484   2.082   8.788   1.421  0.2482 -0.0010  0.3489
 3284SOL    HW118485   2.104   8.816   1.327 -0.4462  2.8097  0.9937
 3284SOL    HW218486   2.142   8.835   1.485  0.6271 -1.8182  1.3647
 3285SOL     OW18487   1.492   8.653   1.402  0.0810 -0.6223  0.0955
 3285SOL    HW118488   1.441   8.664   1.487 -2.0564 -2.4692 -0.9213
 3285SOL    HW218489   1.513   8.744   1.364 -1.8090  0.1595  0.8665
 3286SOL     OW18490   9.813   2.021   0.072  0.4500 -0.4948  0.2953
 3286SOL    HW118491   9.822   2.105   0.017  0.3256 -0.3424  0.5075
 3286SOL    HW218492   9.886   2.019   0.141 -0.2797  0.0476  1.0951
 3288SOL     OW18493   8.348   9.791   2.061  0.2353  0.4108 -0.0741
 3288SOL    HW118494   8.426   9.853   2.055 -0.1934  0.8686 -0.9029
 3288SOL    HW218495   8.320   9.782   2.157  1.8082 -0.3893  0.3332
 3289SOL     OW18496   6.351   8.916   1.839  0.1270 -0.0086  0.2902
 3289SOL    HW118497   6.364   8.820   1.816 -0.1707  0.1538 -0.5791
 3289SOL    HW218498   6.293   8.924   1.920  0.3241 -0.5647  0.4853
 3290SOL     OW18499   5.632   0.894   2.057 -0.1040 -0.6797 -0.2137
 3290SOL    HW118500   5.557   0.914   2.120  0.2951 -0.1619  0.1029
 3290SOL    HW218501   5.596   0.870   1.967 -0.5977  1.2853 -0.5571
 3291SOL     OW18502   3.676   9.914   3.202 -0.0025 -0.0338  0.1074
 3291SOL    HW118503   3.723   9.999   3.176 -1.8159  0.8830 -0.2731
 3291SOL    HW218504   3.658   9.914   3.300  0.2589 -0.1085  0.1549
 3292SOL     OW18505   4.446   3.307   2.258  0.6404  0.1354  0.5064
 3292SOL    HW118506   4.462   3.406   2.256 -0.2924  0.3069  1.1189
 3292SOL    HW218507   4.421   3.280   2.351  2.6241 -0.9646  0.7432
 3294SOL     OW18508   3.871   4.136   2.535  0.9743 -0.3270  0.8191
 3294SOL    HW118509   3.855   4.199   2.611  1.7015  0.2253  0.5283
 3294SOL    HW218510   3.935   4.065   2.564  1.6324  0.1667  0.5746
 3296SOL     OW18511   2.516   0.374   0.981 -0.0091 -0.6228 -0.0025
 3296SOL    HW118512   2.480   0.354   1.072  0.1453 -0.5717  0.0693
 3296SOL    HW218513   2.448   0.426   0.929 -0.0006 -0.4371  0.1692
 3297SOL     OW18514   1.638   7.696   3.054 -0.6022 -0.2337 -0.0574
 3297SOL    HW118515   1.616   7.613   3.104  1.5890 -0.6122  0.3106
 3297SOL    HW218516   1.638   7.774   3.116  0.3333 -0.4256  0.1847
 3298SOL     OW18517   0.629   0.613   2.340 -0.4953  0.1293  0.0308
 3298SOL    HW118518   0.628   0.713   2.339 -1.6685  0.1318  0.1840
 3298SOL    HW218519   0.615   0.581   2.434 -0.4488 -0.1759 -0.0650
 3300SOL     OW18520   2.203   7.101   0.002  0.0056  0.1561  0.0554
 3300SOL    HW118521   2.261   7.147  -0.066  1.2445 -0.3998  0.7198
 3300SOL    HW218522   2.202   7.154   0.086 -1.0507  0.5339 -0.1855
 3302SOL     OW18523   9.331   4.148   2.475 -0.0090 -0.3619 -0.0682
 3302SOL    HW118524   9.297   4.145   2.381 -0.0639 -1.5920 -0.0218
 3302SOL    HW218525   9.418   4.099   2.481  1.3230  1.9434  0.0179
 3303SOL     OW18526   2.908   6.349   1.289 -0.2952  0.0724 -0.1239
 3303SOL    HW118527   2.905   6.373   1.386 -0.2545  1.2253 -0.3988
 3303SOL    HW218528   2.925   6.431   1.235 -0.5381 -0.5277 -1.1270
 3304SOL     OW18529   6.545   8.692   2.638 -0.5242  0.1589 -0.5366
 3304SOL    HW118530   6.556   8.713   2.735 -0.5219  0.0982 -0.5240
 3304SOL    HW218531   6.612   8.622   2.611  0.0417  0.7776 -0.7690
 3305SOL     OW18532   0.517   2.726   1.468 -0.5625 -0.5549 -0.3663
 3305SOL    HW118533   0.573   2.722   1.385  1.9129  0.6605  1.1919
 3305SOL    HW218534   0.538   2.809   1.519 -1.1522 -1.8650  2.1057
 3307SOL     OW18535   3.112   3.846   1.422 -0.3463  0.0503  0.1526
 3307SOL    HW118536   3.085   3.770   1.362  1.1096 -1.2046  1.0468
 3307SOL    HW218537   3.198   3.885   1.390 -0.0162 -0.0486  0.9060
 3308SOL     OW18538   3.774   3.470   1.451 -0.6342  0.7148  0.4522
 3308SOL    HW118539   3.785   3.472   1.551 -1.7762 -0.2047  0.6004
 3308SOL    HW218540   3.780   3.376   1.419 -0.8130  0.9566 -0.2912
 3309SOL     OW18541   2.315   9.699   1.905 -0.2201  0.3202 -0.0840
 3309SOL    HW118542   2.264   9.613   1.910  2.4864 -1.2955  0.5446
 3309SOL    HW218543   2.322   9.728   1.809  0.0986 -0.9412 -0.4476
 3313SOL     OW18544   9.737   2.479   2.547  0.1328 -0.0430 -0.5827
 3313SOL    HW118545   9.658   2.447   2.493  0.0343 -0.9305  0.0894
 3313SOL    HW218546   9.722   2.457   2.643  1.2445 -0.2744 -0.4662
 3314SOL     OW18547   4.270   1.991   2.923 -0.1358 -0.3535  0.9890
 3314SOL    HW118548   4.324   2.047   2.987  0.0771 -0.1242  0.6128
 3314SOL    HW218549   4.310   1.899   2.919  1.9948  0.6140 -1.4338
 3315SOL     OW18550   1.550   5.127   1.497 -0.3505 -0.2188 -0.2052
 3315SOL    HW118551   1.628   5.176   1.536 -1.1300  0.4418  0.5149
 3315SOL    HW218552   1.580   5.078   1.414 -0.0111  3.1374 -2.1462
 3316SOL     OW18553   8.216   9.856   3.381 -0.5603 -0.3905  0.1626
 3316SOL    HW118554   8.116   9.850   3.377 -0.5146 -0.3515 -1.1880
 3316SOL    HW218555   8.243   9.940   3.428 -1.1550 -0.6599  1.0004
 3318SOL     OW18556   5.217   2.625   1.705 -0.4448 -0.2910  0.0147
 3318SOL    HW118557   5.300   2.643   1.651 -0.7813  1.4282  0.0486
 3318SOL    HW218558   5.219   2.530   1.739  0.4771 -0.9374 -1.7759
 3321SOL     OW18559   6.159   7.603   2.727 -0.2725 -0.0270 -0.2155
 3321SOL    HW118560   6.061   7.606   2.747 -0.5420 -1.9533 -1.1539
 3321SOL    HW218561   6.195   7.697   2.722 -1.9492  0.6818  0.6005
 3322SOL     OW18562   3.292   5.489   3.653  0.0716  0.1999 -0.0706
 3322SOL    HW118563   3.243   5.547   3.719  2.0416  1.2921  0.4861
 3322SOL    HW218564   3.275   5.523   3.561 -0.9644 -0.0062  0.0383
 3323SOL     OW18565   3.119   4.865   2.541 -0.2409 -0.3117  0.1863
 3323SOL    HW118566   3.142   4.915   2.458 -0.5591 -0.9199 -0.2649
 3323SOL    HW218567   3.194   4.874   2.607 -0.6918  1.5398  0.4721
 3324SOL     OW18568   4.626   3.034   1.131  0.0447  0.5207 -0.0063
 3324SOL    HW118569   4.694   3.070   1.066 -0.2860 -0.8358 -1.1268
 3324SOL    HW218570   4.659   2.948   1.170 -0.5341  0.4342  0.2990
 3325SOL     OW18571   2.696   0.144   2.396 -0.1550 -0.0947  0.2766
 3325SOL    HW118572   2.634   0.221   2.382  1.1496  0.6627 -1.4534
 3325SOL    HW218573   2.751   0.159   2.478  0.8528  1.3582 -0.6397
 3327SOL     OW18574   1.720   7.391   2.371  0.1564 -0.0056 -0.6871
 3327SOL    HW118575   1.679   7.301   2.360  0.4572 -0.0703 -1.2867
 3327SOL    HW218576   1.715   7.441   2.284  1.4323 -0.0520 -0.7926
 3328SOL     OW18577   6.184   0.076   3.371 -0.6551  0.6295 -0.1867
 3328SOL    HW118578   6.190  -0.004   3.312 -1.7489 -0.3817  1.0661
 3328SOL    HW218579   6.264   0.135   3.354  0.8549 -1.3450 -0.1625
 3329SOL     OW18580   0.826   8.570   0.133  0.2462  0.5117  0.0607
 3329SOL    HW118581   0.761   8.595   0.061 -0.3121 -0.2092  0.3018
 3329SOL    HW218582   0.919   8.592   0.105  0.0914 -0.3523 -1.1493
 3330SOL     OW18583   8.655   5.031   1.982 -0.1359 -0.5511  0.5318
 3330SOL    HW118584   8.555   5.034   1.983 -0.0781  1.3389  0.7138
 3330SOL    HW218585   8.687   5.027   1.888 -0.3470 -0.2176  0.4469
 3332SOL     OW18586   3.670   9.064   1.103  0.5056 -0.1062 -0.3777
 3332SOL    HW118587   3.764   9.076   1.073  0.6789 -0.8932 -0.1644
 3332SOL    HW218588   3.615   9.027   1.029  0.5942 -0.6186 -0.1863
 3333SOL     OW18589   5.452   8.012   2.661  0.3077 -0.1294 -0.4078
 3333SOL    HW118590   5.413   8.037   2.572  0.2774 -0.9382 -0.6199
 3333SOL    HW218591   5.408   8.068   2.732  1.2238  1.4110 -1.0250
 3334SOL     OW18592   4.691   2.200   1.255  0.5107 -0.0259 -0.5823
 3334SOL    HW118593   4.695   2.299   1.270  0.2399 -0.1526  0.3684
 3334SOL    HW218594   4.784   2.164   1.243  0.9154 -0.1573  2.5043
 3335SOL     OW18595   1.691   7.791   2.177  0.1562 -0.0001 -0.1752
 3335SOL    HW118596   1.659   7.823   2.088 -1.4282 -0.3160  0.2620
 3335SOL    HW218597   1.618   7.738   2.221  0.4033  1.3345  1.8954
 3336SOL     OW18598   4.163   6.794   3.313 -0.1122 -0.5319  0.1385
 3336SOL    HW118599   4.261   6.813   3.300  0.2461 -2.8994 -0.8728
 3336SOL    HW218600   4.117   6.878   3.343  2.2420  0.5781  0.8096
 3338SOL     OW18601   0.292   2.505   2.379  0.2970 -0.1984  0.5239
 3338SOL    HW118602   0.352   2.575   2.340  2.0392 -1.7480  0.3262
 3338SOL    HW218603   0.262   2.532   2.470  1.5476  0.4609  0.7378
 3339SOL     OW18604   0.104   3.494   2.499 -0.4249 -0.2571 -0.0325
 3339SOL    HW118605   0.055   3.445   2.427 -0.0208  0.3579 -0.7289
 3339SOL    HW218606   0.189   3.531   2.462  1.3277 -2.6143  1.5467
 3340SOL     OW18607   0.801   0.633   0.994 -0.0002  0.5429  0.3397
 3340SOL    HW118608   0.781   0.577   1.074  2.2929  0.1498  0.6688
 3340SOL    HW218609   0.811   0.574   0.914 -2.0794  0.9171 -0.2306
 3341SOL     OW18610   2.697   0.797   1.560  0.1911  0.4306 -0.1992
 3341SOL    HW118611   2.732   0.830   1.648 -0.4294  1.3013 -0.2786
 3341SOL    HW218612   2.607   0.835   1.543  0.4711  0.5726 -1.4001
 3342SOL     OW18613   1.010   7.834   2.132 -0.7110  0.1120 -0.0773
 3342SOL    HW118614   0.926   7.834   2.078 -0.7194  1.2492 -0.0782
 3342SOL    HW218615   1.087   7.857   2.073 -0.6066  0.5455  0.2228
 3344SOL     OW18616   6.017   7.259   2.774  0.6626 -0.5518  0.4647
 3344SOL    HW118617   6.090   7.245   2.842  0.8519 -2.8840 -0.1861
 3344SOL    HW218618   5.931   7.224   2.810  0.7543 -1.7632 -0.4771
 3345SOL     OW18619   5.319   8.238   1.864 -0.0631 -0.0031 -0.1912
 3345SOL    HW118620   5.286   8.332   1.853 -0.2474  0.1470  1.5512
 3345SOL    HW218621   5.416   8.239   1.887 -0.3866 -0.1671  1.2236
 3346SOL     OW18622   9.875   6.002   2.714  0.2800 -0.1147 -0.3326
 3346SOL    HW118623   9.816   6.008   2.794  1.1715  1.1629  0.2445
 3346SOL    HW218624   9.871   5.909   2.677  0.2159 -0.8531  1.4709
 3347SOL     OW18625   5.063   6.906   2.395  0.1558  1.1755  0.1643
 3347SOL    HW118626   5.142   6.909   2.456  1.9557 -1.0482 -1.9791
 3347SOL    HW218627   5.089   6.938   2.304 -1.3544  0.1535 -0.6472
 3348SOL     OW18628   9.877   2.582   1.777  0.2602  0.2173  0.1151
 3348SOL    HW118629   9.888   2.616   1.870 -0.1999  3.1646 -0.8454
 3348SOL    HW218630   9.780   2.565   1.759  0.5714 -2.5831  0.8773
 3349SOL     OW18631   2.890   3.366   2.091  0.1054 -0.3022 -0.5385
 3349SOL    HW118632   2.960   3.346   2.023 -0.1250 -1.4610 -0.4553
 3349SOL    HW218633   2.932   3.380   2.180  0.1461 -2.3341 -0.2182
 3350SOL     OW18634   0.389   3.328   3.328  0.5987  0.0828  0.8878
 3350SOL    HW118635   0.365   3.410   3.380 -0.3951  1.4805 -1.6983
 3350SOL    HW218636   0.477   3.341   3.283  0.3920 -0.2382  0.3855
 3351SOL     OW18637   7.483   8.075   2.231 -0.2984 -0.8036  0.6889
 3351SOL    HW118638   7.476   8.173   2.209  4.8014 -0.5893 -0.4474
 3351SOL    HW218639   7.522   8.065   2.323  2.4438 -1.6987 -0.5322
 3352SOL     OW18640   4.473   0.983   2.183 -0.4441  0.1403 -0.0785
 3352SOL    HW118641   4.499   1.078   2.165  0.1501  0.0254  0.1522
 3352SOL    HW218642   4.452   0.937   2.097  1.4309 -0.1424 -0.3897
 3354SOL     OW18643   8.139   5.955   0.978 -0.1177  0.1182 -0.6865
 3354SOL    HW118644   8.116   5.898   0.899  0.6957 -2.7132  1.0123
 3354SOL    HW218645   8.224   5.921   1.019 -0.8734  1.0905  1.7693
 3356SOL     OW18646   2.718   9.069   0.538 -0.0691  0.4231  0.2805
 3356SOL    HW118647   2.798   9.012   0.558 -1.0065 -1.0310 -0.0915
 3356SOL    HW218648   2.725   9.106   0.445 -0.6014 -1.0234 -0.3468
 3357SOL     OW18649   1.456   5.857   0.850  0.4022 -0.0556 -0.1400
 3357SOL    HW118650   1.500   5.846   0.939  1.9379  1.1507 -0.7310
 3357SOL    HW218651   1.361   5.884   0.863  0.0188 -1.8969  1.1397
 3358SOL     OW18652   3.609   7.120   2.226 -0.2565  0.3294  0.4593
 3358SOL    HW118653   3.644   7.140   2.134  0.9296 -1.2085  0.5636
 3358SOL    HW218654   3.644   7.189   2.290  0.1640  0.5222  0.0303
 3359SOL     OW18655   0.701   2.221   0.380  0.2562 -0.0716  0.1584
 3359SOL    HW118656   0.789   2.197   0.341  0.1241 -0.3645  0.0405
 3359SOL    HW218657   0.675   2.313   0.350 -0.6657 -0.9612 -1.9032
 3360SOL     OW18658   8.087   9.843   1.228  0.2365  0.3729 -0.3513
 3360SOL    HW118659   8.145   9.924   1.233  0.3281  0.2744  0.2437
 3360SOL    HW218660   8.012   9.851   1.294  0.0639  0.1211 -0.5153
 3361SOL     OW18661   7.321   8.530   3.252  0.1203 -0.1285 -0.2241
 3361SOL    HW118662   7.360   8.622   3.260  0.2572 -0.1337 -0.7988
 3361SOL    HW218663   7.374   8.467   3.309  0.4570  0.0206 -0.3668
 3362SOL     OW18664   9.457   4.438   0.506  0.0033  0.3908 -0.5264
 3362SOL    HW118665   9.365   4.441   0.544 -0.0505  1.0960 -0.6963
 3362SOL    HW218666   9.457   4.478   0.414  0.8337  2.1705  0.2324
 3363SOL     OW18667   8.310   3.465   1.763 -0.0259 -0.0638 -0.2648
 3363SOL    HW118668   8.274   3.413   1.686 -0.0434  0.0035 -0.3014
 3363SOL    HW218669   8.251   3.544   1.780  0.1315  0.0726 -0.3538
 3366SOL     OW18670   2.958   0.252   1.134  0.2006  0.2642  0.5915
 3366SOL    HW118671   2.955   0.235   1.035  1.5460  0.4750  0.5045
 3366SOL    HW218672   2.871   0.224   1.175 -0.8468  1.3510 -0.8344
 3367SOL     OW18673   3.601   9.332   0.526 -0.1209 -0.1251 -0.5430
 3367SOL    HW118674   3.616   9.259   0.460 -1.1664  0.1709 -1.1241
 3367SOL    HW218675   3.565   9.413   0.479 -1.3533 -0.0775  0.4567
 3368SOL     OW18676   4.750   9.851   2.578 -0.3480  0.4170 -0.3627
 3368SOL    HW118677   4.782   9.853   2.673 -1.3842  0.1885 -0.0019
 3368SOL    HW218678   4.721   9.759   2.554 -0.0404  0.4619 -0.9263
 3369SOL     OW18679   8.450   8.547   3.607 -0.2849 -0.9391  0.1727
 3369SOL    HW118680   8.410   8.586   3.690 -1.2409  1.3796 -1.3228
 3369SOL    HW218681   8.546   8.575   3.600 -0.1462 -1.3029  0.5908
 3370SOL     OW18682   0.145   7.342   1.033  0.4761  0.7367 -0.3603
 3370SOL    HW118683   0.106   7.417   1.086 -0.6859  0.3813 -0.7026
 3370SOL    HW218684   0.137   7.257   1.086 -0.9449  0.3282 -1.1892
 3371SOL     OW18685   8.481   7.607   3.489  0.0586 -0.4287  0.2926
 3371SOL    HW118686   8.456   7.512   3.505 -1.2173 -0.2012 -0.2482
 3371SOL    HW218687   8.436   7.665   3.557 -1.5573  0.0627 -1.1472
 3372SOL     OW18688   1.911   5.193   1.448 -0.2125  0.0439 -0.1057
 3372SOL    HW118689   1.971   5.200   1.527 -0.2262 -0.1397 -0.0779
 3372SOL    HW218690   1.921   5.274   1.390 -0.8798  0.6117  0.5588
 3374SOL     OW18691   3.263   0.751   2.262 -0.2662  0.0932 -0.3458
 3374SOL    HW118692   3.238   0.836   2.215 -0.2174 -0.0213 -0.5771
 3374SOL    HW218693   3.216   0.674   2.219 -0.8399  0.0799  0.2828
 3375SOL     OW18694   0.760   2.122   0.681 -0.2129 -0.3890 -0.1881
 3375SOL    HW118695   0.681   2.178   0.656 -0.3313 -0.5443 -0.1597
 3375SOL    HW218696   0.734   2.026   0.680  0.3986 -0.5490 -1.7565
 3376SOL     OW18697   9.173   9.144   0.607 -0.1827  0.6978  0.2648
 3376SOL    HW118698   9.249   9.177   0.663 -0.5794  0.5741  0.8859
 3376SOL    HW218699   9.149   9.213   0.539 -0.8344  1.5838  1.3807
 3378SOL     OW18700   6.456   9.757   2.953  0.0649  0.3803 -0.1889
 3378SOL    HW118701   6.442   9.658   2.958  0.3996  0.3556  0.3038
 3378SOL    HW218702   6.480   9.782   2.860 -1.2398  0.1598 -0.5947
 3379SOL     OW18703   2.361   0.582   1.638  0.1150 -0.1536  0.4186
 3379SOL    HW118704   2.308   0.544   1.714 -0.9892  0.9369  0.2034
 3379SOL    HW218705   2.335   0.537   1.553  0.7435 -0.7800  0.5502
 3382SOL     OW18706   1.141   5.169   3.176  0.3624  0.3148  0.3660
 3382SOL    HW118707   1.227   5.208   3.209  0.7310  0.8090 -1.1274
 3382SOL    HW218708   1.089   5.132   3.253  0.7901  2.2132  1.6003
 3383SOL     OW18709   1.657   4.847   1.806  0.0870  0.0974 -0.0078
 3383SOL    HW118710   1.601   4.768   1.782 -1.2540  1.0886 -0.1967
 3383SOL    HW218711   1.714   4.825   1.885 -0.5311 -0.9278  0.1601
 3384SOL     OW18712   8.924   9.211   2.284  0.5001  0.6028  0.2996
 3384SOL    HW118713   8.969   9.129   2.321  0.7732  0.5712 -0.1022
 3384SOL    HW218714   8.828   9.213   2.314  0.7524  0.6480  1.1246
 3386SOL     OW18715   3.886   8.670   0.722  0.2651  0.2884 -0.7712
 3386SOL    HW118716   3.880   8.571   0.714 -0.0490  0.3862 -1.8192
 3386SOL    HW218717   3.918   8.695   0.814 -1.7427 -0.7123  0.2122
 3387SOL     OW18718   7.815   2.129   0.044  0.4713  0.7545  0.3403
 3387SOL    HW118719   7.725   2.094   0.070  0.4694  1.3334  1.1452
 3387SOL    HW218720   7.819   2.142  -0.055  0.1716 -0.6693  0.1262
 3388SOL     OW18721   4.317   1.156   0.884 -0.2611 -0.0031  0.1183
 3388SOL    HW118722   4.270   1.095   0.948  1.8861 -0.9806  0.8445
 3388SOL    HW218723   4.346   1.104   0.804 -0.2609  0.5389 -0.2351
 3389SOL     OW18724   2.250   3.059   3.514  0.5712  0.4783  0.5280
 3389SOL    HW118725   2.330   3.055   3.574  1.2045  0.6056 -0.3171
 3389SOL    HW218726   2.229   2.967   3.480 -0.1394  0.3087  1.3962
 3391SOL     OW18727   3.278   9.079   3.303  0.5038 -0.1128  0.3970
 3391SOL    HW118728   3.226   9.110   3.382  0.6735  2.2935 -0.3869
 3391SOL    HW218729   3.278   8.980   3.299 -0.3869 -0.2226  2.8214
 3393SOL     OW18730   0.523   4.417   0.684 -0.5496 -0.1471  0.1292
 3393SOL    HW118731   0.521   4.318   0.672 -1.8429 -0.3165  1.5924
 3393SOL    HW218732   0.542   4.438   0.780  1.1087  1.0524 -0.4410
 3394SOL     OW18733   2.302   9.951   2.000  0.2866  0.2593 -0.1330
 3394SOL    HW118734   2.363   9.964   2.077 -0.0596  0.2259  0.1488
 3394SOL    HW218735   2.313   9.858   1.964 -1.4899 -0.6382  1.5837
 3395SOL     OW18736   7.194   0.259   1.187 -0.2458  0.2874  0.0444
 3395SOL    HW118737   7.286   0.273   1.221 -0.1953 -2.4480  1.1901
 3395SOL    HW218738   7.191   0.278   1.089  2.0755 -1.7191 -0.4413
 3396SOL     OW18739   1.007   3.264   1.619  0.4813 -0.1350  0.5271
 3396SOL    HW118740   0.928   3.289   1.674  0.5517  1.6762 -0.1511
 3396SOL    HW218741   0.981   3.195   1.551 -0.4153  0.1872  0.5461
 3397SOL     OW18742   8.462   9.098   3.151  0.2966 -0.3017  1.2214
 3397SOL    HW118743   8.504   9.139   3.232  0.1214  1.5438  0.3957
 3397SOL    HW218744   8.363   9.093   3.164  0.2710 -0.0310  1.1274
 3398SOL     OW18745   9.961   9.197   0.522 -0.0318 -0.2469  0.2288
 3398SOL    HW118746  10.027   9.163   0.456  1.0671  1.6507  0.3117
 3398SOL    HW218747   9.971   9.146   0.608  0.7401 -0.5569 -0.0366
 3399SOL     OW18748   2.524   7.142   3.741 -0.3341 -0.6046 -0.3912
 3399SOL    HW118749   2.446   7.080   3.731  0.9041 -2.3843  0.6941
 3399SOL    HW218750   2.563   7.131   3.833  2.1831 -0.9432 -1.4747
 3400SOL     OW18751   6.333   0.306   3.284  0.3190 -0.6255 -0.5167
 3400SOL    HW118752   6.341   0.370   3.360 -0.1091 -0.8449 -0.2811
 3400SOL    HW218753   6.285   0.349   3.208  0.9725 -0.3224 -0.7605
 3401SOL     OW18754   9.765   9.960   1.972 -0.7537 -0.2242 -0.0115
 3401SOL    HW118755   9.768  10.060   1.982 -1.5717 -0.2785  0.8905
 3401SOL    HW218756   9.719   9.920   2.052  1.9970 -1.5313  0.9816
 3403SOL     OW18757   0.107   9.544   1.569  0.1226 -0.2820 -0.4149
 3403SOL    HW118758   0.034   9.477   1.576  0.8816 -1.2709 -1.5841
 3403SOL    HW218759   0.127   9.561   1.472  0.9606  0.4906 -0.1140
 3405SOL     OW18760   7.558   7.213   2.662 -0.0392  0.2338 -0.3718
 3405SOL    HW118761   7.561   7.116   2.686  0.5637 -0.0947 -1.7226
 3405SOL    HW218762   7.596   7.267   2.737 -1.1124 -0.5107  0.7128
 3407SOL     OW18763   1.426   1.546   1.084  0.0052 -0.7349 -0.2587
 3407SOL    HW118764   1.453   1.571   1.177 -2.3670  0.5116  0.1323
 3407SOL    HW218765   1.445   1.623   1.023  0.5456 -1.1494 -0.6145
 3408SOL     OW18766   2.520   3.996   1.842  0.2873  0.3340 -0.1360
 3408SOL    HW118767   2.591   4.012   1.774 -0.8368 -0.1832 -1.4511
 3408SOL    HW218768   2.550   3.924   1.905  0.1410 -1.3510 -1.9161
 3410SOL     OW18769   9.911   9.840   1.033  0.3147 -0.3876 -0.0658
 3410SOL    HW118770   9.920   9.765   0.967 -0.9537 -0.1106 -0.5682
 3410SOL    HW218771   9.920   9.804   1.126  1.5780 -0.8660 -0.3734
 3411SOL     OW18772   3.143   3.515   2.631 -0.3610  0.1958 -0.4423
 3411SOL    HW118773   3.152   3.472   2.541 -2.1476  1.2220 -1.1461
 3411SOL    HW218774   3.103   3.606   2.620  0.0843  0.6170  1.3334
 3412SOL     OW18775   1.987   6.294   2.870  0.2728  0.5271 -0.1767
 3412SOL    HW118776   2.036   6.370   2.914 -0.5000  0.9143  0.0221
 3412SOL    HW218777   1.889   6.312   2.873  0.0103 -1.0388  0.8964
 3413SOL     OW18778   4.107   8.555   1.357 -0.3141  0.3270  0.2418
 3413SOL    HW118779   4.146   8.644   1.332  1.7497 -1.0489 -1.5869
 3413SOL    HW218780   4.017   8.545   1.313 -0.7336  1.6652  0.7818
 3415SOL     OW18781   1.545   3.366   2.807 -0.2166  0.7147  0.3377
 3415SOL    HW118782   1.513   3.457   2.836  0.4897  1.5932 -1.5364
 3415SOL    HW218783   1.636   3.375   2.765  0.0140 -0.9242  0.4744
 3416SOL     OW18784   4.329   4.104   0.661  0.0037  0.2501  0.6489
 3416SOL    HW118785   4.331   4.009   0.694  1.0075  0.3893  1.0319
 3416SOL    HW218786   4.355   4.106   0.565 -1.1951  0.0170  0.3163
 3418SOL     OW18787   6.687   9.600   1.193 -0.3602 -0.3693 -0.1614
 3418SOL    HW118788   6.676   9.607   1.292 -2.0435  0.2939 -0.3822
 3418SOL    HW218789   6.654   9.510   1.162 -1.5178  0.1092 -0.3346
 3419SOL     OW18790   8.180   3.450   2.370 -0.2719  0.1482  0.3277
 3419SOL    HW118791   8.113   3.519   2.393  1.4260  1.0118  2.9059
 3419SOL    HW218792   8.143   3.359   2.388 -0.8490  0.6107  1.4878
 3420SOL     OW18793   9.766   3.538   1.365  0.2374  0.2729 -0.1081
 3420SOL    HW118794   9.861   3.549   1.395  0.8370 -0.9647 -1.4744
 3420SOL    HW218795   9.742   3.441   1.365 -0.1284  0.3237 -2.3360
 3422SOL     OW18796   2.741   1.453   0.776 -0.2899 -0.3011  0.0770
 3422SOL    HW118797   2.651   1.470   0.735 -0.7694  1.0805  1.6788
 3422SOL    HW218798   2.804   1.525   0.749 -0.7949  0.9993  2.2999
 3423SOL     OW18799   6.168   8.095   1.837 -0.1440  0.8052  0.1674
 3423SOL    HW118800   6.237   8.163   1.809 -0.9341  0.8974 -1.5547
 3423SOL    HW218801   6.198   8.052   1.922  1.6335  1.4552 -0.1044
 3424SOL     OW18802   8.789   5.714   2.265  0.1583  0.1911  0.7673
 3424SOL    HW118803   8.739   5.708   2.179 -0.3977  0.4575  1.0709
 3424SOL    HW218804   8.860   5.784   2.258  0.4014 -0.0906  0.3834
 3426SOL     OW18805   9.169   1.378   3.145  0.3388 -0.4762 -0.2776
 3426SOL    HW118806   9.154   1.473   3.169  0.0317 -0.5437 -0.2101
 3426SOL    HW218807   9.191   1.325   3.227 -0.3896 -0.6422 -0.1901
 3428SOL     OW18808   8.449   3.445   0.466  0.0417 -0.4875 -0.7301
 3428SOL    HW118809   8.397   3.360   0.462 -0.2978 -0.2363 -1.9847
 3428SOL    HW218810   8.509   3.444   0.546 -0.6362 -1.5061 -0.2179
 3429SOL     OW18811   0.726   1.205   3.270  0.0170 -0.1941 -0.7278
 3429SOL    HW118812   0.759   1.178   3.179  0.9684 -0.1855 -0.3911
 3429SOL    HW218813   0.784   1.277   3.307 -0.8901  0.4097 -0.4686
 3430SOL     OW18814   1.569   3.971   2.011 -0.5676  0.0628 -0.0562
 3430SOL    HW118815   1.640   3.965   2.081 -0.4578  0.8444 -0.1049
 3430SOL    HW218816   1.607   3.945   1.923 -1.0749 -2.4134  0.4131
 3431SOL     OW18817   4.305   0.660   3.331  0.0521  0.3856 -0.6742
 3431SOL    HW118818   4.253   0.579   3.359 -0.2686  1.1793  1.0144
 3431SOL    HW218819   4.247   0.720   3.277  0.4489 -0.7528 -2.4409
 3432SOL     OW18820   3.433   7.711   0.841  0.0766 -0.0247  0.3818
 3432SOL    HW118821   3.389   7.657   0.913  1.1774 -0.2922  0.8729
 3432SOL    HW218822   3.460   7.652   0.766 -1.1014  0.2617 -0.2733
 3433SOL     OW18823   4.104   3.149   0.564 -0.0021 -0.2548 -0.1006
 3433SOL    HW118824   4.185   3.117   0.514 -0.3467 -1.6331  0.2118
 3433SOL    HW218825   4.133   3.208   0.640  0.8442 -2.2085  1.1338
 3434SOL     OW18826   0.077   4.577   2.875 -0.0011 -0.5151 -0.5091
 3434SOL    HW118827   0.147   4.523   2.827  0.2328  1.0807 -2.0028
 3434SOL    HW218828   0.065   4.665   2.829 -2.6040 -0.5296  0.0633
 3435SOL     OW18829   5.535   9.532   1.817  0.3182  0.5071  0.3887
 3435SOL    HW118830   5.603   9.603   1.798  1.4696 -0.2331  1.6098
 3435SOL    HW218831   5.465   9.569   1.878  1.3092  0.4037  1.6095
 3436SOL     OW18832   0.428   4.675   2.018 -0.2724 -0.3806  0.4156
 3436SOL    HW118833   0.456   4.672   2.114 -0.1429  0.5503  0.4068
 3436SOL    HW218834   0.480   4.746   1.970 -2.6083  1.3576  0.3799
 3437SOL     OW18835   1.555   7.239   1.560 -0.1710  0.3022 -0.3270
 3437SOL    HW118836   1.492   7.232   1.482  1.0114 -1.7238 -1.1161
 3437SOL    HW218837   1.533   7.169   1.628 -0.8602  1.7234  0.9527
 3438SOL     OW18838   0.538   3.216   1.474  0.4333 -0.3827  0.0846
 3438SOL    HW118839   0.588   3.151   1.531 -0.4081 -0.2564  0.9862
 3438SOL    HW218840   0.551   3.308   1.510 -0.2686 -0.3253  0.2084
 3441SOL     OW18841   9.525   4.172   0.484 -0.1344  0.3125 -0.3944
 3441SOL    HW118842   9.443   4.127   0.447  0.1901  0.5727 -1.4336
 3441SOL    HW218843   9.513   4.271   0.482 -0.1306  0.3328  0.2555
 3442SOL     OW18844   2.221   0.154   2.216 -0.6534 -0.1913 -0.0080
 3442SOL    HW118845   2.285   0.203   2.157 -1.3036 -0.1334 -0.6651
 3442SOL    HW218846   2.129   0.161   2.179 -0.9713 -0.6880  0.6769
 3443SOL     OW18847   8.618   3.551   1.359  0.0592 -0.5627 -0.1411
 3443SOL    HW118848   8.682   3.625   1.337  0.7000 -0.8054  0.8956
 3443SOL    HW218849   8.525   3.586   1.356  0.3666  0.3246  0.5045
 3444SOL     OW18850   8.588   9.586   3.500 -0.6092  0.0315  0.1567
 3444SOL    HW118851   8.601   9.655   3.429  3.6070 -0.7352  0.0339
 3444SOL    HW218852   8.571   9.497   3.457  0.7794 -0.2171  0.0875
 3446SOL     OW18853   1.393   9.069   3.515 -0.3680 -0.3518 -0.5734
 3446SOL    HW118854   1.429   9.089   3.424  4.5700  0.0865  1.3211
 3446SOL    HW218855   1.346   9.150   3.551 -1.4721 -0.2072 -2.3299
 3447SOL     OW18856   3.814   5.230   1.734 -0.3043 -0.0336  0.3395
 3447SOL    HW118857   3.781   5.181   1.654  1.8100  0.8609 -1.1596
 3447SOL    HW218858   3.914   5.234   1.731 -0.3469  2.9356  1.2340
 3448SOL     OW18859   3.170   2.094   1.805 -0.1002 -0.1662  0.0338
 3448SOL    HW118860   3.250   2.077   1.862 -1.1417 -1.3661  1.1645
 3448SOL    HW218861   3.186   2.175   1.748  2.4544 -1.1700 -0.7539
 3449SOL     OW18862   4.509   8.281   3.593 -0.2681 -0.2339 -0.3153
 3449SOL    HW118863   4.602   8.281   3.555  0.8554 -3.2068  2.1846
 3449SOL    HW218864   4.514   8.299   3.692 -2.2408 -1.3563  0.0054
 3450SOL     OW18865   9.790   8.174   0.815  0.1159  0.0083  0.4497
 3450SOL    HW118866   9.855   8.126   0.873 -1.0444  1.0976  2.6980
 3450SOL    HW218867   9.710   8.200   0.869 -2.1559 -1.1799 -2.1940
 3451SOL     OW18868   8.628   1.338   2.333 -0.2284  0.0136 -0.0708
 3451SOL    HW118869   8.634   1.389   2.247 -1.9817  1.4389  0.5999
 3451SOL    HW218870   8.533   1.309   2.347  0.1491 -0.6470  1.1310
 3452SOL     OW18871   1.227   2.959   2.698 -0.1690  0.5684  0.7395
 3452SOL    HW118872   1.212   2.912   2.611  1.4149  2.4674 -0.6083
 3452SOL    HW218873   1.300   2.912   2.749 -1.9151 -1.2542  1.6364
 3454SOL     OW18874   3.310   4.402   2.394  1.0985 -0.6123  0.6287
 3454SOL    HW118875   3.262   4.413   2.480  0.1598 -1.5124  0.2403
 3454SOL    HW218876   3.274   4.467   2.327  0.7892 -0.9161  0.4962
 3457SOL     OW18877   1.107   2.706   0.384 -0.3263 -0.3947  0.2769
 3457SOL    HW118878   1.088   2.781   0.448 -0.3749 -0.1061 -0.0751
 3457SOL    HW218879   1.204   2.683   0.389 -0.2019  0.0545 -0.0029
 3458SOL     OW18880   4.969   0.288   1.760  0.3081 -0.1432  0.0143
 3458SOL    HW118881   5.056   0.301   1.713  0.7151 -2.1506  0.1732
 3458SOL    HW218882   4.898   0.341   1.713  1.2488  0.1116 -1.1615
 3459SOL     OW18883   3.232   5.096   2.387 -0.1031  0.6446  0.4773
 3459SOL    HW118884   3.191   5.145   2.464  0.3943  1.8318 -0.0088
 3459SOL    HW218885   3.300   5.154   2.343 -1.9732  0.8759 -2.2607
 3460SOL     OW18886   8.711   4.517   3.063  0.2249  0.4627 -0.1355
 3460SOL    HW118887   8.695   4.423   3.096  1.2656  0.2710 -0.1514
 3460SOL    HW218888   8.767   4.566   3.130  0.0908  0.9183 -0.3595
 3461SOL     OW18889   9.027   9.349   3.545  0.6079 -0.2031 -0.2545
 3461SOL    HW118890   8.983   9.380   3.461 -0.1428 -0.7005 -0.0561
 3461SOL    HW218891   8.961   9.295   3.598  1.9559 -2.3790 -0.7380
 3462SOL     OW18892   8.097   2.375   0.842 -0.3524 -0.6123  0.3992
 3462SOL    HW118893   8.147   2.322   0.773  0.0397 -0.0104  0.2157
 3462SOL    HW218894   8.005   2.393   0.809 -0.4778 -1.1544  0.4485
 3463SOL     OW18895   2.017   1.899   0.552  0.0661 -0.2673  0.2523
 3463SOL    HW118896   1.980   1.991   0.566 -0.0317 -0.1169 -0.8838
 3463SOL    HW218897   1.941   1.833   0.544  0.1437 -0.4914  1.3461
 3464SOL     OW18898   2.498   4.834   2.612  0.4113 -0.1223 -0.6031
 3464SOL    HW118899   2.427   4.821   2.543 -0.5457  4.5767 -0.6853
 3464SOL    HW218900   2.465   4.801   2.701 -0.4050 -1.3194 -1.3447
 3466SOL     OW18901   8.490   4.160   0.536  0.1601 -0.0737  0.2841
 3466SOL    HW118902   8.584   4.166   0.504 -0.2386 -0.1461 -0.9213
 3466SOL    HW218903   8.442   4.087   0.488 -0.9654  1.0321 -0.3217
 3467SOL     OW18904   0.116   2.798   0.584 -0.8934 -0.7377  0.2570
 3467SOL    HW118905   0.062   2.848   0.517 -1.7865  0.1750  1.6261
 3467SOL    HW218906   0.212   2.825   0.578 -0.9858 -0.5954 -0.5811
 3469SOL     OW18907   0.919   8.747   1.188 -0.5669  0.3865 -0.5710
 3469SOL    HW118908   0.925   8.841   1.221 -1.5326  1.2347 -2.7254
 3469SOL    HW218909   0.943   8.744   1.091 -0.9244 -1.5203 -0.6155
 3471SOL     OW18910   9.857   7.255   1.686  0.4830 -0.1164  0.2329
 3471SOL    HW118911   9.809   7.297   1.764 -2.5391 -0.2614 -1.4901
 3471SOL    HW218912   9.850   7.315   1.606  0.4725 -1.6155 -0.9046
 3473SOL     OW18913   2.544   7.321   2.056  0.2321 -0.0206 -0.0532
 3473SOL    HW118914   2.498   7.409   2.063 -1.0297 -0.5484 -1.4408
 3473SOL    HW218915   2.604   7.322   1.976  1.9670  0.3499  1.2274
 3474SOL     OW18916   1.100   5.839   0.128 -0.0941 -0.3215  0.1065
 3474SOL    HW118917   1.157   5.829   0.209 -0.0222 -0.1161  0.0821
 3474SOL    HW218918   1.123   5.924   0.081 -1.3714  0.4467  0.8557
 3475SOL     OW18919   0.130   4.951   0.549 -0.2371  0.4687  0.0873
 3475SOL    HW118920   0.209   4.955   0.611  0.3761  0.1437 -0.6619
 3475SOL    HW218921   0.150   5.003   0.466 -1.4898  1.8593  0.6422
 3476SOL     OW18922   1.880   8.447   3.398  0.0336  0.5649 -0.3917
 3476SOL    HW118923   1.873   8.527   3.457  0.5384  0.8789 -0.7529
 3476SOL    HW218924   1.794   8.434   3.348 -1.6176 -1.5839  2.7780
 3477SOL     OW18925   5.665   0.664   3.364 -0.2604  0.3064  0.1222
 3477SOL    HW118926   5.617   0.607   3.298  1.5772  0.4568 -1.4096
 3477SOL    HW218927   5.698   0.608   3.440 -1.4988 -0.0507  0.3969
 3478SOL     OW18928   0.148   1.328   1.680  0.0612 -0.4284  0.3917
 3478SOL    HW118929   0.218   1.400   1.685  1.9937 -2.1606 -0.9787
 3478SOL    HW218930   0.168   1.256   1.745 -0.9343 -0.5434  0.5828
 3479SOL     OW18931   1.470   3.641   2.931  0.1318  0.5154  0.6886
 3479SOL    HW118932   1.382   3.671   2.893 -0.7660 -0.7371  1.7015
 3479SOL    HW218933   1.490   3.692   3.014 -0.4549 -0.3062  1.3515
 3480SOL     OW18934   8.981   8.185   3.327 -0.0931 -0.0379  0.4722
 3480SOL    HW118935   9.035   8.134   3.394 -0.2233 -0.5215  0.2089
 3480SOL    HW218936   8.889   8.146   3.322 -0.4444  0.7255  0.8528
 3481SOL     OW18937   7.511   9.372   2.734 -0.1420 -0.1079  0.2229
 3481SOL    HW118938   7.576   9.351   2.807  1.4530 -0.0825 -1.1413
 3481SOL    HW218939   7.423   9.398   2.773  1.1793  1.5500  2.1599
 3482SOL     OW18940   1.900   0.905   2.099 -0.3649 -0.3048 -0.5937
 3482SOL    HW118941   1.932   0.811   2.111  1.2246  0.2347 -0.4467
 3482SOL    HW218942   1.800   0.906   2.089 -0.4588 -1.9323  0.0988
 3483SOL     OW18943   4.816   9.051   1.876  0.1948  0.1195 -0.2025
 3483SOL    HW118944   4.853   9.019   1.963  0.0144  0.9755  0.1928
 3483SOL    HW218945   4.718   9.032   1.872  0.0965  0.5970  0.0134
 3485SOL     OW18946   2.304   8.958   2.496  0.8864  0.3402 -0.2675
 3485SOL    HW118947   2.327   8.915   2.583 -0.6432  2.0467  1.0059
 3485SOL    HW218948   2.249   8.894   2.442  0.1571  0.0060  0.8527
 3486SOL     OW18949   5.270   7.517   2.939  0.0608  0.5311  0.2483
 3486SOL    HW118950   5.199   7.559   2.994 -0.5993 -0.5797  0.2641
 3486SOL    HW218951   5.341   7.584   2.917 -0.1448  1.2073  1.6550
 3487SOL     OW18952   0.187   2.187   3.227  0.8505  0.0599  0.6651
 3487SOL    HW118953   0.225   2.240   3.151  0.5691 -0.9871 -0.2128
 3487SOL    HW218954   0.244   2.107   3.245  0.0332 -0.5672  0.4896
 3488SOL     OW18955   3.428   4.008   2.949 -0.0024 -0.0184 -0.1048
 3488SOL    HW118956   3.454   3.958   3.031  1.2129  1.9717  0.7648
 3488SOL    HW218957   3.441   4.106   2.964  2.1580  0.2738 -3.3203
 3490SOL     OW18958   2.943   5.599   1.074  0.0488  0.1529  0.1530
 3490SOL    HW118959   2.896   5.526   1.124 -0.2418  0.3242  0.1364
 3490SOL    HW218960   2.885   5.681   1.074  0.2140  0.2681 -0.1406
 3491SOL     OW18961   1.364   2.633   0.339 -0.7034  0.4842  0.0487
 3491SOL    HW118962   1.324   2.542   0.350  1.8767 -0.7567 -0.4485
 3491SOL    HW218963   1.393   2.668   0.429 -1.7336  0.8522  0.2446
 3492SOL     OW18964   3.045   8.969   1.825  0.0188  0.1578 -0.3890
 3492SOL    HW118965   3.036   8.992   1.921 -0.4747  0.3227 -0.4736
 3492SOL    HW218966   2.956   8.978   1.780  0.6861  2.2921 -1.3516
 3493SOL     OW18967   3.296   6.225   2.235  1.0599 -0.0280  0.0009
 3493SOL    HW118968   3.305   6.324   2.231  0.7270 -0.0017 -0.0343
 3493SOL    HW218969   3.233   6.193   2.165 -1.1551  0.0258  1.8993
 3494SOL     OW18970   2.855   4.211   3.371 -0.7380  0.4716 -0.1095
 3494SOL    HW118971   2.935   4.262   3.339  0.1604 -1.0488 -0.3466
 3494SOL    HW218972   2.885   4.134   3.428 -2.0445 -0.0003 -0.0403
 3495SOL     OW18973   5.085   8.215   3.311  0.7455 -0.2382  0.1024
 3495SOL    HW118974   5.067   8.288   3.245  1.2137 -0.1979  0.0183
 3495SOL    HW218975   4.998   8.175   3.341  0.5867 -1.1414 -1.5330
 3496SOL     OW18976   2.391   0.334   0.496 -0.2031 -0.1105 -0.4173
 3496SOL    HW118977   2.337   0.341   0.580 -0.9417  1.9959 -1.0282
 3496SOL    HW218978   2.417   0.426   0.466 -0.1789 -0.8235 -2.6595
 3497SOL     OW18979   1.005   3.696   3.073  0.0768 -0.0505  0.0381
 3497SOL    HW118980   0.999   3.731   2.979 -0.8613 -0.1686  0.0463
 3497SOL    HW218981   1.093   3.722   3.112 -0.1125  1.2861 -0.3736
 3498SOL     OW18982   1.454   3.278   2.367 -0.2952 -0.9744  0.4073
 3498SOL    HW118983   1.545   3.307   2.396 -0.7624  3.4850 -2.1666
 3498SOL    HW218984   1.385   3.324   2.422 -1.0484 -2.0148  0.3515
 3499SOL     OW18985   4.761   8.071   0.219  0.8539 -0.1271 -0.0480
 3499SOL    HW118986   4.693   8.073   0.292  1.5118  1.0072  0.5463
 3499SOL    HW218987   4.718   8.038   0.135 -0.8921  2.2304 -0.1341
 3500SOL     OW18988   8.491   6.051   3.542 -0.2549  0.1340 -0.3548
 3500SOL    HW118989   8.486   6.090   3.634  0.0623  0.5147 -0.5014
 3500SOL    HW218990   8.417   6.089   3.486  0.0917  0.5716 -0.5156
 3501SOL     OW18991   9.304   9.308   2.257  0.0369  0.0375  0.1428
 3501SOL    HW118992   9.314   9.225   2.203  0.0633 -0.8758  1.5260
 3501SOL    HW218993   9.215   9.307   2.303 -0.8216  1.7334 -1.4302
 3503SOL     OW18994   8.154   4.211   0.692 -0.4736 -0.0980 -0.2092
 3503SOL    HW118995   8.215   4.132   0.684  0.4198  0.5598  0.0263
 3503SOL    HW218996   8.085   4.208   0.620  1.1471  0.2748 -1.7952
 3504SOL     OW18997   7.900   2.623   0.412 -0.0687 -0.0630 -0.2636
 3504SOL    HW118998   7.831   2.578   0.469 -0.7532 -0.9079 -1.7141
 3504SOL    HW218999   7.880   2.605   0.316  3.1120 -1.6569 -0.6712
 3505SOL     OW19000   5.679   8.081   2.915 -0.4887 -0.9876  0.2828
 3505SOL    HW119001   5.779   8.086   2.914 -0.5658  1.8561  0.2865
 3505SOL    HW219002   5.649   8.025   2.992  1.1101 -1.6841  0.4148
 3506SOL     OW19003   8.532   9.127   3.395  0.4190  0.2804  0.5915
 3506SOL    HW119004   8.614   9.075   3.421 -0.5633 -1.4458  0.3689
 3506SOL    HW219005   8.469   9.129   3.473 -0.8497 -1.5233 -0.3498
 3508SOL     OW19006   4.205   0.065   0.268 -0.0851 -0.6484  0.4881
 3508SOL    HW119007   4.123   0.057   0.324 -0.4910 -0.3227 -0.0592
 3508SOL    HW219008   4.180   0.071   0.171  0.4656  1.2368  0.4373
 3513SOL     OW19009   2.674   4.094   2.437 -0.3841  0.1407  0.1199
 3513SOL    HW119010   2.700   4.145   2.519  0.5237 -0.1568  0.0213
 3513SOL    HW219011   2.692   3.996   2.453  0.9788  0.2147 -0.8812
 3514SOL     OW19012   6.739   9.582   3.038  0.4702  0.2901  0.1937
 3514SOL    HW119013   6.662   9.643   3.053 -0.2760 -0.3164 -0.9924
 3514SOL    HW219014   6.737   9.549   2.943  2.9153  1.2490 -0.2182
 3516SOL     OW19015   2.690   1.101   0.394 -0.7747 -0.4038  0.5206
 3516SOL    HW119016   2.657   1.101   0.488 -1.0812 -0.5145  0.4152
 3516SOL    HW219017   2.676   1.010   0.353  2.6376 -1.4235  1.4924
 3518SOL     OW19018   0.037   1.966   1.442 -0.3435 -0.1860 -0.2606
 3518SOL    HW119019   0.096   1.956   1.522  0.8359  1.6583 -0.8494
 3518SOL    HW219020   0.081   2.028   1.377 -1.6621 -1.0270 -1.9789
 3519SOL     OW19021   1.446   6.108   1.138  0.0414 -0.3693 -0.0617
 3519SOL    HW119022   1.443   6.207   1.123 -0.0213 -0.6260 -1.8599
 3519SOL    HW219023   1.356   6.076   1.167  0.6277  0.4128  2.7275
 3520SOL     OW19024   7.701   8.727   3.513 -0.0864  0.2374  0.3104
 3520SOL    HW119025   7.747   8.815   3.501 -0.4072  0.2628 -0.7405
 3520SOL    HW219026   7.619   8.739   3.568 -0.5768  0.7363 -0.5241
 3521SOL     OW19027   1.498   1.957   0.238  0.5922  0.0861 -0.4816
 3521SOL    HW119028   1.522   1.915   0.150 -0.6172  1.0029 -1.2770
 3521SOL    HW219029   1.440   2.037   0.221  1.3738  1.0174  1.0864
 3524SOL     OW19030   6.119   9.513   3.004  0.0545 -0.1190  0.9988
 3524SOL    HW119031   6.145   9.589   2.944 -1.2343 -0.4712 -0.0380
 3524SOL    HW219032   6.200   9.481   3.053  0.9804  0.7152  0.0705
 3525SOL     OW19033   9.769   0.518   1.774 -0.1787  0.2199 -0.2705
 3525SOL    HW119034   9.675   0.508   1.742 -0.0716  0.6908 -0.7395
 3525SOL    HW219035   9.815   0.590   1.721  0.2508  0.4300  0.3782
 3527SOL     OW19036   9.573   4.997   1.364 -0.2917 -0.2548  0.0442
 3527SOL    HW119037   9.602   4.945   1.445  1.0077 -0.3565 -0.4764
 3527SOL    HW219038   9.475   4.985   1.350 -0.3057 -1.2128  0.9059
 3528SOL     OW19039   2.698   8.744   1.235 -0.1111 -0.5335 -0.0696
 3528SOL    HW119040   2.614   8.695   1.260  0.5155 -3.2950 -2.9536
 3528SOL    HW219041   2.680   8.801   1.154  0.1034  1.1621  1.0580
 3530SOL     OW19042   9.816   5.855   3.557  0.2830 -0.2210 -0.0785
 3530SOL    HW119043   9.862   5.803   3.629 -0.7133 -1.9175 -0.6183
 3530SOL    HW219044   9.879   5.922   3.518  1.9433 -1.7326 -0.0606
 3531SOL     OW19045   3.618   2.984   3.121 -0.1657  0.4182 -0.1835
 3531SOL    HW119046   3.628   2.943   3.212 -2.9352 -1.9591 -0.8908
 3531SOL    HW219047   3.561   3.067   3.129  0.9159  1.1070  0.4672
 3532SOL     OW19048   0.917   3.120   2.420  0.7269  0.6065 -0.4107
 3532SOL    HW119049   0.831   3.082   2.384  0.8216  0.0241 -0.0216
 3532SOL    HW219050   0.942   3.200   2.366 -0.2450  0.9906 -0.3126
 3533SOL     OW19051   0.743   0.796   1.439 -0.0177  0.1557  0.4058
 3533SOL    HW119052   0.822   0.735   1.449  0.3344  0.7468  1.3368
 3533SOL    HW219053   0.666   0.760   1.491 -0.1649 -0.0954  0.0121
 3534SOL     OW19054   4.552   8.991   1.733  0.7621 -0.0857 -0.1402
 3534SOL    HW119055   4.538   8.910   1.677  0.8243 -1.3009  1.5495
 3534SOL    HW219056   4.468   9.046   1.734  0.0558 -1.1567  0.3023
 3535SOL     OW19057   9.518   3.304   0.941 -0.4706 -0.2668 -0.2627
 3535SOL    HW119058   9.426   3.317   0.975 -1.0138  0.6285 -1.9968
 3535SOL    HW219059   9.541   3.378   0.877  1.5413 -0.3235  0.3529
 3536SOL     OW19060   3.458   6.252   2.501 -0.3965 -0.4374  0.7042
 3536SOL    HW119061   3.395   6.299   2.439 -0.1948 -0.5641  0.4011
 3536SOL    HW219062   3.474   6.308   2.582 -0.8556 -0.3799  0.7581
 3537SOL     OW19063   4.494   8.885   3.483 -0.4754 -0.8946  0.4701
 3537SOL    HW119064   4.430   8.903   3.408  0.0567 -0.3263  0.1436
 3537SOL    HW219065   4.491   8.961   3.548  2.3403  0.8656 -1.3085
 3538SOL     OW19066   1.561   2.589   2.730  0.2932 -0.4525  0.1758
 3538SOL    HW119067   1.511   2.539   2.659  0.8981 -0.1109 -0.5003
 3538SOL    HW219068   1.659   2.579   2.715  0.4229  0.7420  0.1687
 3539SOL     OW19069   1.173   5.333   3.502  0.3093 -0.4472  0.2605
 3539SOL    HW119070   1.077   5.350   3.482  0.1826 -1.4431 -0.0479
 3539SOL    HW219071   1.227   5.415   3.483 -0.7431  0.7563  2.3729
 3540SOL     OW19072   2.505   5.681   2.273 -0.0904 -0.3673 -0.3157
 3540SOL    HW119073   2.538   5.768   2.310  0.1546 -0.1931 -0.9359
 3540SOL    HW219074   2.526   5.607   2.337 -2.0845  0.2985  1.1573
 3541SOL     OW19075   0.919   0.057   1.994 -0.2649 -0.5213 -0.3033
 3541SOL    HW119076   0.850   0.095   1.932  0.6794  0.5327 -0.7179
 3541SOL    HW219077   1.002   0.035   1.942 -0.1488 -1.4304  0.2599
 3542SOL     OW19078   9.263   5.964   2.302  0.4607  0.2860  0.3061
 3542SOL    HW119079   9.278   6.062   2.307  0.1916  0.2740  1.4825
 3542SOL    HW219080   9.243   5.928   2.393 -0.2162 -0.7374 -0.2297
 3543SOL     OW19081   2.649   7.958   1.401  0.1041  0.7546 -0.6987
 3543SOL    HW119082   2.665   7.935   1.304 -0.3888  1.8354 -1.0426
 3543SOL    HW219083   2.662   7.876   1.457 -0.1168 -0.0079 -1.7409
 3544SOL     OW19084   2.408   1.415   1.309  0.0919  0.3734  0.1734
 3544SOL    HW119085   2.326   1.471   1.302  0.1618  0.8595  2.6774
 3544SOL    HW219086   2.489   1.474   1.306  0.4894 -0.2282 -3.8328
 3545SOL     OW19087   8.460   9.867   1.257  0.8311 -0.7793  0.7867
 3545SOL    HW119088   8.406   9.784   1.269 -0.3032 -0.2669 -0.5815
 3545SOL    HW219089   8.527   9.852   1.184 -0.2047 -0.1341 -0.3333
 3546SOL     OW19090   7.692   6.579   3.476  0.2746 -0.0554  0.1183
 3546SOL    HW119091   7.740   6.505   3.429  1.5678  0.0340  1.2477
 3546SOL    HW219092   7.757   6.630   3.532 -0.3676  2.6634 -1.5132
 3547SOL     OW19093   9.732   6.667   0.602 -0.0950 -0.0198  0.3888
 3547SOL    HW119094   9.821   6.660   0.557  0.0322  0.7128  0.5156
 3547SOL    HW219095   9.665   6.613   0.552 -0.3442  2.1073 -1.6942
 3548SOL     OW19096   7.152   8.681   2.111  0.0475 -0.5272 -0.1116
 3548SOL    HW119097   7.116   8.642   2.196 -0.8805  0.5856  0.0249
 3548SOL    HW219098   7.089   8.751   2.077  0.9417 -0.2021 -1.1469
 3549SOL     OW19099   5.110   0.203   2.351 -0.0513  0.8391  0.1028
 3549SOL    HW119100   5.088   0.278   2.413  0.8932  1.7703 -0.6745
 3549SOL    HW219101   5.210   0.195   2.342 -0.1593 -0.0332 -0.3906
 3551SOL     OW19102   2.145   5.873   3.573 -0.8681  0.3136  0.4043
 3551SOL    HW119103   2.098   5.941   3.516 -0.4052 -1.2443 -1.8872
 3551SOL    HW219104   2.102   5.784   3.562 -0.3072 -0.1714  1.9562
 3552SOL     OW19105   0.882   9.489   1.594 -0.0101  0.1887 -0.2210
 3552SOL    HW119106   0.790   9.515   1.566  0.2645  0.2282 -1.1018
 3552SOL    HW219107   0.877   9.434   1.677 -0.9484 -1.1756 -1.1614
 3553SOL     OW19108   6.968   9.405   3.601  0.2299 -0.1913 -0.6142
 3553SOL    HW119109   7.051   9.449   3.565  1.2448 -0.7462  0.9779
 3553SOL    HW219110   6.993   9.319   3.645 -1.2103 -0.3834 -0.1672
 3555SOL     OW19111   1.141   5.798   3.203 -0.0984  0.5387  0.2203
 3555SOL    HW119112   1.179   5.708   3.221 -0.2679  0.9395  2.7267
 3555SOL    HW219113   1.149   5.855   3.285 -1.6376  2.2126 -0.7488
 3557SOL     OW19114   1.325   9.396   2.572 -0.4534 -0.2825 -0.0244
 3557SOL    HW119115   1.241   9.402   2.518 -1.0437  0.3985  0.9569
 3557SOL    HW219116   1.350   9.487   2.604 -0.9141 -0.8564  2.0555
 3558SOL     OW19117   2.360   6.934   3.132 -0.0393 -0.1707 -0.0068
 3558SOL    HW119118   2.347   6.840   3.163  0.2268  0.2324  1.3677
 3558SOL    HW219119   2.281   6.989   3.158  0.6950  0.4299  1.0091
 3560SOL     OW19120   4.692   9.156   2.784 -0.2303 -0.1259 -0.1085
 3560SOL    HW119121   4.714   9.096   2.707  0.2265  1.2402 -1.0630
 3560SOL    HW219122   4.776   9.189   2.826 -0.4786 -0.1728  0.4275
 3561SOL     OW19123   8.793   7.739   2.795  0.1648 -0.1041  0.2919
 3561SOL    HW119124   8.709   7.786   2.771  0.3073  0.0467  0.0862
 3561SOL    HW219125   8.853   7.735   2.715  1.1812  1.5452  0.9542
 3562SOL     OW19126   1.966   9.184   2.961  0.2236 -0.1274  0.2527
 3562SOL    HW119127   1.985   9.129   2.879  0.5090 -0.9378  0.8579
 3562SOL    HW219128   1.969   9.281   2.937  1.8960 -0.3157 -0.3751
 3563SOL     OW19129   1.944   8.224   2.797  0.0136  0.6280 -0.2235
 3563SOL    HW119130   1.948   8.127   2.774  0.5841  0.9380 -1.4616
 3563SOL    HW219131   1.880   8.271   2.736 -0.8670  0.9097  0.8769
 3564SOL     OW19132   3.434   7.956   3.715  0.0911 -0.8674  0.2021
 3564SOL    HW119133   3.396   7.869   3.685  0.3199 -0.4189 -1.4645
 3564SOL    HW219134   3.534   7.949   3.719  0.1777 -0.4204 -0.8801
 3565SOL     OW19135   0.541   3.400   0.827 -0.4092  0.0578 -0.0919
 3565SOL    HW119136   0.571   3.474   0.886  2.9309  0.0776 -1.6792
 3565SOL    HW219137   0.598   3.319   0.844 -1.8548 -1.1161 -0.6875
 3566SOL     OW19138   1.730   2.196   3.082 -0.3325  0.2596 -0.0214
 3566SOL    HW119139   1.744   2.225   3.176  0.4797  2.1154 -0.6924
 3566SOL    HW219140   1.664   2.256   3.037  1.3656  1.1342 -1.4283
 3567SOL     OW19141   8.224   0.115   3.521 -0.1144  0.0155 -0.5100
 3567SOL    HW119142   8.130   0.123   3.556 -0.4378  0.3018 -1.4451
 3567SOL    HW219143   8.284   0.174   3.576 -0.6729  0.6896 -0.6165
 3568SOL     OW19144   5.038   8.962   3.498 -0.1710  0.6129  0.1430
 3568SOL    HW119145   5.046   9.047   3.549  1.0532 -1.3593  3.3936
 3568SOL    HW219146   4.957   8.912   3.529  0.5600 -0.6129  0.1270
 3569SOL     OW19147   8.229   7.847   1.842 -0.0672 -1.1609  0.0328
 3569SOL    HW119148   8.320   7.811   1.863  0.1922 -0.9173 -0.6522
 3569SOL    HW219149   8.175   7.777   1.795  0.1718 -0.9117 -0.6108
 3570SOL     OW19150   2.825   2.241   1.262  0.1105 -0.2504  0.2296
 3570SOL    HW119151   2.847   2.232   1.165  0.2865 -0.1359  0.2580
 3570SOL    HW219152   2.812   2.337   1.284 -4.1113 -0.5339 -0.5817
 3571SOL     OW19153   2.982   5.832   2.850 -0.4394 -0.2803  0.3055
 3571SOL    HW119154   3.036   5.880   2.919  0.8130  1.3086 -1.7440
 3571SOL    HW219155   2.917   5.771   2.896  0.7972  0.2523  2.8670
 3572SOL     OW19156   4.565   8.794   2.483 -0.8961 -0.0004 -0.5093
 3572SOL    HW119157   4.486   8.740   2.513 -0.1602 -0.9697 -0.2945
 3572SOL    HW219158   4.537   8.889   2.470 -1.1800  0.5524  3.5905
 3574SOL     OW19159   4.499   7.461   2.968  0.3202 -0.1966  0.0339
 3574SOL    HW119160   4.592   7.497   2.958  0.4275 -0.8300 -1.3864
 3574SOL    HW219161   4.502   7.375   3.020  0.6335 -0.6492 -0.7246
 3575SOL     OW19162   9.007   0.305   3.674  0.0955 -0.2465  0.0485
 3575SOL    HW119163   8.925   0.264   3.634 -1.4218 -0.3028  3.0508
 3575SOL    HW219164   9.047   0.370   3.609 -1.1638 -1.6813 -2.2356
 3576SOL     OW19165   7.239   8.704   1.439  0.6676  0.2344 -0.2112
 3576SOL    HW119166   7.157   8.649   1.428  0.6890  0.3658 -1.0256
 3576SOL    HW219167   7.311   8.671   1.378  0.8425  0.8463 -0.3438
 3577SOL     OW19168   2.683   8.312   0.255 -0.3093 -0.4936  0.3881
 3577SOL    HW119169   2.692   8.409   0.276 -1.7174 -0.1507 -0.5148
 3577SOL    HW219170   2.661   8.301   0.158  0.2726 -1.7445  0.3841
 3579SOL     OW19171   9.546   8.428   1.047  0.0390  0.6351 -0.0263
 3579SOL    HW119172   9.624   8.417   1.108 -1.4842 -0.3728  1.8038
 3579SOL    HW219173   9.534   8.525   1.024 -0.1219  1.2051  2.3340
 3580SOL     OW19174   9.027   2.858   3.007 -0.1499 -0.5893  0.0198
 3580SOL    HW119175   9.113   2.810   2.991 -0.7504 -1.5056 -0.5333
 3580SOL    HW219176   9.010   2.923   2.932  0.7896  0.7003  0.9017
 3581SOL     OW19177   4.684   3.784   3.476 -0.7095  0.3196  0.5933
 3581SOL    HW119178   4.620   3.713   3.445  0.6550  0.1568 -1.9751
 3581SOL    HW219179   4.773   3.742   3.493 -0.4649  1.0629  1.1231
 3583SOL     OW19180   3.191   1.405   0.654  0.1993  0.2160 -0.5278
 3583SOL    HW119181   3.166   1.412   0.751 -0.0655  0.7539 -0.6342
 3583SOL    HW219182   3.119   1.356   0.604 -0.5806  1.5945 -0.7982
 3585SOL     OW19183   3.921   2.286   1.855  0.3998  0.1702  0.0033
 3585SOL    HW119184   3.990   2.337   1.905  1.1407 -0.5376 -0.2718
 3585SOL    HW219185   3.860   2.239   1.919 -0.5457  1.7230  0.2586
 3586SOL     OW19186   9.696   1.519   1.337  0.0068 -0.1230  0.0052
 3586SOL    HW119187   9.680   1.591   1.405  1.1353 -1.0075  1.2370
 3586SOL    HW219188   9.610   1.470   1.320 -0.5115  0.7592  0.0120
 3587SOL     OW19189   8.907   3.086   3.748 -0.8036  0.2630 -0.0405
 3587SOL    HW119190   8.875   3.093   3.653 -1.8033  2.2275  0.4159
 3587SOL    HW219191   9.005   3.105   3.751 -0.8275  0.5013 -0.6410
 3588SOL     OW19192   4.215   0.734   2.488 -0.2212 -0.0337  0.2969
 3588SOL    HW119193   4.187   0.825   2.518 -0.5057 -0.0839  0.1856
 3588SOL    HW219194   4.247   0.682   2.566  0.0841  0.2122  0.3381
 3589SOL     OW19195   0.345   5.896   1.371  0.1201 -0.2841  0.0485
 3589SOL    HW119196   0.290   5.897   1.455 -0.0052 -1.4279 -0.0171
 3589SOL    HW219197   0.441   5.909   1.395 -0.0401  0.5528  0.2648
 3590SOL     OW19198   2.339   6.235   1.859 -0.3440 -0.2564  0.2934
 3590SOL    HW119199   2.296   6.213   1.772 -0.0795 -1.1456  0.3817
 3590SOL    HW219200   2.357   6.151   1.909 -1.2144  0.2984  1.5581
 3591SOL     OW19201   0.489   6.766   0.285  0.0461 -0.2865 -0.2784
 3591SOL    HW119202   0.411   6.787   0.225  0.4333 -0.1420 -0.7402
 3591SOL    HW219203   0.568   6.821   0.256 -0.1935  0.9271  1.3299
 3593SOL     OW19204   3.769   3.280   1.661 -0.4127 -0.2234 -0.4642
 3593SOL    HW119205   3.669   3.285   1.662 -0.4157 -0.3158 -0.2836
 3593SOL    HW219206   3.799   3.210   1.596 -0.4564  0.0160 -0.7444
 3594SOL     OW19207   8.187   0.819   1.629  0.1107 -0.9263 -0.3624
 3594SOL    HW119208   8.142   0.734   1.657 -3.3287  1.2795  1.3009
 3594SOL    HW219209   8.271   0.831   1.682 -0.5937 -2.1818  1.1071
 3595SOL     OW19210   9.360   4.661   1.370  0.3925  0.0356  0.5077
 3595SOL    HW119211   9.454   4.650   1.336 -0.4482 -0.2088 -1.7958
 3595SOL    HW219212   9.318   4.571   1.383 -0.3258  0.1874 -0.7542
 3597SOL     OW19213   9.035   2.664   2.435 -0.4052  0.2665 -0.2796
 3597SOL    HW119214   8.988   2.633   2.517  0.0107  1.4056  0.4022
 3597SOL    HW219215   8.998   2.617   2.355 -1.0836 -0.5558  0.5100
 3598SOL     OW19216   0.573   0.538   3.374 -0.5851 -0.3377  0.1490
 3598SOL    HW119217   0.475   0.532   3.358 -0.7856 -1.6259  1.6523
 3598SOL    HW219218   0.591   0.527   3.472  1.1671 -1.7986 -0.3047
 3599SOL     OW19219   7.348   0.561   3.566  0.0998  0.0371  0.2728
 3599SOL    HW119220   7.307   0.594   3.651 -0.3370 -1.2476  0.5760
 3599SOL    HW219221   7.330   0.625   3.492 -2.2879 -0.4107  0.4418
 3601SOL     OW19222   2.713   4.754   1.651  0.0205  0.2538  0.0144
 3601SOL    HW119223   2.650   4.677   1.646 -1.3447  1.4919 -3.1590
 3601SOL    HW219224   2.680   4.818   1.721  0.2314 -1.2024  1.4707
 3602SOL     OW19225   2.048   3.184   3.632  0.1772 -0.3214 -0.1257
 3602SOL    HW119226   2.116   3.139   3.575 -1.0903 -0.3563 -1.6529
 3602SOL    HW219227   1.980   3.117   3.662 -0.2339  0.0571 -0.1980
 3603SOL     OW19228   2.620   6.305   0.744 -0.2820  0.2732  0.9177
 3603SOL    HW119229   2.536   6.256   0.767  0.5676 -2.1438 -0.8107
 3603SOL    HW219230   2.698   6.256   0.783  0.5749  0.4066 -0.5880
 3604SOL     OW19231   2.814   9.511   1.796  0.0836  0.2058  0.0987
 3604SOL    HW119232   2.785   9.422   1.761  0.4627 -0.2473  0.9144
 3604SOL    HW219233   2.891   9.498   1.860  1.3353  1.2796 -1.1679
 3605SOL     OW19234   3.395   1.882   0.561 -0.6251 -0.6218 -0.4564
 3605SOL    HW119235   3.380   1.784   0.575 -1.9589 -0.6527 -1.9593
 3605SOL    HW219236   3.311   1.932   0.581  0.0994  0.2436  0.4718
 3606SOL     OW19237   0.302   5.266   1.994  0.1778  0.0093  0.1164
 3606SOL    HW119238   0.343   5.332   2.056 -0.5027 -0.2316  0.8275
 3606SOL    HW219239   0.214   5.299   1.963 -0.0292 -0.4255  0.2352
 3607SOL     OW19240   0.572   8.313   2.773 -0.2313  0.4055  0.6352
 3607SOL    HW119241   0.636   8.238   2.789 -2.0803 -1.5176 -0.5864
 3607SOL    HW219242   0.508   8.319   2.849  0.5328  1.4291  1.2089
 3608SOL     OW19243   4.473   9.536   0.935  0.7170  0.0848  0.2757
 3608SOL    HW119244   4.463   9.626   0.892  1.2218  0.0953  0.1768
 3608SOL    HW219245   4.569   9.509   0.933  0.0240 -2.5341 -3.8734
 3609SOL     OW19246   2.454   4.608   3.637  0.5894 -0.1185 -0.0681
 3609SOL    HW119247   2.433   4.526   3.690  1.8449 -1.5914 -1.7902
 3609SOL    HW219248   2.462   4.687   3.699  0.0900 -1.4188  1.6789
 3610SOL     OW19249   3.666   7.470   1.130  0.0239 -0.0392  0.0702
 3610SOL    HW119250   3.676   7.444   1.034 -0.4665 -0.4934  0.1375
 3610SOL    HW219251   3.670   7.570   1.138  1.5897 -0.0758 -0.2307
 3611SOL     OW19252   4.347   1.721   2.915 -0.0900 -0.3020 -0.2466
 3611SOL    HW119253   4.438   1.679   2.923  0.9951  1.9425 -0.3459
 3611SOL    HW219254   4.280   1.664   2.962  1.7528 -0.8723  1.7641
 3612SOL     OW19255   0.762   5.679   2.871 -0.4388  0.1887  0.3180
 3612SOL    HW119256   0.710   5.764   2.863 -1.7198 -0.7006 -0.9466
 3612SOL    HW219257   0.858   5.696   2.846 -0.6428  1.2731  0.2299
 3613SOL     OW19258   3.086   7.758   2.036  0.0438  0.6730 -0.2698
 3613SOL    HW119259   3.120   7.851   2.028  1.0099  0.3309 -0.1859
 3613SOL    HW219260   3.143   7.696   1.981  0.0612 -0.0252  0.5177
 3614SOL     OW19261   2.274   2.181   3.746  0.5401 -0.3422 -0.2957
 3614SOL    HW119262   2.285   2.085   3.722  0.7729 -0.4182  0.1166
 3614SOL    HW219263   2.364   2.224   3.751  0.3982  0.0720 -1.2063
 3615SOL     OW19264   1.774   9.016   0.034  0.0887  0.0314 -0.9894
 3615SOL    HW119265   1.768   9.043   0.130  0.6816 -0.1566 -0.8977
 3615SOL    HW219266   1.870   9.010   0.007 -0.0151 -2.1041 -0.9777
 3617SOL     OW19267   2.251   9.184   2.342 -0.1272  0.2335 -0.3521
 3617SOL    HW119268   2.290   9.117   2.405  0.5743  1.5343  0.6309
 3617SOL    HW219269   2.193   9.247   2.393 -1.1665  0.0846 -1.3453
 3618SOL     OW19270   4.615   1.746   0.107  0.0159 -0.6753 -0.1167
 3618SOL    HW119271   4.672   1.663   0.105 -0.2724 -0.9786  2.5439
 3618SOL    HW219272   4.651   1.809   0.175 -0.9311  0.5727 -0.7498
 3621SOL     OW19273   7.189   7.187   2.151  0.2256  0.2830 -0.4570
 3621SOL    HW119274   7.110   7.248   2.159  0.2526  0.4455 -1.4164
 3621SOL    HW219275   7.238   7.206   2.067  1.4827  0.3865  0.2929
 3622SOL     OW19276   2.224   9.677   0.618  0.0287  0.3381 -0.7087
 3622SOL    HW119277   2.125   9.667   0.627  0.1403 -0.1827 -0.0040
 3622SOL    HW219278   2.267   9.669   0.708  0.7655 -0.0499 -1.0864
 3624SOL     OW19279   2.217   3.843   0.444 -0.0590 -0.1957  0.1684
 3624SOL    HW119280   2.224   3.943   0.443  1.4355 -0.2776 -0.2496
 3624SOL    HW219281   2.309   3.804   0.445 -0.6370 -1.5734  1.2571
 3626SOL     OW19282   9.058   3.522   2.277 -0.2118 -0.3194  0.1772
 3626SOL    HW119283   8.984   3.549   2.339 -1.4248 -0.3866 -1.2167
 3626SOL    HW219284   9.048   3.571   2.191  0.8254 -1.0478 -0.3594
 3627SOL     OW19285   1.623   8.336   3.351 -0.5155 -0.0723 -0.0324
 3627SOL    HW119286   1.589   8.247   3.319  2.7124 -1.0860 -0.9009
 3627SOL    HW219287   1.586   8.409   3.294 -2.0809 -1.0001 -0.2224
 3629SOL     OW19288   4.548   0.526   3.256  0.2182 -0.4904 -0.0680
 3629SOL    HW119289   4.525   0.620   3.280  0.0916 -1.0547  2.0600
 3629SOL    HW219290   4.647   0.519   3.240  0.3246 -0.1604  0.4487
 3631SOL     OW19291   1.674   8.366   2.994 -0.6257 -0.2569  0.1795
 3631SOL    HW119292   1.736   8.444   2.997  1.2538 -1.6735 -0.6195
 3631SOL    HW219293   1.718   8.287   3.036 -2.2352 -1.0740  0.3636
 3633SOL     OW19294   3.831   2.142   2.502 -0.2969 -0.4611  0.2541
 3633SOL    HW119295   3.758   2.143   2.570 -1.1379  1.0662 -0.6657
 3633SOL    HW219296   3.811   2.073   2.432 -0.9059 -0.0012 -0.0305
 3634SOL     OW19297   0.441   5.338   3.561  0.0949  0.0788 -0.6426
 3634SOL    HW119298   0.512   5.284   3.515 -1.4144 -1.0751 -1.6679
 3634SOL    HW219299   0.379   5.277   3.611  0.8291  1.2017  1.7400
 3636SOL     OW19300   5.362   0.338   1.990 -0.3905  0.1448 -0.3147
 3636SOL    HW119301   5.365   0.434   2.019  0.2488 -0.0245  0.2090
 3636SOL    HW219302   5.380   0.280   2.069  0.2967 -0.3670 -0.8485
 3637SOL     OW19303   3.647   1.314   1.571 -0.2767  0.0226 -0.2243
 3637SOL    HW119304   3.551   1.320   1.542 -1.2399 -4.2543  1.5033
 3637SOL    HW219305   3.657   1.356   1.661 -0.8302 -0.6308  0.1457
 3638SOL     OW19306   4.905   9.590   3.629 -0.0806 -0.6291  0.4178
 3638SOL    HW119307   5.002   9.612   3.622 -0.0167 -1.3310 -1.0523
 3638SOL    HW219308   4.859   9.609   3.542 -2.0166  3.1591  2.1415
 3640SOL     OW19309   2.068   2.592   3.723  0.0382 -0.8507 -0.3512
 3640SOL    HW119310   2.051   2.686   3.692 -3.0433 -1.5301 -0.9676
 3640SOL    HW219311   2.109   2.540   3.649 -1.4837 -0.8483 -1.2273
 3644SOL     OW19312   1.640   1.066   3.285  0.3575 -0.1754  0.0989
 3644SOL    HW119313   1.545   1.058   3.315  0.7883 -1.3549  1.2091
 3644SOL    HW219314   1.697   1.093   3.363  0.9395  0.5163 -0.5581
 3645SOL     OW19315   7.916   6.886   2.209 -0.2627  0.1322 -0.0530
 3645SOL    HW119316   7.920   6.886   2.109  0.2666  0.6764 -0.0350
 3645SOL    HW219317   7.867   6.968   2.240 -1.3295 -0.5464  0.1075
 3646SOL     OW19318   1.788   2.939   0.577 -0.9720 -0.4251 -0.3416
 3646SOL    HW119319   1.804   2.934   0.676 -0.2267 -0.7809 -0.4703
 3646SOL    HW219320   1.817   2.852   0.536 -0.0883  0.1888 -1.0282
 3647SOL     OW19321   4.114   7.940   2.033 -0.2727 -0.2676  0.3739
 3647SOL    HW119322   4.123   7.997   1.952  1.5242 -1.2037 -0.0977
 3647SOL    HW219323   4.030   7.885   2.026 -0.0502 -0.4544 -0.9127
 3649SOL     OW19324   0.503   4.403   3.031 -0.2882 -0.6250 -0.1624
 3649SOL    HW119325   0.530   4.465   2.957  0.8747 -0.4906  0.3578
 3649SOL    HW219326   0.476   4.456   3.111  0.9115 -0.7744  0.3538
 3650SOL     OW19327   0.480   9.253   3.102 -0.1959  0.1670 -0.0390
 3650SOL    HW119328   0.504   9.350   3.098  1.4591 -0.2666 -0.9416
 3650SOL    HW219329   0.385   9.242   3.072 -0.4478  1.5224  0.2130
 3652SOL     OW19330   2.512   7.041   0.389  0.4005 -0.2042  0.4704
 3652SOL    HW119331   2.570   6.986   0.449  0.3717 -0.9589 -0.1857
 3652SOL    HW219332   2.489   6.988   0.307  1.2746  1.1655 -0.6787
 3653SOL     OW19333   4.419   8.984   0.871 -0.3165 -0.2115 -0.6521
 3653SOL    HW119334   4.363   8.926   0.930 -1.4197 -1.6489 -3.0654
 3653SOL    HW219335   4.501   8.933   0.844 -0.1360  0.2094 -0.8879
 3656SOL     OW19336   3.794   2.466   3.654  0.0887 -0.5766  0.0109
 3656SOL    HW119337   3.747   2.420   3.578  1.0288  0.0830 -0.9842
 3656SOL    HW219338   3.869   2.521   3.618  0.1029  0.3082  1.3615
 3657SOL     OW19339   0.257   4.926   2.729 -0.1336 -0.4004 -0.6383
 3657SOL    HW119340   0.169   4.902   2.769 -0.2969 -1.7611 -1.8040
 3657SOL    HW219341   0.266   5.026   2.725 -1.7601 -0.2592 -0.8343
 3658SOL     OW19342   2.402   0.469   3.677  0.7218 -0.5704 -0.6286
 3658SOL    HW119343   2.470   0.451   3.748  1.1442 -0.7409 -1.0691
 3658SOL    HW219344   2.332   0.531   3.712  0.7790 -0.8685  0.0178
 3659SOL     OW19345   9.556   0.893   1.215 -0.4660  0.0881  0.5378
 3659SOL    HW119346   9.467   0.939   1.220  0.6291  2.4398 -0.6721
 3659SOL    HW219347   9.579   0.876   1.119 -0.5672 -2.5057  0.9438
 3660SOL     OW19348   2.666   5.432   0.721 -0.1375 -0.1007 -0.2700
 3660SOL    HW119349   2.717   5.489   0.656 -0.5410  1.8187  1.0489
 3660SOL    HW219350   2.731   5.385   0.781  0.1779 -0.2002 -0.6865
 3663SOL     OW19351   8.349   3.267   2.632 -0.2325  0.0914  0.4074
 3663SOL    HW119352   8.382   3.236   2.543 -0.3958 -1.9897  1.0584
 3663SOL    HW219353   8.399   3.349   2.659  1.2456 -0.4352 -0.6744
 3664SOL     OW19354   9.734   4.259   0.209 -0.0339  0.5026  0.4281
 3664SOL    HW119355   9.642   4.261   0.172  0.3912  1.6844 -0.6110
 3664SOL    HW219356   9.748   4.175   0.261 -1.7965  0.4767  0.8722
 3665SOL     OW19357   3.406   0.697   3.193  0.0691 -0.0660 -0.0750
 3665SOL    HW119358   3.318   0.708   3.239  1.2981  0.2702  2.2730
 3665SOL    HW219359   3.405   0.614   3.137 -1.7978  0.0563 -0.2458
 3666SOL     OW19360   2.242   6.438   1.282 -0.1261 -0.0475 -0.2443
 3666SOL    HW119361   2.303   6.472   1.210 -1.8252 -0.1329 -1.7613
 3666SOL    HW219362   2.152   6.480   1.271 -0.8674 -1.3335  0.8460
 3668SOL     OW19363   9.637   5.076   1.757  0.3426 -0.0138  1.0804
 3668SOL    HW119364   9.654   5.168   1.722 -0.6901 -0.0420  0.4740
 3668SOL    HW219365   9.723   5.031   1.778  0.9403  0.2995 -0.6676
 3669SOL     OW19366   4.545   9.371   0.459  0.1511 -0.4505 -0.0258
 3669SOL    HW119367   4.534   9.327   0.548  1.5760 -0.1632  0.2934
 3669SOL    HW219368   4.566   9.468   0.472  0.3442 -0.4022 -0.6829
 3671SOL     OW19369   2.234   6.590   1.511 -0.3117  0.0406  0.6185
 3671SOL    HW119370   2.262   6.674   1.465  0.2070 -0.6089 -0.2633
 3671SOL    HW219371   2.230   6.515   1.445  3.0398 -1.5050  2.0638
 3672SOL     OW19372   9.734   2.435   3.148  0.1210 -0.2221  0.1396
 3672SOL    HW119373   9.807   2.383   3.193 -0.4073 -0.9486  0.1658
 3672SOL    HW219374   9.708   2.513   3.205  1.5478  0.6124 -0.3158
 3673SOL     OW19375   0.601   0.980   2.614  0.0415 -0.1753 -0.3866
 3673SOL    HW119376   0.701   0.984   2.610  0.0782  1.0379  1.2946
 3673SOL    HW219377   0.573   0.908   2.676 -0.1174  0.1784 -0.0486
 3674SOL     OW19378   8.034   5.635   2.374 -0.1787  0.0968  0.0444
 3674SOL    HW119379   8.048   5.715   2.315 -1.4497  0.4343  0.1836
 3674SOL    HW219380   8.050   5.661   2.469 -0.2488  0.1000  0.0560
 3675SOL     OW19381   0.263   2.031   3.514  0.1031  0.3817  0.0564
 3675SOL    HW119382   0.260   2.126   3.484  2.2390  1.2383  2.4059
 3675SOL    HW219383   0.192   2.015   3.583  0.3632  0.5380  0.3619
 3676SOL     OW19384   1.050   0.978   3.724  0.6027 -0.3709 -0.0860
 3676SOL    HW119385   1.006   1.066   3.739  0.6509 -0.4817  0.7111
 3676SOL    HW219386   1.024   0.943   3.634 -1.1873 -0.5880  0.5134
 3677SOL     OW19387   2.383   3.434   3.200  0.3666  0.2342 -0.0277
 3677SOL    HW119388   2.313   3.500   3.173  0.2053  0.6692  1.3922
 3677SOL    HW219389   2.349   3.379   3.276  1.3362  0.0509  0.2863
 3678SOL     OW19390   1.928   8.598   1.820 -0.2805 -0.2084  0.5529
 3678SOL    HW119391   2.010   8.603   1.877  0.6128  2.3549 -0.8205
 3678SOL    HW219392   1.865   8.671   1.846  0.2329  1.1306 -1.7887
 3680SOL     OW19393   3.323   4.211   1.511 -0.0684 -0.5891 -0.1525
 3680SOL    HW119394   3.359   4.284   1.569 -0.8306  0.5295 -1.0626
 3680SOL    HW219395   3.225   4.201   1.528 -0.1515 -0.7409 -0.7028
 3681SOL     OW19396   8.715   7.990   2.688 -0.5845  0.0914 -0.3218
 3681SOL    HW119397   8.631   7.938   2.676 -0.5834 -0.0424  0.2614
 3681SOL    HW219398   8.789   7.945   2.639 -0.1867 -1.4250  1.6263
 3683SOL     OW19399   1.521   2.085   2.536 -0.0333 -0.0863  0.7213
 3683SOL    HW119400   1.512   1.986   2.546 -1.9593 -0.0481 -0.4050
 3683SOL    HW219401   1.499   2.129   2.623 -1.3439 -0.5453  0.6334
 3684SOL     OW19402   2.992   9.446   0.923  0.0989 -0.3894 -0.4781
 3684SOL    HW119403   3.050   9.369   0.894  1.3917  0.6508 -0.6788
 3684SOL    HW219404   2.957   9.429   1.015  0.1332 -1.3477 -0.6356
 3685SOL     OW19405   4.157   5.313   1.387  0.0448 -0.1866  0.5394
 3685SOL    HW119406   4.188   5.380   1.455  0.4831 -0.2529  0.4069
 3685SOL    HW219407   4.236   5.271   1.343 -0.2297 -0.9388  0.7577
 3686SOL     OW19408   4.283   2.437   1.253  0.0980 -0.1818 -0.1554
 3686SOL    HW119409   4.200   2.491   1.258  0.5114  0.5598 -1.1203
 3686SOL    HW219410   4.260   2.339   1.254 -0.6911  0.0099  0.7995
 3687SOL     OW19411   4.250   1.172   2.263  0.0026  0.0994  0.1155
 3687SOL    HW119412   4.192   1.205   2.188  1.3794  2.1233 -0.0992
 3687SOL    HW219413   4.328   1.122   2.226  1.0979  1.7658  0.1393
 3688SOL     OW19414   8.495   5.800   1.505  0.6144 -0.0366 -0.6226
 3688SOL    HW119415   8.580   5.846   1.527 -0.5323  1.9112 -0.1275
 3688SOL    HW219416   8.419   5.864   1.513 -1.0190 -1.9653 -0.1584
 3689SOL     OW19417   2.694   6.633   1.242  0.3128 -0.3216 -0.0365
 3689SOL    HW119418   2.641   6.549   1.248  1.3814 -0.9964  0.1114
 3689SOL    HW219419   2.650   6.696   1.179 -0.5958 -0.9174 -0.0053
 3691SOL     OW19420   3.909   1.472   1.004 -0.3034 -0.7364  0.6739
 3691SOL    HW119421   3.991   1.464   0.948 -0.5147 -1.2326  0.4389
 3691SOL    HW219422   3.833   1.423   0.961 -0.7147 -0.3159  0.9110
 3692SOL     OW19423   3.161   7.911   1.344 -0.4753  0.1079  0.1990
 3692SOL    HW119424   3.075   7.876   1.307  0.9468 -1.5961 -1.5756
 3692SOL    HW219425   3.225   7.928   1.270 -0.1532  3.9857  1.2605
 3693SOL     OW19426   4.046   4.791   2.746 -0.1776  0.2694  0.0039
 3693SOL    HW119427   4.013   4.878   2.708 -0.3492 -0.4928 -1.6381
 3693SOL    HW219428   4.117   4.754   2.687 -0.8349 -1.2275  0.1359
 3695SOL     OW19429   9.537   8.135   2.246 -0.3573 -0.2093  0.5049
 3695SOL    HW119430   9.518   8.115   2.150  0.0124  0.4904  0.2815
 3695SOL    HW219431   9.455   8.172   2.289 -0.3899 -0.0805  0.3357
 3696SOL     OW19432   4.532   8.271   0.930 -0.0857 -0.0615  0.3871
 3696SOL    HW119433   4.516   8.173   0.942 -1.3747  0.2024  0.8991
 3696SOL    HW219434   4.619   8.285   0.883  0.1167 -1.4503  0.3287
 3697SOL     OW19435   7.568   1.869   1.913 -0.1895  0.2570 -0.3590
 3697SOL    HW119436   7.630   1.797   1.945  0.4782  0.4643 -1.1744
 3697SOL    HW219437   7.595   1.898   1.821 -2.3565 -0.6334 -1.2947
 3698SOL     OW19438   9.782   4.014   2.803 -0.0702  0.4793  0.2254
 3698SOL    HW119439   9.879   4.032   2.820  0.2529 -0.9274 -0.1409
 3698SOL    HW219440   9.760   3.920   2.829 -1.5058  1.0068  1.0053
 3701SOL     OW19441   0.091   1.923   3.700 -0.1594 -0.6753 -0.7681
 3701SOL    HW119442   0.077   1.839   3.648  0.5100 -0.8229 -0.7162
 3701SOL    HW219443   0.104   1.900   3.797  1.4536 -0.6260 -0.9692
 3703SOL     OW19444   3.119   7.499   3.751  0.1237  0.0767 -0.2551
 3703SOL    HW119445   3.134   7.501   3.652 -0.4176  1.6164 -0.3221
 3703SOL    HW219446   3.020   7.504   3.770  0.2677  0.6467  0.3671
 3704SOL     OW19447   9.176   8.146   1.301  0.2627  0.2214  0.9257
 3704SOL    HW119448   9.129   8.211   1.241  0.6098  0.6179  1.0808
 3704SOL    HW219449   9.270   8.177   1.316  0.0723  0.2942  1.9415
 3705SOL     OW19450   7.208   0.443   1.865  0.1749 -0.3411 -0.1705
 3705SOL    HW119451   7.300   0.404   1.873 -0.1890 -1.1523  0.1084
 3705SOL    HW219452   7.200   0.523   1.924  0.5221 -0.6138  0.2458
 3707SOL     OW19453   7.202   9.825   1.012 -0.0224  0.1713  0.0769
 3707SOL    HW119454   7.109   9.862   1.011  0.1337  0.5517 -0.8233
 3707SOL    HW219455   7.211   9.754   0.943  0.4975  0.4898 -0.1872
 3708SOL     OW19456   0.839   5.068   2.383  1.0642  0.1819  0.0383
 3708SOL    HW119457   0.777   5.108   2.315  2.0367 -0.1169 -1.0532
 3708SOL    HW219458   0.787   5.041   2.464 -0.4390 -1.0834 -1.3023
 3709SOL     OW19459   8.287   1.639   0.883  0.5344 -0.3925  0.4561
 3709SOL    HW119460   8.376   1.684   0.874 -0.8404  2.2988 -0.2132
 3709SOL    HW219461   8.287   1.582   0.965  2.8602 -0.4293  0.4640
 3712SOL     OW19462   2.074   9.257   3.720 -0.3970  0.4057 -0.3268
 3712SOL    HW119463   2.010   9.253   3.644  0.4192 -0.4905 -0.9682
 3712SOL    HW219464   2.024   9.242   3.806 -1.2518  1.0592 -0.6924
 3713SOL     OW19465   0.949   5.773   3.631  0.4125  0.0274  0.0456
 3713SOL    HW119466   0.946   5.756   3.730 -1.3577 -0.9456 -0.1593
 3713SOL    HW219467   0.888   5.710   3.584  1.3683  0.3702 -1.7121
 3716SOL     OW19468   2.134   4.686   2.862  0.0156  0.5311 -0.2041
 3716SOL    HW119469   2.112   4.599   2.818  0.2885 -0.5157  1.6958
 3716SOL    HW219470   2.231   4.706   2.849 -0.2178  0.9806 -1.3473
 3717SOL     OW19471   9.694   0.403   2.079  0.1475 -0.0009  0.1180
 3717SOL    HW119472   9.674   0.385   1.983 -0.5201 -0.8433  0.4088
 3717SOL    HW219473   9.772   0.347   2.108  1.1465  1.1671 -0.2510
 3718SOL     OW19474   9.300   0.253   1.523  0.0547  0.6236 -0.0765
 3718SOL    HW119475   9.343   0.169   1.557  0.8429  0.9760 -0.1742
 3718SOL    HW219476   9.240   0.232   1.446 -1.3857 -0.1218  1.2218
 3719SOL     OW19477   1.714   4.449   1.453 -0.1406 -0.2262  0.3590
 3719SOL    HW119478   1.673   4.537   1.431  0.8444  0.2999  0.6120
 3719SOL    HW219479   1.806   4.463   1.490  0.2441 -1.3877 -0.1298
 3720SOL     OW19480   9.703   7.985   0.383  0.0249 -0.0187  0.1507
 3720SOL    HW119481   9.677   8.014   0.475 -0.4811 -1.3851  0.4453
 3720SOL    HW219482   9.793   7.941   0.386  0.7978  1.4879 -0.2990
 3721SOL     OW19483   0.546   8.167   2.558  0.1625  0.3162 -0.0119
 3721SOL    HW119484   0.532   8.228   2.636  1.4204 -0.2649  0.6841
 3721SOL    HW219485   0.570   8.076   2.591 -0.1476 -0.1539 -1.0692
 3722SOL     OW19486   2.833   3.432   1.230  0.3027  0.0208 -0.1938
 3722SOL    HW119487   2.818   3.412   1.133 -0.1889 -0.3713 -0.0407
 3722SOL    HW219488   2.929   3.453   1.245  0.1407  1.3988 -0.9988
 3723SOL     OW19489   3.175   8.664   2.373  0.2568 -0.2056 -0.0670
 3723SOL    HW119490   3.094   8.643   2.319  0.3372 -0.4558 -0.0931
 3723SOL    HW219491   3.254   8.616   2.334  0.6408  0.9701 -0.7398
 3724SOL     OW19492   3.378   2.112   3.038  0.0828  0.6314 -0.4275
 3724SOL    HW119493   3.405   2.151   3.126  1.4556 -0.1809 -0.4781
 3724SOL    HW219494   3.297   2.054   3.050  0.5870  0.0918  0.3982
 3725SOL     OW19495   3.161   3.238   1.215 -0.3454 -0.0225  0.7648
 3725SOL    HW119496   3.235   3.237   1.148 -0.2937  0.5469  0.8103
 3725SOL    HW219497   3.108   3.153   1.208 -0.3008  0.0061  0.0464
 3726SOL     OW19498   4.112   9.398   3.040 -0.2113 -0.9085  0.3785
 3726SOL    HW119499   4.194   9.345   3.022 -0.0647 -0.6712  0.3445
 3726SOL    HW219500   4.075   9.374   3.129  1.7866  1.3763  1.9044
 3727SOL     OW19501   9.757   7.511   3.209  0.3410  0.4029  0.5377
 3727SOL    HW119502   9.758   7.602   3.168  1.2609  0.1507 -0.0212
 3727SOL    HW219503   9.663   7.485   3.231 -0.1655  0.5640 -1.3643
 3728SOL     OW19504   3.506   8.610   3.141  0.6239  0.2675  0.0432
 3728SOL    HW119505   3.421   8.612   3.089  1.3625 -1.8574 -1.2747
 3728SOL    HW219506   3.487   8.582   3.235 -0.2584  0.9260  0.0723
 3729SOL     OW19507   0.549   5.554   3.329  0.0717  0.6820 -0.8609
 3729SOL    HW119508   0.503   5.640   3.351  0.7847  0.9683 -0.4547
 3729SOL    HW219509   0.586   5.514   3.413 -0.8759 -0.3824 -0.9532
 3731SOL     OW19510   5.309   9.938   1.894 -0.1120  0.1651  0.0256
 3731SOL    HW119511   5.365   9.927   1.976 -0.8668 -0.0504  0.5138
 3731SOL    HW219512   5.251  10.019   1.904 -0.5614 -0.1416 -0.0837
 3732SOL     OW19513   2.995   9.048   1.012 -0.0065  0.7153 -0.2965
 3732SOL    HW119514   3.024   9.082   0.922  0.1334  2.6551  0.4679
 3732SOL    HW219515   2.999   8.948   1.012 -0.8519  0.6429 -2.7291
 3733SOL     OW19516   5.038   0.981   2.320  0.1117  0.1503  0.4052
 3733SOL    HW119517   4.954   0.936   2.290  0.3233 -0.2574  0.4215
 3733SOL    HW219518   5.067   1.046   2.250  0.1421 -0.1880  0.1002
 3734SOL     OW19519   2.615   9.821   2.096 -0.5408  0.0205 -0.1976
 3734SOL    HW119520   2.562   9.745   2.133  0.4190 -0.1438  0.8519
 3734SOL    HW219521   2.666   9.791   2.016  0.1591 -0.5514  0.4601
 3735SOL     OW19522   3.113   7.667   0.334  0.3281 -0.6504  0.3416
 3735SOL    HW119523   3.120   7.568   0.339  0.4599 -0.6107  0.9033
 3735SOL    HW219524   3.202   7.708   0.354  0.1415 -0.4008  0.6650
 3736SOL     OW19525   1.408   4.724   1.189 -0.0206 -0.0294 -0.3020
 3736SOL    HW119526   1.425   4.696   1.094  2.0859 -0.6640  0.2346
 3736SOL    HW219527   1.495   4.730   1.238 -0.9827  1.4710  1.2790
 3737SOL     OW19528   0.072   3.711   3.528  0.3230 -0.0185  0.3357
 3737SOL    HW119529   0.097   3.614   3.530 -0.7618 -0.2902  1.8044
 3737SOL    HW219530   0.033   3.733   3.438  1.0841 -0.8122 -0.1964
 3740SOL     OW19531   2.304   1.518   1.655 -0.0102 -0.0724 -0.3297
 3740SOL    HW119532   2.356   1.591   1.610 -0.2213  1.2371  1.5196
 3740SOL    HW219533   2.290   1.541   1.751 -2.5733 -1.1969 -0.3906
 3742SOL     OW19534   4.307   0.359   0.284  0.0263  0.4604  0.3933
 3742SOL    HW119535   4.309   0.260   0.297  4.2347  0.6302  1.6998
 3742SOL    HW219536   4.343   0.380   0.193 -2.6132  0.7719 -0.6334
 3743SOL     OW19537   9.280   4.022   1.584 -0.6914 -0.2719 -0.3287
 3743SOL    HW119538   9.188   4.058   1.566  0.4750  1.9082 -2.3287
 3743SOL    HW219539   9.277   3.958   1.660 -3.4189  1.8031  1.3989
 3744SOL     OW19540   3.043   8.274   2.098  0.8510  0.0471 -0.3096
 3744SOL    HW119541   3.052   8.317   2.008 -1.1528  0.7345 -0.2125
 3744SOL    HW219542   2.959   8.220   2.100  1.0723 -0.2519  1.0306
 3747SOL     OW19543   2.408   8.803   2.715 -0.3848 -0.4758 -0.0932
 3747SOL    HW119544   2.404   8.743   2.796 -0.8878 -1.4749 -0.8498
 3747SOL    HW219545   2.488   8.778   2.660 -0.4437 -0.2672 -0.2718
 3748SOL     OW19546   8.220   3.888   1.369 -0.3482  0.0408 -0.5885
 3748SOL    HW119547   8.277   3.938   1.434  0.5925 -0.6560 -0.8679
 3748SOL    HW219548   8.124   3.896   1.396 -0.1747  1.5926 -0.3608
 3749SOL     OW19549   0.801   3.216   1.796  0.8274  0.5602 -0.0699
 3749SOL    HW119550   0.774   3.167   1.713 -2.6859  0.3919  1.1185
 3749SOL    HW219551   0.824   3.149   1.867 -2.0238  0.5938  0.9281
 3750SOL     OW19552   3.466   7.772   1.916 -0.8153 -0.0442  0.4417
 3750SOL    HW119553   3.468   7.818   1.827 -1.3346 -1.2850 -0.2250
 3750SOL    HW219554   3.458   7.673   1.902 -1.7056 -0.1875  1.8790
 3751SOL     OW19555   4.151   4.454   2.078 -0.7542 -0.0762  0.5317
 3751SOL    HW119556   4.070   4.448   2.020 -0.2360  2.8164 -0.5845
 3751SOL    HW219557   4.137   4.524   2.148  1.1517  1.2659 -0.3755
 3752SOL     OW19558   2.551   1.874   1.042  0.1323  0.5397  0.5165
 3752SOL    HW119559   2.543   1.878   1.142 -2.5528  1.0051  0.3183
 3752SOL    HW219560   2.608   1.951   1.011 -0.3356  1.3365  1.5782
 3753SOL     OW19561   0.310   4.107   1.092 -0.5707  0.5343 -0.4609
 3753SOL    HW119562   0.381   4.038   1.102 -0.4680  0.7192  0.0864
 3753SOL    HW219563   0.263   4.120   1.179  0.8664  2.7479  0.0003
 3754SOL     OW19564   0.919   3.020   1.956  0.0387 -0.1939  0.2338
 3754SOL    HW119565   0.872   2.949   2.008 -0.3460 -1.0170 -1.2149
 3754SOL    HW219566   0.977   3.074   2.017 -0.9375 -0.7068  1.6197
 3755SOL     OW19567   7.355   6.385   3.563  0.1418  0.4783  0.1248
 3755SOL    HW119568   7.305   6.301   3.587  0.5168 -0.1602 -1.2733
 3755SOL    HW219569   7.301   6.438   3.498  2.0343 -1.1257 -2.8474
 3756SOL     OW19570   8.530   6.697   3.064 -0.7025 -0.5793  0.4927
 3756SOL    HW119571   8.537   6.606   3.105 -1.3783 -0.8599 -0.0091
 3756SOL    HW219572   8.452   6.700   3.002  0.1867 -0.1224 -0.6441
 3759SOL     OW19573   0.470   1.806   2.276 -0.2917 -0.1217  0.4802
 3759SOL    HW119574   0.569   1.798   2.260 -0.3361  1.1377 -0.5028
 3759SOL    HW219575   0.439   1.729   2.331  1.3947 -0.1031  1.4981
 3760SOL     OW19576   7.575   7.999   3.660 -0.3057  0.3603  0.0876
 3760SOL    HW119577   7.546   8.080   3.709 -2.3715 -0.4524  0.2522
 3760SOL    HW219578   7.539   8.001   3.567  0.8792  0.3254 -0.3919
 3761SOL     OW19579   7.960   0.018   1.452  0.0918  0.6710 -0.0680
 3761SOL    HW119580   7.877   0.073   1.455  1.1810  2.4597 -1.4069
 3761SOL    HW219581   8.039   0.079   1.442  1.4166 -1.1076 -0.5443
 3763SOL     OW19582   2.867   6.104   1.541  0.1731  0.3081 -0.4227
 3763SOL    HW119583   2.824   6.041   1.476 -0.3880 -2.3045  2.3717
 3763SOL    HW219584   2.946   6.060   1.583  1.0238  2.2776  0.1063
 3764SOL     OW19585   2.567   9.310   3.703 -0.1260  0.3333 -0.3174
 3764SOL    HW119586   2.528   9.248   3.770 -0.5565  1.6023  0.6106
 3764SOL    HW219587   2.658   9.276   3.677  0.2351  0.0669  1.2213
 3765SOL     OW19588   1.843   3.546   2.932  0.7851  0.2233 -0.4125
 3765SOL    HW119589   1.899   3.464   2.938 -0.4861 -0.5175  2.7917
 3765SOL    HW219590   1.899   3.623   2.902  2.8740 -1.0373  0.1463
 3767SOL     OW19591   9.978   0.360   0.639 -0.0643 -0.0931 -0.9448
 3767SOL    HW119592  10.003   0.281   0.696  0.7164 -0.6482 -2.0306
 3767SOL    HW219593   9.911   0.332   0.571 -1.1192  0.6088 -0.2040
 3768SOL     OW19594   0.755   5.867   0.331  0.0519  0.3071  0.4669
 3768SOL    HW119595   0.727   5.910   0.417  1.9347  0.7967  0.8601
 3768SOL    HW219596   0.792   5.936   0.269  1.3925 -0.4451  0.3956
 3770SOL     OW19597   2.966   7.843   1.175  0.4095  0.1176 -0.1791
 3770SOL    HW119598   2.998   7.748   1.167  1.1811  0.5344 -2.2233
 3770SOL    HW219599   2.866   7.844   1.173  0.3057 -0.8766  2.6306
 3771SOL     OW19600   3.885   3.073   3.669 -0.2131 -0.2286  0.2865
 3771SOL    HW119601   3.864   3.004   3.599 -0.6138  0.1186  0.0634
 3771SOL    HW219602   3.964   3.126   3.641 -1.1559  0.7693 -0.5211
 3772SOL     OW19603   9.286   0.288   0.468 -0.4768  0.5900 -0.0911
 3772SOL    HW119604   9.375   0.321   0.435  0.4958 -0.5063  1.3872
 3772SOL    HW219605   9.223   0.365   0.474  0.5555  1.4893 -0.5520
 3773SOL     OW19606   0.412   5.367   0.741  0.3372  0.2474  0.4826
 3773SOL    HW119607   0.441   5.294   0.803  2.0291  0.0307 -0.5586
 3773SOL    HW219608   0.364   5.438   0.794 -3.4009 -2.6600  1.1874
 3774SOL     OW19609   0.011   2.907   2.219  0.3158 -0.0125  0.1131
 3774SOL    HW119610   0.012   2.814   2.254 -0.9983 -0.2698 -0.4952
 3774SOL    HW219611   0.058   2.911   2.131  0.5159 -0.0746  0.2194
 3775SOL     OW19612   8.954   9.984   1.648  0.4132  0.1250  0.5015
 3775SOL    HW119613   8.949   9.887   1.672 -0.5594  0.0791  0.1086
 3775SOL    HW219614   9.014  10.031   1.713  2.8358 -1.1788 -0.6962
 3776SOL     OW19615   0.725   6.830   0.686  0.3924 -0.3146 -0.1305
 3776SOL    HW119616   0.765   6.762   0.624  0.6084 -0.6711  0.3929
 3776SOL    HW219617   0.781   6.913   0.685 -0.5405  0.3144 -1.6871
 3777SOL     OW19618   9.774   6.065   0.096 -0.1597 -0.4074 -0.7829
 3777SOL    HW119619   9.786   5.969   0.121 -0.3966 -0.4408 -0.7991
 3777SOL    HW219620   9.698   6.104   0.148  0.6533  0.0794  0.0518
 3778SOL     OW19621   0.257   6.785   1.880  0.7826  0.0180  0.0488
 3778SOL    HW119622   0.309   6.748   1.958 -0.1760 -1.5297 -0.0407
 3778SOL    HW219623   0.193   6.854   1.913 -0.5183 -1.5361  0.8324
 3779SOL     OW19624   8.609   1.394   0.627 -0.5321  0.0373 -0.2826
 3779SOL    HW119625   8.638   1.463   0.561  0.9589 -1.2982 -1.0620
 3779SOL    HW219626   8.534   1.341   0.589 -0.2358 -0.1811 -0.5616
 3781SOL     OW19627   9.589   6.006   2.436 -0.5866  0.4836 -0.9785
 3781SOL    HW119628   9.537   6.047   2.511 -1.0472  0.3511 -1.2242
 3781SOL    HW219629   9.527   5.956   2.376 -0.1963  0.4508 -1.3572
 3782SOL     OW19630   8.541   0.515   3.395 -0.4300 -0.0127 -0.1522
 3782SOL    HW119631   8.509   0.544   3.304 -1.1574 -1.4444 -0.3807
 3782SOL    HW219632   8.614   0.448   3.384 -0.5848 -0.2599  0.3195
 3784SOL     OW19633   1.385   3.854   0.261  0.2976  0.4567  0.3132
 3784SOL    HW119634   1.301   3.845   0.315 -1.5041 -1.9010 -2.6492
 3784SOL    HW219635   1.365   3.905   0.177  1.2371 -1.9457 -1.4334
 3785SOL     OW19636   2.553   3.152   0.063  0.2051 -0.0311 -0.7724
 3785SOL    HW119637   2.560   3.061   0.106  1.3674 -0.1762 -1.2481
 3785SOL    HW219638   2.641   3.199   0.072  0.0132  0.5111 -1.7124
 3786SOL     OW19639   5.107   3.075   2.301  0.0509 -0.0981 -0.1658
 3786SOL    HW119640   5.200   3.099   2.272 -1.2609  3.0714 -2.0061
 3786SOL    HW219641   5.100   3.084   2.400  1.7485 -0.6236  0.0195
 3787SOL     OW19642   2.296   9.885   3.297  0.5341 -0.2765 -0.1253
 3787SOL    HW119643   2.364   9.936   3.243  0.0158 -1.6175 -2.0963
 3787SOL    HW219644   2.341   9.840   3.373  1.8623 -1.0345 -1.3348
 3788SOL     OW19645   0.458   7.136   0.189 -0.2286  0.2201 -0.0220
 3788SOL    HW119646   0.461   7.202   0.114 -0.2600 -0.3324 -0.5106
 3788SOL    HW219647   0.531   7.069   0.178  1.5916  1.8212  2.0123
 3789SOL     OW19648   9.091   3.763   3.186 -0.2757  0.6189  0.2598
 3789SOL    HW119649   8.997   3.765   3.220 -0.3310 -1.1475  0.2344
 3789SOL    HW219650   9.118   3.855   3.158 -1.5639  1.3695  1.4350
 3790SOL     OW19651   2.304   2.203   1.613  0.0641 -0.1148 -0.0328
 3790SOL    HW119652   2.371   2.265   1.572  0.6644 -0.9466 -0.3079
 3790SOL    HW219653   2.220   2.254   1.634 -0.0079  0.4488 -1.6768
 3791SOL     OW19654   8.732   1.284   2.955 -0.4409  0.3060  0.6188
 3791SOL    HW119655   8.692   1.297   3.046  0.8268  3.1058  0.8543
 3791SOL    HW219656   8.798   1.358   2.937  2.7331 -2.7211 -0.7554
 3793SOL     OW19657   0.167   5.137   0.952  0.0598  0.0876 -0.0970
 3793SOL    HW119658   0.126   5.228   0.947 -0.1384  0.0198  0.3346
 3793SOL    HW219659   0.103   5.072   0.992  0.0797 -0.3194 -0.7142
 3794SOL     OW19660   9.661   8.306   2.951 -0.0349  0.0464  0.2359
 3794SOL    HW119661   9.606   8.230   2.917 -1.4993  0.7956  0.8874
 3794SOL    HW219662   9.672   8.375   2.879  1.2535 -0.7476 -0.3391
 3795SOL     OW19663   0.231   2.257   0.875 -0.1804  0.0531 -0.0770
 3795SOL    HW119664   0.132   2.271   0.885 -0.1880  1.6174 -1.9033
 3795SOL    HW219665   0.250   2.216   0.786  0.9935  2.6748 -1.1064
 3796SOL     OW19666   1.303   7.862   3.710 -0.0366  0.2372 -0.5025
 3796SOL    HW119667   1.237   7.824   3.776 -1.1605  1.1962 -1.0573
 3796SOL    HW219668   1.327   7.791   3.643 -1.1136  0.1088 -0.7619
 3797SOL     OW19669   1.209   5.582   3.601  0.1756 -0.5029 -0.0458
 3797SOL    HW119670   1.120   5.573   3.556 -1.0120 -2.1317  2.4980
 3797SOL    HW219671   1.237   5.678   3.599 -1.7481  0.0770 -0.6769
 3799SOL     OW19672   7.636   1.593   1.399 -0.4862 -0.0316  0.4230
 3799SOL    HW119673   7.548   1.631   1.426 -0.8128 -1.3043  1.2243
 3799SOL    HW219674   7.706   1.621   1.465 -0.5459 -0.0446  0.4925
 3800SOL     OW19675   1.098   6.499   2.379  0.5139  0.1260  0.3935
 3800SOL    HW119676   1.044   6.543   2.451  2.2102  1.9756  0.5650
 3800SOL    HW219677   1.136   6.568   2.318 -0.7181 -1.4169 -2.2087
 3801SOL     OW19678   8.613   4.517   2.272 -0.0722  0.5887  0.6635
 3801SOL    HW119679   8.639   4.564   2.188  2.9861 -0.1480  1.1607
 3801SOL    HW219680   8.567   4.582   2.333 -1.0863  1.4622 -0.9865
 3802SOL     OW19681   9.462   8.876   3.442  0.2350 -0.2085 -0.1580
 3802SOL    HW119682   9.536   8.917   3.496  0.4705 -0.5604 -0.2111
 3802SOL    HW219683   9.431   8.792   3.487 -0.4303  0.1717  0.0932
 3803SOL     OW19684   2.437   1.037   0.981  0.2848 -0.5958  0.1730
 3803SOL    HW119685   2.504   1.026   0.908 -0.0244  0.7019 -0.3326
 3803SOL    HW219686   2.448   1.127   1.023 -0.0742 -1.0122  1.1767
 3804SOL     OW19687   8.769   3.821   3.751 -0.4114 -0.5332 -0.5261
 3804SOL    HW119688   8.840   3.823   3.822 -0.8354 -0.2929 -0.1033
 3804SOL    HW219689   8.690   3.770   3.785 -1.5074  1.4895  0.0314
 3806SOL     OW19690   2.906   0.677   3.047  0.2692 -0.3886  0.0667
 3806SOL    HW119691   2.875   0.704   3.138  0.1653  0.7898 -0.3145
 3806SOL    HW219692   2.978   0.608   3.056  1.2203  0.7306  1.0671
 3807SOL     OW19693   1.091   0.379   1.508  0.1476  0.6401  0.1279
 3807SOL    HW119694   1.137   0.400   1.594 -2.5652 -0.7951  2.0272
 3807SOL    HW219695   1.086   0.279   1.496 -1.2467  0.7862 -0.6712
 3808SOL     OW19696   2.657   2.076   1.436  0.0113 -0.3672  0.4908
 3808SOL    HW119697   2.570   2.081   1.386  0.4657 -1.1730 -0.4090
 3808SOL    HW219698   2.732   2.105   1.376  0.3615  0.4160  1.2934
 3809SOL     OW19699   0.542   1.969   3.462  0.6752  0.4290 -0.2956
 3809SOL    HW119700   0.584   1.997   3.548  0.4872 -2.1537  0.6910
 3809SOL    HW219701   0.443   1.959   3.474  0.7945 -1.1007 -0.4546
 3810SOL     OW19702   7.878   5.720   0.598 -0.0659 -0.0591  0.7731
 3810SOL    HW119703   7.825   5.728   0.514  2.2103  0.5812 -0.6573
 3810SOL    HW219704   7.919   5.809   0.620  1.1000 -0.7249  1.3363
 3812SOL     OW19705   0.433   9.275   2.711 -0.2274 -0.0618 -0.0085
 3812SOL    HW119706   0.422   9.317   2.801 -0.8481 -3.8263  1.7706
 3812SOL    HW219707   0.350   9.290   2.657 -0.5908  0.6185  0.7197
 3813SOL     OW19708   2.427   2.717   0.828  0.6065 -0.2760 -1.1015
 3813SOL    HW119709   2.477   2.632   0.812 -1.0721 -1.1451 -1.7915
 3813SOL    HW219710   2.339   2.714   0.780 -1.4010  0.0272  2.4390
 3814SOL     OW19711   0.234   8.229   0.573  0.1825  0.0565  0.0275
 3814SOL    HW119712   0.200   8.315   0.535 -1.8733 -1.2968 -1.3005
 3814SOL    HW219713   0.282   8.177   0.501 -0.2413 -0.7480  0.3225
 3815SOL     OW19714   2.983   1.489   2.347 -0.5461  0.1821  0.3009
 3815SOL    HW119715   2.996   1.398   2.386 -0.7072  0.9138  2.1091
 3815SOL    HW219716   2.885   1.504   2.330 -0.4851 -0.1042 -0.3057
 3816SOL     OW19717   4.628   3.852   0.213  0.0760 -0.2079 -0.7797
 3816SOL    HW119718   4.575   3.935   0.228  1.1752  0.3436  0.0684
 3816SOL    HW219719   4.574   3.788   0.157 -1.0796  0.7403 -0.7693
 3818SOL     OW19720   3.045   7.922   2.864  1.1106 -0.0835 -0.0757
 3818SOL    HW119721   3.060   8.018   2.888  1.0280  0.2221 -1.2316
 3818SOL    HW219722   3.114   7.892   2.799  0.1001 -0.3029 -1.0593
 3819SOL     OW19723   4.674   9.053   3.283 -0.6812  0.1948  0.0423
 3819SOL    HW119724   4.675   9.024   3.379 -0.7243 -0.1660 -0.0637
 3819SOL    HW219725   4.626   9.140   3.275 -0.0533  0.5811  0.4466
 3820SOL     OW19726   4.839   2.297   0.334  1.0695  0.1107  0.1267
 3820SOL    HW119727   4.871   2.236   0.262 -3.4518 -0.4683 -1.5631
 3820SOL    HW219728   4.795   2.243   0.406 -1.4590  1.1529 -0.5655
 3821SOL     OW19729   8.075   4.880   1.228 -0.5728 -0.2104  0.1024
 3821SOL    HW119730   8.094   4.786   1.259 -3.0883 -0.6913  0.2968
 3821SOL    HW219731   8.077   4.942   1.307  0.8807 -0.1176  0.0063
 3822SOL     OW19732   5.256   1.770   1.033 -0.3206 -0.3405 -0.1407
 3822SOL    HW119733   5.295   1.859   1.054  0.0644 -0.4185 -0.5132
 3822SOL    HW219734   5.204   1.776   0.948  1.0621 -0.8515 -1.0290
 3824SOL     OW19735   3.428   7.421   3.479  0.3701 -0.3598 -0.1517
 3824SOL    HW119736   3.353   7.483   3.504  0.9332 -0.5766  2.1385
 3824SOL    HW219737   3.504   7.475   3.443 -0.5985 -0.0828 -1.8525
 3825SOL     OW19738   1.991   8.344   0.393  0.4427  0.0307  0.1208
 3825SOL    HW119739   1.991   8.361   0.491 -1.1934  0.6346  0.0274
 3825SOL    HW219740   1.971   8.247   0.376 -0.4463  0.1683  0.3573
 3827SOL     OW19741   4.239   9.135   2.157 -0.0581  0.1285  0.0751
 3827SOL    HW119742   4.216   9.041   2.133 -2.4360  0.9172 -0.8274
 3827SOL    HW219743   4.330   9.157   2.120  0.1025 -1.4752 -0.5387
 3828SOL     OW19744   9.921   9.359   1.606  0.0494  0.0323 -0.1149
 3828SOL    HW119745   9.841   9.418   1.601 -2.0331 -2.5366  1.7546
 3828SOL    HW219746   9.914   9.299   1.685  3.1650 -1.2473 -0.7143
 3829SOL     OW19747   9.218   6.598   3.032  0.5638  0.2249  0.4420
 3829SOL    HW119748   9.211   6.692   3.067 -0.4410 -0.1548  1.2982
 3829SOL    HW219749   9.273   6.544   3.095  0.6479  0.1004  0.2590
 3830SOL     OW19750   3.729   3.338   2.689 -0.1405 -0.0727  0.3602
 3830SOL    HW119751   3.659   3.410   2.695  0.4737  0.5801 -0.2312
 3830SOL    HW219752   3.792   3.360   2.615 -0.4864 -1.7162 -0.4308
 3831SOL     OW19753   5.204   9.345   1.389  0.0991  0.1274 -0.4741
 3831SOL    HW119754   5.257   9.407   1.332 -0.5875  2.0234  0.8856
 3831SOL    HW219755   5.265   9.280   1.434  1.1871  1.6451  0.2847
 3832SOL     OW19756   0.398   8.297   1.955  0.0353 -0.1598 -0.0062
 3832SOL    HW119757   0.341   8.365   1.910 -0.3690  0.4310  1.3765
 3832SOL    HW219758   0.351   8.208   1.953 -0.6013  0.1594  0.4547
 3833SOL     OW19759   5.302   9.304   3.694  0.1823 -0.2979  0.7538
 3833SOL    HW119760   5.331   9.396   3.721 -0.2956  0.0989 -0.0659
 3833SOL    HW219761   5.373   9.263   3.637  0.1505 -0.2247  0.6616
 3834SOL     OW19762   1.303   5.581   2.699 -0.2883 -0.0918  0.3824
 3834SOL    HW119763   1.376   5.650   2.696  0.5244 -0.8301  2.5065
 3834SOL    HW219764   1.265   5.569   2.607  1.5434  1.0700 -0.5572
 3835SOL     OW19765   9.888   2.172   1.259 -0.6997 -0.2219  0.0782
 3835SOL    HW119766   9.965   2.178   1.322  0.0457 -1.0930 -0.7328
 3835SOL    HW219767   9.802   2.169   1.311 -0.0264 -2.3461  1.1268
 3837SOL     OW19768   1.939   3.675   1.879  0.0392  0.1573  0.5962
 3837SOL    HW119769   1.962   3.759   1.929 -1.2566  1.1767 -0.5049
 3837SOL    HW219770   1.965   3.685   1.783 -1.0700 -0.3166  0.2469
 3839SOL     OW19771   7.474   9.608   1.658  0.0467 -1.0093  0.4119
 3839SOL    HW119772   7.562   9.599   1.705 -0.1345 -2.2553  0.5273
 3839SOL    HW219773   7.400   9.607   1.725 -0.1071 -0.9829  0.2435
 3841SOL     OW19774   3.199   5.263   2.627 -0.2564  0.4003 -0.5619
 3841SOL    HW119775   3.255   5.338   2.592 -0.4643  1.4007  1.2061
 3841SOL    HW219776   3.138   5.297   2.698 -0.2920 -1.4619  0.3208
 3843SOL     OW19777   9.900   2.902   1.539  0.3487  0.0563  0.2128
 3843SOL    HW119778   9.982   2.868   1.586  0.1711  1.4613  1.5980
 3843SOL    HW219779   9.846   2.825   1.506  2.1183 -0.8991 -0.5552
 3844SOL     OW19780   1.536   3.314   0.897 -0.1788  0.0534  0.0025
 3844SOL    HW119781   1.607   3.285   0.832  1.1062  0.2790  1.2778
 3844SOL    HW219782   1.468   3.369   0.849  1.2240  0.9719 -0.9780
 3845SOL     OW19783   1.826   7.366   1.260  0.3548 -0.3076  0.1542
 3845SOL    HW119784   1.920   7.392   1.239  0.5213  0.2328  1.5670
 3845SOL    HW219785   1.789   7.426   1.331  0.1347 -2.7808  2.1562
 3846SOL     OW19786   3.648   2.262   0.607  0.2773  0.0087  0.3910
 3846SOL    HW119787   3.568   2.258   0.547  0.1222  1.7701  0.4335
 3846SOL    HW219788   3.672   2.358   0.623  0.9343 -0.4604  2.3226
 3848SOL     OW19789   3.724   1.501   0.705 -0.3330  0.0399 -0.5462
 3848SOL    HW119790   3.674   1.518   0.790  0.2182 -0.2143 -0.1642
 3848SOL    HW219791   3.704   1.574   0.640 -1.4910 -0.2737 -0.5353
 3851SOL     OW19792   8.069   8.922   0.938 -0.2788 -0.1383  0.1887
 3851SOL    HW119793   8.021   8.835   0.938 -0.7058  0.0949 -0.4613
 3851SOL    HW219794   8.152   8.915   0.993 -0.2400 -0.9910  0.0179
 3852SOL     OW19795   0.452   8.245   0.735  0.6100 -0.1381  0.2481
 3852SOL    HW119796   0.366   8.250   0.684 -0.3910  0.8626  1.9863
 3852SOL    HW219797   0.528   8.269   0.674 -0.3901 -0.3990 -1.1435
 3853SOL     OW19798   9.458   7.225   0.967  0.2097 -0.5525  0.2207
 3853SOL    HW119799   9.395   7.297   0.939  1.2450 -0.5008 -2.0565
 3853SOL    HW219800   9.408   7.139   0.978 -0.3524 -0.3875 -1.0157
 3854SOL     OW19801   2.964   9.616   3.677  0.0303  0.3579 -0.5466
 3854SOL    HW119802   2.989   9.550   3.607  0.0545  1.5382 -1.6552
 3854SOL    HW219803   3.042   9.677   3.696  0.4108 -0.6565  1.3240
 3855SOL     OW19804   0.341   1.094   2.616 -0.1701 -0.2775  0.3346
 3855SOL    HW119805   0.341   1.194   2.616 -1.0252 -0.2652  1.0571
 3855SOL    HW219806   0.435   1.060   2.619  0.0929  0.5275  2.4892
 3856SOL     OW19807   8.849   2.357   2.727 -0.0550  0.4747  0.3717
 3856SOL    HW119808   8.946   2.377   2.741 -0.0566  1.5702 -1.0913
 3856SOL    HW219809   8.796   2.401   2.799  0.5050  0.0560  1.0525
 3857SOL     OW19810   5.583   9.348   2.251  0.0067  0.5754  0.1397
 3857SOL    HW119811   5.521   9.367   2.175  1.1157 -1.8866 -1.4842
 3857SOL    HW219812   5.645   9.425   2.264 -0.9219  1.4799 -0.7124
 3858SOL     OW19813   1.769   3.206   0.714 -0.1455 -0.5209  0.1276
 3858SOL    HW119814   1.833   3.130   0.727  1.1740  0.6387  0.5095
 3858SOL    HW219815   1.701   3.180   0.646  0.9637 -1.6458 -0.5893
 3862SOL     OW19816   3.691   2.472   2.619 -0.4658 -0.6527 -0.1246
 3862SOL    HW119817   3.760   2.457   2.548 -0.5367 -0.4429 -0.2402
 3862SOL    HW219818   3.648   2.385   2.643 -2.9792 -0.2569 -2.9189
 3863SOL     OW19819   4.555   8.900   0.534  0.2697  0.7416 -0.7447
 3863SOL    HW119820   4.591   8.899   0.441 -0.0737  2.8192 -0.9090
 3863SOL    HW219821   4.504   8.985   0.550 -0.5391 -0.0416  1.0123
 3864SOL     OW19822   9.104   5.808   1.622  0.1186 -0.4012  0.3163
 3864SOL    HW119823   9.018   5.785   1.578 -0.5508  2.5965 -0.0041
 3864SOL    HW219824   9.087   5.860   1.706  1.5181 -2.8694  2.2177
 3865SOL     OW19825   3.230   3.303   2.424 -0.0581  0.2064 -0.2505
 3865SOL    HW119826   3.258   3.210   2.400 -1.8289  0.0390 -1.7277
 3865SOL    HW219827   3.311   3.355   2.452  0.9898 -1.6943  0.3967
 3866SOL     OW19828   8.243   1.315   0.912  0.7516  0.7913 -0.1012
 3866SOL    HW119829   8.149   1.285   0.900  1.1801 -0.8060  0.3448
 3866SOL    HW219830   8.248   1.385   0.982  0.0229  0.1143  0.6300
 3867SOL     OW19831   6.075   9.921   2.013  0.0242 -0.3689  0.7671
 3867SOL    HW119832   6.037   9.870   1.937  0.1217  0.5191  0.1069
 3867SOL    HW219833   6.156   9.874   2.048 -0.5355 -1.2395  0.9060
 3869SOL     OW19834   8.817   1.679   0.936 -0.0549 -0.7754 -0.0501
 3869SOL    HW119835   8.805   1.597   0.880 -1.1755  0.0046 -0.9935
 3869SOL    HW219836   8.789   1.759   0.883  1.7679  0.3087  0.5834
 3870SOL     OW19837   9.299   3.668   0.048  0.1223 -0.0134  0.1975
 3870SOL    HW119838   9.265   3.673  -0.046  1.5556  1.5275 -0.2635
 3870SOL    HW219839   9.388   3.622   0.048  1.3026  2.2114  0.4420
 3871SOL     OW19840   3.023   5.273   0.646 -0.5888 -0.2778  0.1189
 3871SOL    HW119841   3.070   5.236   0.566 -0.0811 -0.9864  0.7318
 3871SOL    HW219842   3.045   5.370   0.656  1.0852 -0.6936  0.6219
 3872SOL     OW19843   4.253   8.499   3.237  0.4548  0.4201 -1.1530
 3872SOL    HW119844   4.235   8.417   3.291  1.8268  0.0568 -1.2270
 3872SOL    HW219845   4.347   8.530   3.254 -0.6825  3.1568  0.4176
 3873SOL     OW19846   2.095   2.425   2.164  0.0586 -0.2264  0.0382
 3873SOL    HW119847   2.163   2.429   2.090  0.8156 -0.1893  0.7221
 3873SOL    HW219848   2.114   2.498   2.230 -0.4687 -0.4116  0.3928
 3874SOL     OW19849   7.394   9.105   2.611  0.7563 -0.1526  0.0486
 3874SOL    HW119850   7.405   9.038   2.538  0.2750  0.5365 -0.6687
 3874SOL    HW219851   7.470   9.170   2.608 -0.1921  0.9367 -0.9886
 3875SOL     OW19852   0.860   6.134   2.399  0.1451  0.6470 -0.2579
 3875SOL    HW119853   0.889   6.208   2.339  3.9800  1.2324  2.0730
 3875SOL    HW219854   0.915   6.052   2.380  0.8284  0.5946  1.7832
 3876SOL     OW19855   0.580   7.943   0.173 -0.0160 -0.0012 -0.1301
 3876SOL    HW119856   0.499   7.889   0.152  0.2920 -1.6260  2.5417
 3876SOL    HW219857   0.592   8.014   0.105 -4.1693  0.8116 -0.0987
 3878SOL     OW19858   3.939   4.475   1.907  0.0678  0.1658 -0.8182
 3878SOL    HW119859   3.889   4.556   1.877  0.9569  1.1259  0.2105
 3878SOL    HW219860   3.886   4.393   1.888 -1.6095  1.1162 -0.3105
 3879SOL     OW19861   9.399   6.105   3.574 -0.9870 -0.4403 -0.1651
 3879SOL    HW119862   9.357   6.190   3.604 -0.9659 -0.6654  0.5066
 3879SOL    HW219863   9.374   6.031   3.637 -0.0532 -0.6943 -0.0805
 3880SOL     OW19864   5.454   7.839   2.061  0.1390 -0.0613 -0.5459
 3880SOL    HW119865   5.366   7.793   2.066 -0.0586  0.3113 -0.5945
 3880SOL    HW219866   5.493   7.846   2.153  0.5270 -1.0090 -0.6300
 3881SOL     OW19867   1.580   1.369   0.938  0.0929 -0.1400  0.3064
 3881SOL    HW119868   1.490   1.351   0.899  0.3532  0.3479 -0.5214
 3881SOL    HW219869   1.586   1.465   0.964  0.8969  0.1736 -1.0094
 3882SOL     OW19870   9.103   7.923   2.325  0.0364 -0.3025 -0.2668
 3882SOL    HW119871   9.179   7.973   2.285  0.8365 -1.1751  0.1453
 3882SOL    HW219872   9.098   7.831   2.285 -0.1802 -0.5907  0.4104
 3883SOL     OW19873   3.653   1.702   3.628 -0.4018 -0.4583  0.6136
 3883SOL    HW119874   3.694   1.613   3.647  1.5840  0.8381  2.7402
 3883SOL    HW219875   3.603   1.735   3.708  0.9592  1.3837  0.7589
 3884SOL     OW19876   4.092   0.773   2.886  0.1971 -0.3484  0.0851
 3884SOL    HW119877   4.016   0.709   2.872  0.9042 -1.1258 -0.2661
 3884SOL    HW219878   4.079   0.854   2.828 -0.8962  0.0062  0.8148
 3885SOL     OW19879   9.419   9.554   2.239  0.3265  0.1198  0.1043
 3885SOL    HW119880   9.372   9.468   2.259 -0.1829  0.2454 -0.5268
 3885SOL    HW219881   9.366   9.630   2.278 -0.5412  0.3450 -1.4702
 3886SOL     OW19882   9.262   5.429   3.249 -0.4638 -0.0202 -0.5100
 3886SOL    HW119883   9.249   5.523   3.218  0.2979 -0.6301 -2.7453
 3886SOL    HW219884   9.358   5.415   3.274 -0.8517  0.1592  1.1495
 3889SOL     OW19885   1.574   8.405   0.230  0.3280  0.5967  0.2334
 3889SOL    HW119886   1.567   8.310   0.200 -1.1095  0.0021  2.3866
 3889SOL    HW219887   1.668   8.424   0.259  0.6125 -0.1526 -0.1779
 3890SOL     OW19888   7.775   0.298   0.964 -0.7859 -0.0461 -0.2738
 3890SOL    HW119889   7.728   0.305   1.052  0.7407 -2.2628  0.7665
 3890SOL    HW219890   7.824   0.383   0.946 -0.5063  0.1646  1.3959
 3891SOL     OW19891   3.925   7.489   2.219  0.1206  0.7109 -0.8314
 3891SOL    HW119892   3.881   7.579   2.216 -0.5041  0.4073 -0.7649
 3891SOL    HW219893   3.947   7.459   2.126 -0.8862  0.3347 -0.9523
 3893SOL     OW19894   2.690   4.896   2.346 -0.4687 -0.1802 -0.0516
 3893SOL    HW119895   2.633   4.970   2.382 -1.0416  0.3411 -1.9646
 3893SOL    HW219896   2.785   4.926   2.341 -0.6049  0.2286 -0.2474
 3895SOL     OW19897   4.494   8.577   2.084  0.0657 -0.0733 -0.1504
 3895SOL    HW119898   4.543   8.558   2.169 -1.3980  0.4127  0.8069
 3895SOL    HW219899   4.469   8.673   2.080 -1.3740 -0.4407 -0.3300
 3897SOL     OW19900   2.352   2.342   2.431  0.2662 -0.2619 -0.4474
 3897SOL    HW119901   2.368   2.247   2.402  0.7559 -0.7903  1.5163
 3897SOL    HW219902   2.293   2.343   2.512  1.2528  1.0633  0.2701
 3898SOL     OW19903   9.308   0.267   2.183 -0.0711  0.1543 -0.1772
 3898SOL    HW119904   9.370   0.189   2.198  0.0564 -0.0817 -1.8026
 3898SOL    HW219905   9.298   0.318   2.268  2.3038  0.1551  0.1518
 3900SOL     OW19906   4.645   3.707   0.459  0.1343  0.3811  0.6979
 3900SOL    HW119907   4.634   3.755   0.372 -2.2095  1.0672  1.3477
 3900SOL    HW219908   4.555   3.683   0.496  1.2111 -3.8552  0.7741
 3901SOL     OW19909   4.030   7.435   3.025 -0.4453 -0.2476 -0.7091
 3901SOL    HW119910   4.116   7.484   3.040  0.6370 -2.3142  0.1322
 3901SOL    HW219911   3.980   7.429   3.111 -1.4289  0.9101 -1.1899
 3902SOL     OW19912   1.189   2.755   0.955 -0.6539  0.4631 -0.0068
 3902SOL    HW119913   1.098   2.785   0.983 -0.5178  0.0758  0.8823
 3902SOL    HW219914   1.258   2.812   1.000 -0.4550  0.7453 -0.6639
 3904SOL     OW19915   1.230   0.904   0.954  0.4468 -0.0557 -0.3179
 3904SOL    HW119916   1.222   0.817   1.002  0.1986  0.1983  0.0952
 3904SOL    HW219917   1.183   0.975   1.005  0.0832  0.1880 -0.9936
 3905SOL     OW19918   4.962   7.178   2.080 -0.6346 -0.0042 -1.2208
 3905SOL    HW119919   4.870   7.158   2.114 -1.1863  3.4942 -0.4150
 3905SOL    HW219920   4.960   7.190   1.981 -0.5285 -2.3873 -1.5405
 3906SOL     OW19921   6.528   7.835   3.286 -0.1638  0.3007 -0.2223
 3906SOL    HW119922   6.496   7.867   3.375 -1.1648  1.1129 -0.8666
 3906SOL    HW219923   6.468   7.869   3.214  0.5424 -0.4820 -1.2060
 3907SOL     OW19924   2.763   8.225   0.732 -0.1391  0.3585  0.5012
 3907SOL    HW119925   2.735   8.192   0.642 -0.3203  1.4164  0.1650
 3907SOL    HW219926   2.835   8.165   0.769 -0.5038 -0.4396 -0.0626
 3909SOL     OW19927   0.892   6.612   2.035 -0.6986 -0.1393 -0.0335
 3909SOL    HW119928   0.975   6.564   2.004 -1.6862 -0.6370 -1.9402
 3909SOL    HW219929   0.919   6.689   2.093  1.0217 -1.3795  0.8954
 3910SOL     OW19930   8.723   1.093   0.824 -0.1394  0.2183  0.0359
 3910SOL    HW119931   8.634   1.137   0.813  0.2963  0.8267 -1.1437
 3910SOL    HW219932   8.781   1.116   0.746  0.2778 -2.0146 -0.3546
 3911SOL     OW19933   7.548   8.150   2.802  0.4026 -0.0781 -0.4765
 3911SOL    HW119934   7.496   8.067   2.783 -0.8759  0.9114 -1.3933
 3911SOL    HW219935   7.552   8.165   2.901 -0.8335 -0.3168 -0.3811
 3912SOL     OW19936   1.843   8.039   2.445 -0.8782 -0.2631  0.0747
 3912SOL    HW119937   1.839   7.989   2.532 -2.8285  0.9425  0.6975
 3912SOL    HW219938   1.754   8.035   2.401  0.0555 -0.7076 -1.8137
 3915SOL     OW19939   0.026   9.577   2.896  0.0682 -0.1756  0.1501
 3915SOL    HW119940   0.090   9.652   2.910 -0.3495  0.2187 -0.0311
 3915SOL    HW219941  -0.063   9.614   2.869  0.2639 -0.8041 -1.4453
 3916SOL     OW19942   8.402   0.960   2.034 -0.3173  0.4965 -0.5231
 3916SOL    HW119943   8.476   0.893   2.020 -0.1042  0.7203 -0.4853
 3916SOL    HW219944   8.372   0.956   2.129 -1.0740 -0.3254 -0.7923
 3917SOL     OW19945   8.394   8.346   3.056  0.6671  0.0228  0.1171
 3917SOL    HW119946   8.488   8.330   3.088  0.1906  0.6469  1.8789
 3917SOL    HW219947   8.334   8.274   3.092  0.3225  0.0795 -0.3415
 3918SOL     OW19948   0.643   1.845   0.671 -0.0057 -0.3272  0.1804
 3918SOL    HW119949   0.547   1.821   0.688  0.0676 -0.2691  0.6971
 3918SOL    HW219950   0.702   1.791   0.731  0.4015 -1.6459 -1.3809
 3919SOL     OW19951   0.594   3.600   1.009 -0.0115  0.4707 -0.0267
 3919SOL    HW119952   0.564   3.690   1.040  1.3793  0.3509  1.7194
 3919SOL    HW219953   0.690   3.603   0.984  0.0285 -0.4974 -0.0217
 3920SOL     OW19954   0.647   2.448   0.214 -0.0774 -0.1433  0.5248
 3920SOL    HW119955   0.592   2.482   0.137 -0.7182  0.1351  1.1098
 3920SOL    HW219956   0.744   2.469   0.197 -0.2590  0.2519 -0.0299
 3921SOL     OW19957   8.586   3.658   2.871  0.4995 -0.2441  1.0088
 3921SOL    HW119958   8.599   3.757   2.878  3.4600 -0.2732 -2.5451
 3921SOL    HW219959   8.646   3.613   2.938 -0.8672  0.3145  2.6489
 3922SOL     OW19960   8.915   6.024   3.013 -0.1954 -0.4959 -0.1251
 3922SOL    HW119961   8.899   6.121   3.028 -0.1201 -0.5226  0.1493
 3922SOL    HW219962   8.979   6.012   2.938 -0.4427 -0.3439 -0.3587
 3923SOL     OW19963   9.439   6.459   2.839 -0.1320  0.4269 -0.0231
 3923SOL    HW119964   9.487   6.391   2.784  0.9076  0.5153  0.7349
 3923SOL    HW219965   9.361   6.417   2.885  0.2830 -0.1715  0.1399
 3924SOL     OW19966   8.476   8.221   2.353  0.1350  0.1254 -0.4807
 3924SOL    HW119967   8.507   8.273   2.433  1.0629  1.5407 -1.7451
 3924SOL    HW219968   8.554   8.201   2.294 -0.3846 -1.8015 -0.5641
 3925SOL     OW19969   8.280   8.068   1.700 -0.3556 -0.4181 -0.3586
 3925SOL    HW119970   8.251   7.998   1.766 -0.7804 -0.2101 -0.3253
 3925SOL    HW219971   8.310   8.150   1.748  1.2518 -0.9900 -0.3563
 3926SOL     OW19972   1.108   0.032   3.182  0.0530  0.1300 -0.5823
 3926SOL    HW119973   1.059   0.089   3.116 -0.2725  1.3090  0.6736
 3926SOL    HW219974   1.054   0.024   3.266  0.1332 -1.9496 -0.6896
 3927SOL     OW19975   3.066   7.168   3.511 -0.0946 -0.5414  0.6827
 3927SOL    HW119976   2.998   7.211   3.571  0.5952  1.0922  0.3155
 3927SOL    HW219977   3.043   7.072   3.500 -2.2260 -0.0764  0.7639
 3928SOL     OW19978   1.741   4.131   3.280 -0.1629  1.3460 -0.0799
 3928SOL    HW119979   1.682   4.148   3.201 -1.4277 -1.8547  0.1288
 3928SOL    HW219980   1.772   4.219   3.318 -1.8145  2.9810 -2.3992
 3929SOL     OW19981   7.909   1.740   2.823 -0.0366 -0.3152 -0.7905
 3929SOL    HW119982   7.976   1.787   2.882  1.4256 -0.4655 -2.3012
 3929SOL    HW219983   7.820   1.741   2.868  0.9853 -0.1891  1.3116
 3930SOL     OW19984   8.166   5.710   0.319 -0.0951  0.3653 -0.0749
 3930SOL    HW119985   8.078   5.664   0.320  0.1042 -0.0852  3.4364
 3930SOL    HW219986   8.154   5.805   0.291 -1.3967 -0.1551 -1.3514
 3931SOL     OW19987   1.039   5.035   3.665 -0.3265 -0.0170  0.4571
 3931SOL    HW119988   1.023   5.133   3.676 -2.6444 -0.3839  0.5796
 3931SOL    HW219989   1.138   5.017   3.667  0.2132  2.4791 -1.0729
 3932SOL     OW19990   0.926   1.681   1.119  0.0950  0.1173  0.8537
 3932SOL    HW119991   0.876   1.694   1.204 -2.1087  0.6641 -0.4713
 3932SOL    HW219992   0.926   1.766   1.067  1.5142 -0.1760  0.3495
 3933SOL     OW19993   9.614   9.088   0.298  0.0847  0.0319 -0.7093
 3933SOL    HW119994   9.610   8.989   0.290 -2.5183  0.1369 -1.1160
 3933SOL    HW219995   9.542   9.129   0.241  0.9050  2.1326 -0.2767
 3934SOL     OW19996   2.400   8.264   0.323  0.3491  0.1306 -0.1709
 3934SOL    HW119997   2.496   8.285   0.309  0.3133 -0.1085 -0.8312
 3934SOL    HW219998   2.380   8.174   0.284 -0.4944  0.8861 -1.5370
 3935SOL     OW19999   7.607   6.806   2.531 -0.2661 -0.1573  0.1860
 3935SOL    HW120000   7.574   6.786   2.439 -1.3996 -2.8809  1.1481
 3935SOL    HW220001   7.669   6.734   2.561  3.1049  2.5898  0.1840
 3936SOL     OW20002   4.528   6.772   3.022 -0.0247 -1.1089  0.6216
 3936SOL    HW120003   4.575   6.751   3.107  1.5802 -1.6868 -0.3888
 3936SOL    HW220004   4.515   6.688   2.969 -0.2832 -0.6338 -0.0787
 3937SOL     OW20005   8.606   0.799   3.474 -0.2693  0.1023 -0.1406
 3937SOL    HW120006   8.589   0.702   3.455  0.9434  0.0142 -0.8035
 3937SOL    HW220007   8.657   0.808   3.559 -0.4808  0.1771 -0.0193
 3938SOL     OW20008   7.134   3.299   0.186  0.0779  0.3991  0.3576
 3938SOL    HW120009   7.158   3.276   0.092 -3.4577 -1.3420 -0.2049
 3938SOL    HW220010   7.045   3.346   0.187  1.0741  2.3086  2.6676
 3939SOL     OW20011   1.854   3.667   1.577  0.2318  0.2190  0.4313
 3939SOL    HW120012   1.819   3.620   1.496 -0.2310  3.2676 -1.2148
 3939SOL    HW220013   1.940   3.713   1.554  0.0667  1.1589  1.6256
 3940SOL     OW20014   8.149   6.959   2.698 -0.3428  0.2179 -0.0731
 3940SOL    HW120015   8.145   6.970   2.798 -0.1299 -1.5498  0.1356
 3940SOL    HW220016   8.236   6.917   2.673  0.4435  2.4325 -1.2035
 3941SOL     OW20017   0.172   4.657   1.094 -0.5319 -0.2876 -0.4394
 3941SOL    HW120018   0.074   4.658   1.073 -0.6602 -0.8943  0.1054
 3941SOL    HW220019   0.199   4.564   1.119 -0.2899  0.2991  1.6156
 3942SOL     OW20020   1.142   1.348   3.321 -0.2638 -0.1679  0.3683
 3942SOL    HW120021   1.117   1.275   3.385  1.5641  1.5537  3.1531
 3942SOL    HW220022   1.219   1.400   3.358 -0.7996  2.4865 -2.0864
 3943SOL     OW20023   2.256   1.539   0.862 -0.1345 -0.2385 -0.5170
 3943SOL    HW120024   2.160   1.514   0.873 -0.8153  2.3269 -0.4564
 3943SOL    HW220025   2.296   1.560   0.951 -0.0285  0.4772 -0.7291
 3944SOL     OW20026   0.864   1.461   0.878  0.2208 -0.0936  0.2545
 3944SOL    HW120027   0.845   1.558   0.893  0.3895  0.2204 -1.4894
 3944SOL    HW220028   0.818   1.407   0.948 -2.0644  1.0640 -0.2865
 3946SOL     OW20029   3.981   1.720   3.147 -0.3198  0.0814  1.3167
 3946SOL    HW120030   3.901   1.676   3.107  1.0702 -0.4091 -1.0721
 3946SOL    HW220031   4.024   1.659   3.213 -0.7370 -0.5086  1.0435
 3947SOL     OW20032   4.676   6.957   3.616 -0.4573  0.1147  0.0170
 3947SOL    HW120033   4.653   6.965   3.519 -0.6027 -1.0289 -0.0409
 3947SOL    HW220034   4.730   6.874   3.632 -1.7420 -0.5296  1.1528
 3948SOL     OW20035   9.706   9.292   0.489 -0.0220  0.7752 -0.8436
 3948SOL    HW120036   9.797   9.251   0.497 -0.5374 -0.2617 -0.2526
 3948SOL    HW220037   9.654   9.244   0.419 -1.1754 -0.6397  0.9399
 3949SOL     OW20038   3.265   6.987   2.143  0.7329 -0.2133 -0.0668
 3949SOL    HW120039   3.284   6.940   2.229  1.4555 -0.6855 -0.4785
 3949SOL    HW220040   3.346   7.037   2.113  0.4984 -0.0807 -0.4903
 3950SOL     OW20041   2.538   4.391   0.618 -0.1086  0.0025 -0.2127
 3950SOL    HW120042   2.637   4.382   0.626 -0.0363  0.9373 -0.0502
 3950SOL    HW220043   2.515   4.485   0.592 -0.9663 -0.1334  0.0463
 3951SOL     OW20044   3.273   2.009   3.641 -0.0246 -0.5470  0.0076
 3951SOL    HW120045   3.319   2.036   3.725 -0.0971 -1.2984  0.2957
 3951SOL    HW220046   3.237   1.916   3.651  0.4260 -0.8444 -1.0362
 3952SOL     OW20047   0.161   9.193   3.427  0.0912  0.2061 -0.2521
 3952SOL    HW120048   0.099   9.236   3.493 -1.3453  0.3078 -1.6543
 3952SOL    HW220049   0.177   9.098   3.453  0.5584  0.6007  0.9476
 3953SOL     OW20050   3.736   3.853   0.060 -0.4278  0.5999  0.2480
 3953SOL    HW120051   3.805   3.806   0.116 -0.8762 -0.6494 -0.2207
 3953SOL    HW220052   3.782   3.909  -0.009  0.1275  0.3797  0.4345
 3954SOL     OW20053   4.053   0.141   0.753 -0.1541 -0.1784 -0.3573
 3954SOL    HW120054   3.982   0.208   0.732  1.3427  1.3674 -0.6211
 3954SOL    HW220055   4.102   0.169   0.836  0.3054 -1.1020 -0.3067
 3957SOL     OW20056   7.501   1.860   2.452 -0.2755  0.0345 -0.2867
 3957SOL    HW120057   7.430   1.794   2.478  1.5080 -1.8890 -0.1132
 3957SOL    HW220058   7.531   1.842   2.359  0.7191  0.1580  0.0074
 3958SOL     OW20059   5.064   6.844   2.815  0.2931 -0.5128 -0.1044
 3958SOL    HW120060   5.076   6.899   2.897 -1.0127 -0.7248  0.2567
 3958SOL    HW220061   5.120   6.880   2.741 -2.1416  2.6656 -0.5199
 3959SOL     OW20062   3.213   9.206   1.339 -0.0797 -0.1818 -0.0867
 3959SOL    HW120063   3.255   9.212   1.248 -0.2653  1.4368 -0.0793
 3959SOL    HW220064   3.145   9.132   1.339 -0.4444  0.1390 -1.4205
 3961SOL     OW20065   7.889   5.953   2.399 -0.0978 -0.5038  0.7425
 3961SOL    HW120066   7.889   5.945   2.300  0.2461 -1.5574  0.8179
 3961SOL    HW220067   7.959   6.019   2.428  0.7335 -1.1981  0.3484
 3962SOL     OW20068   4.378   7.750   0.447 -0.6331  0.4477  0.7458
 3962SOL    HW120069   4.302   7.701   0.405  0.0148 -0.6204  0.8201
 3962SOL    HW220070   4.397   7.833   0.394 -2.8381  1.5373  1.6032
 3963SOL     OW20071   8.901   9.909   2.126  0.2919 -0.0392  0.0223
 3963SOL    HW120072   8.846   9.890   2.207 -0.9999 -2.0497 -1.2940
 3963SOL    HW220073   8.851   9.971   2.065  1.3609  1.6658  0.8153
 3966SOL     OW20074   4.405   9.687   3.318 -0.4060 -0.0095  0.7503
 3966SOL    HW120075   4.383   9.591   3.299  0.1384 -0.4306  2.1978
 3966SOL    HW220076   4.395   9.704   3.416 -1.0817  1.5694  0.4141
 3968SOL     OW20077   1.276   4.870   0.815  0.8086  0.0271 -0.1775
 3968SOL    HW120078   1.280   4.922   0.729 -2.1535  1.3905  0.4174
 3968SOL    HW220079   1.227   4.785   0.800  1.2657 -0.2549 -0.0765
 3969SOL     OW20080   9.944   8.917   3.209  0.3201 -0.5913  0.4989
 3969SOL    HW120081   9.938   8.844   3.277 -1.5997  0.0293  1.0222
 3969SOL    HW220082   9.924   8.880   3.118 -1.1074 -0.6578  0.8227
 3970SOL     OW20083   9.289   2.993   0.684 -0.1748  0.2536  0.1624
 3970SOL    HW120084   9.323   3.005   0.590  0.6094 -0.2499  0.3825
 3970SOL    HW220085   9.293   3.080   0.732 -1.5177  0.7455 -0.5752
 3971SOL     OW20086   3.982   1.694   1.892 -0.1722 -0.2547 -0.4785
 3971SOL    HW120087   3.889   1.672   1.922  0.0837  0.7049  1.0851
 3971SOL    HW220088   4.047   1.654   1.957  0.4506  0.7106 -0.5106
 3972SOL     OW20089   7.655   2.562   0.604 -0.1344  0.3216  0.2640
 3972SOL    HW120090   7.614   2.633   0.547 -0.2014  0.3429  0.3388
 3972SOL    HW220091   7.584   2.506   0.645 -0.1183  0.8750  1.0521
 3973SOL     OW20092   1.607   9.385   3.005  0.0574 -0.2253  0.0189
 3973SOL    HW120093   1.588   9.328   3.085  4.7311 -1.7416  0.2214
 3973SOL    HW220094   1.672   9.457   3.030  0.1608  0.4302 -2.0314
 3975SOL     OW20095   4.395   2.264   2.997  0.3115  0.2175  0.4242
 3975SOL    HW120096   4.424   2.206   2.920 -0.5624 -0.8648  0.8838
 3975SOL    HW220097   4.422   2.358   2.980 -1.4393  0.3092 -2.0681
 3977SOL     OW20098   1.938   2.901   3.286 -0.5527 -0.0407 -0.7253
 3977SOL    HW120099   1.961   2.847   3.205  0.0762 -1.3973  0.3602
 3977SOL    HW220100   1.930   2.842   3.365  0.8830  1.5387  0.6404
 3978SOL     OW20101   9.769   5.172   1.389  0.2361 -0.9609 -0.2037
 3978SOL    HW120102   9.766   5.254   1.331  0.8489 -2.3194 -2.1846
 3978SOL    HW220103   9.690   5.114   1.369 -0.1512 -0.9125  1.1369
 3979SOL     OW20104   9.848   6.443   2.248 -0.0653  0.6027 -0.2234
 3979SOL    HW120105   9.838   6.360   2.193 -2.1848  1.9677 -2.0117
 3979SOL    HW220106   9.842   6.420   2.345 -0.3964 -1.3340 -0.6806
 3981SOL     OW20107   2.315   5.465   3.665 -0.7864  0.1811 -0.2918
 3981SOL    HW120108   2.321   5.537   3.734  0.2257 -0.2125  0.0459
 3981SOL    HW220109   2.405   5.422   3.654 -1.4951 -1.3946 -0.0864
 3982SOL     OW20110   0.879   8.964   3.287 -0.2590  0.0317  0.3332
 3982SOL    HW120111   0.799   8.935   3.235 -0.5944  0.6553  0.5089
 3982SOL    HW220112   0.852   9.026   3.360  0.5010  1.0204 -0.2088
 3983SOL     OW20113   5.340   7.177   1.911 -0.5780  0.1555 -0.0358
 3983SOL    HW120114   5.365   7.081   1.921 -0.2089  0.0608 -1.7526
 3983SOL    HW220115   5.423   7.234   1.907 -0.7282  0.3179 -1.0903
 3984SOL     OW20116   9.636   1.300   1.537  0.3192 -0.7588 -0.2953
 3984SOL    HW120117   9.622   1.329   1.631  1.9437  2.0739 -0.8731
 3984SOL    HW220118   9.549   1.307   1.487  0.1975  0.9879  0.1426
 3986SOL     OW20119   1.545   3.059   3.692  0.0440 -0.5073  0.3464
 3986SOL    HW120120   1.549   3.148   3.737  1.9077 -0.9850  1.1754
 3986SOL    HW220121   1.484   2.999   3.743 -2.3670  0.6965 -1.0207
 3987SOL     OW20122   8.724   7.256   2.947 -0.0097  0.3734  0.1545
 3987SOL    HW120123   8.751   7.348   2.921 -0.9153  0.1766 -1.5699
 3987SOL    HW220124   8.627   7.243   2.927  0.7629 -1.8872 -2.3730
 3989SOL     OW20125   8.043   1.085   3.590 -0.4607 -0.5175  0.1881
 3989SOL    HW120126   8.030   1.158   3.656  0.4666  0.5669 -0.8043
 3989SOL    HW220127   8.051   1.124   3.498 -1.4687 -1.9779 -0.5359
 3992SOL     OW20128   7.163   9.183   0.719 -0.3492  0.0710 -0.4686
 3992SOL    HW120129   7.227   9.224   0.654  0.3888  0.9467  0.7623
 3992SOL    HW220130   7.084   9.244   0.731  1.2474  1.7351  2.1534
 3993SOL     OW20131   9.182   4.645   2.872  0.0129  0.0939  0.6785
 3993SOL    HW120132   9.165   4.556   2.915 -0.8094 -0.5628 -0.9463
 3993SOL    HW220133   9.204   4.631   2.776 -1.6474  1.7390  0.0332
 3994SOL     OW20134   8.635   8.335   1.730  0.2734  0.2250  0.1527
 3994SOL    HW120135   8.704   8.364   1.664  1.1273 -2.5130 -0.1995
 3994SOL    HW220136   8.654   8.379   1.818  0.9421  1.4760 -0.5867
 3996SOL     OW20137   0.355   0.518   1.539  0.5636 -0.4542 -0.2091
 3996SOL    HW120138   0.270   0.552   1.500  0.6821 -0.5082 -0.5202
 3996SOL    HW220139   0.335   0.457   1.616  0.3328 -0.2214 -0.0847
 3997SOL     OW20140   1.532   4.761   0.538  0.3331  0.0093  0.1294
 3997SOL    HW120141   1.517   4.682   0.596 -0.0277  1.0351  1.4534
 3997SOL    HW220142   1.631   4.779   0.532  0.4332 -0.6862 -0.3885
 3998SOL     OW20143   3.624   2.007   2.353  0.3577  0.3903 -0.3095
 3998SOL    HW120144   3.685   1.951   2.297 -0.5837 -0.9869  0.0070
 3998SOL    HW220145   3.531   1.969   2.348 -0.2491  1.7924  0.1075
 4001SOL     OW20146   6.431   9.928   3.552 -0.6984  0.0759 -0.5282
 4001SOL    HW120147   6.436  10.021   3.591  1.9909  0.2810 -1.2631
 4001SOL    HW220148   6.414   9.862   3.625 -0.3379  0.9212  0.3273
 4002SOL     OW20149   7.913   5.006   1.022 -0.1053 -0.1783 -0.8478
 4002SOL    HW120150   7.969   4.966   1.095 -1.9894 -0.8927  0.2267
 4002SOL    HW220151   7.969   5.017   0.940  1.5366 -1.1461  0.1135
 4003SOL     OW20152   4.091   0.858   0.803  0.4459 -0.2896 -0.3817
 4003SOL    HW120153   4.071   0.780   0.862  0.0158 -0.3466 -0.6061
 4003SOL    HW220154   4.147   0.924   0.854  0.4540 -0.5459 -0.0557
 4005SOL     OW20155   2.238   4.366   2.951 -0.3472  0.4992 -0.3579
 4005SOL    HW120156   2.311   4.418   2.996 -1.4981  1.2601  0.6594
 4005SOL    HW220157   2.227   4.400   2.857 -0.1350  1.1475 -0.1545
 4006SOL     OW20158   0.893   9.372   0.251 -0.2239  0.0808 -0.1143
 4006SOL    HW120159   0.929   9.351   0.160  0.3508  0.1779  0.0850
 4006SOL    HW220160   0.907   9.469   0.271 -0.4924  0.0929  0.0134
 4007SOL     OW20161   2.009   7.505   1.682 -0.1813 -0.5395 -0.8874
 4007SOL    HW120162   1.969   7.530   1.770  1.8102 -0.2435 -0.0177
 4007SOL    HW220163   1.984   7.411   1.659 -1.0505 -0.4791 -0.1995
 4008SOL     OW20164   8.511   4.281   3.694  0.1205  0.2949 -0.2327
 4008SOL    HW120165   8.548   4.230   3.772  2.2507  2.2697  0.0976
 4008SOL    HW220166   8.584   4.333   3.651 -2.0242  3.2130 -0.4619
 4009SOL     OW20167   8.925   7.206   1.411 -0.2134  0.1042  0.3404
 4009SOL    HW120168   9.025   7.210   1.411 -0.2226  0.3399  0.7165
 4009SOL    HW220169   8.894   7.163   1.326  0.1442  1.7744 -0.6612
 4010SOL     OW20170   9.630   7.471   2.508  0.3383  0.0622 -0.3613
 4010SOL    HW120171   9.646   7.406   2.583  1.0002  0.8758  0.2183
 4010SOL    HW220172   9.662   7.562   2.536 -1.6384  0.8920 -0.7089
 4012SOL     OW20173   8.938   3.837   0.804  0.3851  0.1448  0.1815
 4012SOL    HW120174   8.852   3.787   0.790  1.1765 -1.8965  2.2306
 4012SOL    HW220175   9.004   3.810   0.734 -0.3432  1.0714 -0.8821
 4013SOL     OW20176   7.399   7.364   2.917 -0.7372 -0.0849  0.6427
 4013SOL    HW120177   7.491   7.324   2.919 -0.4734  0.4965  0.2867
 4013SOL    HW220178   7.338   7.311   2.976 -0.2263 -0.6021  0.7121
 4014SOL     OW20179   2.333   9.088   0.286  0.2149 -0.0010 -0.7371
 4014SOL    HW120180   2.235   9.101   0.274  0.1202 -0.4350 -0.4268
 4014SOL    HW220181   2.354   9.070   0.382  0.9299  2.9913 -0.2903
 4016SOL     OW20182   3.899   9.459   1.906 -0.3891 -0.0255  0.2188
 4016SOL    HW120183   3.810   9.414   1.899 -1.0337  1.3394 -0.6818
 4016SOL    HW220184   3.972   9.393   1.888 -1.2448 -1.0199  0.3698
 4017SOL     OW20185   1.588   2.420   0.928  0.0730  0.3799  0.6272
 4017SOL    HW120186   1.499   2.431   0.972  0.3021  3.0729  0.4701
 4017SOL    HW220187   1.653   2.379   0.993 -0.6963  0.4241  1.4308
 4018SOL     OW20188   9.928   0.825   3.754 -0.1736 -0.1582 -0.6856
 4018SOL    HW120189   9.900   0.868   3.840  1.9426 -1.1293  0.5193
 4018SOL    HW220190   9.954   0.896   3.688 -3.1136  0.6557 -1.0373
 4020SOL     OW20191   5.153   6.953   3.058 -0.0276  0.2908  0.7157
 4020SOL    HW120192   5.170   7.044   3.094  1.1320 -0.1371  1.2711
 4020SOL    HW220193   5.228   6.892   3.084 -0.3219 -0.5892 -0.4571
 4021SOL     OW20194   5.958   8.039   3.441 -0.2572  0.3063 -0.1520
 4021SOL    HW120195   5.885   8.071   3.380 -0.3652 -1.2173 -0.8357
 4021SOL    HW220196   5.938   8.068   3.535 -1.2871  0.6540 -0.4665
 4022SOL     OW20197   7.722   7.797   3.153 -0.1920 -0.2169 -0.1835
 4022SOL    HW120198   7.815   7.803   3.117 -0.6823  2.0317 -1.1609
 4022SOL    HW220199   7.670   7.729   3.101  0.5077 -0.4639 -0.5622
 4024SOL     OW20200   2.861   2.786   3.690 -0.0068 -0.1860  0.4236
 4024SOL    HW120201   2.960   2.778   3.698 -0.1288 -1.5839  0.6711
 4024SOL    HW220202   2.818   2.701   3.720 -1.3199  0.6385  0.9385
 4025SOL     OW20203   8.646   4.989   1.500  0.4458 -0.0732 -0.0972
 4025SOL    HW120204   8.611   4.911   1.449 -0.6448  1.1204 -1.2158
 4025SOL    HW220205   8.581   5.013   1.573  1.3571 -0.9462  1.0134
 4026SOL     OW20206   1.564   6.232   2.274 -0.3815 -0.2481 -0.0799
 4026SOL    HW120207   1.620   6.264   2.198 -0.1500  0.2192  0.2891
 4026SOL    HW220208   1.491   6.298   2.293 -1.4337 -1.1421 -0.9537
 4027SOL     OW20209   9.464   0.871   3.228  0.2512 -0.3037 -0.0048
 4027SOL    HW120210   9.527   0.809   3.182 -0.6704 -0.7940 -0.6065
 4027SOL    HW220211   9.415   0.926   3.160  0.5533  0.5974  0.4913
 4028SOL     OW20212   3.572   4.071   2.724 -0.0650 -0.3369 -0.5201
 4028SOL    HW120213   3.569   3.995   2.659  0.1826 -0.5329 -0.2988
 4028SOL    HW220214   3.520   4.047   2.806 -1.2285  0.2889 -1.0512
 4029SOL     OW20215   9.052   9.479   2.989  0.3198 -0.5398 -0.2583
 4029SOL    HW120216   9.126   9.543   3.006  0.3043 -0.5851 -0.0114
 4029SOL    HW220217   9.080   9.387   3.016 -0.3231 -0.3274  1.1838
 4030SOL     OW20218   3.624   8.521   2.423 -0.1768  0.0554 -0.2728
 4030SOL    HW120219   3.718   8.495   2.401  0.0906  0.0613  0.8174
 4030SOL    HW220220   3.602   8.492   2.516 -0.1549  2.8595  0.6772
 4031SOL     OW20221   7.990   2.779   1.149  0.3681  0.3903  0.3075
 4031SOL    HW120222   8.053   2.766   1.225  2.4424  0.6698 -1.2903
 4031SOL    HW220223   8.007   2.868   1.106 -2.9107  1.6262  1.4220
 4032SOL     OW20224   8.563   1.580   0.021  0.3486 -0.0960 -0.1753
 4032SOL    HW120225   8.465   1.575   0.002  0.3489 -2.8518  0.3613
 4032SOL    HW220226   8.614   1.555  -0.061  0.7225  4.2370 -1.3655
 4034SOL     OW20227   2.510   7.790   3.003 -0.2260  0.2518 -0.5542
 4034SOL    HW120228   2.452   7.871   2.989  1.7842  1.6387 -1.0630
 4034SOL    HW220229   2.541   7.756   2.914 -0.6202 -0.7471 -0.3074
 4035SOL     OW20230   2.527   4.339   0.186  0.1253 -0.9043 -0.2533
 4035SOL    HW120231   2.524   4.284   0.270  0.9754 -1.4981 -0.6061
 4035SOL    HW220232   2.509   4.435   0.208 -0.5334 -1.1943  0.4856
 4036SOL     OW20233   3.765   5.568   3.698  0.0292 -0.4258  0.0729
 4036SOL    HW120234   3.807   5.505   3.633  0.4434 -1.9080  1.7491
 4036SOL    HW220235   3.715   5.639   3.648  2.4298 -0.0495 -1.9303
 4037SOL     OW20236   3.781   4.090   1.573 -0.6404 -0.1129 -0.7807
 4037SOL    HW120237   3.815   4.111   1.665 -1.0105  0.8995 -0.8695
 4037SOL    HW220238   3.682   4.075   1.577 -0.6328 -0.2231 -0.9872
 4038SOL     OW20239   3.889   8.484   2.877 -0.4082  0.1629  0.2501
 4038SOL    HW120240   3.805   8.482   2.932 -1.8104  0.9412 -1.8085
 4038SOL    HW220241   3.895   8.572   2.830  2.6632  0.9581  2.0084
 4039SOL     OW20242   4.594   7.116   1.543 -0.0828 -0.3273 -0.5609
 4039SOL    HW120243   4.511   7.171   1.545  0.1085 -0.0381  2.7245
 4039SOL    HW220244   4.580   7.036   1.484 -2.4623  0.0607 -0.5580
 4040SOL     OW20245   9.506   5.239   0.531 -0.7452 -0.4143 -0.2497
 4040SOL    HW120246   9.409   5.222   0.516 -0.9149 -0.4546  0.8267
 4040SOL    HW220247   9.552   5.153   0.553 -0.8789 -0.1028  1.3598
 4041SOL     OW20248   1.875   5.663   2.118  0.3026  0.3102  0.3694
 4041SOL    HW120249   1.827   5.751   2.125 -0.3299  0.0538 -0.6190
 4041SOL    HW220250   1.809   5.588   2.127  0.6111 -0.0453 -0.2928
 4042SOL     OW20251   3.244   5.563   3.042  0.4875  0.2075 -0.2462
 4042SOL    HW120252   3.257   5.593   2.947 -1.7392  2.2705  0.0520
 4042SOL    HW220253   3.316   5.601   3.099 -0.2904  2.0957 -0.4913
 4043SOL     OW20254   1.980   4.711   3.687 -0.3281 -0.2463  0.7336
 4043SOL    HW120255   1.982   4.775   3.610  0.5634 -1.8163 -0.5674
 4043SOL    HW220256   1.945   4.758   3.768 -0.2735  1.7159 -0.3509
 4044SOL     OW20257   8.653   4.667   1.641 -0.0693 -0.2562 -0.5949
 4044SOL    HW120258   8.592   4.704   1.712 -0.1328 -0.7405 -0.3980
 4044SOL    HW220259   8.748   4.682   1.669 -0.0920  0.0551 -0.6719
 4045SOL     OW20260   6.860   9.859   3.055 -0.2616  0.1766  0.1192
 4045SOL    HW120261   6.863   9.768   3.014 -1.7850  0.7557 -1.3748
 4045SOL    HW220262   6.900   9.857   3.146  0.2531 -1.8556 -0.1373
 4046SOL     OW20263   3.684   0.878   1.627  0.0847 -0.0771  0.1334
 4046SOL    HW120264   3.672   0.951   1.695 -1.1208  0.0927 -0.2482
 4046SOL    HW220265   3.778   0.845   1.630  0.4899  1.0961  0.7126
 4049SOL     OW20266   9.012   9.711   2.430 -0.2922 -0.2802 -0.3424
 4049SOL    HW120267   9.004   9.642   2.359 -0.2892 -1.2947  0.6250
 4049SOL    HW220268   8.944   9.783   2.416 -0.1724 -0.3795 -1.4547
 4050SOL     OW20269   1.901   7.662   2.425  0.7209 -0.5781 -0.3230
 4050SOL    HW120270   1.836   7.683   2.352  1.4347 -1.0733 -1.0943
 4050SOL    HW220271   1.880   7.572   2.464 -0.5793  0.3056  1.0917
 4051SOL     OW20272   1.584   6.193   1.534 -0.3028 -0.4629 -0.0616
 4051SOL    HW120273   1.571   6.098   1.563 -0.8658 -0.9979 -1.9733
 4051SOL    HW220274   1.502   6.246   1.556  0.0151 -0.4244  1.0175
 4052SOL     OW20275   9.530   0.430   0.382  0.1493  0.2789 -0.4702
 4052SOL    HW120276   9.579   0.385   0.307  3.3192  2.7009 -0.0031
 4052SOL    HW220277   9.586   0.507   0.416 -1.9398  0.2550  3.2734
 4053SOL     OW20278   4.378   0.344   0.005  0.0910 -0.1127 -0.0620
 4053SOL    HW120279   4.397   0.249  -0.021  1.1413 -0.0906  0.6123
 4053SOL    HW220280   4.463   0.394   0.016 -0.4135  0.5458  0.9551
 4055SOL     OW20281   0.067   5.490   2.319  0.1305  0.4854 -0.3056
 4055SOL    HW120282   0.013   5.500   2.402  0.6642 -0.8875  0.2101
 4055SOL    HW220283   0.030   5.551   2.248 -0.0842  1.9415  1.0370
 4056SOL     OW20284   3.889   7.781   1.998  0.6967 -0.0766 -0.0263
 4056SOL    HW120285   3.849   7.695   1.965  1.8524 -0.8456  0.5223
 4056SOL    HW220286   3.829   7.821   2.068  0.2646 -0.5531 -0.1190
 4057SOL     OW20287   9.980   4.296   2.911  0.2639  0.4830  0.2377
 4057SOL    HW120288   9.993   4.274   2.814  0.7583  0.8374  0.2223
 4057SOL    HW220289  10.032   4.377   2.934 -0.3849  0.7898  0.6485
 4058SOL     OW20290   8.588   7.569   0.940 -0.5677 -0.3646 -0.2523
 4058SOL    HW120291   8.500   7.537   0.904  0.1786 -2.8248  0.0320
 4058SOL    HW220292   8.639   7.615   0.867 -1.2860 -0.6462 -0.9370
 4061SOL     OW20293   6.303   9.582   1.561 -0.5909  0.3985  0.1674
 4061SOL    HW120294   6.222   9.590   1.503  0.0330  0.0029 -0.7793
 4061SOL    HW220295   6.328   9.485   1.568 -0.2067  0.5212  0.4615
 4062SOL     OW20296   0.343   3.659   2.848  0.4429  0.1647 -0.3614
 4062SOL    HW120297   0.304   3.664   2.940  0.4910 -0.2464 -0.3185
 4062SOL    HW220298   0.441   3.676   2.852  0.2584  1.3239 -0.4846
 4063SOL     OW20299   1.241   4.885   0.183  0.3749  0.1570  0.6208
 4063SOL    HW120300   1.217   4.952   0.113 -1.7771  0.0465  1.2106
 4063SOL    HW220301   1.210   4.794   0.155  1.1804 -0.2048  0.8819
 4065SOL     OW20302   9.717   5.298   0.796 -0.4274  0.0010  0.1260
 4065SOL    HW120303   9.790   5.239   0.762 -0.9028 -0.8954  0.6339
 4065SOL    HW220304   9.689   5.362   0.724  0.0248 -0.4528 -0.4574
 4067SOL     OW20305   9.175   4.712   1.595 -0.0857  0.6640  0.0650
 4067SOL    HW120306   9.213   4.634   1.644 -1.6123 -1.2799 -1.7192
 4067SOL    HW220307   9.219   4.719   1.505 -0.1015  1.7206  0.1408
 4069SOL     OW20308   8.576   6.775   1.357 -0.5194  0.0566 -0.1688
 4069SOL    HW120309   8.553   6.848   1.292  0.3054 -0.1995 -0.7538
 4069SOL    HW220310   8.493   6.724   1.380 -0.9642  0.6783 -0.3698
 4073SOL     OW20311   9.729   3.897   3.128  0.2836  0.2669 -0.2868
 4073SOL    HW120312   9.735   3.861   3.035  2.5182 -0.5425  0.1368
 4073SOL    HW220313   9.770   3.988   3.131 -1.3299  1.0140 -0.4265
 4074SOL     OW20314   9.627   1.358   0.975 -0.1606 -0.5569 -0.0731
 4074SOL    HW120315   9.596   1.433   1.034 -0.5509 -1.7388  1.2503
 4074SOL    HW220316   9.645   1.277   1.031 -1.1929 -1.9094 -1.6585
 4077SOL     OW20317   3.279   2.920   1.345  0.6414  0.2050  1.1925
 4077SOL    HW120318   3.232   2.991   1.398  1.7320  0.5263  1.7280
 4077SOL    HW220319   3.368   2.953   1.315  1.3554 -1.0842  1.8304
 4078SOL     OW20320   2.910   1.200   2.425 -0.1256 -0.0373  0.4183
 4078SOL    HW120321   2.990   1.166   2.476  0.0422 -0.4594 -0.1125
 4078SOL    HW220322   2.827   1.164   2.467 -0.0764  0.9851  1.4059
 4079SOL     OW20323   2.395   7.219   1.313  0.6964 -0.1356  0.4956
 4079SOL    HW120324   2.445   7.132   1.308 -0.4718 -0.7809 -0.3269
 4079SOL    HW220325   2.347   7.224   1.400 -0.4830 -1.0333 -0.0853
 4080SOL     OW20326   9.515   5.753   3.505  0.3700 -0.7692  0.3125
 4080SOL    HW120327   9.445   5.761   3.434 -0.3574  0.0900  1.0879
 4080SOL    HW220328   9.579   5.681   3.482 -1.5864 -2.5318  0.2537
 4081SOL     OW20329   0.316   4.406   3.617  0.7200  0.2533  0.1305
 4081SOL    HW120330   0.280   4.491   3.656 -1.7257 -0.8971  0.4572
 4081SOL    HW220331   0.315   4.412   3.517 -1.6192 -0.2353  0.1036
 4082SOL     OW20332   9.831   7.071   3.705 -0.0528 -0.3295  0.5238
 4082SOL    HW120333   9.868   7.162   3.681  1.1649 -1.0025 -0.2337
 4082SOL    HW220334   9.856   7.049   3.799  0.3816 -0.2257  0.4360
 4083SOL     OW20335   4.914   9.327   2.880 -0.2150  0.0911  0.1632
 4083SOL    HW120336   4.909   9.406   2.941 -0.3310 -0.2854  0.6442
 4083SOL    HW220337   4.970   9.256   2.923 -0.5675 -0.3035 -0.0298
 4084SOL     OW20338   3.188   3.212   1.477  0.1694 -0.1261 -0.4101
 4084SOL    HW120339   3.275   3.246   1.512 -0.2164  1.0052 -0.5234
 4084SOL    HW220340   3.178   3.238   1.381  0.1844 -1.1918 -0.7103
 4086SOL     OW20341   3.340   4.919   3.713  0.3956  0.0716 -0.4429
 4086SOL    HW120342   3.393   4.938   3.629 -0.8835 -1.8851 -1.7135
 4086SOL    HW220343   3.305   5.005   3.749  0.0963  0.8478 -2.5022
 4087SOL     OW20344   9.550   6.270   1.098  0.0200  0.3467  0.1851
 4087SOL    HW120345   9.577   6.359   1.133 -0.9097  1.2342 -1.3293
 4087SOL    HW220346   9.586   6.258   1.005 -0.4977 -0.5408  0.0946
 4088SOL     OW20347   3.771   1.631   1.201  0.5273  0.3654  0.1273
 4088SOL    HW120348   3.682   1.601   1.168 -0.3695  1.6494  1.3301
 4088SOL    HW220349   3.843   1.596   1.141 -0.5613 -3.0588  0.7187
 4090SOL     OW20350   0.798   6.357   1.666  0.1232  0.7941  0.0697
 4090SOL    HW120351   0.735   6.282   1.686 -0.1496  0.8322 -0.6638
 4090SOL    HW220352   0.805   6.371   1.568 -0.1537  2.0174  0.2107
 4091SOL     OW20353   8.520   1.062   3.597 -0.5269 -0.6275  0.6800
 4091SOL    HW120354   8.560   0.983   3.550 -3.1636 -1.2437 -0.5971
 4091SOL    HW220355   8.505   1.136   3.532 -1.3021 -0.3468  1.1628
 4092SOL     OW20356   4.157   2.501   0.535 -0.1962  0.1180  0.2149
 4092SOL    HW120357   4.124   2.582   0.584  0.1764  0.7342 -0.5498
 4092SOL    HW220358   4.223   2.453   0.592 -0.8446  0.0270  0.9044
 4093SOL     OW20359   7.989   4.640   2.906  0.1534 -0.1658  0.4392
 4093SOL    HW120360   8.056   4.685   2.846 -0.7344  1.9098  0.9344
 4093SOL    HW220361   7.907   4.697   2.912 -1.7373 -2.7154 -0.2503
 4094SOL     OW20362   9.628   2.223   1.463 -0.0202 -0.1840  0.6059
 4094SOL    HW120363   9.586   2.278   1.391 -1.2807  0.0959  1.5455
 4094SOL    HW220364   9.560   2.160   1.501  0.2671  0.5805  2.4367
 4096SOL     OW20365   3.470   9.158   2.499  0.1324  0.7137  0.1061
 4096SOL    HW120366   3.524   9.086   2.543  0.3344  0.9153  0.1817
 4096SOL    HW220367   3.373   9.144   2.522  0.2465  0.8665  0.6766
 4100SOL     OW20368   5.273   8.916   2.665 -0.0539 -0.0623  0.0253
 4100SOL    HW120369   5.198   8.980   2.646  1.6510  1.5724 -1.4520
 4100SOL    HW220370   5.314   8.886   2.579  1.5355 -0.2633  0.8225
 4101SOL     OW20371   4.044   1.980   0.276 -0.0253  0.0449 -0.7808
 4101SOL    HW120372   3.983   2.059   0.261 -0.2140  0.1294  0.4109
 4101SOL    HW220373   4.134   2.013   0.304 -0.7139 -0.2051  1.8466
 4102SOL     OW20374   1.099   6.768   0.653  0.4415  0.4337 -0.4216
 4102SOL    HW120375   1.134   6.765   0.747 -1.1700  0.3437  0.2009
 4102SOL    HW220376   1.127   6.686   0.604 -0.4343 -0.5156  0.6271
 4105SOL     OW20377   1.605   5.946   1.660  0.2244  0.2401  0.2391
 4105SOL    HW120378   1.636   5.865   1.609  0.5014 -0.1360  1.0034
 4105SOL    HW220379   1.674   5.971   1.728  0.4043  1.4663 -0.3677
 4106SOL     OW20380   0.677   4.995   2.661  0.1685  0.1700  0.2549
 4106SOL    HW120381   0.758   4.938   2.679 -0.6242 -1.4617 -1.1291
 4106SOL    HW220382   0.700   5.091   2.674  2.3111 -0.2773 -0.0193
 4108SOL     OW20383   8.465   0.278   2.834 -0.2933 -0.1474  0.8084
 4108SOL    HW120384   8.368   0.277   2.806  0.2488 -1.9814 -1.1128
 4108SOL    HW220385   8.471   0.266   2.933 -2.0539  0.8240  1.0661
 4109SOL     OW20386   6.170   6.848   2.917  0.1660  0.3817  0.2576
 4109SOL    HW120387   6.178   6.942   2.951  1.0541  0.1994  0.5490
 4109SOL    HW220388   6.257   6.818   2.879 -0.5299  0.1983 -1.2155
 4111SOL     OW20389   7.482   5.000   0.665 -0.5745  0.2431  0.5656
 4111SOL    HW120390   7.523   4.945   0.738  0.4248  3.8023  2.7867
 4111SOL    HW220391   7.549   5.066   0.631 -1.7717  0.2021 -2.0104
 4112SOL     OW20392   3.971   4.242   0.474 -1.0318 -0.3377  0.8418
 4112SOL    HW120393   3.895   4.184   0.443 -1.0357  1.2780 -2.3949
 4112SOL    HW220394   4.025   4.193   0.543 -2.0059 -3.5109 -0.5635
 4114SOL     OW20395   9.776   3.375   3.430 -0.3593 -0.2693  0.2101
 4114SOL    HW120396   9.749   3.383   3.334 -1.2687 -1.8930  0.3171
 4114SOL    HW220397   9.743   3.455   3.480  0.4988  0.8057 -0.8978
 4115SOL     OW20398   8.040   9.587   3.492  0.0269  0.2310  1.0402
 4115SOL    HW120399   8.097   9.579   3.574 -1.2235 -1.6461  1.7527
 4115SOL    HW220400   7.944   9.584   3.518 -0.3792  0.2297 -0.4394
 4116SOL     OW20401   2.106   4.465   3.648  0.1263  0.0103 -0.2532
 4116SOL    HW120402   2.176   4.467   3.719 -0.4954 -1.4926  0.4265
 4116SOL    HW220403   2.046   4.545   3.656 -1.0139 -1.0320  2.0368
 4117SOL     OW20404   1.245   9.202   1.257  0.0165 -0.0344  0.5957
 4117SOL    HW120405   1.233   9.130   1.324 -2.3496  0.1479  0.3961
 4117SOL    HW220406   1.187   9.280   1.280  1.2921  1.1653 -0.1124
 4118SOL     OW20407   4.512   4.776   1.443 -0.2919  0.4277  0.6756
 4118SOL    HW120408   4.588   4.723   1.480  1.2070  1.7362 -0.4727
 4118SOL    HW220409   4.463   4.721   1.376  0.2681 -0.0705  0.6743
 4119SOL     OW20410   8.010   0.979   0.089 -0.4850  0.1714  0.4810
 4119SOL    HW120411   8.100   0.993   0.132 -0.6881  3.1967  0.0251
 4119SOL    HW220412   8.022   0.960  -0.008 -0.3122 -0.1695  0.5683
 4120SOL     OW20413   0.515   3.966   2.959 -0.1088 -0.4447 -0.5879
 4120SOL    HW120414   0.559   3.878   2.940  2.1928  1.5627 -5.4638
 4120SOL    HW220415   0.578   4.024   3.011  0.2103 -0.0587 -1.4027
 4121SOL     OW20416   6.069   0.265   2.390  0.8153  0.1725 -0.4051
 4121SOL    HW120417   6.160   0.252   2.430  1.2725 -2.4855 -2.1883
 4121SOL    HW220418   6.078   0.281   2.292 -0.6101  0.5564 -0.4773
 4122SOL     OW20419   1.260   9.283   3.629  0.4156 -0.1060  0.1157
 4122SOL    HW120420   1.260   9.218   3.705 -0.3602  0.1285  0.3195
 4122SOL    HW220421   1.248   9.376   3.664  1.7722  0.1819 -0.1521
 4123SOL     OW20422   7.550   7.308   3.507 -0.3323  0.1628 -0.2593
 4123SOL    HW120423   7.480   7.341   3.570  2.0779  2.1084  1.5446
 4123SOL    HW220424   7.508   7.280   3.421 -3.2687  1.3863  0.7152
 4124SOL     OW20425   3.414   5.243   2.225 -0.5448  0.2565 -0.1357
 4124SOL    HW120426   3.453   5.332   2.248 -0.8812  0.0237  1.3799
 4124SOL    HW220427   3.489   5.179   2.207 -0.3160  1.0938 -2.2744
 4125SOL     OW20428   8.729   2.098   1.001  0.4020  0.6542  0.0376
 4125SOL    HW120429   8.693   2.186   0.971 -0.3420  0.9596  1.7834
 4125SOL    HW220430   8.666   2.056   1.066  0.5196 -1.4065 -1.1395
 4126SOL     OW20431   8.796   0.052   1.923 -0.1563 -0.4238 -0.7016
 4126SOL    HW120432   8.774   0.052   1.825  0.7525  0.9914 -0.9021
 4126SOL    HW220433   8.830   0.141   1.950  0.7361 -1.1663  0.6680
 4127SOL     OW20434   2.619   4.153   3.571  0.1062 -0.1284 -0.3339
 4127SOL    HW120435   2.712   4.153   3.534  0.1849  0.9992 -0.1348
 4127SOL    HW220436   2.622   4.163   3.670 -0.2586  0.8281 -0.4148
 4128SOL     OW20437   2.916   0.247   3.351  0.5466 -0.0213 -0.4718
 4128SOL    HW120438   2.830   0.298   3.362 -0.6880 -1.4996 -2.7886
 4128SOL    HW220439   2.943   0.208   3.439 -1.1483  0.4558  0.2865
 4129SOL     OW20440   3.561   9.955   2.307 -0.2255  0.5299  0.3866
 4129SOL    HW120441   3.631  10.023   2.330 -0.3259  1.1192 -0.9864
 4129SOL    HW220442   3.525   9.914   2.391  3.9866 -2.0756  1.0873
 4130SOL     OW20443   5.689   7.088   1.957 -0.6370  0.1635 -0.4495
 4130SOL    HW120444   5.603   7.041   1.937 -1.7753  1.3467  1.5525
 4130SOL    HW220445   5.741   7.037   2.025 -1.1151  0.9432  0.5075
 4134SOL     OW20446   3.839   1.861   2.749 -0.0155 -1.1608  0.4339
 4134SOL    HW120447   3.919   1.914   2.777 -0.9081  0.9065 -0.8033
 4134SOL    HW220448   3.827   1.783   2.811  2.5442 -1.1119  1.0300
 4135SOL     OW20449   9.850   1.760   2.760 -0.1141 -0.0691 -0.1491
 4135SOL    HW120450   9.853   1.803   2.850  0.3195  1.4366 -0.8526
 4135SOL    HW220451   9.875   1.828   2.690  1.2270 -1.6539 -1.2411
 4136SOL     OW20452   0.625   1.106   2.956 -0.4748 -0.0322 -0.4298
 4136SOL    HW120453   0.722   1.082   2.953 -0.1784  1.1376 -0.4846
 4136SOL    HW220454   0.572   1.028   2.990  0.7030 -0.0618  1.4301
 4138SOL     OW20455   0.381   6.799   0.567  0.1853 -0.2859  0.0493
 4138SOL    HW120456   0.463   6.772   0.515  1.5737  1.3915  1.3137
 4138SOL    HW220457   0.396   6.782   0.664 -0.7100  0.6738  0.3592
 4139SOL     OW20458   2.808   4.524   2.239  0.6325 -0.0793 -0.5140
 4139SOL    HW120459   2.800   4.569   2.329 -0.4944  0.9974 -1.1460
 4139SOL    HW220460   2.764   4.580   2.170 -0.8192 -2.1883 -1.3374
 4141SOL     OW20461   9.637   4.677   1.823 -0.3697 -0.1596 -0.8179
 4141SOL    HW120462   9.600   4.715   1.908  1.3626  2.9687 -1.3949
 4141SOL    HW220463   9.730   4.644   1.839 -0.7903 -1.4871 -1.0400
 4142SOL     OW20464   9.232   5.740   3.204  0.3099  0.4562  0.2636
 4142SOL    HW120465   9.159   5.786   3.255  0.0720  2.2214 -1.5940
 4142SOL    HW220466   9.313   5.798   3.202  0.5219  0.1381 -0.7785
 4143SOL     OW20467   9.535   4.508   2.835 -1.0630  0.0641  0.7740
 4143SOL    HW120468   9.485   4.441   2.780 -0.0072  0.0084 -0.1388
 4143SOL    HW220469   9.591   4.461   2.902 -0.6094  0.0411  0.3813
 4144SOL     OW20470   8.983   5.851   3.231  0.2243  0.2576 -0.3081
 4144SOL    HW120471   8.897   5.802   3.216 -0.2287  0.1913  2.2301
 4144SOL    HW220472   8.989   5.928   3.168 -1.4061 -0.1022 -0.9295
 4145SOL     OW20473   5.178   1.674   1.767  0.2103  0.0187  0.4689
 4145SOL    HW120474   5.078   1.681   1.773  0.2077  0.5530 -0.1305
 4145SOL    HW220475   5.202   1.591   1.716  0.1367 -1.5449  2.9217
 4146SOL     OW20476   2.204   1.096   1.652  0.2363  0.1823 -0.0178
 4146SOL    HW120477   2.278   1.139   1.601  0.3556  0.5452  0.4613
 4146SOL    HW220478   2.187   1.147   1.736 -0.9312  0.4347 -0.3967
 4147SOL     OW20479   9.623   5.825   1.222  0.1140 -0.3102 -0.2075
 4147SOL    HW120480   9.682   5.751   1.191 -1.1423 -1.3743 -0.1144
 4147SOL    HW220481   9.527   5.795   1.221 -0.3671  1.1125  0.3971
 4149SOL     OW20482   8.006   6.995   2.994  0.2275 -0.2871  0.0072
 4149SOL    HW120483   8.072   6.962   3.062 -0.9079 -0.1936  1.1767
 4149SOL    HW220484   7.918   6.950   3.008 -1.0127  2.2646  0.8559
 4150SOL     OW20485   3.785   2.854   0.386 -0.3814  0.3116  0.0253
 4150SOL    HW120486   3.697   2.838   0.432  0.1743 -2.7337  0.1240
 4150SOL    HW220487   3.847   2.901   0.448 -1.8647  2.3754  0.0033
 4151SOL     OW20488   7.532   9.918   3.226 -0.4139  0.4527 -0.0237
 4151SOL    HW120489   7.473   9.968   3.291 -0.5287 -1.4225  1.3746
 4151SOL    HW220490   7.481   9.901   3.142 -1.2376  0.4797  0.4607
 4153SOL     OW20491   0.963   2.163   0.843  0.5946  0.3113  0.0825
 4153SOL    HW120492   0.879   2.168   0.789  0.1996  0.1755  0.6930
 4153SOL    HW220493   0.958   2.226   0.920  1.0172  0.2429  0.1703
 4154SOL     OW20494   3.454   4.229   0.858 -0.7310  0.5961  0.0307
 4154SOL    HW120495   3.385   4.205   0.927 -1.0425  0.4449 -0.3332
 4154SOL    HW220496   3.532   4.166   0.866 -2.0812 -1.3822 -1.7410
 4155SOL     OW20497   9.271   0.760   1.046  0.1052 -0.2139 -0.2659
 4155SOL    HW120498   9.199   0.693   1.062  0.4042 -0.1965  1.2313
 4155SOL    HW220499   9.351   0.715   1.008 -0.2103 -0.4602 -0.6395
 4156SOL     OW20500   3.669   8.541   3.748 -0.3823  0.5076  0.1021
 4156SOL    HW120501   3.740   8.502   3.808  0.1922  1.4277  0.0319
 4156SOL    HW220502   3.586   8.486   3.754 -0.4703  0.8150  2.0677
 4157SOL     OW20503   5.194   0.403   3.564  0.3676 -0.3154  0.3186
 4157SOL    HW120504   5.124   0.357   3.509  0.0139  0.8996 -0.2824
 4157SOL    HW220505   5.152   0.437   3.648  0.3713 -0.1438  0.2520
 4159SOL     OW20506   8.622   5.395   1.530 -0.2839 -0.1168  0.0539
 4159SOL    HW120507   8.684   5.473   1.519 -0.5132 -0.0979 -1.1771
 4159SOL    HW220508   8.675   5.315   1.560  0.6583 -0.5729 -2.7138
 4160SOL     OW20509   4.906   2.431   1.739 -0.4271 -0.1965 -0.5000
 4160SOL    HW120510   4.921   2.517   1.788 -1.4198  0.1944 -0.8817
 4160SOL    HW220511   4.860   2.366   1.799  0.1120 -0.3919 -0.2894
 4161SOL     OW20512   2.360   3.488   2.874  0.1383 -0.5004 -0.0549
 4161SOL    HW120513   2.429   3.427   2.833  0.3661 -0.4042  0.1821
 4161SOL    HW220514   2.348   3.464   2.970  1.2039  0.6872  0.3897
 4162SOL     OW20515   2.302   2.229   2.034 -0.0615  0.2712 -0.1226
 4162SOL    HW120516   2.221   2.183   2.069 -0.4263  1.4861  0.6508
 4162SOL    HW220517   2.382   2.198   2.085  0.1748 -1.8395 -1.6799
 4163SOL     OW20518   9.943   6.316   1.078 -0.4065 -0.2975 -0.3867
 4163SOL    HW120519   9.957   6.217   1.088  0.3630 -0.1578 -0.0087
 4163SOL    HW220520   9.883   6.349   1.151 -0.2540 -0.4045 -0.2137
 4164SOL     OW20521   4.353   3.100   0.907 -0.0868  0.1082  0.0273
 4164SOL    HW120522   4.446   3.115   0.871 -1.1793  1.4258 -2.3844
 4164SOL    HW220523   4.352   3.119   1.005  2.2739 -0.2937  0.1574
 4165SOL     OW20524   0.379   1.485   0.187  0.1812 -0.1162  0.3972
 4165SOL    HW120525   0.375   1.387   0.169 -0.9571  0.1512 -0.9097
 4165SOL    HW220526   0.422   1.532   0.109 -3.5876  0.9145 -1.1540
 4166SOL     OW20527   6.229   8.009   3.336  0.1290  0.3221  0.4608
 4166SOL    HW120528   6.140   8.012   3.381  0.1854 -0.5053  0.6419
 4166SOL    HW220529   6.297   7.972   3.400  0.1502 -1.1655 -0.3966
 4168SOL     OW20530   3.562   7.105   1.226 -0.1283  0.4953 -0.3263
 4168SOL    HW120531   3.575   7.047   1.145  0.7394  2.2135 -1.4432
 4168SOL    HW220532   3.508   7.185   1.200  0.3698  1.1770  0.7481
 4170SOL     OW20533   0.446   9.396   0.418  0.3583 -0.5131  0.1522
 4170SOL    HW120534   0.358   9.399   0.370  0.6093 -1.8389 -0.4073
 4170SOL    HW220535   0.453   9.475   0.478 -0.8815  0.0317 -0.3906
 4171SOL     OW20536   8.304   3.203   0.443 -0.2131  0.4827  0.4476
 4171SOL    HW120537   8.247   3.194   0.361  2.3827  1.0065 -1.4799
 4171SOL    HW220538   8.338   3.113   0.470 -0.1813  0.4597  0.3286
 4172SOL     OW20539   8.961   8.664   2.782 -0.6604 -0.1158  0.1962
 4172SOL    HW120540   9.036   8.722   2.751 -0.9401 -0.6672 -1.5820
 4172SOL    HW220541   8.992   8.569   2.785 -1.1928 -0.3090 -0.2612
 4173SOL     OW20542   9.039   6.514   2.847 -0.0784  0.4021 -0.2866
 4173SOL    HW120543   9.103   6.568   2.903 -1.5016  1.1378  0.6582
 4173SOL    HW220544   9.087   6.480   2.766  1.4999  0.9886  0.3723
 4174SOL     OW20545   9.846   7.124   3.404 -0.0737 -0.2423 -0.2050
 4174SOL    HW120546   9.843   7.025   3.395 -0.9705 -0.0912 -1.8183
 4174SOL    HW220547   9.936   7.152   3.437  0.3008 -1.5613 -0.0813
 4175SOL     OW20548   9.034   9.275   1.598  0.0204 -0.5869  0.1996
 4175SOL    HW120549   8.972   9.196   1.588  1.2932 -1.6362  0.4511
 4175SOL    HW220550   8.988   9.346   1.652  0.1056 -2.6136  3.0822
 4177SOL     OW20551   1.244   1.025   1.998  0.1701  0.1610  0.6556
 4177SOL    HW120552   1.190   0.984   2.072 -0.2510 -0.5877 -0.0591
 4177SOL    HW220553   1.338   1.038   2.028 -0.5105  2.0475  2.1409
 4178SOL     OW20554   9.364   8.310   0.699  0.7945 -0.6449 -0.2677
 4178SOL    HW120555   9.385   8.295   0.795  0.2961 -0.1937 -0.0880
 4178SOL    HW220556   9.327   8.225   0.660 -0.3690 -0.4101  0.3063
 4179SOL     OW20557   7.742   0.910   1.517  0.6143 -0.5625  0.1094
 4179SOL    HW120558   7.727   0.835   1.454  4.0474 -1.7482  0.5630
 4179SOL    HW220559   7.766   0.993   1.466 -0.6184 -0.4487 -0.2878
 4180SOL     OW20560   4.754   7.560   2.696 -0.0938 -0.2159 -0.1176
 4180SOL    HW120561   4.660   7.561   2.728  0.1449  0.3832  0.5960
 4180SOL    HW220562   4.757   7.536   2.599 -1.0552  0.6331 -0.3630
 4182SOL     OW20563   0.035   0.624   2.631 -0.1249 -0.0403  0.1221
 4182SOL    HW120564   0.023   0.525   2.639  0.4738 -0.1493 -0.3316
 4182SOL    HW220565   0.007   0.653   2.539 -1.5708  0.4043  0.6866
 4183SOL     OW20566   2.847   4.488   3.367  0.5955  0.1667 -0.2064
 4183SOL    HW120567   2.813   4.534   3.448  0.6770 -0.2270  0.0533
 4183SOL    HW220568   2.842   4.389   3.380 -1.8547  0.0589 -1.6909
 4184SOL     OW20569   5.780   7.156   2.886  0.1914 -0.1582 -0.9094
 4184SOL    HW120570   5.797   7.058   2.876  1.0672 -0.2742  1.3847
 4184SOL    HW220571   5.790   7.182   2.982 -1.3822  1.9385 -1.2729
 4186SOL     OW20572   1.210   4.305   2.418  0.2468 -0.1898 -0.4487
 4186SOL    HW120573   1.297   4.289   2.371  1.0611  1.1912  0.5464
 4186SOL    HW220574   1.226   4.361   2.499 -1.6355  0.3919 -0.4611
 4187SOL     OW20575   4.765   8.376   0.463 -0.0928  0.0666  0.2168
 4187SOL    HW120576   4.847   8.361   0.519  1.2067  1.0728 -1.3514
 4187SOL    HW220577   4.791   8.424   0.379 -1.9954 -1.3433 -1.2143
 4188SOL     OW20578   8.831   7.395   1.622  0.0749 -0.0805  0.1806
 4188SOL    HW120579   8.842   7.391   1.722  1.6242 -0.5614 -0.0027
 4188SOL    HW220580   8.869   7.313   1.580 -1.4708 -0.3436 -0.7506
 4189SOL     OW20581   2.137   2.929   0.616 -0.0422  0.0272  0.0305
 4189SOL    HW120582   2.181   3.015   0.640 -0.6311 -0.2876  2.3732
 4189SOL    HW220583   2.071   2.904   0.687 -1.9630 -0.9214 -2.0260
 4190SOL     OW20584   8.841   7.020   2.854 -0.3100 -0.5034  0.2819
 4190SOL    HW120585   8.787   7.093   2.897 -0.7580 -1.4194  1.2896
 4190SOL    HW220586   8.909   7.061   2.792 -0.6768  0.7546  0.6911
 4191SOL     OW20587   1.424   1.480   0.657 -0.0281 -0.4513 -0.1328
 4191SOL    HW120588   1.333   1.510   0.686  0.0891  2.4915 -2.5361
 4191SOL    HW220589   1.418   1.391   0.614 -1.5380 -0.8847  0.9314
 4192SOL     OW20590   2.734   8.470   0.902 -0.4669  0.1177 -0.2087
 4192SOL    HW120591   2.744   8.412   0.983 -3.2798  0.9420  0.7775
 4192SOL    HW220592   2.778   8.425   0.824  0.8538 -1.4583  1.3940
 4194SOL     OW20593   4.374   7.108   0.097  0.0751 -0.5015  0.2272
 4194SOL    HW120594   4.354   7.204   0.079  1.8204 -0.1744 -0.0373
 4194SOL    HW220595   4.438   7.101   0.173  0.3614 -1.4343 -0.0921
 4195SOL     OW20596   0.479   0.460   1.823  0.5259  0.1483 -0.5655
 4195SOL    HW120597   0.454   0.524   1.895 -0.6350  0.4696 -1.2343
 4195SOL    HW220598   0.571   0.426   1.839  0.5564  0.7800  0.6580
 4196SOL     OW20599   3.385   5.801   1.427  0.0131 -0.2368 -0.2979
 4196SOL    HW120600   3.435   5.845   1.353 -1.3624  1.2257 -0.3658
 4196SOL    HW220601   3.289   5.790   1.401 -0.6273  0.8750  1.5025
 4197SOL     OW20602   8.406   3.035   3.388 -0.1990  0.0775 -0.1949
 4197SOL    HW120603   8.486   2.976   3.394 -1.2634 -1.7599 -2.6883
 4197SOL    HW220604   8.367   3.048   3.479  1.9827 -0.3317  0.8279
 4200SOL     OW20605   9.212   9.625   0.845  0.1034  0.1505  0.6837
 4200SOL    HW120606   9.245   9.675   0.925  1.4881 -0.0776  0.2639
 4200SOL    HW220607   9.139   9.678   0.801  1.7404  1.9657  0.0814
 4201SOL     OW20608   9.402   3.362   2.034 -0.1067  0.6069 -0.0739
 4201SOL    HW120609   9.374   3.411   1.951  0.9847  1.0161 -0.2012
 4201SOL    HW220610   9.442   3.425   2.099  0.6397  0.0065  0.0574
 4203SOL     OW20611   8.392   8.317   3.766 -0.3358  0.2307 -0.1278
 4203SOL    HW120612   8.426   8.401   3.723 -1.0205  0.3527 -0.4557
 4203SOL    HW220613   8.300   8.334   3.803 -2.0196 -1.3052 -3.3619
 4204SOL     OW20614   8.508   3.483   2.691  0.5616  0.3726 -0.9853
 4204SOL    HW120615   8.590   3.427   2.680  0.2516 -0.7239  2.0054
 4204SOL    HW220616   8.529   3.564   2.745 -0.5260 -0.4714  0.7589
 4205SOL     OW20617   9.476   0.869   0.675  0.3303  0.5570  0.0614
 4205SOL    HW120618   9.487   0.914   0.587  1.5854  0.7709  0.3175
 4205SOL    HW220619   9.391   0.900   0.718 -0.7322 -0.1920 -1.4388
 4206SOL     OW20620   8.034   6.834   3.452 -0.5119 -0.5246  0.0307
 4206SOL    HW120621   8.066   6.769   3.522 -1.9217 -0.8399  0.3855
 4206SOL    HW220622   7.995   6.915   3.497  0.3057  0.1231 -0.4094
 4207SOL     OW20623   1.363   9.323   1.552  0.1904 -0.2046  0.1017
 4207SOL    HW120624   1.461   9.339   1.566  0.2172  0.0695 -0.3899
 4207SOL    HW220625   1.330   9.381   1.478 -0.4558  0.0763  0.5989
 4208SOL     OW20626   0.872   8.179   1.168  0.4840  0.2137  0.3842
 4208SOL    HW120627   0.788   8.126   1.180  1.3971 -1.7026 -1.2367
 4208SOL    HW220628   0.939   8.123   1.120  2.3299  2.0853  0.7128
 4209SOL     OW20629   0.146   3.673   0.566 -0.1706 -0.1205 -0.4227
 4209SOL    HW120630   0.200   3.723   0.634  1.4032 -0.2123 -1.5800
 4209SOL    HW220631   0.196   3.670   0.480 -0.9572 -2.2907 -0.8270
 4210SOL     OW20632   1.922   6.405   0.808  0.0159  0.0335 -0.0402
 4210SOL    HW120633   1.912   6.317   0.855 -0.5922 -0.2768 -0.7366
 4210SOL    HW220634   1.985   6.394   0.732  0.1624  0.2714  0.0478
 4211SOL     OW20635   1.649   7.177   3.063 -0.5983 -0.5423 -0.0050
 4211SOL    HW120636   1.581   7.236   3.020  1.0855  1.5255  0.0857
 4211SOL    HW220637   1.726   7.232   3.093  0.8086 -2.7490  0.5393
 4212SOL     OW20638   9.934   1.465   3.547  0.6056 -0.0802  0.3456
 4212SOL    HW120639   9.890   1.465   3.637  1.7893 -0.7009  0.9285
 4212SOL    HW220640  10.030   1.439   3.557  0.8896  0.4300 -1.0273
 4214SOL     OW20641   1.916   2.923   2.975 -0.1974 -0.2190  0.3222
 4214SOL    HW120642   1.924   2.965   2.884 -0.7084 -0.3485  0.2154
 4214SOL    HW220643   1.938   2.991   3.045 -0.2523  0.0105  0.1197
 4215SOL     OW20644   2.220   5.889   2.877  0.0738  0.5481  0.3792
 4215SOL    HW120645   2.206   5.808   2.819 -0.9715  0.2442  1.0394
 4215SOL    HW220646   2.169   5.966   2.839  0.4850  0.7039  0.1468
 4216SOL     OW20647   1.174   6.529   0.529  0.4321  0.0373  0.2560
 4216SOL    HW120648   1.268   6.550   0.555  0.3430 -0.1495  0.7442
 4216SOL    HW220649   1.165   6.431   0.514  0.4436  0.1260 -0.3166
 4218SOL     OW20650   7.262   6.193   2.724  0.0042 -0.3756 -0.6642
 4218SOL    HW120651   7.282   6.176   2.628  0.5338 -1.7534 -0.3293
 4218SOL    HW220652   7.283   6.111   2.777  2.2074  1.2055  1.0034
 4219SOL     OW20653   1.758   3.915   0.477 -0.5337 -0.0826  0.4354
 4219SOL    HW120654   1.725   3.821   0.482  0.8382 -0.7219 -1.7079
 4219SOL    HW220655   1.801   3.941   0.564  0.9488 -2.1826  0.3693
 4220SOL     OW20656   1.643   8.130   3.715  0.1382  0.2022 -0.0697
 4220SOL    HW120657   1.605   8.147   3.806 -0.6354  0.1716 -0.3838
 4220SOL    HW220658   1.725   8.073   3.724  0.7274  1.1536  0.7000
 4221SOL     OW20659   6.538   7.863   2.135  0.6128  0.7955 -0.0766
 4221SOL    HW120660   6.605   7.931   2.166  0.6369  0.8425 -0.2323
 4221SOL    HW220661   6.454   7.909   2.106 -0.1917  0.6152  1.9006
 4222SOL     OW20662   0.917   5.239   1.315  0.1339  0.2263 -0.5133
 4222SOL    HW120663   1.004   5.192   1.330  1.2027  2.3313  0.1966
 4222SOL    HW220664   0.842   5.179   1.340  1.3648 -1.7504 -1.4299
 4223SOL     OW20665   4.622   1.344   2.793  0.4715  0.0333 -0.1008
 4223SOL    HW120666   4.592   1.394   2.874  0.4210  2.2021 -1.4086
 4223SOL    HW220667   4.715   1.310   2.807 -0.5597 -2.0550  1.9112
 4224SOL     OW20668   1.277   8.196   1.395 -0.0501 -0.1877  0.2515
 4224SOL    HW120669   1.291   8.107   1.351 -0.6915 -1.1990  1.9981
 4224SOL    HW220670   1.180   8.207   1.417  0.2085  0.4228  1.1187
 4226SOL     OW20671   8.609   5.701   0.338 -0.3895  0.4257  0.6384
 4226SOL    HW120672   8.704   5.670   0.326 -0.0809  1.2880  0.8522
 4226SOL    HW220673   8.551   5.655   0.270  0.5414  1.4984 -0.9167
 4227SOL     OW20674   3.221   2.346   0.090  0.2563 -0.5489 -0.0763
 4227SOL    HW120675   3.252   2.254   0.113  0.8397 -0.3513 -0.0617
 4227SOL    HW220676   3.282   2.386   0.021 -0.5666 -0.5454 -0.8052
 4228SOL     OW20677   0.216   9.471   0.266 -0.2734  0.0147 -0.3637
 4228SOL    HW120678   0.217   9.535   0.342 -2.3821  0.5985 -0.8069
 4228SOL    HW220679   0.226   9.520   0.180 -0.3305 -0.4058 -0.6152
 4230SOL     OW20680   3.811   3.547   3.352 -0.1865 -0.8590 -0.1856
 4230SOL    HW120681   3.758   3.630   3.331 -0.0505 -0.4336  1.1096
 4230SOL    HW220682   3.771   3.502   3.432  2.1333  0.1494  1.6034
 4231SOL     OW20683   9.800   5.366   3.547 -0.1694  0.3134  0.2503
 4231SOL    HW120684   9.818   5.454   3.503 -3.0674 -0.1426 -1.9924
 4231SOL    HW220685   9.762   5.382   3.639  0.4725  1.3560  0.3400
 4234SOL     OW20686   4.581   3.261   1.264 -0.1286 -0.3948 -0.3413
 4234SOL    HW120687   4.674   3.295   1.276 -0.5929  1.7563 -2.2602
 4234SOL    HW220688   4.583   3.169   1.227  1.2338 -0.4870 -0.0596
 4235SOL     OW20689   4.099   7.795   1.645 -0.2187  0.0674 -0.5357
 4235SOL    HW120690   4.185   7.814   1.693  0.0008  1.0975 -1.3218
 4235SOL    HW220691   4.078   7.698   1.654  0.9238 -0.1634 -0.1584
 4236SOL     OW20692   3.342   0.461   2.113 -0.1030  0.2366 -0.3619
 4236SOL    HW120693   3.286   0.419   2.183 -0.0167 -0.7680 -0.8941
 4236SOL    HW220694   3.287   0.525   2.059 -0.2568  0.7228  0.3706
 4237SOL     OW20695   9.964   8.177   2.213  0.1123  0.3257  0.3886
 4237SOL    HW120696   9.986   8.165   2.310 -0.9028 -0.1985  0.5630
 4237SOL    HW220697   9.882   8.123   2.191  1.5923 -1.3118 -1.2676
 4239SOL     OW20698   5.837   6.898   2.880 -0.5431 -0.1147 -0.5274
 4239SOL    HW120699   5.915   6.842   2.854  0.2043 -0.4996  2.3345
 4239SOL    HW220700   5.762   6.840   2.911  0.0482  0.3746  1.9537
 4240SOL     OW20701   5.158   1.146   2.086 -0.4136 -0.9128 -0.6255
 4240SOL    HW120702   5.208   1.091   2.019  2.2248 -0.6567  1.0423
 4240SOL    HW220703   5.223   1.205   2.135 -2.7906  1.5057 -0.3315
 4242SOL     OW20704   9.569   6.231   2.163  0.7788  0.6876 -0.7013
 4242SOL    HW120705   9.668   6.242   2.156  1.0481 -0.8276  0.4002
 4242SOL    HW220706   9.544   6.136   2.143 -0.3366  0.8216 -0.0005
 4243SOL     OW20707   9.487   8.900   3.163 -0.1097 -0.4695 -0.9272
 4243SOL    HW120708   9.460   8.872   3.255  0.3215  0.4363 -0.5169
 4243SOL    HW220709   9.415   8.874   3.098 -1.0561  0.1026 -0.1335
 4244SOL     OW20710   7.943   0.148   0.659  0.2392  0.1118 -0.5981
 4244SOL    HW120711   7.859   0.171   0.709 -1.1371 -1.1592 -2.2673
 4244SOL    HW220712   7.981   0.231   0.619  0.0671  0.7815  0.6076
 4245SOL     OW20713   1.962   5.622   3.557  0.5278  0.7906 -0.6045
 4245SOL    HW120714   1.878   5.670   3.585  1.2931  2.3332 -0.8959
 4245SOL    HW220715   1.941   5.526   3.538 -0.7892  0.6725  1.2985
 4246SOL     OW20716   3.858   8.880   2.159  0.2918  0.1420 -0.1746
 4246SOL    HW120717   3.795   8.866   2.234 -0.3374  0.9932 -0.5402
 4246SOL    HW220718   3.856   8.976   2.130  2.2861  0.3618  0.2934
 4247SOL     OW20719   9.183   6.616   0.320 -0.1498  0.0274  0.1594
 4247SOL    HW120720   9.143   6.652   0.404  3.2457  1.3294  1.2828
 4247SOL    HW220721   9.242   6.538   0.341  0.9731  0.5509 -0.9365
 4248SOL     OW20722   1.778   5.424   2.632  0.3006  0.2131 -0.8624
 4248SOL    HW120723   1.694   5.445   2.582 -0.5257  1.1245  0.8637
 4248SOL    HW220724   1.783   5.325   2.649 -0.1032  0.0783 -1.4954
 4251SOL     OW20725   3.836   1.255   1.370 -0.0158 -0.5518  0.2969
 4251SOL    HW120726   3.913   1.209   1.414 -0.7263 -2.3627 -0.2876
 4251SOL    HW220727   3.761   1.266   1.435 -0.5029 -1.8529 -0.0310
 4252SOL     OW20728   7.058   0.472   2.461  0.7516 -0.1346  0.5085
 4252SOL    HW120729   7.139   0.483   2.405  0.7430 -1.4341  0.2160
 4252SOL    HW220730   7.054   0.378   2.496 -1.4561 -0.5648 -0.7985
 4253SOL     OW20731   7.331   0.324   2.741 -0.1821  0.3157  0.6158
 4253SOL    HW120732   7.353   0.385   2.666 -2.5014  0.9080  0.3944
 4253SOL    HW220733   7.237   0.339   2.771  0.4738 -0.3631  3.2041
 4254SOL     OW20734   0.985   4.923   0.996 -0.3833 -0.0369 -0.2793
 4254SOL    HW120735   1.013   4.971   0.914  0.7182 -1.2763 -0.6470
 4254SOL    HW220736   1.058   4.861   1.026 -0.3625  1.1164  2.2005
 4255SOL     OW20737   0.793   7.871   1.952  0.1357 -0.1339 -0.1978
 4255SOL    HW120738   0.798   7.790   1.893  1.7592  0.2584 -0.6311
 4255SOL    HW220739   0.792   7.953   1.896  1.5190  0.2352  0.3006
 4256SOL     OW20740   1.072   8.036   3.354  0.2401  0.6154  1.1794
 4256SOL    HW120741   1.040   8.131   3.354  0.4514  0.6888  0.6465
 4256SOL    HW220742   1.070   8.001   3.447  0.2835  1.1869  1.4028
 4257SOL     OW20743   4.126   0.434   3.375  0.3085  0.0421  0.5203
 4257SOL    HW120744   4.070   0.377   3.315 -0.0454  2.8762 -1.9634
 4257SOL    HW220745   4.087   0.434   3.467 -2.0812 -0.3325 -0.4675
 4258SOL     OW20746   9.727   2.671   3.305  0.0646 -0.0006 -0.6491
 4258SOL    HW120747   9.667   2.731   3.252 -1.2912 -0.5897  0.1980
 4258SOL    HW220748   9.752   2.715   3.391  0.9763  0.3010 -1.0608
 4259SOL     OW20749   7.059   0.069   0.177 -0.2053  0.7336  0.0906
 4259SOL    HW120750   6.989   0.004   0.147  0.7874 -1.5882  2.5086
 4259SOL    HW220751   7.095   0.118   0.099 -1.6767 -0.9566 -1.7065
 4260SOL     OW20752   7.961   0.541   1.028  0.4654  0.0347  0.2266
 4260SOL    HW120753   7.963   0.627   1.079 -0.5624 -1.0369  2.1461
 4260SOL    HW220754   8.025   0.546   0.952  0.1158  2.6469  0.0542
 4261SOL     OW20755   1.471   4.627   0.953 -0.3280  0.2742  0.0093
 4261SOL    HW120756   1.443   4.531   0.962  2.1129 -0.3617  1.0558
 4261SOL    HW220757   1.465   4.654   0.857  0.0978 -1.2772 -0.4660
 4263SOL     OW20758   0.958   6.950   3.466  0.0339 -0.6423  0.4669
 4263SOL    HW120759   1.054   6.929   3.447  0.5898  2.3310 -0.2210
 4263SOL    HW220760   0.948   6.979   3.561  0.1694  0.9116  0.0186
 4265SOL     OW20761   8.367   0.937   2.590  0.3743 -0.3934  0.3942
 4265SOL    HW120762   8.411   1.021   2.621  0.2473  0.1375 -0.8578
 4265SOL    HW220763   8.435   0.876   2.550  0.0718  0.1828 -1.0085
 4269SOL     OW20764   8.507   5.423   2.376  0.2691  0.0725  0.0090
 4269SOL    HW120765   8.458   5.412   2.290 -0.3428 -1.3975  0.5213
 4269SOL    HW220766   8.603   5.397   2.363 -0.1517 -1.6106  0.0951
 4270SOL     OW20767   1.797   4.255   1.280 -0.6798  0.2412 -0.7463
 4270SOL    HW120768   1.718   4.198   1.303 -1.5497  1.5007 -0.5960
 4270SOL    HW220769   1.795   4.339   1.334 -0.2650  1.1452 -2.1142
 4272SOL     OW20770   1.051   3.172   2.670  0.4423 -0.3480  0.0951
 4272SOL    HW120771   0.975   3.140   2.614  2.0100 -0.3518 -2.0843
 4272SOL    HW220772   1.119   3.100   2.680  1.0285  0.2484  0.4880
 4273SOL     OW20773   9.871   3.439   1.116  0.2550  0.3936  0.1174
 4273SOL    HW120774   9.937   3.426   1.190 -0.7033 -0.4418  0.8390
 4273SOL    HW220775   9.854   3.536   1.104  1.0511  0.5807  0.4253
 4274SOL     OW20776   4.801   8.178   2.308 -0.3096  0.1096 -0.2442
 4274SOL    HW120777   4.711   8.199   2.346  0.1217  1.8240 -0.1634
 4274SOL    HW220778   4.867   8.170   2.382 -0.1810 -0.1328 -0.3839
 4275SOL     OW20779   8.031   6.713   0.934  0.1774 -0.5593  0.5696
 4275SOL    HW120780   8.125   6.743   0.918 -0.2166  0.3507 -0.0819
 4275SOL    HW220781   8.001   6.743   1.025 -0.4108  1.6041 -0.2942
 4276SOL     OW20782   1.166   6.740   0.274  0.5040 -0.6530  0.1730
 4276SOL    HW120783   1.187   6.680   0.350 -2.0491 -0.3019  1.2168
 4276SOL    HW220784   1.222   6.823   0.280  0.7580 -0.8979  1.3225
 4277SOL     OW20785   0.837   4.591   0.708  0.9090  0.4432  0.2454
 4277SOL    HW120786   0.919   4.642   0.683 -0.2811  1.6963 -1.1793
 4277SOL    HW220787   0.758   4.628   0.659 -0.1589 -2.1007 -0.0300
 4279SOL     OW20788   9.801   6.327   1.331  0.5636  0.1972 -0.2618
 4279SOL    HW120789   9.726   6.392   1.315  0.4536  0.3390  0.7907
 4279SOL    HW220790   9.772   6.235   1.305 -0.0314  0.2284  0.2862
 4282SOL     OW20791   7.462   9.139   1.651  0.1996 -0.0737 -0.5556
 4282SOL    HW120792   7.558   9.167   1.641  0.4907 -0.9663 -0.2358
 4282SOL    HW220793   7.451   9.046   1.617 -0.5328 -0.0082 -0.4943
 4283SOL     OW20794   2.718   2.732   2.302  0.1262  0.4026 -0.0291
 4283SOL    HW120795   2.746   2.793   2.376 -3.3048  2.4474 -0.3340
 4283SOL    HW220796   2.672   2.652   2.341 -1.6227  1.4486  0.1052
 4284SOL     OW20797   0.455   2.361   1.935 -0.1598 -0.2718  0.1771
 4284SOL    HW120798   0.551   2.382   1.956 -0.1703 -1.0978  1.0622
 4284SOL    HW220799   0.451   2.285   1.870 -0.2401 -1.1448  1.1962
 4285SOL     OW20800   0.673   9.641   0.864  0.3588  0.1194 -0.3157
 4285SOL    HW120801   0.729   9.581   0.920  0.9096  0.6482 -0.2892
 4285SOL    HW220802   0.629   9.710   0.922  1.2975  0.9514 -0.5847
 4286SOL     OW20803   5.145   6.998   1.915  0.0927 -0.0194  1.1187
 4286SOL    HW120804   5.056   7.003   1.870  0.4514 -1.5270  0.2036
 4286SOL    HW220805   5.188   7.089   1.916 -0.0617  0.0978 -1.3156
 4287SOL     OW20806   1.002   5.142   2.945  0.1833  1.0363 -0.2447
 4287SOL    HW120807   1.049   5.133   2.857  2.3372 -2.0822  1.1299
 4287SOL    HW220808   1.069   5.144   3.019 -1.7050 -0.5907  1.5872
 4288SOL     OW20809   8.963   4.308   2.059 -0.7900  0.2482  0.0764
 4288SOL    HW120810   9.050   4.262   2.044  0.9735  3.0982  1.2387
 4288SOL    HW220811   8.906   4.299   1.977  0.7464 -1.2701 -0.8566
 4289SOL     OW20812   0.610   1.379   1.702  0.3481 -0.1401  0.1320
 4289SOL    HW120813   0.646   1.389   1.794 -2.3963  2.2999  1.0154
 4289SOL    HW220814   0.579   1.285   1.689 -0.8741 -0.0806  2.3527
 4290SOL     OW20815   0.921   5.448   2.609  0.5861 -0.5439  0.5958
 4290SOL    HW120816   1.013   5.434   2.645  0.9543 -1.2170 -0.5788
 4290SOL    HW220817   0.914   5.539   2.569  1.4513 -1.2800 -1.3247
 4291SOL     OW20818   4.229   8.910   0.466 -0.7917 -0.2547  0.3390
 4291SOL    HW120819   4.257   8.833   0.523 -0.3918 -0.0136  0.4679
 4291SOL    HW220820   4.288   8.988   0.484 -1.1193  0.0430  0.1149
 4293SOL     OW20821   3.660   7.276   3.253  0.3677 -0.3409  0.4867
 4293SOL    HW120822   3.685   7.234   3.340 -0.9406 -0.4760  0.8019
 4293SOL    HW220823   3.618   7.208   3.194 -1.4393  0.4246  0.8648
 4294SOL     OW20824   4.871   9.499   3.088  0.0424  0.0048 -0.2108
 4294SOL    HW120825   4.940   9.571   3.093  1.0324 -0.9512  0.0480
 4294SOL    HW220826   4.850   9.467   3.180  1.0478 -1.3910 -0.4598
 4295SOL     OW20827   2.643   4.021   1.025 -0.5329  0.4623  0.0017
 4295SOL    HW120828   2.676   4.114   1.006 -2.2760  1.4546  1.7247
 4295SOL    HW220829   2.591   3.988   0.946  0.9438  0.5294 -1.0295
 4296SOL     OW20830   5.280   0.244   3.070  0.2241 -0.0317 -0.0030
 4296SOL    HW120831   5.316   0.297   3.147 -0.2482 -1.0215  0.9219
 4296SOL    HW220832   5.345   0.248   2.994  1.1143  0.2631  0.7511
 4297SOL     OW20833   4.546   1.198   1.139 -0.3121 -0.2526  0.4462
 4297SOL    HW120834   4.608   1.126   1.109  0.4115  0.1775  0.8969
 4297SOL    HW220835   4.585   1.244   1.218 -0.1773  1.4685 -0.6105
 4299SOL     OW20836   3.732   2.462   1.028 -0.0265  0.2719 -0.4192
 4299SOL    HW120837   3.682   2.419   1.103  2.6053 -1.5836  0.3414
 4299SOL    HW220838   3.709   2.416   0.942 -0.2082 -0.0792 -0.1834
 4300SOL     OW20839   7.360   7.479   2.258 -0.1603  0.0752 -0.4854
 4300SOL    HW120840   7.400   7.421   2.329  0.6918 -0.2591 -1.2274
 4300SOL    HW220841   7.425   7.552   2.235  0.1328 -0.5976 -1.8458
 4301SOL     OW20842   7.849   2.891   3.474 -0.8192  0.3482 -0.1244
 4301SOL    HW120843   7.814   2.852   3.559 -0.7922 -0.6606 -0.5661
 4301SOL    HW220844   7.835   2.826   3.400 -1.2124  1.3848 -0.9734
 4302SOL     OW20845   9.060   0.848   2.802 -0.3162  0.4829  0.1672
 4302SOL    HW120846   9.136   0.810   2.856  1.0435  2.0492 -0.6101
 4302SOL    HW220847   9.026   0.930   2.846 -0.0164  1.0758 -0.6859
 4303SOL     OW20848   1.072   0.355   2.445 -0.2292  0.1471 -0.4101
 4303SOL    HW120849   1.003   0.420   2.414  0.1214  0.0332 -1.4817
 4303SOL    HW220850   1.127   0.326   2.366 -0.6317 -1.7285 -0.0247
 4304SOL     OW20851   4.165   3.384   0.276 -0.1596 -0.1038  0.2695
 4304SOL    HW120852   4.177   3.286   0.265  1.0609  0.2087 -1.4067
 4304SOL    HW220853   4.070   3.408   0.257 -0.2969 -0.8701 -0.0218
 4305SOL     OW20854   0.680   7.536   0.585  0.5143  0.1995 -0.1066
 4305SOL    HW120855   0.726   7.571   0.667 -1.5823  1.9305  0.3967
 4305SOL    HW220856   0.747   7.496   0.524  2.3652  0.5284  1.6469
 4306SOL     OW20857   3.081   2.139   3.136  0.8206 -0.0828  0.1125
 4306SOL    HW120858   3.085   2.066   3.068 -2.1480 -0.7907  0.6186
 4306SOL    HW220859   3.102   2.102   3.226 -0.5240 -0.3217  0.3443
 4307SOL     OW20860   2.888   8.715   0.268  0.4365  0.5022  0.1842
 4307SOL    HW120861   2.969   8.748   0.316 -0.2430  1.3389  0.7810
 4307SOL    HW220862   2.812   8.778   0.284  0.0937  0.5884 -1.7154
 4309SOL     OW20863   1.479   0.453   2.302 -0.4154 -0.3196 -0.1644
 4309SOL    HW120864   1.498   0.392   2.379  1.1095  0.4818  0.0992
 4309SOL    HW220865   1.563   0.469   2.250 -0.6491  2.1192  0.1671
 4310SOL     OW20866   9.331   3.818   1.768 -0.1209  0.3268 -0.0179
 4310SOL    HW120867   9.340   3.833   1.867  2.3326  0.6898 -0.2685
 4310SOL    HW220868   9.293   3.728   1.751 -1.8932  0.8141  1.2847
 4311SOL     OW20869   2.314   9.468   3.290 -0.0626 -0.0221  0.4392
 4311SOL    HW120870   2.333   9.451   3.387  1.9783 -1.5912 -0.1958
 4311SOL    HW220871   2.386   9.525   3.251  0.5322 -1.5511 -0.7502
 4312SOL     OW20872   8.337   8.323   1.426  0.2977  0.1156 -0.1336
 4312SOL    HW120873   8.401   8.252   1.455  0.7132  0.4753 -0.1817
 4312SOL    HW220874   8.278   8.348   1.503 -1.9074 -2.4673 -0.8693
 4316SOL     OW20875   5.180   7.480   2.561  0.0485 -0.0985  0.1314
 4316SOL    HW120876   5.151   7.573   2.539  1.0731  0.6322  1.7439
 4316SOL    HW220877   5.272   7.482   2.600 -0.1940 -1.7189  0.8452
 4318SOL     OW20878   0.900   1.571   0.443  0.3426  0.2041  0.2922
 4318SOL    HW120879   0.996   1.572   0.417  0.5726 -1.5920  1.0122
 4318SOL    HW220880   0.874   1.480   0.474 -1.2388  0.9997  1.4377
 4319SOL     OW20881   4.013   0.597   0.546  0.0125  0.2963 -0.2657
 4319SOL    HW120882   4.027   0.526   0.478 -0.1476  1.1693 -1.2315
 4319SOL    HW220883   4.015   0.687   0.502 -0.4241  0.8635  0.8296
 4320SOL     OW20884   8.059   4.399   0.225  0.0614  0.2593  0.4870
 4320SOL    HW120885   8.032   4.353   0.141  0.3188  0.3434  0.3568
 4320SOL    HW220886   8.021   4.491   0.227 -1.1785 -0.2542  1.1486
 4322SOL     OW20887   2.917   4.416   2.003  0.1865 -0.6706 -0.1705
 4322SOL    HW120888   2.907   4.368   2.090  0.6159 -0.0164  0.2545
 4322SOL    HW220889   2.897   4.513   2.016  0.7352 -0.4776 -0.6868
 4323SOL     OW20890   1.530   1.190   2.642 -0.0650 -0.2929  0.3960
 4323SOL    HW120891   1.517   1.176   2.740  0.9019 -2.0352  0.2945
 4323SOL    HW220892   1.524   1.102   2.594 -0.0138  0.4659 -1.0539
 4324SOL     OW20893   8.776   4.350   1.859  0.3043 -0.1089 -0.2312
 4324SOL    HW120894   8.762   4.402   1.774 -0.5914  0.8044  0.4676
 4324SOL    HW220895   8.692   4.351   1.913  0.6827 -1.1999  0.3950
 4325SOL     OW20896   9.000   4.810   2.591  0.1576  0.1584 -0.0383
 4325SOL    HW120897   9.063   4.737   2.615  1.3275  0.9727 -0.6200
 4325SOL    HW220898   8.918   4.804   2.649  1.2003 -0.2879  1.4064
 4326SOL     OW20899   2.503   2.114   1.811  0.1579 -0.0453  0.0053
 4326SOL    HW120900   2.442   2.036   1.827 -0.7700  0.5297 -0.7086
 4326SOL    HW220901   2.461   2.197   1.847  0.0835  0.5098 -1.3403
 4327SOL     OW20902   9.203   6.302   1.595 -0.0204 -0.5647  0.1669
 4327SOL    HW120903   9.248   6.228   1.645  1.2892  0.1312  0.0247
 4327SOL    HW220904   9.216   6.388   1.644 -1.1256 -0.3429  0.0740
 4329SOL     OW20905   7.860   6.636   1.444 -0.2311  0.3325  0.0222
 4329SOL    HW120906   7.868   6.658   1.541 -3.1361 -0.2414  0.4223
 4329SOL    HW220907   7.856   6.537   1.432  0.1410  0.4000 -0.6834
 4330SOL     OW20908   0.506   1.144   1.403 -0.3786  0.3238  0.1804
 4330SOL    HW120909   0.522   1.079   1.329 -1.1919  0.0641  0.2356
 4330SOL    HW220910   0.420   1.191   1.389 -0.3657  0.5318  0.7730
 4331SOL     OW20911   2.597   0.787   2.524  0.4099 -0.3467 -0.2189
 4331SOL    HW120912   2.642   0.729   2.592  1.3183 -0.2726 -0.7478
 4331SOL    HW220913   2.660   0.804   2.448 -0.3163  0.2376 -0.6951
 4333SOL     OW20914   6.954   0.364   1.905  0.7470  0.0900  0.3824
 4333SOL    HW120915   7.048   0.388   1.879  0.4981  0.0583 -0.5796
 4333SOL    HW220916   6.909   0.445   1.942  0.4618  0.6917 -1.2307
 4335SOL     OW20917   8.528   1.210   2.057 -0.0942 -0.1686  0.1947
 4335SOL    HW120918   8.495   1.122   2.094 -0.5677 -0.0118  0.1557
 4335SOL    HW220919   8.517   1.211   1.958  1.9678 -0.9144 -0.0607
 4337SOL     OW20920   8.406   8.563   1.842 -0.4196 -0.2724  0.3125
 4337SOL    HW120921   8.334   8.578   1.909 -0.8793 -0.7911 -0.0630
 4337SOL    HW220922   8.488   8.529   1.888 -0.1093  1.1887  0.8594
 4338SOL     OW20923   8.422   2.094   0.854 -0.5830 -0.2579 -0.0588
 4338SOL    HW120924   8.466   2.172   0.898  0.3601 -1.1782  0.6520
 4338SOL    HW220925   8.344   2.126   0.801 -0.6348  1.0852  0.7951
 4339SOL     OW20926   8.191   2.118   1.111 -0.2751  0.4883  0.0762
 4339SOL    HW120927   8.148   2.208   1.122 -1.3568  0.5269 -3.8081
 4339SOL    HW220928   8.251   2.119   1.031 -1.0212 -2.5090 -0.5709
 4340SOL     OW20929   7.961   9.167   3.282 -0.3979  0.2121 -0.0336
 4340SOL    HW120930   7.956   9.183   3.183 -1.6584  0.2426  0.0382
 4340SOL    HW220931   7.879   9.203   3.326 -0.2904 -0.6964  0.9100
 4342SOL     OW20932   4.171   8.745   3.654  0.5123  0.1080 -0.0836
 4342SOL    HW120933   4.144   8.726   3.560  2.1010 -0.6557 -0.4025
 4342SOL    HW220934   4.235   8.674   3.685 -1.8050 -0.9794  2.3701
 4343SOL     OW20935   9.367   7.958   3.449 -0.4808 -0.1080  0.3297
 4343SOL    HW120936   9.309   7.936   3.370  0.8942  0.2693 -0.8241
 4343SOL    HW220937   9.442   8.017   3.419  0.5105 -0.6089  1.7674
 4344SOL     OW20938   0.131   2.478   3.165  0.4321  0.0501 -0.5925
 4344SOL    HW120939   0.173   2.445   3.081  1.4401  1.0112 -0.4856
 4344SOL    HW220940   0.086   2.402   3.213  0.8696 -0.7219 -1.4072
 4345SOL     OW20941   4.758   0.772   0.982 -0.0879  0.1604 -0.1609
 4345SOL    HW120942   4.770   0.857   1.032  0.5155  1.2095 -2.0481
 4345SOL    HW220943   4.831   0.708   1.006 -0.6604  0.0742  1.4145
 4346SOL     OW20944   7.972   5.474   0.577 -0.1629  0.0791 -0.1132
 4346SOL    HW120945   7.914   5.554   0.590 -1.4935 -1.1001  1.2639
 4346SOL    HW220946   8.036   5.465   0.654 -0.6148 -0.6817  0.1796
 4347SOL     OW20947   8.375   1.381   1.506 -0.1401  0.3257 -0.1407
 4347SOL    HW120948   8.290   1.355   1.552  0.7741 -0.0599  1.3622
 4347SOL    HW220949   8.374   1.479   1.487 -0.3866  0.5588  1.0336
 4348SOL     OW20950   4.551   7.213   2.815  1.3082 -0.4042  0.4144
 4348SOL    HW120951   4.517   7.297   2.857 -2.2098 -2.1516  1.3446
 4348SOL    HW220952   4.636   7.231   2.767  0.9625  3.5253  1.1117
 4349SOL     OW20953   1.437   8.210   1.136  0.3521  0.5410 -0.1161
 4349SOL    HW120954   1.375   8.202   1.058 -0.5112 -0.6800  0.6780
 4349SOL    HW220955   1.388   8.249   1.214  0.2171 -1.5983  0.8993
 4350SOL     OW20956   0.875   5.476   1.172 -0.1706  0.4893  0.3440
 4350SOL    HW120957   0.873   5.389   1.222  0.6855 -0.1262 -0.6754
 4350SOL    HW220958   0.794   5.483   1.114 -0.5986  0.7021  0.9555
 4353SOL     OW20959   9.599   4.827   0.789  0.6015  0.2537  0.3438
 4353SOL    HW120960   9.682   4.807   0.840 -0.1050 -1.4257  0.8859
 4353SOL    HW220961   9.524   4.845   0.852  0.7468  2.6917 -0.1486
 4354SOL     OW20962   1.106   2.805   3.743  0.0856  0.2360  0.1622
 4354SOL    HW120963   1.029   2.857   3.707  0.0899  0.0380 -0.1314
 4354SOL    HW220964   1.115   2.719   3.693  0.5295  0.2812  0.1631
 4357SOL     OW20965   4.627   9.421   2.300  0.4771 -0.1373 -0.5070
 4357SOL    HW120966   4.560   9.433   2.227  1.8472  2.5621 -1.3845
 4357SOL    HW220967   4.632   9.505   2.354  0.3760 -1.6628  1.9651
 4359SOL     OW20968   3.030   9.990   2.507  0.0721  0.4272  0.5148
 4359SOL    HW120969   2.983   9.958   2.589  0.6652  0.9262  1.0546
 4359SOL    HW220970   3.004  10.084   2.488 -0.6918  0.0524 -0.3444
 4360SOL     OW20971   3.867   7.784   0.745 -0.8491  0.5954  0.1777
 4360SOL    HW120972   3.861   7.850   0.670 -0.5393  1.9454  1.3203
 4360SOL    HW220973   3.875   7.833   0.832  1.0902 -0.9408  0.8958
 4361SOL     OW20974   4.422   2.769   1.877  0.1147 -0.0184 -0.4068
 4361SOL    HW120975   4.419   2.710   1.797 -1.0965  0.3212 -0.6079
 4361SOL    HW220976   4.428   2.713   1.960 -0.7340 -0.4075 -0.6139
 4362SOL     OW20977   0.659   2.966   3.472  0.6719  0.5998 -0.3703
 4362SOL    HW120978   0.572   2.934   3.435  1.1620 -1.0869 -0.1323
 4362SOL    HW220979   0.706   3.023   3.404  0.8767 -1.2204 -1.8045
 4363SOL     OW20980   2.499   6.489   2.189  0.3856  0.4207  0.1057
 4363SOL    HW120981   2.440   6.552   2.137  0.3376  1.4185  1.3619
 4363SOL    HW220982   2.470   6.395   2.171 -0.7733  0.8391 -0.3044
 4364SOL     OW20983   2.849   7.290   3.657 -0.5433 -0.3427 -0.3116
 4364SOL    HW120984   2.799   7.261   3.739 -0.0517 -1.5888 -0.4551
 4364SOL    HW220985   2.808   7.374   3.622 -1.0545 -0.0465  0.9450
 4365SOL     OW20986   1.770   1.054   1.590  0.0800  0.2182  0.6822
 4365SOL    HW120987   1.854   1.074   1.539 -0.3414 -0.6985 -0.3849
 4365SOL    HW220988   1.709   1.134   1.586 -0.6443 -0.3991 -1.6758
 4367SOL     OW20989   4.998   8.435   3.129  0.3159  0.4385  0.5864
 4367SOL    HW120990   4.956   8.459   3.216 -0.9941 -0.9706  0.3743
 4367SOL    HW220991   4.958   8.490   3.056  0.9966  1.2055  0.7822
 4368SOL     OW20992   6.783   8.560   2.601  0.0678 -0.2839 -0.4421
 4368SOL    HW120993   6.820   8.581   2.692 -0.1253  0.5878 -0.5607
 4368SOL    HW220994   6.814   8.470   2.572  1.4973  0.1331 -0.2223
 4369SOL     OW20995   7.616   1.714   2.658  0.2704 -0.1615 -0.2754
 4369SOL    HW120996   7.600   1.775   2.580 -0.0276 -0.5876 -0.5527
 4369SOL    HW220997   7.664   1.764   2.730 -1.9477  1.0632  0.4104
 4370SOL     OW20998   1.153   6.247   0.458 -0.2465  0.2360  0.2774
 4370SOL    HW120999   1.122   6.242   0.363  0.5373 -1.4172  0.0829
 4370SOL    HW221000   1.243   6.204   0.466  0.0983  1.1422  1.6189
 4371SOL     OW21001   9.310   1.281   1.144  0.6406  0.6042 -0.0328
 4371SOL    HW121002   9.292   1.183   1.157  0.1067  0.9299  1.8578
 4371SOL    HW221003   9.310   1.303   1.046  0.6035 -1.2496 -0.4609
 4372SOL     OW21004   9.069   8.726   2.395  0.2768 -0.6770  0.4627
 4372SOL    HW121005   9.059   8.655   2.464 -0.3541 -0.0879  0.9881
 4372SOL    HW221006   8.981   8.772   2.383  0.9672  0.7955  0.9703
 4373SOL     OW21007   9.630   1.875   3.754  0.1072  0.1985 -0.1951
 4373SOL    HW121008   9.670   1.809   3.691  1.1564 -0.6464  1.3392
 4373SOL    HW221009   9.682   1.876   3.840 -2.7223 -0.4230  1.5842
 4374SOL     OW21010   7.412   0.496   2.536  0.1594 -0.4031  0.0455
 4374SOL    HW121011   7.384   0.475   2.442 -1.0141 -0.3306  0.3681
 4374SOL    HW221012   7.394   0.593   2.555  0.1904 -0.4684  0.4130
 4375SOL     OW21013   3.420   0.917   0.896  0.7619  0.7668 -0.3339
 4375SOL    HW121014   3.437   0.879   0.987 -0.0342 -1.2506 -0.9951
 4375SOL    HW221015   3.326   0.953   0.891  0.4196 -0.1694 -0.7000
 4376SOL     OW21016   4.457   4.009   1.193 -0.9446  0.4779 -0.4858
 4376SOL    HW121017   4.525   3.960   1.138 -0.3923  0.0551  0.5581
 4376SOL    HW221018   4.489   4.014   1.287 -2.7669 -0.4787  0.2006
 4378SOL     OW21019   1.604   6.588   1.911  0.2171 -0.1420  0.7118
 4378SOL    HW121020   1.582   6.579   2.008  1.0318 -0.1726  0.8981
 4378SOL    HW221021   1.608   6.498   1.869 -0.6915 -0.0985  0.5191
 4379SOL     OW21022   2.979   4.395   0.225  0.3055 -0.1691  0.3463
 4379SOL    HW121023   2.929   4.319   0.182  0.3009  0.6667 -1.1937
 4379SOL    HW221024   2.921   4.477   0.224  1.5937  0.7524 -1.2565
 4380SOL     OW21025   1.041   1.072   3.014  0.5687  0.6067  0.1398
 4380SOL    HW121026   1.134   1.058   2.979 -0.3776 -0.0105 -2.2353
 4380SOL    HW221027   0.991   1.130   2.950 -0.4714  1.6105  1.8149
 4381SOL     OW21028   9.648   5.686   3.758  0.8437  0.3125 -0.6802
 4381SOL    HW121029   9.612   5.593   3.753  0.1486  0.6182 -1.6154
 4381SOL    HW221030   9.615   5.738   3.679  1.8436  1.1346 -0.5625
 4382SOL     OW21031   3.514   0.303   2.683 -0.2729  0.4429 -0.4243
 4382SOL    HW121032   3.504   0.394   2.640  0.7825  0.9121  0.3128
 4382SOL    HW221033   3.447   0.241   2.643 -1.4219  1.7030 -0.5147
 4383SOL     OW21034   7.794   0.959   1.080 -0.2485  0.1486 -0.0398
 4383SOL    HW121035   7.797   1.000   1.172  1.3321  0.6261 -0.2883
 4383SOL    HW221036   7.869   0.893   1.070  0.0528  0.6529 -1.2315
 4384SOL     OW21037   8.816   6.826   3.034  0.3862 -0.4523  0.3985
 4384SOL    HW121038   8.838   6.870   2.947  0.5960  0.7003  1.0253
 4384SOL    HW221039   8.719   6.841   3.056  0.7282  0.6878  1.1671
 4385SOL     OW21040   9.149   1.485   0.954  0.3007  0.0650 -0.1559
 4385SOL    HW121041   9.110   1.520   0.869  1.7758  0.5553 -0.6585
 4385SOL    HW221042   9.231   1.432   0.933  0.3725 -0.2681  0.9289
 4386SOL     OW21043   2.145   7.826   0.573  0.1932 -0.2438 -0.9101
 4386SOL    HW121044   2.235   7.861   0.598 -0.0696 -0.5774  0.5545
 4386SOL    HW221045   2.114   7.760   0.642 -0.6500 -1.0410 -2.0306
 4387SOL     OW21046   9.512   7.298   3.572  0.1342 -0.0653  0.0975
 4387SOL    HW121047   9.539   7.212   3.528  1.1881 -0.4319  1.4249
 4387SOL    HW221048   9.437   7.281   3.636  0.8131 -0.1249  0.8796
 4388SOL     OW21049   4.464   2.289   1.979 -0.3700 -0.2158  0.3183
 4388SOL    HW121050   4.376   2.242   1.969  0.5188 -1.7723 -0.2688
 4388SOL    HW221051   4.477   2.350   1.901 -0.2067 -1.2022 -0.4361
 4389SOL     OW21052   3.430   8.205   1.355  0.1372 -0.3840  0.2868
 4389SOL    HW121053   3.405   8.301   1.360  2.3800  0.1695  2.1757
 4389SOL    HW221054   3.490   8.190   1.277  1.0978  0.0891  0.9283
 4390SOL     OW21055   4.537   7.753   0.895 -0.3266 -0.3860  0.5215
 4390SOL    HW121056   4.446   7.737   0.932  0.9013 -4.1417  2.1403
 4390SOL    HW221057   4.537   7.738   0.797 -1.7121  1.0081  0.2902
 4391SOL     OW21058   3.746   4.318   3.032  0.1310  0.3640  0.0596
 4391SOL    HW121059   3.784   4.301   2.941 -1.3748  1.6762 -0.8498
 4391SOL    HW221060   3.776   4.407   3.065 -0.4842  0.5190  0.2138
 4392SOL     OW21061   8.183   1.104   1.130  0.6173  0.1588 -0.1538
 4392SOL    HW121062   8.238   1.023   1.109 -0.9798 -1.0237  0.2096
 4392SOL    HW221063   8.131   1.131   1.049 -0.4279 -0.4163  0.3198
 4393SOL     OW21064   0.877   6.348   0.562  0.4022 -0.2714 -0.6035
 4393SOL    HW121065   0.931   6.265   0.577  0.0486 -0.6697 -1.4635
 4393SOL    HW221066   0.807   6.329   0.493  1.4489  1.2122 -2.1143
 4395SOL     OW21067   8.991   7.337   0.649  0.1688  0.2237  0.1722
 4395SOL    HW121068   8.913   7.280   0.623 -0.1276  0.9498 -0.5561
 4395SOL    HW221069   9.037   7.369   0.566  1.2026 -0.1385  0.6003
 4396SOL     OW21070   9.859   8.586   1.970 -0.2415  0.5340 -0.2195
 4396SOL    HW121071   9.904   8.499   1.948 -0.0609  1.0338 -1.9003
 4396SOL    HW221072   9.926   8.649   2.009  0.1773  0.7598 -1.3024
 4397SOL     OW21073   0.009   5.939   0.529  0.4670  0.0629 -0.1090
 4397SOL    HW121074   0.073   5.862   0.533  0.7110  0.2940  0.4380
 4397SOL    HW221075  -0.082   5.905   0.506  0.4399 -0.4677  0.7676
 4398SOL     OW21076   9.997   2.361   2.856  0.1474  0.5918  0.1743
 4398SOL    HW121077   9.936   2.319   2.789 -0.0231 -2.0334  1.8556
 4398SOL    HW221078   9.960   2.449   2.885  0.5347  2.0318 -3.5331
 4399SOL     OW21079   1.655   6.556   3.284 -0.1258  0.7372  0.1360
 4399SOL    HW121080   1.634   6.496   3.360  1.8175  0.0698  0.1833
 4399SOL    HW221081   1.737   6.523   3.237 -0.4737  1.9458 -1.3654
 4400SOL     OW21082   9.208   4.615   2.618 -0.2610  0.7302 -0.7733
 4400SOL    HW121083   9.212   4.536   2.557  0.3460 -0.4789  0.7809
 4400SOL    HW221084   9.292   4.669   2.608  1.3586 -1.2592  1.2606
 4405SOL     OW21085   3.593   1.059   2.175 -0.0752  0.1913  0.0184
 4405SOL    HW121086   3.648   0.986   2.215  2.4398  1.9751 -0.0916
 4405SOL    HW221087   3.639   1.147   2.189 -3.2105  1.8306  0.4803
 4406SOL     OW21088   5.032   2.102   0.655  0.1152 -0.5390  0.2643
 4406SOL    HW121089   4.953   2.125   0.713  0.1166 -0.2844  0.1663
 4406SOL    HW221090   5.032   2.004   0.636 -0.8936 -0.3525 -0.7885
 4407SOL     OW21091   2.895   3.053   3.718 -0.4311 -0.0681  0.4762
 4407SOL    HW121092   2.972   3.021   3.773  0.8846  0.1243 -1.1949
 4407SOL    HW221093   2.859   2.977   3.663 -1.2002 -0.0661  0.9642
 4408SOL     OW21094   0.430   2.595   3.357  0.4624  0.4802 -0.1598
 4408SOL    HW121095   0.418   2.691   3.332 -0.5820  0.3652 -0.0922
 4408SOL    HW221096   0.390   2.579   3.447 -1.5861 -0.5725 -1.2409
 4409SOL     OW21097   7.346   8.848   1.661  0.0208 -0.2674  0.7493
 4409SOL    HW121098   7.280   8.902   1.714 -0.5995 -0.8982  0.6350
 4409SOL    HW221099   7.296   8.787   1.599  0.6989 -1.3232  1.2330
 4411SOL     OW21100   5.556   7.256   3.712  0.0998 -0.7712  0.1350
 4411SOL    HW121101   5.492   7.190   3.672 -1.2333 -0.4133  1.6201
 4411SOL    HW221102   5.628   7.206   3.761  0.0421 -1.1602 -0.1751
 4412SOL     OW21103   4.911   0.559   3.495  0.4764  0.4856 -0.0964
 4412SOL    HW121104   4.834   0.506   3.531 -0.8369  3.3638  1.4967
 4412SOL    HW221105   4.922   0.540   3.398 -1.6723 -0.6809 -0.1431
 4413SOL     OW21106   9.874   0.550   1.331 -0.0198 -0.0628 -0.2912
 4413SOL    HW121107   9.859   0.648   1.317  0.4669 -0.0866 -1.0169
 4413SOL    HW221108   9.808   0.497   1.278 -0.0879 -0.1334 -0.1385
 4414SOL     OW21109   9.111   2.398   2.833  0.4052  0.2799 -0.8680
 4414SOL    HW121110   9.195   2.440   2.866  0.9396 -0.4326 -1.2938
 4414SOL    HW221111   9.128   2.301   2.813 -0.0226  0.5572 -2.7148
 4415SOL     OW21112   9.400   0.768   2.135 -0.3165 -0.1507  0.0486
 4415SOL    HW121113   9.491   0.729   2.120 -0.8518 -1.3308 -0.1922
 4415SOL    HW221114   9.404   0.835   2.209  0.9934  0.7356 -0.7881
 4416SOL     OW21115   0.509   3.354   2.357  0.7198  0.1404 -0.3869
 4416SOL    HW121116   0.485   3.326   2.264  1.4605  0.9494 -0.8235
 4416SOL    HW221117   0.524   3.272   2.413 -0.6775 -0.3614 -0.7133
 4417SOL     OW21118   4.684   7.945   0.628  0.5986 -0.4253 -0.2095
 4417SOL    HW121119   4.625   7.865   0.637 -0.0249  0.2608  2.3498
 4417SOL    HW221120   4.743   7.952   0.709  1.2093  1.2644 -0.7691
 4419SOL     OW21121   2.620   3.424   2.106 -0.1186 -1.2122 -0.1865
 4419SOL    HW121122   2.719   3.424   2.089 -0.5092 -0.6057 -2.6462
 4419SOL    HW221123   2.572   3.392   2.024 -2.1228  1.3236 -0.0771
 4420SOL     OW21124   3.074   0.138   1.862 -0.0269  0.5650 -0.0488
 4420SOL    HW121125   3.102   0.055   1.813 -0.7210  0.0652  0.3967
 4420SOL    HW221126   3.111   0.136   1.955  0.2873  0.9467 -0.1648
 4421SOL     OW21127   0.008   2.258   3.572  0.1710 -0.1705  0.1865
 4421SOL    HW121128   0.090   2.243   3.627 -0.0712  0.6311  0.7773
 4421SOL    HW221129  -0.061   2.304   3.627 -0.0300  0.7765 -0.8424
 4422SOL     OW21130   3.041   2.278   0.351  0.3227  0.2604  0.3117
 4422SOL    HW121131   3.082   2.275   0.260 -1.7035  0.1941 -0.6211
 4422SOL    HW221132   3.079   2.355   0.402  1.2874  0.4529 -0.6807
 4423SOL     OW21133   8.123   0.547   1.447  0.1338 -0.6717  0.1302
 4423SOL    HW121134   8.058   0.602   1.395 -1.0165 -1.8742  0.2706
 4423SOL    HW221135   8.215   0.559   1.409 -0.3620  0.0769 -0.8433
 4424SOL     OW21136   2.273   3.549   1.710 -0.5550  0.1682 -0.2908
 4424SOL    HW121137   2.316   3.597   1.634  0.9017  0.9481  1.0096
 4424SOL    HW221138   2.261   3.452   1.686  0.1068  0.3634 -1.4143
 4426SOL     OW21139   7.034   0.644   2.780 -0.3634 -0.2350 -0.2619
 4426SOL    HW121140   6.961   0.575   2.777  0.5567 -1.1837 -2.9333
 4426SOL    HW221141   7.112   0.608   2.830 -1.5166  0.5922  2.1757
 4427SOL     OW21142   4.551   0.853   3.334  0.7641  0.6885  0.3063
 4427SOL    HW121143   4.626   0.830   3.271  0.7270  3.3192 -0.7398
 4427SOL    HW221144   4.464   0.826   3.293  0.8406  1.2284 -0.2165
 4428SOL     OW21145   8.736   4.872   0.743  0.2538 -0.3072  0.4768
 4428SOL    HW121146   8.653   4.908   0.787 -0.0436 -0.6263  0.1840
 4428SOL    HW221147   8.804   4.945   0.737  0.0742 -0.0994  0.9140
 4429SOL     OW21148   2.098   0.569   0.346 -0.2331  0.2131  0.2072
 4429SOL    HW121149   2.121   0.474   0.325 -0.9209 -0.0858  0.7653
 4429SOL    HW221150   2.026   0.600   0.283 -1.2431 -0.2055  1.1349
 4430SOL     OW21151   8.587   7.923   0.458  0.3504 -0.2515 -0.0602
 4430SOL    HW121152   8.491   7.914   0.486  0.0616  0.0828 -0.9300
 4430SOL    HW221153   8.645   7.931   0.540 -0.2711 -1.3075  0.4880
 4432SOL     OW21154   0.660   6.360   3.042 -1.0121  0.7171  0.1090
 4432SOL    HW121155   0.609   6.414   2.975 -0.1016  0.5930 -0.6840
 4432SOL    HW221156   0.693   6.276   2.999 -0.7146  0.4697  0.8135
 4433SOL     OW21157   1.153   5.162   1.797  0.2695  0.0306 -0.0248
 4433SOL    HW121158   1.068   5.115   1.772 -0.3728 -0.1086  2.2989
 4433SOL    HW221159   1.183   5.130   1.886  0.5432  3.1004  1.0290
 4434SOL     OW21160   7.976   5.932   3.725  0.1934  0.0480  0.1143
 4434SOL    HW121161   7.951   5.847   3.770 -0.0136  0.8427  1.5277
 4434SOL    HW221162   7.898   5.965   3.671  0.7149 -1.3278 -1.5319
 4435SOL     OW21163   3.808   9.329   3.133  0.2754  0.4134  0.7096
 4435SOL    HW121164   3.770   9.239   3.153  0.2748 -0.1572 -1.6901
 4435SOL    HW221165   3.859   9.326   3.047  0.4997  2.6505  0.7181
 4437SOL     OW21166   9.747   3.131   0.791 -0.3945  0.2094  0.6803
 4437SOL    HW121167   9.749   3.116   0.692  0.8439 -1.5765  0.9455
 4437SOL    HW221168   9.757   3.229   0.810  2.2592  0.2841 -0.8816
 4438SOL     OW21169   2.504   5.741   1.003  0.1779 -0.4276  0.5863
 4438SOL    HW121170   2.469   5.798   1.078 -1.8980  1.3346 -1.6323
 4438SOL    HW221171   2.453   5.654   1.001 -1.0290  0.2697  0.1409
 4439SOL     OW21172   7.562   7.086   2.114 -0.1253 -0.7397 -0.0432
 4439SOL    HW121173   7.628   7.050   2.179  0.2085  2.0235  1.2213
 4439SOL    HW221174   7.601   7.083   2.022  0.4007 -2.2965  0.2232
 4441SOL     OW21175   8.236   1.407   0.635  0.4824  0.0760 -0.5538
 4441SOL    HW121176   8.229   1.365   0.725  0.9954 -0.4233 -0.7412
 4441SOL    HW221177   8.293   1.350   0.576  1.1124  0.9924 -0.8414
 4442SOL     OW21178   2.774   3.866   2.756  0.3949  0.0563  0.9002
 4442SOL    HW121179   2.778   3.862   2.856  0.5830 -0.9349  0.8628
 4442SOL    HW221180   2.680   3.855   2.726  0.2908  0.7329  0.9849
 4443SOL     OW21181   0.778   1.965   3.274  0.3687 -0.2907 -0.3030
 4443SOL    HW121182   0.789   1.956   3.373 -1.0480  0.6446 -0.0505
 4443SOL    HW221183   0.688   2.004   3.253  0.4556 -0.9184 -1.9813
 4444SOL     OW21184   9.278   6.169   0.452  0.0322  0.2575 -0.7891
 4444SOL    HW121185   9.200   6.190   0.511 -0.9480 -2.3354 -1.0920
 4444SOL    HW221186   9.304   6.251   0.399 -2.5184  1.1247 -0.7368
 4445SOL     OW21187   5.762   9.723   3.704  0.5955 -0.1873  0.6202
 4445SOL    HW121188   5.752   9.658   3.629 -2.9560  0.8937  0.0661
 4445SOL    HW221189   5.684   9.715   3.766  0.8754  2.4631  1.3751
 4446SOL     OW21190   9.400   8.518   2.616 -0.0075 -0.7060  0.1831
 4446SOL    HW121191   9.459   8.466   2.553  1.3999 -0.4847  1.2750
 4446SOL    HW221192   9.402   8.615   2.591  0.3918 -0.6474  0.4321
 4447SOL     OW21193   8.620   2.837   2.882 -0.1125 -0.7837 -0.2471
 4447SOL    HW121194   8.689   2.899   2.844 -1.3121 -0.0607 -1.2799
 4447SOL    HW221195   8.572   2.791   2.808 -2.3157  0.4541  0.3358
 4448SOL     OW21196   0.442   2.607   3.034  0.1905  0.0952 -0.3972
 4448SOL    HW121197   0.440   2.574   3.128 -0.4488 -1.6996 -1.0263
 4448SOL    HW221198   0.533   2.590   2.995  1.6612  4.1961  1.0355
 4449SOL     OW21199   5.453   0.276   3.291  0.1046  0.2959 -0.1182
 4449SOL    HW121200   5.504   0.346   3.242 -1.2912  1.1186 -0.4333
 4449SOL    HW221201   5.487   0.269   3.385  0.5031  1.1229 -0.1952
 4451SOL     OW21202   2.246   1.058   0.052  0.0150 -0.2292 -0.4685
 4451SOL    HW121203   2.264   0.991  -0.021 -0.0897  2.7572 -3.3288
 4451SOL    HW221204   2.331   1.105   0.076 -0.0509 -0.8461  1.0729
 4453SOL     OW21205   1.619   4.260   2.167  0.0627 -0.2350 -0.6994
 4453SOL    HW121206   1.637   4.217   2.256  0.0765  0.6001 -0.3008
 4453SOL    HW221207   1.705   4.266   2.115  0.3747  0.8713 -0.0646
 4454SOL     OW21208   5.154   8.476   2.265  0.4843  0.0225 -1.1187
 4454SOL    HW121209   5.237   8.426   2.238  0.9762  0.2604 -0.0860
 4454SOL    HW221210   5.139   8.463   2.363  0.3448  1.5173 -0.9403
 4455SOL     OW21211   8.043   5.065   0.787  0.6001  0.4129  0.1532
 4455SOL    HW121212   8.133   5.035   0.818  0.0565 -0.4781  0.8918
 4455SOL    HW221213   8.048   5.089   0.690  1.5704  0.1252  0.1220
 4457SOL     OW21214   0.358   4.629   3.158 -0.0997  0.0066 -0.4433
 4457SOL    HW121215   0.270   4.642   3.114  0.3257  0.2547 -1.2281
 4457SOL    HW221216   0.418   4.706   3.136 -0.3060  0.7750  1.6209
 4460SOL     OW21217   6.590   0.262   2.093 -0.2492  0.6078  0.4865
 4460SOL    HW121218   6.513   0.198   2.093 -0.4229  0.7835  2.8458
 4460SOL    HW221219   6.662   0.227   2.033 -0.2210 -1.9658  1.9419
 4461SOL     OW21220   4.281   4.214   1.154 -0.2507  0.5496  0.0287
 4461SOL    HW121221   4.346   4.142   1.127 -1.3492 -0.2600 -0.4793
 4461SOL    HW221222   4.248   4.262   1.073 -0.1939  1.0391  0.2960
 4462SOL     OW21223   1.828   8.025   0.869  0.4226 -0.3792 -0.1866
 4462SOL    HW121224   1.812   8.123   0.857 -0.4743 -0.3707  0.9408
 4462SOL    HW221225   1.772   7.973   0.804  1.2165 -0.1384 -1.0704
 4463SOL     OW21226   2.384   0.288   1.199 -0.3908 -0.1003  0.1647
 4463SOL    HW121227   2.305   0.274   1.139 -0.3830  1.4848 -0.2295
 4463SOL    HW221228   2.437   0.203   1.204 -0.9818 -0.5658 -1.1990
 4464SOL     OW21229   2.046   7.951   2.811  0.3626 -0.0234  0.0084
 4464SOL    HW121230   2.082   7.888   2.742  0.6448  0.5514 -0.3727
 4464SOL    HW221231   2.099   7.943   2.895  1.2729  0.6716 -0.4823
 4465SOL     OW21232   2.247   0.320   3.515  0.1191  0.5627  0.6416
 4465SOL    HW121233   2.297   0.381   3.576  1.9631  0.8637 -1.0989
 4465SOL    HW221234   2.173   0.371   3.471  1.2480  1.4040 -0.3160
 4466SOL     OW21235   0.640   5.859   1.419  0.3654  0.4276 -0.9873
 4466SOL    HW121236   0.724   5.811   1.396 -1.5478 -2.6789 -1.7684
 4466SOL    HW221237   0.609   5.832   1.510  0.2249  1.5772 -0.6865
 4467SOL     OW21238   8.209   0.135   2.790 -0.3851 -0.0570  0.2555
 4467SOL    HW121239   8.233   0.099   2.881  1.3796 -2.2252 -1.0030
 4467SOL    HW221240   8.118   0.103   2.766 -0.7275  0.2418  1.1257
 4468SOL     OW21241   6.832   9.071   2.897 -0.2558  0.1718  0.2591
 4468SOL    HW121242   6.913   9.055   2.955  0.3539  1.0250 -0.3516
 4468SOL    HW221243   6.755   9.097   2.954 -0.4596 -1.9011  0.9875
 4470SOL     OW21244   9.630   1.469   2.177 -0.2797 -0.0504  0.7449
 4470SOL    HW121245   9.596   1.456   2.271 -1.0575 -0.5785  0.3930
 4470SOL    HW221246   9.562   1.436   2.112  0.7252 -0.7175  0.0130
 4471SOL     OW21247   9.015   0.110   1.352 -0.0669  0.2229  0.3901
 4471SOL    HW121248   8.923   0.085   1.321 -0.9460  1.3835  2.0414
 4471SOL    HW221249   9.038   0.059   1.435  0.9327 -0.3311 -0.2149
 4472SOL     OW21250   4.207   8.954   2.885 -0.5005 -0.2615  0.0387
 4472SOL    HW121251   4.268   8.879   2.912  0.0446 -0.2800 -1.1829
 4472SOL    HW221252   4.262   9.033   2.859 -1.0910  0.9380  2.3115
 4473SOL     OW21253   2.609   8.714   3.594  0.1163 -0.7329  0.2253
 4473SOL    HW121254   2.588   8.696   3.498 -0.4906  2.0691 -0.2073
 4473SOL    HW221255   2.636   8.629   3.638 -1.0631 -2.3583 -2.0476
 4474SOL     OW21256   2.033   2.529   0.988  0.2382  0.6170 -0.0701
 4474SOL    HW121257   2.093   2.452   0.967  1.5451  1.3900  0.7407
 4474SOL    HW221258   2.021   2.537   1.087  0.2875  1.5792 -0.1360
 4475SOL     OW21259   8.726   7.301   2.169  0.0136 -0.0974  0.7363
 4475SOL    HW121260   8.770   7.290   2.258  1.1031  1.5426  0.4351
 4475SOL    HW221261   8.640   7.350   2.180  0.2351  0.2640  0.8635
 4476SOL     OW21262   3.848   4.313   0.066 -0.4656 -0.0978 -0.1510
 4476SOL    HW121263   3.918   4.380   0.092 -2.2005  2.5695 -2.0297
 4476SOL    HW221264   3.785   4.299   0.143  0.3559 -0.1421  0.5136
 4478SOL     OW21265   8.561   4.781   1.346 -0.4226  0.3150  0.2074
 4478SOL    HW121266   8.550   4.686   1.375  0.6198  0.0053 -0.3827
 4478SOL    HW221267   8.596   4.784   1.253 -1.7386  1.2941 -0.2702
 4480SOL     OW21268   0.050   8.241   2.981 -0.5192  0.3869 -0.2687
 4480SOL    HW121269  -0.009   8.308   3.026 -0.0335  0.7097 -0.1140
 4480SOL    HW221270   0.089   8.280   2.898  0.0377  0.4137  0.0030
 4481SOL     OW21271   0.952   7.522   3.675  0.3170 -0.1742  0.0072
 4481SOL    HW121272   0.888   7.559   3.743  0.3960 -1.3697  0.7505
 4481SOL    HW221273   0.904   7.507   3.589 -0.6736 -2.0377  0.8644
 4482SOL     OW21274   5.261   7.184   3.450  0.0357 -0.8884  0.1931
 4482SOL    HW121275   5.347   7.135   3.438  0.4660 -0.2088  0.4963
 4482SOL    HW221276   5.251   7.210   3.546  0.8000  1.4495 -0.3261
 4483SOL     OW21277   3.898   6.684   2.842  0.0052  0.5700  0.1683
 4483SOL    HW121278   3.922   6.714   2.934  0.3724 -0.4271  0.4061
 4483SOL    HW221279   3.913   6.759   2.777  2.5824  0.3679  0.4867
 4484SOL     OW21280   3.522   2.244   1.789  0.1106  0.1082 -0.2453
 4484SOL    HW121281   3.602   2.279   1.739 -0.0023  1.1122  0.2697
 4484SOL    HW221282   3.540   2.247   1.887 -0.1855 -0.6152 -0.1601
 4486SOL     OW21283   0.531   1.617   1.021 -0.3508 -0.1762  0.1345
 4486SOL    HW121284   0.508   1.578   1.110  1.9578 -1.5713  0.1543
 4486SOL    HW221285   0.482   1.567   0.949 -2.2595  0.9855  0.5674
 4487SOL     OW21286   1.761   9.267   3.731  0.3872  0.5303  0.2432
 4487SOL    HW121287   1.719   9.218   3.807 -1.3615  1.5876 -0.0075
 4487SOL    HW221288   1.722   9.235   3.644 -0.6560  2.1606  0.0656
 4488SOL     OW21289   8.257   2.150   3.498 -1.0222 -0.0635  0.0700
 4488SOL    HW121290   8.341   2.102   3.524 -1.3736 -1.1977 -0.8418
 4488SOL    HW221291   8.272   2.197   3.410 -1.7589 -1.4380 -0.8105
 4491SOL     OW21292   4.480   8.340   2.958  0.1288 -0.1529 -0.0169
 4491SOL    HW121293   4.467   8.359   2.861  0.6624 -2.6310 -0.6045
 4491SOL    HW221294   4.577   8.350   2.981  0.2204 -0.9759 -0.0554
 4492SOL     OW21295   2.558   1.314   0.265 -0.1192  0.1432 -0.4474
 4492SOL    HW121296   2.587   1.225   0.302  0.9138  0.8376  0.4621
 4492SOL    HW221297   2.497   1.300   0.188 -0.0789 -1.3652 -0.2171
 4493SOL     OW21298   0.134   7.979   0.734 -0.1398  0.1142 -0.3230
 4493SOL    HW121299   0.162   7.899   0.680  1.2111  0.0753  0.4184
 4493SOL    HW221300   0.172   8.062   0.693 -1.7169  0.4254 -1.2143
 4494SOL     OW21301   3.388   9.082   2.880 -0.0494 -0.3931  0.3365
 4494SOL    HW121302   3.341   9.117   2.798 -1.0268 -2.1549  0.1247
 4494SOL    HW221303   3.486   9.098   2.871  0.0103 -1.8437 -1.8479
 4495SOL     OW21304   2.542   2.855   1.734 -0.0823  0.3854  0.4857
 4495SOL    HW121305   2.557   2.802   1.818 -2.4672 -0.3720  0.4756
 4495SOL    HW221306   2.630   2.879   1.693  1.0686 -3.5155  0.5229
 4496SOL     OW21307   7.362   4.611   0.627 -0.4473  0.0160  1.0840
 4496SOL    HW121308   7.429   4.640   0.696 -0.6677  1.8608  0.5402
 4496SOL    HW221309   7.318   4.691   0.587 -0.7077 -1.0523 -0.8417
 4497SOL     OW21310   8.149   0.136   1.235 -0.5590 -0.2312  0.1409
 4497SOL    HW121311   8.070   0.108   1.180 -0.0170  1.9444 -1.8604
 4497SOL    HW221312   8.120   0.202   1.304 -0.3766  1.3428 -1.2519
 4498SOL     OW21313   4.378   0.914   0.149 -0.1811  0.2005 -0.0784
 4498SOL    HW121314   4.470   0.907   0.187 -1.0119  1.2017  2.1521
 4498SOL    HW221315   4.346   0.823   0.122  0.8796 -0.3465  0.5023
 4499SOL     OW21316   9.572   8.117   1.971  0.2560  0.2803  0.5541
 4499SOL    HW121317   9.513   8.096   1.893  1.4022  0.7992 -0.4767
 4499SOL    HW221318   9.587   8.215   1.976 -0.7241  0.3691  2.1302
 4500SOL     OW21319   1.906   1.028   2.394  0.0790 -0.2036  0.2914
 4500SOL    HW121320   1.930   1.124   2.382  0.7687 -0.7366 -3.2702
 4500SOL    HW221321   1.977   0.970   2.355 -1.2471 -2.1113  0.6053
 4501SOL     OW21322   1.516   0.947   0.846  0.4992  0.0940  0.0855
 4501SOL    HW121323   1.537   0.906   0.757  0.1288  0.0293  0.0259
 4501SOL    HW221324   1.420   0.928   0.870 -0.1781  2.3286 -0.7165
 4502SOL     OW21325   0.817   6.993   1.451 -0.0323 -0.2684 -0.3494
 4502SOL    HW121326   0.872   7.044   1.386  0.7518  0.6784  1.0320
 4502SOL    HW221327   0.722   6.991   1.421  0.8291 -2.6150 -3.1944
 4503SOL     OW21328   2.396   7.962   3.652 -0.0540  0.1016  0.2960
 4503SOL    HW121329   2.326   7.975   3.582 -0.9163 -1.5233  0.8166
 4503SOL    HW221330   2.393   8.038   3.717  2.8258  3.2825 -3.0644
 4504SOL     OW21331   3.503   3.543   3.332 -0.3594 -0.1106  0.2705
 4504SOL    HW121332   3.455   3.531   3.245  0.8030 -1.0866 -0.2387
 4504SOL    HW221333   3.572   3.614   3.323 -1.2312  0.8335  0.8281
 4505SOL     OW21334   4.403   0.031   0.504 -0.3521 -0.0045  0.0903
 4505SOL    HW121335   4.305   0.035   0.526  0.0520 -0.5807  2.0093
 4505SOL    HW221336   4.420  -0.048   0.445 -0.7697 -0.9944  1.2697
 4506SOL     OW21337   0.477   4.427   1.954  0.0213 -0.3842  0.4909
 4506SOL    HW121338   0.450   4.518   1.987 -2.3942 -0.5513 -0.9080
 4506SOL    HW221339   0.509   4.434   1.860 -1.6797 -1.1953 -0.1616
 4507SOL     OW21340   4.824   8.968   3.101 -0.6854  0.3730 -0.4261
 4507SOL    HW121341   4.765   9.015   3.166  0.5419  0.7026  0.4719
 4507SOL    HW221342   4.917   8.964   3.138 -0.3531 -0.9828 -1.3927
 4508SOL     OW21343   0.834   9.088   2.100 -0.3054  0.8184  0.2337
 4508SOL    HW121344   0.924   9.048   2.118 -0.3918  0.9415  0.9513
 4508SOL    HW221345   0.828   9.179   2.142 -1.1614  0.3433  1.1767
 4510SOL     OW21346   0.007   9.048   0.088  0.8342 -0.2620  0.3446
 4510SOL    HW121347  -0.088   9.020   0.074  0.2622  1.5642  0.4684
 4510SOL    HW221348   0.025   9.133   0.039  2.9780 -1.5832 -1.2972
 4511SOL     OW21349   9.692   4.743   2.515 -0.1201 -0.0440 -0.7746
 4511SOL    HW121350   9.741   4.830   2.517 -0.5880  0.2044  0.1292
 4511SOL    HW221351   9.602   4.756   2.474 -0.3563 -0.0122 -0.2519
 4512SOL     OW21352   8.195   7.080   0.992 -0.5754  0.2390 -0.2599
 4512SOL    HW121353   8.237   7.143   1.057 -1.0755 -0.6223  0.9150
 4512SOL    HW221354   8.183   7.126   0.904 -0.4377  1.5978  0.4163
 4513SOL     OW21355   3.150   1.895   3.034  0.5603  0.2045  0.2476
 4513SOL    HW121356   3.061   1.870   2.996  0.0305  2.9599 -0.4368
 4513SOL    HW221357   3.222   1.843   2.987 -0.4963 -0.3270 -0.8227
 4514SOL     OW21358   0.527   8.957   1.076 -0.0115 -0.1288 -0.2078
 4514SOL    HW121359   0.569   8.953   1.167  0.5321 -1.2803 -0.4979
 4514SOL    HW221360   0.598   8.974   1.008  0.0319 -2.2255 -0.7155
 4516SOL     OW21361   8.067   8.671   2.287  0.0704 -0.2935 -0.1989
 4516SOL    HW121362   8.128   8.736   2.332  0.2807 -0.7833  0.2255
 4516SOL    HW221363   8.032   8.712   2.202 -0.7545  0.8250  0.6708
 4517SOL     OW21364   1.904   7.226   3.643 -0.0838 -0.0384  0.3351
 4517SOL    HW121365   1.867   7.206   3.734  0.5924  0.4214  0.7128
 4517SOL    HW221366   1.829   7.246   3.581 -0.6123 -1.1370  0.5922
 4518SOL     OW21367   8.356   4.552   3.263 -0.2474  0.4959 -0.1915
 4518SOL    HW121368   8.409   4.594   3.189  1.4909 -0.2780  0.5814
 4518SOL    HW221369   8.297   4.620   3.305  0.4771  1.4977 -0.7871
 4519SOL     OW21370   2.446   0.587   0.420 -0.4966 -0.4116 -0.2788
 4519SOL    HW121371   2.456   0.648   0.499  1.2839  0.7498 -1.3631
 4519SOL    HW221372   2.396   0.633   0.348 -1.4022 -1.1793 -0.1530
 4520SOL     OW21373   0.694   9.882   1.662  0.5050 -0.0371  0.1614
 4520SOL    HW121374   0.602   9.891   1.701  0.0726  0.7056 -1.0150
 4520SOL    HW221375   0.715   9.963   1.608  1.9852 -0.0586  0.6737
 4521SOL     OW21376   3.423   7.358   1.207  0.4573 -0.3433  0.0687
 4521SOL    HW121377   3.399   7.409   1.289  0.5046 -3.1010  1.8724
 4521SOL    HW221378   3.510   7.391   1.171  0.4328  0.8963  1.1268
 4522SOL     OW21379   2.906   5.775   3.446  0.1764 -0.5443 -0.0774
 4522SOL    HW121380   2.889   5.704   3.514 -0.1612 -0.9903 -0.6167
 4522SOL    HW221381   2.864   5.861   3.476 -1.5576 -1.1940 -0.5628
 4523SOL     OW21382   0.002   1.014   1.365  0.4798 -0.6659  0.6500
 4523SOL    HW121383   0.092   1.007   1.321  0.1358 -0.4154 -0.1062
 4523SOL    HW221384  -0.013   1.107   1.397  0.2883 -0.5826  0.3261
 4524SOL     OW21385   2.245   0.341   0.731 -0.7293  0.9679  0.1009
 4524SOL    HW121386   2.191   0.257   0.735  0.1373  0.4014  0.1396
 4524SOL    HW221387   2.247   0.384   0.821  2.5823 -1.4063  1.2754
 4525SOL     OW21388   5.536   0.288   1.784  0.0653 -0.1993  0.4946
 4525SOL    HW121389   5.484   0.321   1.862 -0.1269 -0.6052  0.5416
 4525SOL    HW221390   5.486   0.213   1.739  1.4619 -1.8758  1.6572
 4528SOL     OW21391   3.807   3.050   2.727 -0.5783 -0.0395  0.6972
 4528SOL    HW121392   3.777   2.996   2.648 -0.0999  0.2407  0.3159
 4528SOL    HW221393   3.735   3.114   2.753 -0.7851 -0.2155  0.5648
 4529SOL     OW21394   0.006   9.337   1.131  0.3322  0.0708  0.1520
 4529SOL    HW121395  -0.045   9.252   1.131  1.9586 -0.9524  2.3271
 4529SOL    HW221396   0.086   9.329   1.072  0.5809  0.0301  0.4932
 4530SOL     OW21397   5.624   8.333   1.526 -0.2005 -0.9177 -0.2037
 4530SOL    HW121398   5.722   8.334   1.548 -0.3751  1.5273  0.6361
 4530SOL    HW221399   5.585   8.245   1.550  1.6144 -1.5862  0.3561
 4531SOL     OW21400   0.283   8.731   0.673  0.3089 -0.2056 -0.3173
 4531SOL    HW121401   0.285   8.649   0.731 -0.0029  2.0062  2.9620
 4531SOL    HW221402   0.188   8.759   0.660  0.5590  1.8257  1.9034
 4533SOL     OW21403   4.306   3.607   1.218 -0.3962  0.2640  0.1219
 4533SOL    HW121404   4.212   3.601   1.252 -0.6552 -0.4541 -0.7051
 4533SOL    HW221405   4.369   3.604   1.296 -0.8943 -3.4678  0.4991
 4535SOL     OW21406   3.159   2.660   1.465  0.5080 -0.0435  0.1262
 4535SOL    HW121407   3.216   2.679   1.386  0.3422  0.3269  0.0956
 4535SOL    HW221408   3.183   2.721   1.540 -0.3646  0.6392 -0.1399
 4536SOL     OW21409   6.050   0.754   2.896  0.6672  0.3082  0.1754
 4536SOL    HW121410   6.061   0.664   2.853  1.3700  0.7488 -0.5648
 4536SOL    HW221411   5.990   0.745   2.976  1.5662 -1.0021  0.7227
 4537SOL     OW21412   3.840   0.941   0.524  0.1087  0.1837  0.4206
 4537SOL    HW121413   3.784   0.949   0.441 -1.2476  0.8516  1.3709
 4537SOL    HW221414   3.936   0.955   0.501  0.0497 -1.9919 -1.4294
 4538SOL     OW21415   9.040   9.166   1.229 -0.2310  0.2096  0.0173
 4538SOL    HW121416   9.079   9.257   1.217  1.0842 -0.4732 -1.0162
 4538SOL    HW221417   9.111   9.097   1.216 -1.2531 -0.9770  0.5869
 4542SOL     OW21418   1.484   7.250   2.420  0.2332 -0.4571 -0.1292
 4542SOL    HW121419   1.427   7.265   2.339  2.2075 -0.9997 -1.6906
 4542SOL    HW221420   1.475   7.155   2.449  0.1959 -0.4936 -0.2583
 4544SOL     OW21421   7.703   6.354   2.020 -0.4423  0.0285  0.7067
 4544SOL    HW121422   7.626   6.292   2.031  0.8115 -1.2623  2.5692
 4544SOL    HW221423   7.706   6.418   2.097  0.2277  0.1942  0.5496
 4545SOL     OW21424   8.338   3.232   0.743  0.1324  0.0310  0.1156
 4545SOL    HW121425   8.249   3.187   0.748  0.1122  0.1035  0.3975
 4545SOL    HW221426   8.407   3.166   0.713  0.2316 -0.3675  1.2092
 4547SOL     OW21427   9.095   5.035   2.498  0.3317  0.0924 -0.1277
 4547SOL    HW121428   9.066   5.117   2.547  1.1686 -0.1126  0.7275
 4547SOL    HW221429   9.059   4.954   2.544 -1.1199 -0.0025 -1.3986
 4549SOL     OW21430   9.413   2.411   0.892  0.2545  0.3930 -0.6940
 4549SOL    HW121431   9.341   2.360   0.846  0.6921 -0.4060 -0.5008
 4549SOL    HW221432   9.500   2.399   0.844  0.8659 -1.0556  0.7523
 4550SOL     OW21433   4.348   0.022   3.120 -0.3833 -0.2413  0.0725
 4550SOL    HW121434   4.355   0.001   3.217 -4.4888 -4.4120 -0.3433
 4550SOL    HW221435   4.404  -0.043   3.068 -1.1661 -0.4659 -0.5081
 4551SOL     OW21436   2.853   9.886   1.391  0.3069 -0.3095  0.5601
 4551SOL    HW121437   2.859   9.838   1.303 -1.2183  0.4816 -0.0067
 4551SOL    HW221438   2.943   9.917   1.419  0.7760 -0.4107 -0.8238
 4552SOL     OW21439   4.245   4.232   1.427  0.3524 -0.1106 -0.9471
 4552SOL    HW121440   4.208   4.321   1.454  1.0995 -0.1786  0.3594
 4552SOL    HW221441   4.272   4.235   1.331  2.4749  1.8162 -0.3352
 4553SOL     OW21442   8.368   0.508   3.604  0.5623 -0.8478  0.0318
 4553SOL    HW121443   8.438   0.504   3.533 -1.0232 -0.4258 -1.5930
 4553SOL    HW221444   8.339   0.415   3.627 -0.4856 -0.9227 -1.4907
 4556SOL     OW21445   2.459   7.760   2.309  0.4842  0.5240  0.2974
 4556SOL    HW121446   2.364   7.730   2.307  0.6631 -0.0507  0.3426
 4556SOL    HW221447   2.511   7.714   2.237  0.7915  0.6223  0.4520
 4557SOL     OW21448   7.758   9.566   3.542 -0.8061 -0.4828 -0.2650
 4557SOL    HW121449   7.729   9.615   3.460  1.9253 -1.4919 -1.9059
 4557SOL    HW221450   7.679   9.552   3.602 -2.6762  1.0993 -2.2603
 4558SOL     OW21451   2.390   9.727   0.900  0.1795 -0.7857 -0.3053
 4558SOL    HW121452   2.391   9.827   0.903  2.4930 -0.8440  2.2681
 4558SOL    HW221453   2.447   9.695   0.824  1.1640 -0.1541  0.1538
 4559SOL     OW21454   9.650   5.116   2.464  0.1490 -0.7316 -0.5253
 4559SOL    HW121455   9.595   5.181   2.412  1.3824  0.6186 -0.1457
 4559SOL    HW221456   9.634   5.129   2.562  0.6130 -0.8085 -0.4368
 4560SOL     OW21457   4.601   0.808   0.770 -0.2918 -0.3018 -0.4651
 4560SOL    HW121458   4.647   0.790   0.858  0.2521  1.2330 -0.4304
 4560SOL    HW221459   4.555   0.724   0.739 -0.0655 -0.9973  1.0336
 4562SOL     OW21460   8.572   2.690   0.791 -0.7468  0.0994  0.0842
 4562SOL    HW121461   8.504   2.736   0.849 -0.8006  3.7230 -2.7262
 4562SOL    HW221462   8.525   2.638   0.720 -0.6224 -0.3519  0.3316
 4563SOL     OW21463   4.295   0.654   0.681  0.1790 -0.3986 -0.2946
 4563SOL    HW121464   4.280   0.741   0.727 -0.8660 -0.6944 -0.0556
 4563SOL    HW221465   4.207   0.610   0.663  0.6650 -1.1336 -0.9422
 4564SOL     OW21466   1.278   4.461   2.669  0.1856  0.3528 -0.4800
 4564SOL    HW121467   1.181   4.448   2.693  0.6928 -0.5245  1.1892
 4564SOL    HW221468   1.311   4.547   2.708  0.1301  0.5384 -0.8484
 4565SOL     OW21469   3.554   3.152   2.796 -0.9150  0.3318 -0.8283
 4565SOL    HW121470   3.482   3.155   2.866 -0.0516  0.0242  0.0969
 4565SOL    HW221471   3.587   3.245   2.779 -1.4841  0.4677 -1.2155
 4566SOL     OW21472   7.943   6.349   2.379 -0.1627  0.0360  0.1158
 4566SOL    HW121473   8.011   6.361   2.307  0.1505  0.6761  0.5139
 4566SOL    HW221474   7.876   6.422   2.374 -0.3362 -0.1110  0.2626
 4567SOL     OW21475   3.598   7.722   0.261 -0.4912 -0.4760 -0.3423
 4567SOL    HW121476   3.692   7.694   0.280  0.0760  0.6215 -1.4719
 4567SOL    HW221477   3.593   7.822   0.256 -2.2958 -0.3455  2.6564
 4568SOL     OW21478   4.895   8.757   1.623  0.0865  0.0881 -0.3068
 4568SOL    HW121479   4.815   8.725   1.674  0.4243 -0.3176 -0.0259
 4568SOL    HW221480   4.898   8.857   1.627 -0.7183  0.1383 -0.7996
 4570SOL     OW21481   1.355   4.163   2.222 -0.3276 -0.0978 -0.0698
 4570SOL    HW121482   1.420   4.231   2.189 -1.3811  0.0615 -1.8771
 4570SOL    HW221483   1.329   4.103   2.147 -0.7009 -1.4547  1.1226
 4571SOL     OW21484   0.292   0.556   2.444  0.0997 -0.6971 -1.0715
 4571SOL    HW121485   0.299   0.578   2.542  0.9358 -0.4635 -1.1808
 4571SOL    HW221486   0.221   0.613   2.402 -0.5830 -1.1248 -0.5063
 4572SOL     OW21487   4.237   2.156   1.314 -0.1947 -0.0322  0.4885
 4572SOL    HW121488   4.312   2.091   1.316  0.2323  0.4874  1.3170
 4572SOL    HW221489   4.183   2.149   1.398  0.3739  1.2841  0.9829
 4573SOL     OW21490   8.052   2.917   1.510 -0.2406  0.3178  0.7273
 4573SOL    HW121491   8.116   2.897   1.584  0.0352 -1.5262  0.0109
 4573SOL    HW221492   7.962   2.881   1.533 -0.5789  1.2639  0.9103
 4575SOL     OW21493   9.428   9.234   1.113  0.2505 -0.2100 -0.2160
 4575SOL    HW121494   9.490   9.234   1.191  1.1152  0.4421 -0.8951
 4575SOL    HW221495   9.423   9.141   1.075  0.4530 -0.3613  0.1238
 4576SOL     OW21496   8.615   4.213   2.824  0.4142  0.0805  0.4320
 4576SOL    HW121497   8.678   4.260   2.761  0.6002  1.1751  1.4269
 4576SOL    HW221498   8.642   4.232   2.918  0.5459 -2.1160  0.8562
 4577SOL     OW21499   0.401   7.894   2.001 -0.6121  0.1862  0.0154
 4577SOL    HW121500   0.392   7.795   2.006  0.2886 -0.0318 -2.2128
 4577SOL    HW221501   0.469   7.925   2.066 -0.7572 -0.6757  0.5802
 4578SOL     OW21502   9.166   9.179   2.589 -0.1983  0.1173 -0.3183
 4578SOL    HW121503   9.202   9.273   2.594 -1.3043  0.5309  0.0445
 4578SOL    HW221504   9.151   9.144   2.681  2.8077 -1.4545 -0.3839
 4579SOL     OW21505   2.332   0.168   2.470  0.2469  0.2681 -0.4936
 4579SOL    HW121506   2.257   0.158   2.405 -0.6764  2.0876  0.2617
 4579SOL    HW221507   2.393   0.241   2.439 -0.0369  0.9402  0.5106
 4580SOL     OW21508   0.726   4.840   0.983 -0.3808 -0.3616  0.4956
 4580SOL    HW121509   0.823   4.833   1.006 -0.5196 -1.1975  0.8406
 4580SOL    HW221510   0.685   4.916   1.033  0.1153  0.0379  0.2942
 4581SOL     OW21511   3.107   9.938   1.663 -0.3808 -0.3684  0.2078
 4581SOL    HW121512   3.048   9.858   1.652  3.2475 -3.0616 -0.7863
 4581SOL    HW221513   3.159   9.953   1.579  0.9730  1.3413  1.3227
 4582SOL     OW21514   2.113   2.474   0.505  0.2605  0.1497  0.8301
 4582SOL    HW121515   2.119   2.398   0.441  0.7204  0.6415  0.2796
 4582SOL    HW221516   2.045   2.453   0.576 -0.9630  0.0015 -0.3666
 4583SOL     OW21517   0.877   0.967   2.612 -0.0001  0.0806  0.3950
 4583SOL    HW121518   0.930   1.038   2.566 -1.7489  2.2206  1.6044
 4583SOL    HW221519   0.933   0.884   2.621  2.2302  1.4313 -0.6224
 4584SOL     OW21520   3.971   9.076   2.775 -0.3766  0.2000 -0.1108
 4584SOL    HW121521   4.028   9.011   2.825  1.2340 -0.2096 -2.3923
 4584SOL    HW221522   3.971   9.052   2.677 -1.6033  2.3027 -0.6559
 4585SOL     OW21523   9.992   6.224   3.754  0.1494  0.5029 -0.0313
 4585SOL    HW121524  10.082   6.238   3.794  0.2838  3.5600 -1.3218
 4585SOL    HW221525  10.001   6.186   3.662  0.1013  0.2672  0.0610
 4587SOL     OW21526   4.447   3.121   3.122 -0.3156  0.1904 -0.4586
 4587SOL    HW121527   4.366   3.180   3.113  1.0710  2.3845  1.1502
 4587SOL    HW221528   4.493   3.116   3.033 -1.0003  0.7303 -0.8563
 4588SOL     OW21529   0.275   3.510   1.970 -0.1220 -0.2058  0.2922
 4588SOL    HW121530   0.290   3.544   2.063 -1.6478  1.4563 -0.0509
 4588SOL    HW221531   0.349   3.541   1.910 -1.1019  1.9353  0.1478
 4589SOL     OW21532   9.484   8.208   1.381  0.1726 -0.1589 -0.4409
 4589SOL    HW121533   9.540   8.153   1.320 -0.3311 -1.7976  0.5566
 4589SOL    HW221534   9.481   8.166   1.471 -0.2706  1.4745  0.3324
 4590SOL     OW21535   4.083   0.806   0.385  0.1740 -0.5145  0.2789
 4590SOL    HW121536   4.044   0.859   0.310 -2.0716 -3.4560 -0.7207
 4590SOL    HW221537   4.172   0.770   0.358  0.7430  0.9229  0.1847
 4591SOL     OW21538   5.064   9.794   3.269  0.3368  0.2267  0.0740
 4591SOL    HW121539   5.116   9.880   3.269  1.5224 -0.4746 -0.7187
 4591SOL    HW221540   5.119   9.722   3.228 -0.5578 -0.9872  0.9697
 4592SOL     OW21541   0.381   5.381   0.087  0.0797  0.1539  0.0344
 4592SOL    HW121542   0.373   5.298   0.031 -1.1180  1.3442 -1.6106
 4592SOL    HW221543   0.476   5.390   0.120  0.4807 -1.2783 -0.6867
 4594SOL     OW21544   9.573   3.069   0.511 -0.7897  0.3194  0.3648
 4594SOL    HW121545   9.625   3.071   0.426 -0.7555  0.3218  0.3853
 4594SOL    HW221546   9.515   3.150   0.516 -2.8213 -1.0184 -0.8961
 4595SOL     OW21547   9.270   9.065   3.440  0.4258 -0.4544 -0.2247
 4595SOL    HW121548   9.343   8.996   3.442  0.8874  0.0447  0.3221
 4595SOL    HW221549   9.294   9.136   3.374  0.9565  0.2763  0.7490
 4596SOL     OW21550   9.572   8.631   1.315  0.3855 -0.2184  0.5690
 4596SOL    HW121551   9.646   8.569   1.285  0.5924 -0.0227  0.6717
 4596SOL    HW221552   9.587   8.656   1.411 -0.6984 -1.4699  1.0887
 4597SOL     OW21553   9.391   7.291   1.340  0.5520  0.5320 -0.3082
 4597SOL    HW121554   9.471   7.233   1.357  0.4037  0.5126  0.3399
 4597SOL    HW221555   9.343   7.260   1.258  0.1502 -0.6248  0.3539
 4598SOL     OW21556   2.909   0.832   2.567 -0.1596  0.3552  0.9785
 4598SOL    HW121557   2.868   0.841   2.476  1.8573 -0.4321 -0.0336
 4598SOL    HW221558   2.997   0.785   2.559  0.3775  0.9405  3.2479
 4599SOL     OW21559   5.475   9.315   3.348  0.4021 -0.4562 -0.3496
 4599SOL    HW121560   5.529   9.371   3.285 -0.7759 -0.0816 -1.0409
 4599SOL    HW221561   5.395   9.366   3.378  1.2621 -0.4069  1.9531
 4600SOL     OW21562   0.963   8.612   2.768  0.2342  0.5617  0.4516
 4600SOL    HW121563   0.865   8.599   2.785  0.4625 -1.1073  0.5963
 4600SOL    HW221564   1.015   8.575   2.845  0.9955  0.9668  0.1337
 4602SOL     OW21565   0.301   6.250   1.424  0.1764 -0.3246 -0.2872
 4602SOL    HW121566   0.331   6.245   1.328 -0.4156 -0.0310 -0.4922
 4602SOL    HW221567   0.287   6.346   1.449 -0.9005 -0.4717 -0.2984
 4607SOL     OW21568   2.445   8.602   1.300  0.5900 -0.4788 -0.1214
 4607SOL    HW121569   2.449   8.513   1.346 -0.1274 -0.0583  0.7811
 4607SOL    HW221570   2.409   8.591   1.208 -2.6216 -0.7272  1.1139
 4608SOL     OW21571   2.818   8.560   2.943 -0.7559 -0.5357 -0.3304
 4608SOL    HW121572   2.760   8.616   2.884 -0.8667 -1.7832 -1.4416
 4608SOL    HW221573   2.817   8.466   2.910  1.2735 -0.7275  0.0969
 4609SOL     OW21574   3.091   0.922   1.049  0.3942  1.1043  0.1607
 4609SOL    HW121575   3.011   0.864   1.063  1.6014 -0.3470  1.2552
 4609SOL    HW221576   3.118   0.919   0.953 -0.1121  0.5957  0.0288
 4610SOL     OW21577   9.831   4.754   1.546 -0.7570 -0.2482  0.5092
 4610SOL    HW121578   9.739   4.791   1.547 -0.2011  1.1763 -0.0427
 4610SOL    HW221579   9.830   4.664   1.503 -1.2793  1.5076 -3.4040
 4611SOL     OW21580   8.386   0.862   3.317  0.3119 -0.3848  0.1553
 4611SOL    HW121581   8.482   0.886   3.332 -0.7490  2.9067  2.0094
 4611SOL    HW221582   8.356   0.797   3.387  0.6863  0.0236  0.6979
 4612SOL     OW21583   9.750   9.982   3.133  0.5031  0.3794 -0.1937
 4612SOL    HW121584   9.696   9.918   3.188 -0.2859  0.0956 -1.2884
 4612SOL    HW221585   9.694  10.062   3.110  0.4103 -0.0950 -1.6623
 4613SOL     OW21586   6.702   7.385   2.471  0.1627  0.7429 -0.0190
 4613SOL    HW121587   6.779   7.445   2.450 -0.1138  2.0225  2.3800
 4613SOL    HW221588   6.625   7.440   2.502 -1.0288 -0.6843 -0.4128
 4614SOL     OW21589   9.555   5.725   2.205 -0.6961 -0.3753  0.7281
 4614SOL    HW121590   9.583   5.698   2.297 -0.4038 -0.6592  0.5540
 4614SOL    HW221591   9.456   5.717   2.197 -0.5981 -1.5287  0.6316
 4615SOL     OW21592   7.960   6.721   1.722 -0.3366 -0.2747  0.2053
 4615SOL    HW121593   7.926   6.642   1.772  1.6001  0.2842  2.5208
 4615SOL    HW221594   8.054   6.703   1.691 -0.0324  0.9380  0.3787
 4616SOL     OW21595   3.862   9.957   0.084 -0.3227 -0.4085 -0.1921
 4616SOL    HW121596   3.788   9.951   0.017  0.3350 -0.2722 -0.9449
 4616SOL    HW221597   3.838   9.906   0.166 -0.7181 -1.4101 -0.9271
 4617SOL     OW21598   4.404   7.101   3.277  0.0633  0.0780  0.6520
 4617SOL    HW121599   4.416   7.016   3.329  2.9682 -0.0598 -0.1958
 4617SOL    HW221600   4.341   7.084   3.201  0.7304 -1.3678  0.3933
 4618SOL     OW21601   1.592   4.462   0.257 -0.1213 -0.6860 -0.0529
 4618SOL    HW121602   1.508   4.431   0.301 -0.3352  0.7164  0.5205
 4618SOL    HW221603   1.570   4.514   0.175  0.0921  1.4552  1.2052
 4621SOL     OW21604   2.967   2.138   2.816 -0.1931 -0.1405  0.3641
 4621SOL    HW121605   2.906   2.060   2.834 -0.5105 -0.0119 -0.1307
 4621SOL    HW221606   3.054   2.105   2.782 -0.2729 -0.2858  0.3011
 4622SOL     OW21607   2.083   5.432   0.971 -0.2047  1.3619  0.0893
 4622SOL    HW121608   2.092   5.366   0.896 -0.6867  0.7545  0.5590
 4622SOL    HW221609   1.991   5.469   0.972 -0.5860  0.4132  1.1573
 4623SOL     OW21610   8.098   5.978   2.887 -0.0112 -0.4339  0.4781
 4623SOL    HW121611   8.123   5.941   2.977 -1.8219 -0.6742  0.8951
 4623SOL    HW221612   8.001   5.963   2.870  0.1428  0.3117 -1.2012
 4624SOL     OW21613   1.180  10.000   1.843 -0.0940  0.0221 -0.4025
 4624SOL    HW121614   1.192   9.987   1.745 -0.5732 -3.0831 -0.0921
 4624SOL    HW221615   1.221   9.923   1.892 -0.9433  0.9204  1.7721
 4625SOL     OW21616   1.186   6.723   2.188  0.5240  0.4726  0.2546
 4625SOL    HW121617   1.224   6.786   2.256 -1.8153  2.4548 -0.2155
 4625SOL    HW221618   1.092   6.750   2.166 -0.8637 -3.6731  0.6329
 4626SOL     OW21619   2.035   2.972   2.457  0.0776  0.5594 -0.1082
 4626SOL    HW121620   2.097   2.897   2.432 -0.9826 -0.3837  0.0133
 4626SOL    HW221621   2.068   3.058   2.418  2.8029  0.5169  2.0346
 4627SOL     OW21622   8.262   5.029   0.979  0.0613 -0.5378  0.0953
 4627SOL    HW121623   8.355   5.065   0.994 -0.1505 -0.6027  1.6675
 4627SOL    HW221624   8.234   4.977   1.059 -1.0127 -1.2539 -0.7380
 4628SOL     OW21625   2.639   8.585   0.192 -0.5368  0.6356  0.0301
 4628SOL    HW121626   2.695   8.655   0.236 -0.6135  0.5834  0.2119
 4628SOL    HW221627   2.552   8.625   0.164 -0.6351  0.5786  0.2571
 4629SOL     OW21628   1.861   3.858   1.266  0.2874 -0.1318 -0.5414
 4629SOL    HW121629   1.890   3.940   1.316 -1.1663  1.2649 -1.9396
 4629SOL    HW221630   1.939   3.797   1.255  1.1301  0.5213  1.5139
 4631SOL     OW21631   4.214   9.828   1.895 -0.3042 -0.4043  0.0681
 4631SOL    HW121632   4.193   9.734   1.871 -0.1193 -0.3463 -0.3265
 4631SOL    HW221633   4.312   9.839   1.907 -0.3988 -0.4495  0.9225
 4632SOL     OW21634   4.087   7.021   3.688 -0.0000  0.1163 -0.1300
 4632SOL    HW121635   4.159   7.082   3.654  0.3234  0.1036  0.5263
 4632SOL    HW221636   4.065   7.045   3.782 -1.6688  0.8702 -0.6922
 4633SOL     OW21637   4.723   7.161   2.213  0.0418  0.3187 -0.5265
 4633SOL    HW121638   4.703   7.257   2.195  1.0868  0.8179  0.8906
 4633SOL    HW221639   4.651   7.121   2.269 -0.1947  0.3795 -0.7867
 4634SOL     OW21640   0.766   3.535   0.546  0.3394 -0.6724  0.0406
 4634SOL    HW121641   0.823   3.484   0.610 -0.1103 -2.1534 -0.6964
 4634SOL    HW221642   0.784   3.633   0.555  0.2277 -0.8428  2.4565
 4635SOL     OW21643   4.986   7.980   1.912 -0.1292 -0.1045  0.0820
 4635SOL    HW121644   5.018   7.945   1.824 -0.9000 -0.1288 -0.1896
 4635SOL    HW221645   5.011   8.077   1.921 -0.6900  0.0963 -0.4804
 4636SOL     OW21646   4.481   6.671   2.438 -0.7168 -0.0851 -0.7118
 4636SOL    HW121647   4.473   6.677   2.538 -1.4014  0.0396 -0.7755
 4636SOL    HW221648   4.563   6.720   2.409 -1.1875  0.9351 -0.3274
 4637SOL     OW21649   0.961   7.855   3.167 -0.1050  0.0972  0.0787
 4637SOL    HW121650   1.018   7.926   3.209  0.7012  0.2465 -1.2328
 4637SOL    HW221651   1.018   7.796   3.109 -1.1843 -0.1307 -0.7792
 4639SOL     OW21652   1.074   7.356   2.452  0.3901  0.2055  0.4604
 4639SOL    HW121653   1.170   7.334   2.471  0.3920 -0.6644 -0.5240
 4639SOL    HW221654   1.045   7.431   2.511  1.6316  0.3688  0.8771
 4640SOL     OW21655   1.854   2.527   2.051  0.2065 -0.4906  0.1867
 4640SOL    HW121656   1.950   2.515   2.076  0.2210 -0.2887  0.2305
 4640SOL    HW221657   1.809   2.438   2.046  0.7067 -0.6855 -1.0738
 4641SOL     OW21658   8.837   6.387   0.822  0.1962 -0.1709 -0.0294
 4641SOL    HW121659   8.826   6.352   0.915 -0.6753 -2.5335 -0.9782
 4641SOL    HW221660   8.814   6.315   0.757 -0.7517  1.9516 -2.0846
 4642SOL     OW21661   6.385   9.330   1.549  0.2343  0.6660  0.0183
 4642SOL    HW121662   6.473   9.313   1.592  1.0719  0.1850 -1.8459
 4642SOL    HW221663   6.335   9.243   1.540  0.3003  0.6707 -0.4460
 4643SOL     OW21664   2.525   7.321   3.522 -0.3265  0.6909 -0.1167
 4643SOL    HW121665   2.546   7.246   3.584  0.4242  1.9112  1.1226
 4643SOL    HW221666   2.581   7.312   3.439  1.2058  0.9381  0.8643
 4644SOL     OW21667   3.443   4.523   0.364  0.1425 -0.0908 -0.0349
 4644SOL    HW121668   3.410   4.453   0.427  1.2055 -1.0250 -0.5079
 4644SOL    HW221669   3.416   4.500   0.271  0.2329  0.2942 -0.1554
 4645SOL     OW21670   8.100   4.506   3.644  0.0511  0.0840  0.5369
 4645SOL    HW121671   8.139   4.507   3.552  0.9963  3.3712  0.9027
 4645SOL    HW221672   8.000   4.515   3.638  0.0259 -0.6178 -0.1687
 4647SOL     OW21673   1.322   8.869   2.613 -0.0890 -0.1272  0.3164
 4647SOL    HW121674   1.331   8.967   2.598  1.1589 -0.5080 -1.5109
 4647SOL    HW221675   1.383   8.819   2.551 -0.3844 -2.0451  1.5103
 4651SOL     OW21676   0.367   2.928   0.610 -0.2473  0.2675 -0.0542
 4651SOL    HW121677   0.439   2.913   0.543 -0.1743  0.8475 -0.1099
 4651SOL    HW221678   0.408   2.939   0.701 -0.3940 -1.2438  0.2062
 4653SOL     OW21679   3.799   7.389   3.649 -0.1963  0.2199 -0.0363
 4653SOL    HW121680   3.746   7.410   3.731 -0.2445  2.0625 -0.5262
 4653SOL    HW221681   3.893   7.422   3.661 -0.1374  0.2639 -0.6142
 4654SOL     OW21682   2.247   5.302   1.389 -0.4299 -0.1668 -0.1254
 4654SOL    HW121683   2.284   5.312   1.297 -0.8311  1.8691 -0.0904
 4654SOL    HW221684   2.160   5.350   1.395 -0.6204 -0.6551  1.2015
 4655SOL     OW21685   9.416   4.621   0.265  0.1237 -0.0414  0.1966
 4655SOL    HW121686   9.331   4.592   0.223  0.5572  0.3089 -0.9380
 4655SOL    HW221687   9.461   4.689   0.207  0.6968  0.4989  1.2506
 4656SOL     OW21688   3.399   3.643   1.143  0.2720  0.0543 -0.2928
 4656SOL    HW121689   3.419   3.640   1.045  2.8004  0.0189  0.1906
 4656SOL    HW221690   3.347   3.726   1.164  2.1751  1.5159 -1.2343
 4657SOL     OW21691   1.339   7.360   2.618  1.2546 -0.6996 -0.5001
 4657SOL    HW121692   1.418   7.338   2.561  1.2696 -1.3474 -0.2389
 4657SOL    HW221693   1.327   7.459   2.622  1.3364 -0.6474 -1.5145
 4658SOL     OW21694   6.185   9.039   2.855  0.2811  0.1079  0.5764
 4658SOL    HW121695   6.108   9.101   2.873  0.9716  1.2634 -0.3804
 4658SOL    HW221696   6.168   8.952   2.901 -1.7073  0.2697  0.2182
 4659SOL     OW21697   0.771   7.293   0.153 -0.3326  0.7292  0.1333
 4659SOL    HW121698   0.783   7.331   0.062 -0.2515 -0.2996 -0.2992
 4659SOL    HW221699   0.730   7.202   0.146  2.0369 -0.4448  0.9648
 4660SOL     OW21700   8.893   4.635   3.245 -0.2838 -0.9250  0.3010
 4660SOL    HW121701   8.946   4.706   3.198 -1.4621 -1.5686 -2.0648
 4660SOL    HW221702   8.954   4.562   3.275  0.4996 -0.4324 -0.0757
 4661SOL     OW21703   7.916   1.366   1.017  0.4484  0.1102 -0.5685
 4661SOL    HW121704   7.854   1.431   0.973  0.4434 -0.3764 -1.2928
 4661SOL    HW221705   7.876   1.334   1.103  0.2299  0.6855 -0.4579
 4662SOL     OW21706   3.744   8.371   3.410 -0.1603  0.3315 -0.3328
 4662SOL    HW121707   3.789   8.460   3.402 -0.5815  0.4867 -0.9835
 4662SOL    HW221708   3.753   8.321   3.324 -0.9441  0.2299 -0.3547
 4664SOL     OW21709   9.995   8.307   3.570  0.0589  0.2539 -0.5623
 4664SOL    HW121710   9.928   8.371   3.608 -0.1606 -0.5580  0.4429
 4664SOL    HW221711   9.978   8.216   3.606  1.5910  0.0050 -0.4371
 4665SOL     OW21712   0.630   2.169   1.775 -0.0041 -0.4117 -0.4105
 4665SOL    HW121713   0.597   2.121   1.694 -1.3070  0.9244 -0.6698
 4665SOL    HW221714   0.656   2.101   1.844  0.4451 -1.5416 -1.6605
 4666SOL     OW21715   0.840   2.955   1.274 -0.1709  0.5725 -0.1922
 4666SOL    HW121716   0.883   2.966   1.363 -0.9471 -0.4201  0.3110
 4666SOL    HW221717   0.787   3.037   1.252  2.9659  2.3817 -1.3977
 4667SOL     OW21718   1.004   5.071   0.747  0.1238  0.4234 -0.6440
 4667SOL    HW121719   1.032   5.074   0.651 -0.5926  1.1290 -0.8311
 4667SOL    HW221720   0.904   5.074   0.753  0.1411 -0.3083  0.0964
 4668SOL     OW21721   9.374   3.459   1.234  0.6566  0.0037  0.3724
 4668SOL    HW121722   9.391   3.489   1.140 -1.8349  0.8667  0.1387
 4668SOL    HW221723   9.436   3.507   1.297  0.2521  1.7488 -0.5430
 4670SOL     OW21724   3.140   1.410   0.907  0.4408  0.8682  0.3926
 4670SOL    HW121725   3.154   1.490   0.964 -1.3081  0.0389  2.0645
 4670SOL    HW221726   3.087   1.342   0.957 -1.2417  0.1280 -2.2598
 4671SOL     OW21727   9.697   2.144   2.508  0.3475 -0.1090 -0.3617
 4671SOL    HW121728   9.628   2.077   2.534  0.8394 -0.3366  0.3625
 4671SOL    HW221729   9.672   2.185   2.420 -1.6665  1.1156  0.7397
 4673SOL     OW21730   0.931   3.869   2.074 -0.1512 -0.4898 -0.3766
 4673SOL    HW121731   1.025   3.851   2.045 -0.1620 -0.5575 -0.3690
 4673SOL    HW221732   0.911   3.966   2.061  0.4147 -0.1760  1.0541
 4674SOL     OW21733   7.561   9.909   1.871 -0.1132 -0.5153  0.0522
 4674SOL    HW121734   7.559   9.921   1.772  0.5667  1.5690  0.2867
 4674SOL    HW221735   7.650   9.872   1.899  0.1920  0.1906  0.0222
 4675SOL     OW21736   7.452   8.363   3.452 -0.3485 -0.0577 -0.6626
 4675SOL    HW121737   7.551   8.367   3.460 -0.0765 -4.4960 -0.2967
 4675SOL    HW221738   7.410   8.389   3.539  0.5505  0.3938 -0.3591
 4676SOL     OW21739   1.864   6.313   0.121 -0.3698  0.5320  0.7446
 4676SOL    HW121740   1.872   6.312   0.220 -0.0530  0.0271  0.7177
 4676SOL    HW221741   1.897   6.401   0.085 -2.3644  1.5061  1.2260
 4677SOL     OW21742   3.331   4.670   1.491 -0.4943 -0.5066 -0.3495
 4677SOL    HW121743   3.390   4.740   1.452  0.0887  0.2036  1.7229
 4677SOL    HW221744   3.375   4.580   1.482  2.1459  0.2842  3.2892
 4678SOL     OW21745   9.905   4.625   2.413 -0.9976  0.0943 -0.3643
 4678SOL    HW121746   9.823   4.645   2.467 -0.0202 -0.9145  1.5440
 4678SOL    HW221747   9.975   4.693   2.433 -0.0279 -1.2631  1.0269
 4679SOL     OW21748   3.151   7.954   2.465 -0.3994  0.2227  0.4473
 4679SOL    HW121749   3.127   8.014   2.541 -0.9712 -0.0715  0.4983
 4679SOL    HW221750   3.219   7.887   2.494  0.1894  0.7949  0.4102
 4680SOL     OW21751   0.297   2.641   2.821  0.5448  0.2705 -0.1621
 4680SOL    HW121752   0.372   2.623   2.885  0.8948  0.7452 -0.4360
 4680SOL    HW221753   0.309   2.584   2.739  1.5927  1.6362 -0.9814
 4681SOL     OW21754   7.498   4.468   0.031 -0.3332  0.3806  0.1990
 4681SOL    HW121755   7.508   4.544   0.095 -1.1298  2.7355 -2.3967
 4681SOL    HW221756   7.588   4.431   0.010  0.2776  2.0366 -0.1723
 4684SOL     OW21757   1.483   4.880   3.309  0.1051 -0.4342  0.0222
 4684SOL    HW121758   1.509   4.976   3.315  0.6846 -0.4312 -2.1265
 4684SOL    HW221759   1.393   4.872   3.267  0.4495 -0.8821 -0.6301
 4686SOL     OW21760   5.027   8.232   1.880  0.7430  0.4407  0.2595
 4686SOL    HW121761   4.987   8.282   1.957  0.5156  0.0996  0.3606
 4686SOL    HW221762   5.115   8.274   1.856 -0.4115  2.2058 -1.0003
 4687SOL     OW21763   8.790   3.050   0.198 -0.4166  0.3118  0.4193
 4687SOL    HW121764   8.713   3.113   0.209  0.3972  0.8420  3.4353
 4687SOL    HW221765   8.758   2.966   0.154 -1.9776  1.8849 -1.5736
 4688SOL     OW21766   8.037   2.527   3.417  0.4739  0.0269  0.3671
 4688SOL    HW121767   7.961   2.568   3.366  0.2064  1.3084  1.7455
 4688SOL    HW221768   8.111   2.505   3.355 -0.2395  0.6358 -0.7201
 4689SOL     OW21769   4.292   9.344   0.944 -0.1210  0.6543  0.2212
 4689SOL    HW121770   4.369   9.407   0.933  0.5221 -0.0500  0.6198
 4689SOL    HW221771   4.209   9.397   0.966  0.4100  1.3582  0.5649
 4690SOL     OW21772   4.276   3.109   1.174 -0.0425  0.0400  0.2760
 4690SOL    HW121773   4.189   3.152   1.199  0.1596 -0.2049  1.4476
 4690SOL    HW221774   4.349   3.146   1.231  0.2304 -1.4219  0.8945
 4691SOL     OW21775   2.584   9.203   0.730  0.2579  0.1070  0.2514
 4691SOL    HW121776   2.632   9.137   0.672 -0.1782 -0.6939  0.7976
 4691SOL    HW221777   2.645   9.279   0.750  0.9470 -0.3922  0.0659
 4693SOL     OW21778   0.500   9.241   1.642 -0.2982 -0.2140 -0.3273
 4693SOL    HW121779   0.481   9.339   1.630 -1.3001 -0.3062  0.5525
 4693SOL    HW221780   0.508   9.220   1.739 -1.7418 -1.3250 -0.4378
 4694SOL     OW21781   0.774   1.641   1.744  0.3685  0.1621  0.2784
 4694SOL    HW121782   0.682   1.602   1.744 -0.4838  2.0913 -0.3622
 4694SOL    HW221783   0.792   1.682   1.654  1.6722  0.2095  0.5568
 4696SOL     OW21784   2.795   8.153   2.151 -0.7333  0.3984 -0.5634
 4696SOL    HW121785   2.740   8.084   2.105 -0.6287 -0.5711  0.7436
 4696SOL    HW221786   2.808   8.128   2.247  1.2163  1.0666 -0.6165
 4697SOL     OW21787   8.594   2.839   1.120 -0.4945  0.4036  0.0497
 4697SOL    HW121788   8.582   2.849   1.218 -0.5427  1.5254 -0.0709
 4697SOL    HW221789   8.506   2.854   1.073 -0.6049 -0.7147 -0.1340
 4698SOL     OW21790   0.222   9.643   0.707  0.5304  0.1420 -0.4161
 4698SOL    HW121791   0.290   9.688   0.766  1.5477 -1.2723 -0.4738
 4698SOL    HW221792   0.219   9.545   0.730 -0.5995 -0.0225 -1.2722
 4699SOL     OW21793   7.471   0.143   3.424 -0.0599  0.1741  0.6974
 4699SOL    HW121794   7.393   0.094   3.462 -1.2468  3.4808  2.7424
 4699SOL    HW221795   7.444   0.189   3.340  0.3348 -0.5438  0.1744
 4700SOL     OW21796   5.463   1.693   2.697 -0.0170 -0.6399  0.4680
 4700SOL    HW121797   5.519   1.619   2.662 -0.1617  0.0184 -1.2008
 4700SOL    HW221798   5.519   1.753   2.754  0.1742 -1.8270  1.5498
 4702SOL     OW21799   2.344   3.500   0.316 -0.5952 -0.4075 -0.4431
 4702SOL    HW121800   2.246   3.483   0.308 -0.4800 -1.2749 -0.0394
 4702SOL    HW221801   2.389   3.478   0.229 -0.6163 -1.0128 -0.3029
 4704SOL     OW21802   0.757   3.617   3.606 -0.9207 -0.3437 -0.0071
 4704SOL    HW121803   0.833   3.677   3.580  0.0360 -1.7889 -0.6210
 4704SOL    HW221804   0.741   3.551   3.532 -2.1595 -0.6488  0.5293
 4705SOL     OW21805   8.372   6.260   0.738  0.2032 -0.0470 -0.2940
 4705SOL    HW121806   8.401   6.229   0.829  1.0036 -2.0317 -1.2074
 4705SOL    HW221807   8.272   6.262   0.734  0.1510 -1.8540 -0.0056
 4706SOL     OW21808   0.731   4.589   3.451  0.5394  0.2840  0.1377
 4706SOL    HW121809   0.801   4.531   3.409  0.6442  0.1543  0.4842
 4706SOL    HW221810   0.743   4.588   3.551  1.0901  1.6003  0.0988
 4707SOL     OW21811   3.563   3.144   2.432 -0.2692  0.1084  0.0423
 4707SOL    HW121812   3.484   3.083   2.443 -0.2679  0.1029  0.0179
 4707SOL    HW221813   3.600   3.166   2.522 -1.0624  1.1066  0.1346
 4708SOL     OW21814   1.861   1.314   1.361  0.0166 -0.0842 -0.1256
 4708SOL    HW121815   1.952   1.345   1.388  0.0558 -2.1986  2.4284
 4708SOL    HW221816   1.840   1.346   1.269  2.6508  1.8517 -0.0967
 4709SOL     OW21817   2.576   5.817   3.251  0.0091  0.1258  0.2695
 4709SOL    HW121818   2.526   5.865   3.179  1.7677 -0.0022 -1.0568
 4709SOL    HW221819   2.593   5.723   3.222  0.5465  0.0089  0.9584
 4711SOL     OW21820   9.882   7.872   1.402  0.0116 -0.2801 -0.2445
 4711SOL    HW121821   9.862   7.780   1.367 -1.9202 -0.4639  1.2187
 4711SOL    HW221822   9.979   7.892   1.389  0.4987 -2.5811 -0.5098
 4712SOL     OW21823   9.731   7.383   1.448  0.2816  0.5030  0.2102
 4712SOL    HW121824   9.671   7.307   1.425 -2.0618  1.7973  1.7931
 4712SOL    HW221825   9.678   7.468   1.447  2.8423  2.1383 -1.5345
 4714SOL     OW21826   3.277   3.702   3.442  0.0277 -0.1944  0.1055
 4714SOL    HW121827   3.304   3.767   3.513  1.9335  0.0610 -0.8100
 4714SOL    HW221828   3.355   3.643   3.420 -0.8036 -0.8296 -1.1696
 4715SOL     OW21829   6.485   0.443   2.460  0.3073 -0.0205  0.0228
 4715SOL    HW121830   6.437   0.475   2.378  0.0452 -1.6707 -0.4962
 4715SOL    HW221831   6.511   0.521   2.517 -1.0423  1.0402 -0.7854
 4716SOL     OW21832   1.615   2.234   0.015  0.7191  0.2772 -0.0984
 4716SOL    HW121833   1.543   2.170  -0.009  0.9630  0.2163 -0.6565
 4716SOL    HW221834   1.579   2.302   0.080 -0.0748  0.7764 -1.0580
 4718SOL     OW21835   3.299   2.414   2.431  0.5446  0.2467  0.4288
 4718SOL    HW121836   3.235   2.340   2.454 -0.5039  0.8069 -0.6637
 4718SOL    HW221837   3.385   2.374   2.397  0.5609 -0.4904  1.3020
 4719SOL     OW21838   1.696   5.276   0.391  0.0868 -0.2348 -0.6734
 4719SOL    HW121839   1.640   5.256   0.310  0.8109  0.6964 -1.4120
 4719SOL    HW221840   1.781   5.223   0.386 -1.0709 -2.3071  0.8712
 4720SOL     OW21841   5.983   7.527   3.167 -0.2883 -0.1042 -0.0151
 4720SOL    HW121842   6.071   7.574   3.169  0.5157 -1.5518 -0.8777
 4720SOL    HW221843   5.947   7.522   3.260  0.8083 -0.0021  0.4280
 4721SOL     OW21844   0.076   0.263   2.627 -0.2042  0.0151 -0.2247
 4721SOL    HW121845   0.101   0.197   2.556 -1.5740 -0.3573 -0.3754
 4721SOL    HW221846   0.115   0.235   2.714 -0.9033 -1.0791 -0.2608
 4722SOL     OW21847   4.358   8.220   0.718  0.0913 -1.0463  0.2930
 4722SOL    HW121848   4.423   8.254   0.650 -1.1759  0.9847  0.0519
 4722SOL    HW221849   4.401   8.219   0.808 -0.1541  2.3347  0.5086
 4723SOL     OW21850   3.425   2.943   3.715  0.3746  0.0185 -0.4231
 4723SOL    HW121851   3.404   2.961   3.812 -0.1684  2.1778 -0.8983
 4723SOL    HW221852   3.471   2.856   3.707 -0.2226 -0.5498  1.7227
 4725SOL     OW21853   1.791   9.587   1.681  0.6176  0.1601 -0.5596
 4725SOL    HW121854   1.817   9.563   1.774  0.8254  2.2956 -0.0498
 4725SOL    HW221855   1.869   9.571   1.620  1.0520  0.4217 -0.0790
 4726SOL     OW21856   3.894   7.731   1.155 -0.5113  0.0804 -0.1413
 4726SOL    HW121857   3.880   7.654   1.093 -1.6284  1.3677 -1.5252
 4726SOL    HW221858   3.904   7.697   1.248  1.1544 -1.8809 -0.9911
 4727SOL     OW21859   8.078   6.429   1.204  0.2103  0.6334  0.0999
 4727SOL    HW121860   8.083   6.332   1.178  0.7890  0.5893  0.3623
 4727SOL    HW221861   8.080   6.437   1.304 -0.2802  0.8930  0.0883
 4728SOL     OW21862   1.197   1.406   1.365 -0.1971  0.1917  0.8074
 4728SOL    HW121863   1.240   1.323   1.402 -0.6831  0.4629  1.9889
 4728SOL    HW221864   1.192   1.476   1.436 -0.6196  0.9250  0.0677
 4730SOL     OW21865   9.530   1.191   0.408  0.5670 -0.0889  0.0391
 4730SOL    HW121866   9.624   1.193   0.440  0.8670 -1.4940 -0.7316
 4730SOL    HW221867   9.505   1.280   0.370  1.1043  0.7352  1.5885
 4731SOL     OW21868   2.175   6.383   2.064 -0.4363  0.1076  0.2905
 4731SOL    HW121869   2.228   6.463   2.093 -0.1424  0.0497 -0.0797
 4731SOL    HW221870   2.229   6.329   2.000 -0.3774 -0.7486  1.0431
 4732SOL     OW21871   7.650   9.693   3.326  0.2777  0.3076 -0.5839
 4732SOL    HW121872   7.625   9.785   3.294  2.3094  1.1181  0.1057
 4732SOL    HW221873   7.636   9.628   3.252  0.8704  1.5177 -1.7891
 4733SOL     OW21874   8.919   6.713   3.295 -0.1143 -0.4469  0.0346
 4733SOL    HW121875   8.897   6.739   3.201 -0.8342 -1.2306 -0.0226
 4733SOL    HW221876   9.017   6.723   3.310  0.2590 -1.8767 -1.3063
 4734SOL     OW21877   5.802   0.302   3.455  0.0074  0.3660  0.3875
 4734SOL    HW121878   5.799   0.215   3.503 -1.7670  0.1316 -0.1480
 4734SOL    HW221879   5.802   0.377   3.521 -3.0693  0.0602  0.7659
 4735SOL     OW21880   9.826   5.550   2.559 -0.1505 -0.2744 -0.4333
 4735SOL    HW121881   9.742   5.602   2.543 -0.9172 -1.6145 -0.9133
 4735SOL    HW221882   9.903   5.613   2.568 -1.2481  0.9964  0.3085
 4736SOL     OW21883   5.469   4.895   1.240  0.4076  0.1831 -0.3662
 4736SOL    HW121884   5.444   4.827   1.171 -0.8683 -0.1606  0.4215
 4736SOL    HW221885   5.559   4.873   1.277  0.1667 -0.8600 -0.3813
 4738SOL     OW21886   2.719   5.877   0.173  0.1455  0.4142  0.2588
 4738SOL    HW121887   2.756   5.966   0.198 -0.3348  1.0340 -1.2023
 4738SOL    HW221888   2.770   5.840   0.095  1.0817 -1.1140  1.5557
 4740SOL     OW21889   8.298   7.281   1.131 -0.5305 -0.0133  0.3027
 4740SOL    HW121890   8.391   7.247   1.143  0.0731  1.3771 -0.3518
 4740SOL    HW221891   8.258   7.301   1.220  0.9152  2.3148  0.4718
 4741SOL     OW21892   7.450   0.764   2.842  0.8594  0.4556  0.8447
 4741SOL    HW121893   7.526   0.700   2.856 -0.2353 -0.8272  0.9516
 4741SOL    HW221894   7.382   0.751   2.914 -1.4869 -1.3425 -1.6206
 4742SOL     OW21895   0.378   6.502   0.076  0.0867 -0.3589  0.8349
 4742SOL    HW121896   0.440   6.565   0.123 -0.5578  1.3243 -0.5263
 4742SOL    HW221897   0.407   6.408   0.093  2.6312  0.3780  0.7679
 4743SOL     OW21898   0.970   1.847   2.651  0.6017 -0.2396  0.1993
 4743SOL    HW121899   1.052   1.832   2.706  2.4823 -2.3225 -2.9883
 4743SOL    HW221900   0.916   1.763   2.648  0.7196 -0.2717 -1.3925
 4744SOL     OW21901   2.763   6.990   1.964  0.1248 -0.4334 -0.1095
 4744SOL    HW121902   2.837   7.014   2.026  1.0840 -1.5050 -0.8259
 4744SOL    HW221903   2.746   7.066   1.901 -0.9640  0.7291  1.5213
 4745SOL     OW21904   0.433   5.243   1.120 -0.0331 -0.3342 -0.6728
 4745SOL    HW121905   0.485   5.232   1.036 -0.4662 -1.1630 -0.8365
 4745SOL    HW221906   0.336   5.228   1.101 -0.2033  0.0739 -0.1452
 4746SOL     OW21907   9.353   5.069   2.499  0.7670  0.5757 -0.4028
 4746SOL    HW121908   9.372   5.139   2.430  0.0627  0.8353 -0.3302
 4746SOL    HW221909   9.256   5.045   2.497  1.0974 -0.8189 -0.8357
 4747SOL     OW21910   3.285   5.195   0.409  0.4082  0.0456  0.2880
 4747SOL    HW121911   3.215   5.249   0.361  1.4447 -1.4445 -2.9953
 4747SOL    HW221912   3.243   5.112   0.446 -0.0557  0.3461  0.4424
 4748SOL     OW21913   0.588   8.761   3.350 -0.1933 -0.2569 -0.5047
 4748SOL    HW121914   0.640   8.739   3.267  0.5418  2.5318 -0.8535
 4748SOL    HW221915   0.543   8.849   3.337 -2.1619 -1.0059  1.1341
 4749SOL     OW21916   9.333   5.441   0.263 -0.1744 -0.2907 -0.0322
 4749SOL    HW121917   9.418   5.488   0.284  0.4975 -1.3212 -0.4375
 4749SOL    HW221918   9.311   5.376   0.336 -0.7411  0.1273  0.1829
 4751SOL     OW21919   0.602   6.351   2.373 -0.6346 -0.0727  0.3000
 4751SOL    HW121920   0.513   6.397   2.373 -0.5012  0.2057 -0.9398
 4751SOL    HW221921   0.590   6.254   2.353 -0.6765 -0.0675  0.3006
 4752SOL     OW21922   2.862   7.435   1.850  0.0693 -0.3001  0.0655
 4752SOL    HW121923   2.779   7.383   1.831  1.1814 -2.0642 -0.2011
 4752SOL    HW221924   2.931   7.373   1.889  1.1828  1.1703  0.4742
 4753SOL     OW21925   7.243   9.381   3.591 -0.2362  0.7806  0.2801
 4753SOL    HW121926   7.215   9.410   3.683 -2.0918  0.1010 -0.0674
 4753SOL    HW221927   7.253   9.282   3.589 -1.0170  0.7212 -0.4865
 4755SOL     OW21928   7.212   8.935   3.371 -0.6552 -0.2945  0.1025
 4755SOL    HW121929   7.156   9.008   3.331  0.6716 -0.0845 -1.4593
 4755SOL    HW221930   7.161   8.888   3.443 -1.5238  2.2135  1.1752
 4756SOL     OW21931   8.773   1.406   0.838  0.0360 -0.1526  0.1002
 4756SOL    HW121932   8.701   1.393   0.907 -1.3629  2.1653 -0.8613
 4756SOL    HW221933   8.734   1.394   0.747  0.9003  0.9580 -0.4206
 4757SOL     OW21934   2.293   5.987   2.559  1.0013  0.4509  0.7576
 4757SOL    HW121935   2.257   5.941   2.478  2.2064  2.0133 -0.7214
 4757SOL    HW221936   2.217   6.020   2.615  0.1442  0.0010 -0.1115
 4759SOL     OW21937   0.147   2.050   2.108  0.2987 -0.1956  0.3036
 4759SOL    HW121938   0.231   2.058   2.054  0.1261 -1.4977 -0.1764
 4759SOL    HW221939   0.170   2.045   2.205  0.5675  3.0023  0.4595
 4760SOL     OW21940   8.152   4.732   0.048 -0.3187 -0.3468  0.2236
 4760SOL    HW121941   8.063   4.756   0.009 -0.1885  1.1751  0.8116
 4760SOL    HW221942   8.158   4.767   0.142  0.5820 -1.1649  0.4766
 4761SOL     OW21943   2.398   9.789   3.581 -0.8260 -0.5423  0.1488
 4761SOL    HW121944   2.396   9.754   3.675  1.7856  1.2855  0.9512
 4761SOL    HW221945   2.475   9.749   3.532 -1.2093 -0.2586 -0.6924
 4762SOL     OW21946   0.988   8.223   1.419 -1.2272 -0.0708 -0.2974
 4762SOL    HW121947   0.967   8.189   1.327 -1.3286 -0.6937 -0.0487
 4762SOL    HW221948   0.935   8.306   1.436 -2.2830 -0.7298 -0.2828
 4765SOL     OW21949   0.517   1.249   3.640  0.1478 -0.2835 -0.4458
 4765SOL    HW121950   0.488   1.242   3.544 -0.7056 -0.6051 -0.1655
 4765SOL    HW221951   0.458   1.193   3.697  1.0971 -0.6574  0.1880
 4766SOL     OW21952   1.584   0.758   2.029 -0.2665 -0.1207 -0.3792
 4766SOL    HW121953   1.603   0.664   2.059 -0.2629 -0.3261 -1.0081
 4766SOL    HW221954   1.533   0.755   1.943  1.7325  0.4390 -1.6342
 4767SOL     OW21955   8.208   3.118   3.609  0.3926  0.1021  0.0316
 4767SOL    HW121956   8.183   3.139   3.703  1.5838 -1.4595  0.7078
 4767SOL    HW221957   8.157   3.037   3.578  0.3887  0.3014 -0.4979
 4768SOL     OW21958   0.639   7.981   0.451 -0.0588  0.4407  0.3998
 4768SOL    HW121959   0.598   7.955   0.363  2.5594 -0.8805 -0.4988
 4768SOL    HW221960   0.583   7.948   0.526 -0.2468 -2.0458 -0.7854
 4769SOL     OW21961   4.112   2.862   0.326 -0.3399  0.0027 -0.4958
 4769SOL    HW121962   4.026   2.840   0.280 -0.8563  0.1196  0.4194
 4769SOL    HW221963   4.188   2.821   0.275 -1.0111 -0.9228 -0.7603
 4770SOL     OW21964   1.903   9.881   3.653  0.1310 -0.0711  0.2403
 4770SOL    HW121965   1.939   9.810   3.713 -2.9192 -3.2289 -1.4446
 4770SOL    HW221966   1.915   9.852   3.558  0.3738  2.5423 -0.5717
 4771SOL     OW21967   8.352   1.013   2.285 -0.0612 -0.0126  0.0964
 4771SOL    HW121968   8.357   1.062   2.372  0.9224  0.7095 -0.3546
 4771SOL    HW221969   8.259   1.017   2.250 -0.3139  0.2546  0.7977
 4772SOL     OW21970   5.654   6.324   2.497 -0.8536  0.0501  0.4235
 4772SOL    HW121971   5.671   6.400   2.434 -2.4877 -1.3649 -1.7876
 4772SOL    HW221972   5.570   6.342   2.549 -0.3179  0.5145  1.1469
 4773SOL     OW21973   4.957   7.813   3.396  0.1559  0.2725 -0.1879
 4773SOL    HW121974   4.919   7.720   3.401 -1.4834  0.8484 -1.6074
 4773SOL    HW221975   5.042   7.816   3.448 -0.7467 -1.5379  1.4788
 4774SOL     OW21976   9.516   7.749   0.697 -0.6298  0.2462  0.0137
 4774SOL    HW121977   9.532   7.704   0.609  1.2547 -0.9780  0.9500
 4774SOL    HW221978   9.537   7.846   0.688  0.1516  0.0166 -0.7468
 4775SOL     OW21979   1.832   0.934   0.922 -0.1439  0.1928  0.4359
 4775SOL    HW121980   1.788   1.008   0.871  0.8783  1.2067  1.0151
 4775SOL    HW221981   1.813   0.847   0.876 -0.3947  0.9281 -0.8922
 4776SOL     OW21982   7.904   6.508   1.878  0.0082 -0.0862  0.1107
 4776SOL    HW121983   7.989   6.493   1.929 -1.5682  0.2783  2.9407
 4776SOL    HW221984   7.836   6.441   1.908 -0.9108  0.0190 -1.6989
 4777SOL     OW21985   0.014   5.063   1.357 -0.0482  0.4140  0.2670
 4777SOL    HW121986  -0.080   5.094   1.371 -0.5282 -0.9907  0.2656
 4777SOL    HW221987   0.034   4.986   1.418  0.3398 -0.7728 -1.3096
 4778SOL     OW21988   7.105   8.388   1.661  0.4104  0.6937 -0.4591
 4778SOL    HW121989   7.176   8.458   1.660  1.4516 -0.3633 -1.2417
 4778SOL    HW221990   7.110   8.335   1.576 -0.4380 -0.2733  0.0923
 4779SOL     OW21991   0.060   0.150   0.785 -0.8991 -0.4711 -0.1591
 4779SOL    HW121992   0.085   0.094   0.863 -1.2886 -0.6757 -0.1820
 4779SOL    HW221993   0.131   0.144   0.715  0.0174  0.6309  0.6550
 4781SOL     OW21994   5.504   7.576   2.371 -0.4040 -0.1257  0.2282
 4781SOL    HW121995   5.511   7.486   2.327 -0.0998 -0.8066  1.6313
 4781SOL    HW221996   5.415   7.616   2.351 -0.9001 -1.1507  0.3501
 4782SOL     OW21997   4.010   6.786   3.066  0.4584  0.2839 -0.3971
 4782SOL    HW121998   4.072   6.805   2.989  1.4638  0.1783  0.3749
 4782SOL    HW221999   4.064   6.776   3.150 -0.6713  0.7724  0.3889
 4783SOL     OW22000   0.643   1.826   3.724 -0.6942  0.5798 -0.3347
 4783SOL    HW122001   0.552   1.823   3.684 -0.5591 -4.3153 -0.6323
 4783SOL    HW222002   0.637   1.840   3.822 -1.7945  0.2600 -0.3573
 4784SOL     OW22003   5.742   0.183   2.713 -0.1094  0.0852  0.4875
 4784SOL    HW122004   5.667   0.118   2.725 -0.1914 -0.1110 -0.9770
 4784SOL    HW222005   5.705   0.276   2.706  0.0509  0.3826  3.1808
 4785SOL     OW22006   1.677   0.798   0.163  0.1624 -0.3069 -0.3123
 4785SOL    HW122007   1.650   0.889   0.192  2.0079  0.9532 -2.4046
 4785SOL    HW222008   1.595   0.747   0.134 -0.8825  0.6422  0.8976
 4786SOL     OW22009   8.681   1.878   0.358  0.1961 -0.9513  0.8244
 4786SOL    HW122010   8.687   1.975   0.336 -1.0686 -0.9898  0.2764
 4786SOL    HW222011   8.757   1.853   0.418  1.2307  0.1016 -0.0089
 4788SOL     OW22012   9.986   4.484   1.369 -0.3250  0.3287  0.7781
 4788SOL    HW122013   9.951   4.435   1.449  0.0044 -0.2920  0.5440
 4788SOL    HW222014  10.085   4.471   1.363 -0.4601 -0.3368 -0.2010
 4789SOL     OW22015   2.323   6.310   2.850 -0.6017  0.1404 -0.0353
 4789SOL    HW122016   2.335   6.296   2.948  0.6130 -1.9805 -0.4670
 4789SOL    HW222017   2.396   6.368   2.815  0.3282 -1.0609 -0.1028
 4790SOL     OW22018   9.345   6.067   3.076  0.0129 -0.2028  0.5831
 4790SOL    HW122019   9.301   6.154   3.054 -0.4177 -0.9567 -1.5592
 4790SOL    HW222020   9.311   6.035   3.165 -0.2395  1.5162  1.1361
 4791SOL     OW22021   4.532   3.552   2.311 -0.2512 -0.3065 -0.5416
 4791SOL    HW122022   4.612   3.548   2.370 -0.8087 -1.7001  0.1576
 4791SOL    HW222023   4.469   3.623   2.343  0.4739  0.4570 -0.8056
 4792SOL     OW22024   9.032   3.257   3.062  0.4312 -0.1422 -0.3411
 4792SOL    HW122025   9.029   3.348   3.103 -0.6085 -0.1445 -0.4100
 4792SOL    HW222026   9.056   3.190   3.132  0.4019  0.0768 -0.1212
 4793SOL     OW22027   0.132   1.120   1.988  0.4237  0.2309 -0.2792
 4793SOL    HW122028   0.100   1.195   2.045  0.5255  0.7095 -0.8500
 4793SOL    HW222029   0.217   1.147   1.942 -1.4970  1.1653 -3.4155
 4794SOL     OW22030   3.856   2.538   2.101  0.4957 -0.1234 -0.0005
 4794SOL    HW122031   3.899   2.452   2.130 -0.8058  0.4692  3.9511
 4794SOL    HW222032   3.924   2.611   2.102  1.0302 -0.5919 -0.9630
 4796SOL     OW22033   8.379   5.089   1.942 -0.6624 -0.5194 -0.3282
 4796SOL    HW122034   8.357   5.182   1.912 -1.9913 -0.3633  1.0767
 4796SOL    HW222035   8.315   5.061   2.013  1.2099 -1.6081  0.9730
 4798SOL     OW22036   2.520   0.270   3.428 -0.0816  0.0422  0.5928
 4798SOL    HW122037   2.537   0.173   3.444 -1.1148  0.1550  2.5529
 4798SOL    HW222038   2.421   0.287   3.434  0.1680  1.3464  1.0563
 4799SOL     OW22039   8.984   7.766   3.047  0.4563  0.8866  0.6018
 4799SOL    HW122040   8.904   7.763   3.106 -0.4893  0.4830 -0.6685
 4799SOL    HW222041   8.960   7.812   2.961  1.0075 -1.0896 -0.6301
 4800SOL     OW22042   3.975   5.115   1.377  0.3600  0.2192  0.0790
 4800SOL    HW122043   4.027   5.035   1.407 -2.2035 -1.5952 -0.1046
 4800SOL    HW222044   4.034   5.195   1.377  2.5422 -1.3084  2.0394
 4801SOL     OW22045   0.656   8.379   1.974 -0.3599 -0.0900 -0.7796
 4801SOL    HW122046   0.735   8.318   1.964 -0.4199 -0.1578 -0.8421
 4801SOL    HW222047   0.573   8.324   1.977 -0.3324 -0.0792  0.3437
 4804SOL     OW22048   5.771   9.062   2.081 -0.4567 -0.0144  0.5003
 4804SOL    HW122049   5.697   9.060   2.148 -0.0234 -0.2777  0.9686
 4804SOL    HW222050   5.754   8.993   2.010 -1.1479  0.5739  0.0859
 4805SOL     OW22051   1.579   2.760   0.820 -0.0627 -0.2586 -0.4474
 4805SOL    HW122052   1.560   2.798   0.911  1.4105  1.1700 -0.7144
 4805SOL    HW222053   1.605   2.664   0.829  0.7720  0.0580  0.7319
 4806SOL     OW22054   9.193   8.697   3.337 -0.7664  0.1059 -0.1430
 4806SOL    HW122055   9.135   8.690   3.256 -0.5261 -1.8213 -0.1793
 4806SOL    HW222056   9.157   8.768   3.398 -2.1558  0.1335 -0.9649
 4807SOL     OW22057   1.527   5.242   2.348  0.1265  0.7771  0.9118
 4807SOL    HW122058   1.431   5.220   2.367 -0.4630  1.7411 -0.8472
 4807SOL    HW222059   1.585   5.167   2.379 -1.4709 -1.2463 -0.8325
 4808SOL     OW22060   6.353   8.898   3.312 -0.4377  0.5067 -0.3516
 4808SOL    HW122061   6.314   8.850   3.390 -1.1601  1.2145 -0.2727
 4808SOL    HW222062   6.374   8.832   3.239 -1.1813  0.0451 -0.1493
 4810SOL     OW22063   1.149   3.993   0.971  0.6346  0.3674 -0.4218
 4810SOL    HW122064   1.238   3.947   0.979  0.5634  0.1721 -0.7659
 4810SOL    HW222065   1.148   4.073   1.032 -0.1774 -1.5622  2.2188
 4812SOL     OW22066   4.085   8.400   0.986  0.5964  0.2177 -0.2153
 4812SOL    HW122067   4.056   8.496   0.985  0.9012  0.3039 -0.9628
 4812SOL    HW222068   4.171   8.391   1.035  0.4842  0.3020 -0.0041
 4813SOL     OW22069   8.783   0.517   1.245  0.0270 -0.1504  0.1544
 4813SOL    HW122070   8.838   0.578   1.188 -0.6964  1.3428  1.0475
 4813SOL    HW222071   8.843   0.454   1.295  0.9266  1.3881  1.0321
 4814SOL     OW22072   8.922   3.074   1.540 -0.0390  0.5401 -0.5126
 4814SOL    HW122073   8.951   3.024   1.622 -2.1800  1.2829  0.7315
 4814SOL    HW222074   8.957   3.167   1.544 -1.0101  0.8901  0.0965
 4817SOL     OW22075   3.894   0.975   1.131  0.1866  0.1571  0.7768
 4817SOL    HW122076   3.981   1.015   1.159 -0.3758  1.1022  1.1564
 4817SOL    HW222077   3.821   1.041   1.143 -0.5518 -0.5490  0.2011
 4818SOL     OW22078   3.716   8.952   3.445  0.6505  0.0596  0.1158
 4818SOL    HW122079   3.661   9.002   3.512  2.5331  0.2561  1.5592
 4818SOL    HW222080   3.746   8.865   3.484  0.4567 -0.5438 -1.0496
 4819SOL     OW22081   3.343   0.827   1.144  0.2869  0.2586 -0.0056
 4819SOL    HW122082   3.321   0.731   1.128 -0.8927  0.3936  0.6737
 4819SOL    HW222083   3.259   0.881   1.134  0.4832  0.9254  1.8188
 4820SOL     OW22084   4.329   1.452   0.367  0.1189 -0.4802  0.1101
 4820SOL    HW122085   4.394   1.376   0.358  1.1915  0.5962 -1.4665
 4820SOL    HW222086   4.243   1.427   0.324  0.2027 -1.1087  0.2992
 4821SOL     OW22087   1.630   4.787   2.959  0.3421  0.0439  0.3234
 4821SOL    HW122088   1.669   4.708   2.912 -0.6909 -0.6392  0.5804
 4821SOL    HW222089   1.559   4.755   3.023 -3.0524  1.5067 -2.5835
 4822SOL     OW22090   4.397   9.021   0.171 -0.1259 -0.3595 -0.1531
 4822SOL    HW122091   4.392   9.121   0.181 -1.0653 -0.2664 -1.4735
 4822SOL    HW222092   4.473   8.998   0.111 -1.5782 -0.2728 -2.0577
 4823SOL     OW22093   3.668   8.988   1.719  0.1811  0.1821 -0.1026
 4823SOL    HW122094   3.586   9.004   1.773  0.3131 -1.9592  0.7670
 4823SOL    HW222095   3.714   8.905   1.750  0.3302 -1.0742 -3.3840
 4827SOL     OW22096   4.466   2.173   1.054  0.4143 -0.0441  0.3121
 4827SOL    HW122097   4.501   2.197   1.145  0.1458  3.0261 -0.3592
 4827SOL    HW222098   4.375   2.211   1.042 -0.1144 -1.6258 -0.7482
 4829SOL     OW22099   6.278   9.555   2.715  0.3990 -0.0465 -0.0541
 4829SOL    HW122100   6.237   9.646   2.723 -0.1201 -0.2380 -0.5145
 4829SOL    HW222101   6.318   9.544   2.625 -0.3429 -0.6036 -0.3224
 4832SOL     OW22102   9.812   4.306   2.316 -0.4693 -0.7783  0.1490
 4832SOL    HW122103   9.815   4.404   2.297 -0.0118 -1.2526 -2.4482
 4832SOL    HW222104   9.770   4.291   2.405  0.8239  1.8458  1.2668
 4833SOL     OW22105   8.047   4.955   3.378 -0.3453 -0.1625  0.1496
 4833SOL    HW122106   8.006   4.920   3.462 -1.1364  0.6691  0.1234
 4833SOL    HW222107   8.021   5.051   3.366 -0.4057 -0.3369 -1.1565
 4834SOL     OW22108   0.356   3.439   2.687 -0.2696  0.0390  0.0862
 4834SOL    HW122109   0.367   3.528   2.731 -0.6530  0.3625 -0.4618
 4834SOL    HW222110   0.328   3.452   2.592 -1.6722 -0.6922  0.3890
 4835SOL     OW22111   3.706   1.910   1.207 -0.0734  0.0580 -0.2810
 4835SOL    HW122112   3.788   1.964   1.190  0.2295  0.0160  0.9592
 4835SOL    HW222113   3.731   1.815   1.221 -0.6938 -0.5886 -3.3036
 4836SOL     OW22114   4.517   7.600   1.744 -1.0263  0.0025  0.4436
 4836SOL    HW122115   4.460   7.545   1.806 -1.9181 -0.3604 -0.6798
 4836SOL    HW222116   4.607   7.556   1.735 -1.2869 -0.5682  0.5637
 4837SOL     OW22117   9.214   4.012   2.211  0.4257 -0.0779 -0.0840
 4837SOL    HW122118   9.131   3.973   2.250  0.9312  0.1483  1.2615
 4837SOL    HW222119   9.201   4.110   2.194 -0.1242 -0.3813 -1.4116
 4838SOL     OW22120   6.295   8.365   1.465  0.0753  0.4116 -0.1974
 4838SOL    HW122121   6.315   8.333   1.558 -0.1500  0.8188 -0.0066
 4838SOL    HW222122   6.373   8.417   1.430  0.5676 -0.6117 -0.6278
 4839SOL     OW22123   0.988   5.443   0.344 -0.2773 -0.2047 -0.7622
 4839SOL    HW122124   1.073   5.403   0.379  0.4472  1.5134 -0.5152
 4839SOL    HW222125   0.987   5.437   0.244  0.2481  0.0166 -0.7783
 4840SOL     OW22126   3.113   6.595   2.459  0.1153 -0.0791  0.1250
 4840SOL    HW122127   3.153   6.536   2.529 -0.7691 -1.8147 -0.8027
 4840SOL    HW222128   3.185   6.640   2.407  0.7885  1.3979  2.2646
 4841SOL     OW22129   3.443   7.513   1.890  0.1646  1.4378 -0.4112
 4841SOL    HW122130   3.350   7.519   1.852  0.0674 -0.2750 -0.4872
 4841SOL    HW222131   3.437   7.498   1.988  0.3531  1.1061 -0.4502
 4842SOL     OW22132   7.935   7.520   3.229  0.0691 -0.2292 -0.1552
 4842SOL    HW122133   7.870   7.539   3.302  0.8302 -0.8049  0.6737
 4842SOL    HW222134   7.989   7.439   3.252  2.2274  1.2115 -0.0605
 4844SOL     OW22135   1.850   7.245   1.615 -0.0462 -0.2338  0.0952
 4844SOL    HW122136   1.755   7.264   1.590 -0.1558 -0.3487  0.4272
 4844SOL    HW222137   1.871   7.150   1.593  0.2420  0.0196 -0.7519
 4845SOL     OW22138   1.090   3.473   2.584  0.0106  0.3123  0.0699
 4845SOL    HW122139   1.036   3.457   2.667 -0.3419 -4.8869 -0.9503
 4845SOL    HW222140   1.185   3.449   2.601 -0.1466 -1.2337 -1.0753
 4847SOL     OW22141   0.451   9.807   0.257  0.8401 -0.0919 -0.0699
 4847SOL    HW122142   0.512   9.728   0.247  0.2749 -0.8737  2.2035
 4847SOL    HW222143   0.460   9.844   0.350 -0.3580  1.2935 -0.4855
 4848SOL     OW22144   6.801   0.498   2.292 -0.5582  0.0090 -0.0429
 4848SOL    HW122145   6.756   0.425   2.343  0.2947  0.7212  1.7429
 4848SOL    HW222146   6.888   0.521   2.336 -0.7314  1.9837 -0.7071
 4849SOL     OW22147   9.761   6.352   3.429 -0.7315 -0.3382  0.1119
 4849SOL    HW122148   9.844   6.406   3.439 -0.3022 -0.9204 -0.2744
 4849SOL    HW222149   9.720   6.334   3.519 -1.3443  1.3536  0.1771
 4850SOL     OW22150   4.019   1.807   2.354 -0.0623 -0.2526  0.2077
 4850SOL    HW122151   4.016   1.736   2.424  2.0487 -0.5743  0.0242
 4850SOL    HW222152   4.111   1.847   2.352 -0.0375 -0.3300 -2.4278
 4851SOL     OW22153   7.716   9.205   1.573 -0.0593 -0.2507  0.3362
 4851SOL    HW122154   7.747   9.296   1.545 -0.5100 -0.5594 -1.2158
 4851SOL    HW222155   7.769   9.136   1.524  0.2158 -0.8309  1.4356
 4852SOL     OW22156   9.592   3.520   0.713  0.1684  0.1912 -0.2406
 4852SOL    HW122157   9.587   3.616   0.739 -1.6312 -0.3126  1.3703
 4852SOL    HW222158   9.682   3.484   0.737 -0.1892  0.7084  1.9379
 4853SOL     OW22159   7.537   3.926   0.242 -0.1257  0.7367 -0.6478
 4853SOL    HW122160   7.470   3.918   0.168 -1.2673  2.1601  0.2171
 4853SOL    HW222161   7.619   3.971   0.207  0.7601 -1.7385 -1.9216
 4855SOL     OW22162   0.461   0.029   0.809  0.2027  0.1450  0.2045
 4855SOL    HW122163   0.373  -0.013   0.832 -0.7319  1.5746 -0.6769
 4855SOL    HW222164   0.506   0.059   0.893  0.5247 -1.8747  0.7791
 4856SOL     OW22165   9.858   6.703   2.719  0.5090  0.0781  0.5349
 4856SOL    HW122166   9.793   6.668   2.787 -0.5488 -0.2339 -0.5955
 4856SOL    HW222167   9.933   6.638   2.709 -0.9881 -1.4963 -0.9025
 4857SOL     OW22168   0.964   3.804   3.531  0.4431 -0.3132 -0.0579
 4857SOL    HW122169   1.057   3.778   3.504  1.1228  3.2231 -1.4410
 4857SOL    HW222170   0.967   3.890   3.582 -1.9445 -1.1233  1.5400
 4858SOL     OW22171   2.467   2.420   1.517  0.1925  0.5188 -0.3238
 4858SOL    HW122172   2.544   2.484   1.524  0.5560  0.4094 -2.8800
 4858SOL    HW222173   2.397   2.459   1.457 -1.9349  0.7376  2.1805
 4860SOL     OW22174   9.903   1.971   2.586 -0.0968  0.2643  0.1087
 4860SOL    HW122175   9.815   2.009   2.555  0.0264  0.8616  0.4739
 4860SOL    HW222176   9.964   2.046   2.612 -0.3704 -0.2348  2.2820
 4862SOL     OW22177   4.338   0.375   2.013 -0.2076 -0.2985  0.2130
 4862SOL    HW122178   4.283   0.442   2.064 -0.9438 -1.4748  0.9899
 4862SOL    HW222179   4.279   0.327   1.948  0.5212  0.4800 -1.0596
 4863SOL     OW22180   8.795   1.346   3.501 -0.1589  0.1566 -0.5513
 4863SOL    HW122181   8.696   1.336   3.493  0.1073 -1.5312 -2.2481
 4863SOL    HW222182   8.822   1.437   3.468 -1.1545  0.7368  0.2007
 4864SOL     OW22183   0.422   4.370   2.277  0.1150  0.4977  0.2786
 4864SOL    HW122184   0.372   4.367   2.191 -0.7165  1.0942  0.7317
 4864SOL    HW222185   0.417   4.281   2.322  0.3557  0.2527 -0.1768
 4865SOL     OW22186   2.661   7.922   2.026 -0.2237 -0.0550  0.2750
 4865SOL    HW122187   2.747   7.875   2.009  0.3632  0.0559  2.7559
 4865SOL    HW222188   2.597   7.859   2.070 -1.0369  0.1744 -0.5694
 4866SOL     OW22189   2.914   0.852   1.759 -0.8804  0.0037 -0.3184
 4866SOL    HW122190   2.997   0.874   1.707  0.8189 -1.8573  1.5410
 4866SOL    HW222191   2.883   0.934   1.807 -0.6537  0.9319 -1.7054
 4867SOL     OW22192   8.972   8.792   0.389 -0.3277 -0.3586 -0.8685
 4867SOL    HW122193   8.900   8.785   0.459  1.1206  0.4453  0.7554
 4867SOL    HW222194   9.050   8.843   0.427  0.6859 -0.3270 -2.9333
 4868SOL     OW22195   1.627   7.691   1.846  0.0067 -0.9038  0.4568
 4868SOL    HW122196   1.680   7.772   1.822 -0.8510  0.0112  1.6376
 4868SOL    HW222197   1.601   7.643   1.762  0.5777 -0.0094 -0.2440
 4870SOL     OW22198   6.405   9.975   1.821  0.0117 -0.6598 -0.4401
 4870SOL    HW122199   6.450   9.945   1.905 -1.7860 -1.3925  0.3077
 4870SOL    HW222200   6.424   9.910   1.747  0.4913 -0.7518 -0.2320
 4872SOL     OW22201   2.496   3.414   2.518  0.0565  0.6706 -0.6819
 4872SOL    HW122202   2.399   3.433   2.531 -0.7994 -3.1241 -0.7460
 4872SOL    HW222203   2.509   3.362   2.434  2.1159  0.9208 -0.5466
 4873SOL     OW22204   2.493   7.640   2.717  0.1251  0.2670 -0.1514
 4873SOL    HW122205   2.403   7.681   2.700  0.6391  1.4724 -0.0668
 4873SOL    HW222206   2.556   7.668   2.645 -0.3194 -3.0309 -1.8707
 4874SOL     OW22207   2.271   8.946   0.039  0.6362  0.2309 -0.0343
 4874SOL    HW122208   2.293   8.966   0.134 -0.1098  2.3617 -0.2866
 4874SOL    HW222209   2.351   8.963  -0.019  0.3442  1.3970 -0.1003
 4875SOL     OW22210   2.572   2.231   1.074  0.3241 -0.0495 -0.0526
 4875SOL    HW122211   2.530   2.320   1.092  2.3201  0.9633 -0.3071
 4875SOL    HW222212   2.581   2.218   0.976 -0.1665 -0.6383 -0.0216
 4876SOL     OW22213   0.805   6.159   2.041 -0.1123  0.4408  0.0667
 4876SOL    HW122214   0.807   6.227   2.114 -0.0143  0.6177 -0.1008
 4876SOL    HW222215   0.734   6.183   1.975 -0.2128  0.2707  0.1117
 4877SOL     OW22216   4.937   1.959   2.096  0.1039  0.1927 -0.0024
 4877SOL    HW122217   4.868   1.906   2.049 -0.3149  0.4480  0.3201
 4877SOL    HW222218   5.027   1.918   2.080 -0.2314 -0.7194  0.3875
 4878SOL     OW22219   0.353   4.718   0.903 -0.3197  0.4122 -0.2354
 4878SOL    HW122220   0.279   4.702   0.969 -0.3096 -2.0637 -0.7541
 4878SOL    HW222221   0.439   4.687   0.942 -0.3388 -1.2063 -1.4436
 4879SOL     OW22222   8.423   2.946   0.460 -0.0298 -0.1475  0.2085
 4879SOL    HW122223   8.371   2.895   0.391  0.2289  2.0344 -1.6956
 4879SOL    HW222224   8.514   2.906   0.470  0.7384  0.8122 -2.4136
 4880SOL     OW22225   3.676   7.211   1.468 -0.0053 -0.5974  0.3145
 4880SOL    HW122226   3.693   7.197   1.370 -1.9879 -1.7311  0.0857
 4880SOL    HW222227   3.584   7.178   1.490 -0.6281  2.1275  2.0362
 4881SOL     OW22228   4.030   8.575   0.460  0.1109  0.1683  0.3259
 4881SOL    HW122229   3.954   8.510   0.461  1.9268 -2.0433  0.2118
 4881SOL    HW222230   4.046   8.609   0.552 -1.5419  1.3065  0.2054
 4882SOL     OW22231   0.843   9.331   1.811  0.1227 -0.4550  0.4965
 4882SOL    HW122232   0.807   9.410   1.860 -1.4430 -1.5037  1.0916
 4882SOL    HW222233   0.789   9.250   1.835  1.5380 -1.6534 -0.2907
 4883SOL     OW22234   5.593   9.057   2.635 -0.3490 -0.2657  0.2083
 4883SOL    HW122235   5.549   8.968   2.624 -1.3242  0.3349 -0.8189
 4883SOL    HW222236   5.692   9.046   2.631 -0.3731 -1.6160  2.4370
 4884SOL     OW22237   4.681   2.887   2.637 -0.3933  0.5555  0.1427
 4884SOL    HW122238   4.652   2.890   2.542 -0.6489 -0.8411  0.1757
 4884SOL    HW222239   4.751   2.816   2.649  0.2516  1.2902  0.8269
 4886SOL     OW22240   2.817   3.520   1.527 -0.3068 -0.0878  0.1158
 4886SOL    HW122241   2.905   3.563   1.508 -0.0799 -0.2303  0.8044
 4886SOL    HW222242   2.764   3.512   1.443 -0.3732  1.5895 -0.0202
 4887SOL     OW22243   1.766   9.497   1.954 -0.1158  0.3566 -0.3192
 4887SOL    HW122244   1.759   9.441   2.036  0.5794  1.5213  0.5456
 4887SOL    HW222245   1.674   9.525   1.925 -0.9240 -4.4046 -3.0589
 4888SOL     OW22246   0.992   1.573   2.282 -0.2908 -0.2171 -0.1060
 4888SOL    HW122247   1.022   1.586   2.187 -0.2211 -0.1714 -0.0775
 4888SOL    HW222248   1.071   1.571   2.342 -0.3499 -0.0420 -0.0241
 4889SOL     OW22249   0.576   9.539   1.524  0.2401 -0.4242  0.6668
 4889SOL    HW122250   0.607   9.467   1.462  0.6788  0.4773 -0.1631
 4889SOL    HW222251   0.545   9.618   1.471  0.1143  0.1487  1.5843
 4890SOL     OW22252   3.074   5.099   3.707 -0.3350 -0.0066  0.0263
 4890SOL    HW122253   3.056   5.020   3.765 -1.1751  0.0793 -0.1067
 4890SOL    HW222254   3.172   5.118   3.705  0.2033 -2.6499 -2.0198
 4891SOL     OW22255   1.722   8.238   0.754  0.2572 -0.1624  0.0776
 4891SOL    HW122256   1.716   8.276   0.846  0.2385  1.3915 -0.5409
 4891SOL    HW222257   1.630   8.222   0.718  0.2570 -0.3055  0.1418
 4892SOL     OW22258   8.643   8.165   3.453  0.2169 -0.2576 -0.6546
 4892SOL    HW122259   8.551   8.150   3.490 -0.4710  0.5430 -2.0111
 4892SOL    HW222260   8.676   8.080   3.412 -1.1266  0.1721 -2.7406
 4893SOL     OW22261   3.912   7.769   2.956 -0.0645  0.0001  0.8851
 4893SOL    HW122262   3.914   7.865   2.927 -1.2561 -0.4881 -0.9054
 4893SOL    HW222263   3.989   7.720   2.915 -0.0650 -0.0304  0.9208
 4894SOL     OW22264   1.629   6.077   2.662 -0.6847  0.4340  0.6896
 4894SOL    HW122265   1.670   6.151   2.609  1.2842 -0.4128  0.9773
 4894SOL    HW222266   1.534   6.066   2.635  0.1486  0.2649 -2.4271
 4896SOL     OW22267   1.350   7.235   1.401 -0.2750  0.2132 -1.2338
 4896SOL    HW122268   1.263   7.206   1.440  0.4268 -1.1072 -0.5835
 4896SOL    HW222269   1.356   7.334   1.401 -0.7461  0.2571  1.0436
 4897SOL     OW22270   0.857   7.918   0.167  0.2492  0.3828 -0.4651
 4897SOL    HW122271   0.758   7.921   0.173  0.2493 -0.4593  0.0861
 4897SOL    HW222272   0.885   7.850   0.100  0.4830 -1.4857  1.4809
 4899SOL     OW22273   0.667   3.867   1.828  0.0708 -0.2156  0.4677
 4899SOL    HW122274   0.622   3.931   1.766 -1.2306 -0.5707  1.0347
 4899SOL    HW222275   0.687   3.912   1.914  0.5506 -0.1445  0.3236
 4900SOL     OW22276   9.425   1.815   2.421 -0.0762  0.8637 -0.2457
 4900SOL    HW122277   9.409   1.718   2.442  1.0924  0.9154  0.9235
 4900SOL    HW222278   9.353   1.847   2.360  0.6516 -1.2735 -2.3036
 4901SOL     OW22279   9.450   9.475   1.796  0.2663  0.1822  0.1428
 4901SOL    HW122280   9.521   9.518   1.851 -0.1217  0.4506  0.4395
 4901SOL    HW222281   9.443   9.378   1.820 -0.8912  0.6108  1.6210
 4902SOL     OW22282   1.339   3.555   0.206  0.1803 -0.2080  0.6718
 4902SOL    HW122283   1.336   3.648   0.169  3.2080 -0.0417  0.6627
 4902SOL    HW222284   1.247   3.519   0.216 -0.9295  1.9740 -1.4214
 4903SOL     OW22285   3.943   6.935   1.381 -0.4176 -0.1267  0.1309
 4903SOL    HW122286   4.031   6.893   1.360 -0.0544  0.3020  0.7621
 4903SOL    HW222287   3.943   7.031   1.352 -0.3442  0.1285  0.9547
 4904SOL     OW22288   9.924   8.625   0.842  0.9810  0.0410 -0.1186
 4904SOL    HW122289   9.837   8.588   0.811  0.1517  1.3784  0.5889
 4904SOL    HW222290   9.994   8.554   0.837 -0.3204 -1.2614  0.0586
 4905SOL     OW22291   7.887   2.477   3.659  0.3558 -0.1262  0.3418
 4905SOL    HW122292   7.878   2.572   3.688 -1.1541  0.3168 -1.4189
 4905SOL    HW222293   7.914   2.474   3.562  1.3667 -1.4890  0.6504
 4906SOL     OW22294   0.379   5.968   1.736 -0.0670 -0.3314  0.2296
 4906SOL    HW122295   0.317   6.017   1.675  0.3924 -0.6795 -0.5285
 4906SOL    HW222296   0.360   5.993   1.831  1.7564  3.1783 -0.2590
 4907SOL     OW22297   4.246   7.297   0.290  0.0910 -0.5145 -0.2895
 4907SOL    HW122298   4.252   7.240   0.372 -0.7817 -1.1836 -0.6874
 4907SOL    HW222299   4.164   7.273   0.238 -0.9210  1.8705  0.1053
 4908SOL     OW22300   3.440   6.751   1.906  0.3568 -0.0117  0.5448
 4908SOL    HW122301   3.341   6.764   1.914  0.3142 -0.3147  0.5173
 4908SOL    HW222302   3.460   6.653   1.897  0.5957  0.1192 -0.3468
 4909SOL     OW22303   4.146   0.946   3.591 -0.1133  0.0854 -0.2620
 4909SOL    HW122304   4.214   0.872   3.586 -0.5922 -0.2952 -1.2536
 4909SOL    HW222305   4.115   0.956   3.685  1.3682  0.3071  0.2191
 4910SOL     OW22306   2.700   1.110   2.547 -0.2728 -0.3165  0.3081
 4910SOL    HW122307   2.742   1.074   2.630  0.0910 -0.6283 -0.0090
 4910SOL    HW222308   2.605   1.134   2.565  0.2912  1.2277  1.2688
 4911SOL     OW22309   2.411   5.936   3.677 -0.4804 -0.3257  0.1093
 4911SOL    HW122310   2.346   5.872   3.635 -1.3168  0.4020  0.2927
 4911SOL    HW222311   2.492   5.944   3.618 -1.3477  0.1658 -1.0285
 4912SOL     OW22312   9.232   6.716   1.169 -0.6055  0.1311  0.0550
 4912SOL    HW122313   9.205   6.711   1.265 -0.1521 -0.7625  0.1390
 4912SOL    HW222314   9.161   6.764   1.117  0.0735  2.3746  1.1777
 4913SOL     OW22315   3.822   8.557   1.230 -0.1657  0.3835  0.3262
 4913SOL    HW122316   3.792   8.462   1.230  0.6732  0.1026  1.8773
 4913SOL    HW222317   3.758   8.613   1.283  0.8730  0.1507  1.8665
 4914SOL     OW22318   0.888   2.232   2.885 -0.2301 -0.1095  0.0424
 4914SOL    HW122319   0.853   2.180   2.807 -0.9611 -0.6059  0.6853
 4914SOL    HW222320   0.892   2.329   2.861  0.4830 -0.3733 -0.9372
 4916SOL     OW22321   3.160   0.863   2.906  0.3320 -0.2496 -0.5410
 4916SOL    HW122322   3.134   0.915   2.825  0.2982  0.5051 -0.0450
 4916SOL    HW222323   3.086   0.800   2.930 -0.7744  1.3947  0.4482
 4917SOL     OW22324   8.981   5.703   2.879  0.5836  0.0275 -0.6444
 4917SOL    HW122325   8.913   5.687   2.951 -0.0630  2.6874 -0.6168
 4917SOL    HW222326   9.073   5.690   2.916  0.1805 -1.5530 -0.1413
 4919SOL     OW22327   7.748   1.065   3.314 -0.1187  0.6031 -0.0874
 4919SOL    HW122328   7.694   1.017   3.383  1.2949 -1.6640 -0.4957
 4919SOL    HW222329   7.812   1.001   3.271  1.1083  2.6448 -1.4109
 4920SOL     OW22330   2.494   2.453   0.796 -0.0973 -0.0241  0.3777
 4920SOL    HW122331   2.423   2.413   0.738 -0.0349  0.0610  0.2409
 4920SOL    HW222332   2.575   2.395   0.795 -0.1223 -0.0596  0.4366
 4921SOL     OW22333   1.185   5.163   1.365 -0.2831 -0.0218 -0.2842
 4921SOL    HW122334   1.236   5.130   1.286  2.6965  2.8375  0.3148
 4921SOL    HW222335   1.222   5.121   1.448  0.2731  1.0868  0.0426
 4922SOL     OW22336   3.790   2.133   2.057  0.0186  0.2328 -0.2710
 4922SOL    HW122337   3.798   2.034   2.067 -0.5043 -0.1516 -3.2226
 4922SOL    HW222338   3.702   2.163   2.094 -0.7850 -0.7335 -1.3704
 4925SOL     OW22339   1.308   6.940   1.175  0.1201 -0.5538  0.5726
 4925SOL    HW122340   1.273   6.850   1.198 -1.4291  0.0027  0.4983
 4925SOL    HW222341   1.349   6.982   1.256 -2.1897  0.0086  1.5017
 4926SOL     OW22342   0.967   2.604   1.772  0.5849 -0.4940  0.4628
 4926SOL    HW122343   0.869   2.593   1.752  0.3210  0.8645  0.9373
 4926SOL    HW222344   0.985   2.574   1.866  0.5443 -0.3649  0.5124
 4927SOL     OW22345   0.324   2.299   1.657 -0.7190  0.0586  0.7517
 4927SOL    HW122346   0.404   2.358   1.641 -0.0684 -0.2455  2.7795
 4927SOL    HW222347   0.243   2.342   1.617  0.2215  0.9868 -0.2114
 4928SOL     OW22348   0.708   0.517   1.218 -0.4917  0.2548  0.8562
 4928SOL    HW122349   0.718   0.561   1.308  0.3629 -0.3982  1.0869
 4928SOL    HW222350   0.612   0.496   1.203 -0.6624  0.4848  1.5661
 4929SOL     OW22351   1.365   9.591   0.281  0.4505  0.3101  0.3191
 4929SOL    HW122352   1.406   9.601   0.371  0.9292 -2.1658  0.4072
 4929SOL    HW222353   1.295   9.519   0.284  0.4912  0.1865 -1.2851
 4931SOL     OW22354   1.777   1.303   2.059 -0.3681 -0.1021 -0.1768
 4931SOL    HW122355   1.850   1.371   2.050 -0.3023  0.0492  1.4001
 4931SOL    HW222356   1.807   1.216   2.017  1.8077 -0.8546  2.7924
 4932SOL     OW22357   9.565   0.874   2.645 -0.1809  0.1418 -0.2454
 4932SOL    HW122358   9.647   0.885   2.703 -0.8514 -0.8802  0.9215
 4932SOL    HW222359   9.535   0.779   2.648 -2.2358  0.7983  0.4588
 4934SOL     OW22360   0.727   3.859   0.057 -0.0455  0.4585  0.1063
 4934SOL    HW122361   0.718   3.957   0.039 -1.6694  0.0792 -1.3621
 4934SOL    HW222362   0.824   3.834   0.058  0.4372  2.2818  1.7729
 4935SOL     OW22363   0.436   8.769   2.431  0.6181  0.0744  0.2950
 4935SOL    HW122364   0.518   8.825   2.417 -0.4472  1.4870 -0.4038
 4935SOL    HW222365   0.448   8.680   2.387  1.3967  0.6423 -0.6521
 4936SOL     OW22366   9.991   3.964   2.439  0.3256 -0.1725  0.1428
 4936SOL    HW122367  10.053   3.935   2.512 -0.7802 -1.1895  0.6876
 4936SOL    HW222368  10.017   4.056   2.409  0.4227  0.5211  2.2391
 4937SOL     OW22369   8.671   8.264   3.132 -0.1304  0.1074  0.5045
 4937SOL    HW122370   8.721   8.191   3.178  1.4535  0.1962 -0.9745
 4937SOL    HW222371   8.731   8.306   3.062 -1.6804  1.4527 -0.0528
 4938SOL     OW22372   8.693   6.654   0.834 -0.2954  0.3317 -0.3511
 4938SOL    HW122373   8.599   6.638   0.805 -0.9663  1.3639  1.2063
 4938SOL    HW222374   8.745   6.569   0.826 -1.6156 -0.4985 -0.2575
 4939SOL     OW22375   2.225   7.069   0.814 -0.4062  0.3563  0.4712
 4939SOL    HW122376   2.240   7.168   0.815 -0.1443  0.3276 -0.2067
 4939SOL    HW222377   2.131   7.049   0.841 -0.0041  0.6934  2.2411
 4940SOL     OW22378   2.682   4.951   3.311  0.1722 -0.1893 -0.0394
 4940SOL    HW122379   2.606   4.975   3.371  1.1525 -3.2549  2.5538
 4940SOL    HW222380   2.764   4.999   3.340 -0.3671  2.0115 -1.9645
 4941SOL     OW22381   2.862   9.030   2.061  0.2449 -0.5831 -0.1347
 4941SOL    HW122382   2.857   8.933   2.083 -1.0084 -0.5971 -0.4038
 4941SOL    HW222383   2.820   9.083   2.134 -0.6944 -0.3811 -0.8037
 4942SOL     OW22384   4.454   0.809   1.055 -0.2404 -0.7487  0.0831
 4942SOL    HW122385   4.443   0.729   0.998  1.1272 -1.0996  0.2974
 4942SOL    HW222386   4.524   0.870   1.016  0.3861 -0.7794  1.1132
 4943SOL     OW22387   8.400   9.008   2.208  0.2771  0.5546  0.6955
 4943SOL    HW122388   8.395   9.104   2.179  2.5092  0.9749  1.6261
 4943SOL    HW222389   8.364   8.949   2.135  0.2880  1.9944 -0.4848
 4944SOL     OW22390   4.268   2.364   1.588  0.3586 -0.3005  0.5906
 4944SOL    HW122391   4.364   2.383   1.567  0.3042 -0.7865 -0.1145
 4944SOL    HW222392   4.257   2.267   1.612 -0.1906 -0.5983 -0.7997
 4945SOL     OW22393   1.052   7.341   0.107 -0.3157  0.5081  0.2909
 4945SOL    HW122394   0.968   7.303   0.144  0.6553 -0.2779  1.7333
 4945SOL    HW222395   1.105   7.270   0.061 -0.7762  1.1548 -1.2817
 4947SOL     OW22396   9.251   9.977   0.172 -0.8185 -0.2127  0.1636
 4947SOL    HW122397   9.206   9.889   0.155 -0.0034 -0.4488 -0.8238
 4947SOL    HW222398   9.345   9.973   0.137 -0.4156  0.6717  1.1348
 4948SOL     OW22399   8.269   2.927   0.075 -0.1241 -0.4573  0.0739
 4948SOL    HW122400   8.260   2.869   0.156 -3.6142 -1.6015 -1.0493
 4948SOL    HW222401   8.277   3.022   0.104  1.5373 -1.0898  1.8165
 4949SOL     OW22402   3.759   0.692   0.716  0.0044  0.8216  0.5295
 4949SOL    HW122403   3.767   0.748   0.633 -2.4025  0.1528 -0.1875
 4949SOL    HW222404   3.799   0.602   0.699  1.1021  1.2683  0.6875
 4951SOL     OW22405   2.491   6.532   0.825 -0.1078 -0.6169 -0.8398
 4951SOL    HW122406   2.395   6.507   0.836  0.1560 -0.8748  1.1258
 4951SOL    HW222407   2.545   6.452   0.799 -0.3965 -0.4975 -1.8235
 4952SOL     OW22408   1.052   6.681   2.871  0.8036 -0.5856 -0.5360
 4952SOL    HW122409   1.063   6.591   2.830  3.4115  0.2957 -1.9066
 4952SOL    HW222410   1.086   6.680   2.965  1.0037 -0.9656 -0.6137
 4954SOL     OW22411   0.210   1.714   2.560 -0.4287  0.1821  0.1508
 4954SOL    HW122412   0.164   1.625   2.567  0.5598 -0.2658  1.1096
 4954SOL    HW222413   0.158   1.773   2.498  0.0520 -1.8230 -2.2898
 4955SOL     OW22414   2.984   3.742   1.161  0.4683 -0.2902 -0.1434
 4955SOL    HW122415   3.059   3.678   1.180 -0.1341 -0.4531  1.8023
 4955SOL    HW222416   2.906   3.692   1.124  1.6789  0.0398 -3.3151
 4957SOL     OW22417   0.720   8.623   0.670  0.1301 -0.4997 -0.5396
 4957SOL    HW122418   0.686   8.614   0.764  2.2008  2.7818  0.6368
 4957SOL    HW222419   0.792   8.556   0.654 -1.6106 -2.4171 -0.4971
 4958SOL     OW22420   0.132   0.815   0.274 -0.0378 -0.9527 -0.1223
 4958SOL    HW122421   0.135   0.789   0.371 -0.0013 -1.2765 -0.2106
 4958SOL    HW222422   0.062   0.762   0.228  0.2511 -1.1158 -0.3713
 4959SOL     OW22423   2.932   6.260   0.123  0.1806  0.5910 -0.3891
 4959SOL    HW122424   2.902   6.304   0.038 -4.2039 -1.1615  0.1020
 4959SOL    HW222425   2.906   6.316   0.201 -0.6934 -0.3380  0.0021
 4960SOL     OW22426   1.219   3.329   3.554  0.2393 -0.4407 -0.0361
 4960SOL    HW122427   1.313   3.295   3.558  1.7985  3.9036  3.0149
 4960SOL    HW222428   1.176   3.320   3.644 -1.3740  0.0074 -0.7478
 4961SOL     OW22429   7.242   7.853   3.079 -0.3243  0.5193 -0.0962
 4961SOL    HW122430   7.230   7.786   3.152 -1.2818  0.0726 -0.6496
 4961SOL    HW222431   7.329   7.900   3.091  0.1504 -0.5062  0.5627
 4962SOL     OW22432   2.304   8.303   3.598 -0.1540 -0.0101  0.2040
 4962SOL    HW122433   2.389   8.307   3.650 -0.0200  2.1005 -0.1231
 4962SOL    HW222434   2.300   8.219   3.545  1.0632 -0.7893  1.3323
 4963SOL     OW22435   3.424   3.138   3.511 -0.0595  0.2557  0.1695
 4963SOL    HW122436   3.404   3.075   3.586 -0.2865  2.3947  1.9546
 4963SOL    HW222437   3.360   3.122   3.436 -1.0315 -0.6709  1.1773
 4964SOL     OW22438   2.225   7.813   0.075  0.4460  0.0592 -0.0272
 4964SOL    HW122439   2.226   7.861  -0.013  0.8760 -0.7875 -0.4987
 4964SOL    HW222440   2.131   7.791   0.100  0.2488  1.1198  0.1840
 4965SOL     OW22441   2.381   7.890   1.223 -0.4359 -0.1030 -0.0123
 4965SOL    HW122442   2.335   7.870   1.137 -0.9876 -1.5121  0.5803
 4965SOL    HW222443   2.472   7.927   1.205 -0.9791  0.6851 -1.1879
 4966SOL     OW22444   3.640   3.804   1.698  0.5014  0.0215  0.4113
 4966SOL    HW122445   3.613   3.898   1.675 -0.2181 -0.3625 -0.3207
 4966SOL    HW222446   3.652   3.751   1.614  2.2065 -0.1933  0.7729
 4968SOL     OW22447   9.404   3.059   2.547 -0.6023  0.1752  0.7213
 4968SOL    HW122448   9.321   3.115   2.547  1.1573  2.8569  1.0862
 4968SOL    HW222449   9.393   2.983   2.612 -3.8384 -1.2632 -1.3664
 4969SOL     OW22450   2.433   9.338   0.527 -0.6921 -0.3850 -0.5270
 4969SOL    HW122451   2.482   9.324   0.441 -1.7067 -1.4575 -0.9513
 4969SOL    HW222452   2.496   9.325   0.604  0.0830  0.0066 -1.0874
 4970SOL     OW22453   0.087   4.102   3.624  0.1015  0.0309 -0.5589
 4970SOL    HW122454   0.106   4.150   3.709  1.0822  0.4341 -0.9970
 4970SOL    HW222455   0.144   4.020   3.618  0.2525  0.1616 -0.9550
 4971SOL     OW22456   6.105   6.467   2.611  0.1060  0.1368  0.1751
 4971SOL    HW122457   6.202   6.467   2.587  0.2128  2.2334  0.4764
 4971SOL    HW222458   6.067   6.376   2.596  2.7871 -1.5135  2.7909
 4972SOL     OW22459   3.209   1.690   0.296 -0.0405 -0.1550  0.2838
 4972SOL    HW122460   3.178   1.595   0.307 -0.0392 -0.3195 -1.0151
 4972SOL    HW222461   3.308   1.694   0.310  0.3126 -0.7543 -1.8277
 4973SOL     OW22462   9.081   4.043   0.866  0.7763 -0.5056 -0.1391
 4973SOL    HW122463   9.025   4.125   0.850  0.8205 -0.5298 -0.4264
 4973SOL    HW222464   9.028   3.962   0.843  0.7622 -0.5534  0.0639
 4974SOL     OW22465   2.541   5.849   1.538 -0.1696 -0.5686 -0.3687
 4974SOL    HW122466   2.607   5.774   1.545  2.2198  1.6486  2.3472
 4974SOL    HW222467   2.560   5.904   1.457 -0.1048 -1.2064 -0.7887
 4975SOL     OW22468   7.658   9.613   2.975  0.5300 -0.2273  0.3376
 4975SOL    HW122469   7.747   9.569   2.986 -0.2112 -1.8621 -0.1128
 4975SOL    HW222470   7.609   9.608   3.062 -0.2047 -1.7775 -0.1454
 4976SOL     OW22471   1.107   9.849   2.465 -0.7392  0.4384 -0.0196
 4976SOL    HW122472   1.047   9.929   2.462 -0.7801  0.3773 -0.8161
 4976SOL    HW222473   1.052   9.767   2.482 -0.7247  0.5405  0.5526
 4977SOL     OW22474   1.985   2.260   1.637 -0.2700  0.0857 -0.4637
 4977SOL    HW122475   1.996   2.354   1.670 -2.2544 -0.4101  1.7294
 4977SOL    HW222476   1.939   2.262   1.548  0.2976  1.2106 -0.7458
 4979SOL     OW22477   4.230   8.770   0.119  0.2829  0.3988  0.1877
 4979SOL    HW122478   4.244   8.858   0.164  1.1262  0.1460  0.4150
 4979SOL    HW222479   4.267   8.773   0.026  2.0640 -0.3380  0.8658
 4980SOL     OW22480   3.855   8.382   0.176 -0.0397 -0.2663  0.7178
 4980SOL    HW122481   3.834   8.462   0.233 -1.1159 -0.2231  0.2865
 4980SOL    HW222482   3.773   8.358   0.123 -0.1780 -2.5425  1.9176
 4981SOL     OW22483   3.296   9.811   1.956  0.0738  0.9294 -0.0988
 4981SOL    HW122484   3.228   9.823   2.028 -0.0547  0.0941 -0.0704
 4981SOL    HW222485   3.256   9.759   1.881  0.2518  1.6791 -0.7129
 4982SOL     OW22486   7.567   0.614   2.313 -0.1467  0.0192  0.8218
 4982SOL    HW122487   7.517   0.576   2.235  1.1959 -1.1188  0.4957
 4982SOL    HW222488   7.502   0.644   2.383 -1.2519 -2.4778  0.9022
 4983SOL     OW22489   0.372   8.454   1.416 -0.3770 -0.5058  0.1630
 4983SOL    HW122490   0.290   8.440   1.361 -0.6533  0.8524  0.2298
 4983SOL    HW222491   0.352   8.516   1.491  0.6884 -0.2579  0.2483
 4984SOL     OW22492   6.143   9.138   3.242 -0.2835 -0.1242  0.2762
 4984SOL    HW122493   6.130   9.178   3.151 -1.3383 -1.8509 -0.3705
 4984SOL    HW222494   6.236   9.100   3.248  0.3019  1.3272  0.4657
 4985SOL     OW22495   4.482   1.141   0.055  0.2860  0.2051 -0.0055
 4985SOL    HW122496   4.435   1.056   0.078  0.6769 -0.2388 -0.8233
 4985SOL    HW222497   4.426   1.195  -0.008  0.5142  0.0564 -0.3346
 4987SOL     OW22498   0.690   4.730   0.536 -0.3282 -0.4436  0.0375
 4987SOL    HW122499   0.740   4.747   0.451 -0.8732 -0.7412 -0.3426
 4987SOL    HW222500   0.592   4.743   0.522 -0.5751 -1.9276  0.2285
 4988SOL     OW22501   2.262   8.539   2.889  0.5028  0.3508  0.0743
 4988SOL    HW122502   2.190   8.516   2.955  0.7504  0.0318  0.2330
 4988SOL    HW222503   2.338   8.475   2.899  1.3224  1.4123  0.7252
 4989SOL     OW22504   8.717   5.742   3.317  0.2919  0.5364  0.4409
 4989SOL    HW122505   8.653   5.685   3.370  1.9685 -0.8134  1.0583
 4989SOL    HW222506   8.760   5.809   3.378  3.1015 -1.7844  1.1269
 4990SOL     OW22507   3.790   3.517   0.330  0.0966  0.6597  0.2398
 4990SOL    HW122508   3.706   3.483   0.288  1.2430  0.1195 -1.6969
 4990SOL    HW222509   3.827   3.447   0.392  0.0296  0.1913 -0.2442
 4991SOL     OW22510   9.365   1.334   2.053  0.4249 -0.0483 -0.0625
 4991SOL    HW122511   9.278   1.374   2.023  0.0745 -1.3603 -0.8440
 4991SOL    HW222512   9.354   1.235   2.066  1.5705 -0.0891  0.7098
 4992SOL     OW22513   2.229   1.452   0.520 -0.3239  0.4181 -0.6909
 4992SOL    HW122514   2.227   1.387   0.444 -1.1793 -0.1990 -0.1432
 4992SOL    HW222515   2.138   1.460   0.560  0.2744  0.1485  0.7643
 4993SOL     OW22516   1.164   3.052   1.333  0.2122 -0.4183  0.4107
 4993SOL    HW122517   1.210   3.004   1.258  0.1050 -0.9909  0.7065
 4993SOL    HW222518   1.231   3.104   1.385  0.0180  1.5026 -1.2031
 4994SOL     OW22519   9.804   7.854   3.712 -0.0991  0.2566  0.3556
 4994SOL    HW122520   9.857   7.789   3.767 -0.6235  0.9461  1.6933
 4994SOL    HW222521   9.713   7.816   3.695 -0.2180  0.4052  0.6644
 4995SOL     OW22522   3.737   0.783   3.029 -0.1004 -0.1702 -0.2732
 4995SOL    HW122523   3.699   0.691   3.032  0.0708 -0.2529 -0.6541
 4995SOL    HW222524   3.806   0.793   3.100  0.3197 -0.5267 -0.6347
 4996SOL     OW22525   6.001   6.646   2.784  0.2629  0.5999  0.6446
 4996SOL    HW122526   6.053   6.578   2.731  1.1931 -0.8212  3.3172
 4996SOL    HW222527   6.065   6.707   2.830 -0.5224  1.1491  1.0010
 4997SOL     OW22528   7.938   9.870   3.371 -0.2230  0.2735 -0.6883
 4997SOL    HW122529   7.857   9.825   3.408  0.5342  0.9550  1.8827
 4997SOL    HW222530   7.923   9.969   3.369  0.5272  0.4003 -0.2106
 4998SOL     OW22531   1.552   3.244   0.534  0.2345  0.5385 -0.0126
 4998SOL    HW122532   1.485   3.299   0.485  0.4570  1.2030  0.4205
 4998SOL    HW222533   1.540   3.147   0.510 -0.4555  0.7222 -0.4234
 4999SOL     OW22534   4.261   1.736   1.196 -0.3026  0.3589  0.1220
 4999SOL    HW122535   4.200   1.759   1.119  0.1243  1.0135 -0.0245
 4999SOL    HW222536   4.245   1.641   1.223  0.7731 -0.4327 -1.9230
 5001SOL     OW22537   0.511   3.045   0.015 -0.0207 -0.3728 -0.5943
 5001SOL    HW122538   0.597   3.082  -0.020  0.1830  0.0553  0.3525
 5001SOL    HW222539   0.462   3.116   0.065  0.0319 -1.1777  0.6144
 5002SOL     OW22540   2.360   6.883   1.615 -0.0287  0.1184  0.2474
 5002SOL    HW122541   2.312   6.837   1.690 -1.1049  0.9995  0.1033
 5002SOL    HW222542   2.308   6.871   1.531 -0.7822  2.3412  0.3745
 5003SOL     OW22543   3.692   0.335   0.745  0.2012 -0.4935  0.1340
 5003SOL    HW122544   3.776   0.368   0.788  0.7257 -0.9925 -0.5026
 5003SOL    HW222545   3.613   0.363   0.800  0.8234 -0.5811  1.0792
 5004SOL     OW22546   0.020   7.594   0.303  0.4852  0.2697  0.0857
 5004SOL    HW122547   0.072   7.513   0.327  0.9744  0.8816  1.1203
 5004SOL    HW222548  -0.070   7.567   0.270  0.0608 -0.6536  1.9107
 5005SOL     OW22549   2.051   4.370   0.670  0.0446  0.2674 -0.0615
 5005SOL    HW122550   1.981   4.324   0.615 -0.5400 -0.0524  0.9483
 5005SOL    HW222551   2.128   4.308   0.685  0.1020  0.2753 -0.3227
 5006SOL     OW22552   9.128   9.759   3.182 -0.3191  0.3945 -0.4848
 5006SOL    HW122553   9.144   9.856   3.165 -1.1304  1.1010  2.3990
 5006SOL    HW222554   9.216   9.712   3.194  0.0285  1.2434  0.3504
 5007SOL     OW22555   3.791   4.591   3.059  0.5033  0.2722  0.8673
 5007SOL    HW122556   3.720   4.661   3.056 -0.9458 -1.2178 -0.5635
 5007SOL    HW222557   3.848   4.605   3.140  0.3801  3.2011  0.4982
 5008SOL     OW22558   1.637   9.273   3.389 -0.3549  0.2678 -0.2979
 5008SOL    HW122559   1.551   9.222   3.397 -0.6459  0.6664 -0.9225
 5008SOL    HW222560   1.690   9.236   3.313  1.1167 -1.5835  1.5778
 5009SOL     OW22561   3.422   5.823   2.912  0.4885  0.2411 -0.4836
 5009SOL    HW122562   3.413   5.745   2.851 -0.5827  0.1282 -0.1749
 5009SOL    HW222563   3.341   5.880   2.906  0.2795  0.1151  1.0076
 5010SOL     OW22564   7.758   8.955   2.715 -0.2501  1.0200  0.3095
 5010SOL    HW122565   7.730   9.042   2.675 -0.0619  0.0747 -1.9559
 5010SOL    HW222566   7.753   8.883   2.645  1.2512 -0.4576  1.6843
 5011SOL     OW22567   4.643   1.133   3.138  0.8262 -0.0921  0.4560
 5011SOL    HW122568   4.701   1.123   3.219 -1.0559 -0.9870  1.7230
 5011SOL    HW222569   4.634   1.045   3.092  0.8995  0.1593 -0.0455
 5012SOL     OW22570   1.835   4.924   1.411 -0.4981 -0.5191  0.3107
 5012SOL    HW122571   1.840   5.021   1.436 -3.4926 -0.3074  0.3012
 5012SOL    HW222572   1.875   4.869   1.485  1.5838  0.7093  0.1432
 5014SOL     OW22573   7.880   0.469   1.268 -0.5123  0.1603 -0.6917
 5014SOL    HW122574   7.928   0.463   1.180 -0.5648  1.6236 -0.8434
 5014SOL    HW222575   7.799   0.410   1.266 -0.5207  0.1923 -1.6306
 5015SOL     OW22576   1.849   3.773   2.519  0.2518  0.0220  0.2739
 5015SOL    HW122577   1.923   3.840   2.509  0.7414 -0.2384  2.0270
 5015SOL    HW222578   1.821   3.768   2.615 -2.0639  0.1348 -0.3590
 5016SOL     OW22579   8.900   2.232   0.453  0.1575  0.2189 -0.0485
 5016SOL    HW122580   8.891   2.244   0.552  0.5719 -0.0904  0.0284
 5016SOL    HW222581   8.959   2.303   0.416 -0.0063  0.3405 -0.0770
 5017SOL     OW22582   1.108   1.516   1.994  0.5490  0.3219 -0.7473
 5017SOL    HW122583   1.189   1.458   1.999 -0.7514 -1.5601 -0.9384
 5017SOL    HW222584   1.043   1.479   1.928 -1.5969  0.3176  1.2768
 5018SOL     OW22585   2.626   8.663   2.029  0.1160 -0.5204  0.0358
 5018SOL    HW122586   2.684   8.674   1.948  0.7099  0.7398  0.6050
 5018SOL    HW222587   2.566   8.743   2.038  0.4223 -0.3939  1.1039
 5019SOL     OW22588   2.387   8.965   3.279 -0.0564  0.2394 -0.6708
 5019SOL    HW122589   2.301   9.015   3.269  0.5928  1.1025 -2.3828
 5019SOL    HW222590   2.448   9.017   3.339  0.9614  2.0961 -3.1795
 5020SOL     OW22591   5.944   7.532   2.875 -0.3030  0.4662 -0.2082
 5020SOL    HW122592   5.971   7.452   2.821 -1.4196 -0.4898  0.6443
 5020SOL    HW222593   5.948   7.509   2.972 -1.2615  1.2407  0.0164
 5021SOL     OW22594   0.716   6.829   3.387  0.5276  0.2366 -0.4816
 5021SOL    HW122595   0.748   6.736   3.374  1.5566  0.5391 -0.1969
 5021SOL    HW222596   0.774   6.876   3.453 -0.5098  0.8131  0.0468
 5022SOL     OW22597   9.265   5.633   0.854  0.3300 -0.2308  0.0789
 5022SOL    HW122598   9.184   5.602   0.904  0.9874 -1.1007  0.6095
 5022SOL    HW222599   9.347   5.596   0.896  0.8953 -1.0218 -1.6745
 5023SOL     OW22600   7.071   0.155   2.071  0.3492  0.2334 -0.0893
 5023SOL    HW122601   7.010   0.226   2.036 -0.5722 -0.0523  0.8875
 5023SOL    HW222602   7.129   0.121   1.997 -0.1807  1.0175 -0.8749
 5025SOL     OW22603   1.528   8.557   3.236 -0.2688 -0.0632 -0.2163
 5025SOL    HW122604   1.603   8.600   3.187 -0.1221  0.0398  0.0991
 5025SOL    HW222605   1.461   8.627   3.261 -0.4244 -0.1406 -0.4093
 5027SOL     OW22606   8.022   0.279   1.418  0.3956 -0.5906  0.2139
 5027SOL    HW122607   7.969   0.353   1.375 -2.2402 -1.5243  1.6883
 5027SOL    HW222608   8.043   0.304   1.512  1.3226 -0.8519  0.0785
 5028SOL     OW22609   3.210   2.025   2.722 -0.4981 -0.5230  0.4782
 5028SOL    HW122610   3.273   1.979   2.783 -0.8186 -1.2140  0.2980
 5028SOL    HW222611   3.177   1.961   2.652 -0.7030  0.0569  0.0262
 5029SOL     OW22612   6.928   9.887   0.937 -0.2059  0.0074  0.2918
 5029SOL    HW122613   6.879   9.809   0.899  1.7952 -1.3734  0.4542
 5029SOL    HW222614   6.957   9.948   0.863  2.3282 -1.8721 -0.3428
 5030SOL     OW22615   3.099   0.185   2.813  0.2008  0.3983 -0.1089
 5030SOL    HW122616   3.030   0.254   2.793 -0.3129 -0.5238 -1.5726
 5030SOL    HW222617   3.058   0.094   2.807  0.9532 -0.0775  1.4675
 5032SOL     OW22618   0.921   4.764   3.309 -0.3851 -0.0660  0.0529
 5032SOL    HW122619   0.847   4.714   3.353  0.1052 -1.1422 -0.3489
 5032SOL    HW222620   0.885   4.810   3.227 -0.7874  0.1066  0.3233
 5034SOL     OW22621   2.253   6.237   0.484  0.4893 -0.1800  0.2852
 5034SOL    HW122622   2.306   6.233   0.569  1.2045 -0.5241 -0.1776
 5034SOL    HW222623   2.264   6.152   0.433 -0.5981 -0.3040  0.2294
 5036SOL     OW22624   9.706   1.283   3.399 -0.3567  0.0823 -0.3691
 5036SOL    HW122625   9.754   1.351   3.454  0.8979 -0.9714 -0.1410
 5036SOL    HW222626   9.765   1.253   3.324 -0.6126 -1.3003 -0.0295
 5038SOL     OW22627   3.628   3.464   2.975  0.3919  0.0866 -0.8180
 5038SOL    HW122628   3.707   3.427   3.024 -0.7317 -3.1456 -1.3553
 5038SOL    HW222629   3.554   3.483   3.039  0.0557 -1.0934 -0.8521
 5039SOL     OW22630   9.165   5.263   2.223 -0.6930 -0.3877 -0.2560
 5039SOL    HW122631   9.135   5.169   2.240 -0.6904  0.0260  2.3011
 5039SOL    HW222632   9.086   5.324   2.229 -0.5118 -0.0994 -0.8008
 5040SOL     OW22633   4.667   4.965   1.341  0.1602  0.6442  0.4130
 5040SOL    HW122634   4.604   4.899   1.382 -1.1741  1.2923 -0.5634
 5040SOL    HW222635   4.706   5.023   1.412  1.5344 -1.3204  1.3185
 5041SOL     OW22636   4.412   4.431   0.443  0.0472  0.3190 -0.3080
 5041SOL    HW122637   4.495   4.476   0.474  1.4092 -2.9774  1.0763
 5041SOL    HW222638   4.339   4.447   0.510  0.2517  1.1870 -0.2853
 5043SOL     OW22639   4.080   1.996   2.723  0.3027 -0.3164  0.1090
 5043SOL    HW122640   4.167   1.996   2.773 -0.2387  0.4263  1.0740
 5043SOL    HW222641   4.046   2.090   2.716 -1.1686 -0.7540  1.0883
 5044SOL     OW22642   3.938   8.920   1.901  0.5035 -0.1054 -0.0703
 5044SOL    HW122643   3.925   8.901   1.998  2.0195 -1.3119 -0.0734
 5044SOL    HW222644   3.890   8.851   1.847 -0.1996  0.4656 -0.1690
 5045SOL     OW22645   0.646   0.790   0.007  0.8230  0.2411 -0.4796
 5045SOL    HW122646   0.723   0.732   0.034  0.4056 -1.0095 -1.9423
 5045SOL    HW222647   0.654   0.813  -0.090 -1.8776 -1.9063 -1.2721
 5047SOL     OW22648   7.371   5.932   3.067  0.1352  0.0875 -0.2146
 5047SOL    HW122649   7.302   5.988   3.111  0.0462 -0.4538  0.3434
 5047SOL    HW222650   7.382   5.846   3.118  0.5404 -0.2347 -0.8351
 5049SOL     OW22651   4.604   1.399   3.083 -0.1481 -0.0958 -0.1797
 5049SOL    HW122652   4.581   1.445   3.169  0.5040  1.6758 -0.9421
 5049SOL    HW222653   4.626   1.303   3.102 -0.0309  0.2707  1.6297
 5051SOL     OW22654   8.449   8.275   0.324 -0.1282  0.1835 -0.2248
 5051SOL    HW122655   8.545   8.302   0.314 -0.4828  2.0878  1.2785
 5051SOL    HW222656   8.394   8.355   0.349 -1.8168 -1.2435  0.7718
 5052SOL     OW22657   9.327   3.201   1.456 -1.2570 -0.1306  0.1165
 5052SOL    HW122658   9.330   3.107   1.490  3.1013  0.0461  0.4718
 5052SOL    HW222659   9.329   3.200   1.356  3.5800 -0.4948  0.0908
 5053SOL     OW22660   2.291   0.470   1.410  1.3513  0.2061 -0.6426
 5053SOL    HW122661   2.344   0.422   1.340 -1.3922 -0.1527 -2.5749
 5053SOL    HW222662   2.281   0.566   1.384 -0.0417 -0.0242 -0.9989
 5054SOL     OW22663   5.926   9.537   1.589 -0.2516  0.6600  0.1261
 5054SOL    HW122664   5.976   9.573   1.668  0.0943 -1.8757  1.1078
 5054SOL    HW222665   5.982   9.546   1.507  1.7652 -1.8498  1.1630
 5055SOL     OW22666   2.491   0.365   2.342 -0.5437 -0.1397  0.6523
 5055SOL    HW122667   2.474   0.353   2.244 -0.5173 -1.2892  0.7765
 5055SOL    HW222668   2.477   0.461   2.367 -0.8196  0.1098 -0.4207
 5056SOL     OW22669   1.014   7.303   0.998  0.0744  0.3195  0.8272
 5056SOL    HW122670   0.969   7.390   1.019  1.8260  1.3268  0.5036
 5056SOL    HW222671   0.963   7.256   0.926 -0.5604  1.3486  0.5874
 5058SOL     OW22672   2.570   3.629   3.249  0.6504 -0.1772  0.3037
 5058SOL    HW122673   2.504   3.698   3.279 -0.1762 -0.1223 -1.5867
 5058SOL    HW222674   2.520   3.546   3.222  1.4811 -0.6985  0.3735
 5059SOL     OW22675   0.158   3.800   1.351  0.2346 -0.4148  0.0427
 5059SOL    HW122676   0.166   3.710   1.394  1.1787 -0.5138 -0.3454
 5059SOL    HW222677   0.216   3.804   1.270  0.1483  0.5258  0.0244
 5060SOL     OW22678   1.491   3.297   0.231 -0.1785 -0.2815  0.0044
 5060SOL    HW122679   1.479   3.396   0.228  1.2422 -0.1240 -0.6762
 5060SOL    HW222680   1.562   3.270   0.166  0.6062 -1.5540  1.3616
 5061SOL     OW22681   4.128   0.027   1.697 -0.1532  0.3204 -0.3042
 5061SOL    HW122682   4.041   0.059   1.659 -0.4680  0.8657  0.8817
 5061SOL    HW222683   4.112  -0.054   1.754  0.1714  0.2122 -0.3619
 5064SOL     OW22684   7.271   8.004   1.491 -0.1702  0.4534 -0.0969
 5064SOL    HW122685   7.356   7.988   1.541 -0.0295  1.3107 -0.0505
 5064SOL    HW222686   7.287   7.992   1.393 -0.1623 -0.0697 -0.0303
 5065SOL     OW22687   7.666   0.693   1.373  0.0983 -0.0555 -0.4198
 5065SOL    HW122688   7.730   0.635   1.322  0.7311 -1.0818  1.4829
 5065SOL    HW222689   7.617   0.636   1.439 -0.9479  1.1873 -0.1342
 5066SOL     OW22690   8.923   5.159   0.013 -0.3809  0.4397 -0.3953
 5066SOL    HW122691   9.006   5.185   0.063  0.2895 -0.0232 -1.2356
 5066SOL    HW222692   8.871   5.240  -0.011 -0.1886  0.7332  0.1697
 5067SOL     OW22693   3.461   7.112   1.573 -0.0298  0.5453 -0.1904
 5067SOL    HW122694   3.481   7.079   1.666  0.6448  0.3685 -0.3952
 5067SOL    HW222695   3.413   7.040   1.523  0.0072  0.4750 -0.1262
 5068SOL     OW22696   3.154   7.354   2.676 -0.4659  0.1218  0.6013
 5068SOL    HW122697   3.130   7.381   2.769  0.6292  2.0148  0.3538
 5068SOL    HW222698   3.107   7.414   2.611 -0.4814 -0.5883 -0.0493
 5069SOL     OW22699   4.351   6.329   2.801 -0.1739  0.1547 -0.4076
 5069SOL    HW122700   4.303   6.288   2.878 -1.2871  0.1068 -1.1145
 5069SOL    HW222701   4.288   6.384   2.747  1.2719  2.7062  0.4298
 5070SOL     OW22702   3.579   2.739   0.112  0.5178  0.2926 -0.4808
 5070SOL    HW122703   3.609   2.743   0.017  0.3260  2.2579 -0.4794
 5070SOL    HW222704   3.491   2.693   0.118  0.7024 -0.1467 -1.2145
 5071SOL     OW22705   3.421   0.111   0.072  0.5767  0.0919 -0.1837
 5071SOL    HW122706   3.341   0.158   0.036  1.1765  0.9823 -0.3557
 5071SOL    HW222707   3.399   0.072   0.162  0.2551  1.2088  0.2305
 5072SOL     OW22708   1.947   9.002   0.856 -0.2592 -1.1001 -0.2382
 5072SOL    HW122709   1.931   8.952   0.942 -2.7677  2.7752  1.6791
 5072SOL    HW222710   1.996   9.087   0.876 -0.5500 -0.3110 -2.7193
 5073SOL     OW22711   9.973   5.048   0.209  0.0519 -0.0697 -0.3456
 5073SOL    HW122712   9.969   5.128   0.269  0.9689 -0.4475  0.2340
 5073SOL    HW222713  10.004   5.076   0.118 -1.3226  0.5037 -0.6499
 5074SOL     OW22714   9.703   2.736   1.433  0.3608 -0.3286  0.3562
 5074SOL    HW122715   9.700   2.820   1.379 -0.2811 -0.5187  0.0881
 5074SOL    HW222716   9.695   2.657   1.371  1.9728 -0.6166  0.5046
 5075SOL     OW22717   3.455   2.225   0.407 -0.2285 -0.4315  0.0714
 5075SOL    HW122718   3.473   2.134   0.369  1.5457 -0.0896  0.0759
 5075SOL    HW222719   3.475   2.295   0.338 -1.1964 -0.0160  0.2034
 5077SOL     OW22720   4.749   0.206   2.019  0.5980 -0.1483  0.0726
 5077SOL    HW122721   4.696   0.279   2.062 -2.0476 -0.8417 -1.9464
 5077SOL    HW222722   4.825   0.246   1.967  0.1147  1.0649  0.2888
 5078SOL     OW22723   8.111   1.976   0.032  0.1682 -0.5464  0.4215
 5078SOL    HW122724   8.047   2.047   0.059  0.4188 -0.5335  1.0022
 5078SOL    HW222725   8.079   1.930  -0.051 -1.0649 -1.1548  1.2239
 5080SOL     OW22726   1.495   0.435   2.713 -0.3503  0.3650 -0.0554
 5080SOL    HW122727   1.456   0.355   2.759  0.8787 -0.6360 -0.7472
 5080SOL    HW222728   1.563   0.478   2.773  1.3240 -0.9977 -0.9288
 5081SOL     OW22729   0.205   9.765   3.614 -0.7149 -0.0452 -0.2052
 5081SOL    HW122730   0.167   9.833   3.676 -0.0541 -0.3963  0.5992
 5081SOL    HW222731   0.255   9.696   3.667  0.5911  0.1196 -1.1940
 5082SOL     OW22732   7.414   9.922   0.736 -0.0277  0.7315  0.6574
 5082SOL    HW122733   7.407   9.903   0.638  1.5392  1.9998  0.2656
 5082SOL    HW222734   7.368  10.008   0.757 -1.2198 -0.0339  1.2227
 5083SOL     OW22735   0.159   8.102   1.748  0.7727 -0.4261 -0.0608
 5083SOL    HW122736   0.219   8.174   1.713  0.0526  0.7450  1.0334
 5083SOL    HW222737   0.175   8.090   1.846  0.0970 -0.9702 -0.0104
 5084SOL     OW22738   1.343   0.672   2.816 -0.5948  0.3221 -0.6502
 5084SOL    HW122739   1.400   0.605   2.769  1.9883  2.0547 -0.0720
 5084SOL    HW222740   1.359   0.763   2.778 -0.5759  1.3257  1.6672
 5085SOL     OW22741   1.722   6.980   2.863  0.3168  0.2736 -0.0391
 5085SOL    HW122742   1.695   7.045   2.934  0.4435  1.0322 -0.6800
 5085SOL    HW222743   1.820   6.959   2.873  0.8140  1.9032 -1.1705
 5086SOL     OW22744   4.021   7.405   1.965  0.1661  0.0238  0.6119
 5086SOL    HW122745   4.081   7.325   1.968 -0.0692 -0.2337 -0.8557
 5086SOL    HW222746   4.024   7.445   1.873  1.5279  2.6930  1.7610
 5088SOL     OW22747   7.621   2.842   0.855  0.1793  0.2214 -0.1776
 5088SOL    HW122748   7.553   2.798   0.797 -0.9820 -0.2914  1.5298
 5088SOL    HW222749   7.679   2.773   0.898  1.9200  0.6615 -1.7455
 5089SOL     OW22750   8.728   1.561   0.444 -0.4587  0.1961  0.4268
 5089SOL    HW122751   8.648   1.563   0.383 -0.1360 -1.1109 -0.0612
 5089SOL    HW222752   8.810   1.538   0.391 -0.4178 -2.4653  1.5781
 5090SOL     OW22753   8.404   5.840   1.100 -0.3088  0.2813  0.1251
 5090SOL    HW122754   8.372   5.783   1.176 -1.8058 -0.0435 -0.7338
 5090SOL    HW222755   8.482   5.894   1.131 -0.9424  0.2198  1.9293
 5091SOL     OW22756   3.019   1.340   1.518 -0.2278 -0.0980 -0.0084
 5091SOL    HW122757   3.023   1.248   1.480  0.0477 -0.3952  0.7190
 5091SOL    HW222758   2.990   1.405   1.447  0.1260 -0.6573 -0.6729
 5092SOL     OW22759   1.200   2.909   2.148 -0.8074 -0.0746 -0.6136
 5092SOL    HW122760   1.289   2.894   2.105 -0.8725  0.9812 -1.1111
 5092SOL    HW222761   1.212   2.954   2.236 -0.7805 -0.8637 -0.2111
 5093SOL     OW22762   4.578   9.695   2.300 -0.8164  0.0752 -0.0827
 5093SOL    HW122763   4.671   9.706   2.333 -0.9979  0.7570  0.2032
 5093SOL    HW222764   4.580   9.671   2.202 -0.2982 -1.6367  0.3363
 5095SOL     OW22765   0.447   0.056   2.027 -0.0447  0.1812 -0.0163
 5095SOL    HW122766   0.409  -0.033   2.052  0.1537 -0.3946 -1.7070
 5095SOL    HW222767   0.404   0.128   2.083  0.8269 -1.1044  2.3502
 5096SOL     OW22768   1.588   0.328   1.618  0.0151 -0.4514  0.6002
 5096SOL    HW122769   1.563   0.374   1.704  0.1532 -0.3633  0.5935
 5096SOL    HW222770   1.547   0.377   1.541  1.0791  0.3113  0.5133
 5097SOL     OW22771   4.519   9.134   2.043  0.4054  0.4739  0.5875
 5097SOL    HW122772   4.480   9.091   1.961  1.3821 -0.5538  0.6415
 5097SOL    HW222773   4.522   9.233   2.030 -2.9601  0.6731  0.9187
 5098SOL     OW22774   9.328   3.995   2.712 -0.3989 -0.2062 -0.4291
 5098SOL    HW122775   9.276   4.052   2.648  1.6440  0.2116 -1.7406
 5098SOL    HW222776   9.356   3.911   2.666 -3.1480 -2.2154  1.4107
 5099SOL     OW22777   1.011   5.012   2.156  0.1230 -0.0030 -1.1170
 5099SOL    HW122778   0.971   4.973   2.073  0.7391 -2.5199 -0.2716
 5099SOL    HW222779   0.948   4.999   2.233  0.8953 -0.5142 -0.5606
 5100SOL     OW22780   1.420   7.250   3.528  0.1143  0.2148  0.0381
 5100SOL    HW122781   1.491   7.253   3.599  0.6305 -2.5271 -0.3005
 5100SOL    HW222782   1.330   7.239   3.571  0.4146 -1.3127  0.2920
 5101SOL     OW22783   4.094   0.781   2.233 -0.4803  0.6031 -0.1725
 5101SOL    HW122784   4.153   0.762   2.311 -0.5231 -0.6377 -0.4389
 5101SOL    HW222785   4.005   0.739   2.246  0.2189 -1.5042 -1.8524
 5102SOL     OW22786   2.339   9.966   0.249  0.2211  0.4167  0.7466
 5102SOL    HW122787   2.426   9.946   0.205  0.3131  2.5297 -0.1377
 5102SOL    HW222788   2.337   9.927   0.341  1.0023 -1.9804 -0.2169
 5104SOL     OW22789   3.548   2.305   2.404  0.2283 -0.1541  0.0077
 5104SOL    HW122790   3.572   2.211   2.379  0.3902  0.0338 -0.5706
 5104SOL    HW222791   3.610   2.368   2.356 -0.3939  0.2725 -0.2384
 5105SOL     OW22792   0.521   0.180   2.591  0.0128 -0.4158 -0.3779
 5105SOL    HW122793   0.463   0.261   2.598  0.7461  0.1355 -0.6102
 5105SOL    HW222794   0.559   0.174   2.498 -0.3887 -1.2722 -0.4973
 5106SOL     OW22795   7.846   9.720   1.521 -0.3901  0.0713  0.0274
 5106SOL    HW122796   7.903   9.659   1.576 -0.5681 -0.8349 -0.7718
 5106SOL    HW222797   7.871   9.815   1.539  1.4364 -0.3197 -0.3895
 5107SOL     OW22798   9.432   2.911   2.853 -0.0280  0.2253 -0.3196
 5107SOL    HW122799   9.417   3.004   2.886 -1.1218  0.7076 -2.1106
 5107SOL    HW222800   9.522   2.904   2.811  0.2931  0.3001  0.3412
 5109SOL     OW22801   3.268   0.766   0.631 -0.2854  0.3636  0.1798
 5109SOL    HW122802   3.363   0.743   0.655 -0.9301 -0.5167  2.0192
 5109SOL    HW222803   3.263   0.791   0.534  1.8153  0.3928  0.0493
 5110SOL     OW22804   9.009   6.567   0.096  0.1695 -0.2380  0.2478
 5110SOL    HW122805   9.038   6.590   0.189  2.1402  2.6346 -1.0167
 5110SOL    HW222806   9.083   6.585   0.032 -1.7174 -0.5744 -2.1201
 5111SOL     OW22807   6.335   0.433   1.780 -0.1047 -0.2574 -0.2992
 5111SOL    HW122808   6.392   0.445   1.861  0.2511 -0.3904 -0.5245
 5111SOL    HW222809   6.308   0.522   1.744  0.3845 -0.1771 -0.4806
 5112SOL     OW22810   8.660   2.892   3.163  0.1053 -0.3015  0.2965
 5112SOL    HW122811   8.620   2.880   3.072 -0.1185 -0.0713  0.3666
 5112SOL    HW222812   8.704   2.982   3.168 -1.2032  0.3098  0.9231
 5113SOL     OW22813   8.036   1.129   0.910  0.4027  0.0200 -0.2783
 5113SOL    HW122814   7.962   1.074   0.872  0.4463 -0.7994  0.7882
 5113SOL    HW222815   7.999   1.216   0.943 -0.2652 -0.7643  1.0960
 5114SOL     OW22816   2.578   3.146   0.725 -0.0390 -0.1224  1.0912
 5114SOL    HW122817   2.623   3.122   0.639  0.1974  0.7188  0.9817
 5114SOL    HW222818   2.608   3.084   0.797 -0.3966 -0.9673  0.5257
 5115SOL     OW22819   6.199   9.257   2.306 -0.4941  0.2370 -0.4628
 5115SOL    HW122820   6.225   9.253   2.402  1.9027  0.1689 -1.0730
 5115SOL    HW222821   6.122   9.196   2.289 -0.7884  0.0774  1.3553
 5116SOL     OW22822   3.352   3.513   3.097  0.7416  0.0571  0.0968
 5116SOL    HW122823   3.351   3.584   3.027  1.1938 -0.0628 -0.0350
 5116SOL    HW222824   3.282   3.444   3.078  1.2463 -0.2770 -0.5467
 5117SOL     OW22825   1.290   4.585   1.499  0.0885 -0.2758 -0.0640
 5117SOL    HW122826   1.273   4.665   1.443  0.5072 -0.1974 -0.0826
 5117SOL    HW222827   1.353   4.524   1.452 -0.3063 -0.6630 -0.0926
 5118SOL     OW22828   9.284   3.120   0.113  0.5394 -0.5998 -0.4588
 5118SOL    HW122829   9.262   3.217   0.119 -0.0102 -0.8549  2.3926
 5118SOL    HW222830   9.203   3.069   0.085  0.2552 -0.4565  0.0952
 5120SOL     OW22831   2.875   9.852   3.299 -0.1360 -0.6030 -0.9331
 5120SOL    HW122832   2.941   9.867   3.373 -0.0179 -1.0079 -0.9520
 5120SOL    HW222833   2.908   9.777   3.241 -1.6038 -2.2108  0.2597
 5121SOL     OW22834   7.935   8.646   0.803 -0.0514 -0.2003  0.5462
 5121SOL    HW122835   7.902   8.561   0.844  0.8184 -0.1615  1.3424
 5121SOL    HW222836   8.034   8.640   0.789  0.0178  0.6960  0.6327
 5122SOL     OW22837   1.317   9.253   3.280 -0.3717 -0.2523  0.6585
 5122SOL    HW122838   1.276   9.334   3.322 -0.9095 -0.4774  0.5769
 5122SOL    HW222839   1.288   9.247   3.184  1.1107  0.4410  0.1516
 5123SOL     OW22840   7.964   5.214   3.358  0.4881  0.0475 -1.0693
 5123SOL    HW122841   7.925   5.235   3.269  0.3838  1.6655 -0.6478
 5123SOL    HW222842   8.024   5.288   3.387 -1.0109  0.4890  1.0777
 5125SOL     OW22843   4.198   8.012   0.660 -0.2469 -0.0203  0.5333
 5125SOL    HW122844   4.205   7.951   0.739 -0.2559  0.8329  1.1975
 5125SOL    HW222845   4.254   8.093   0.676 -0.5995  0.3577 -0.1486
 5126SOL     OW22846   9.019   7.876   2.006 -0.1769 -0.1844  0.0914
 5126SOL    HW122847   8.934   7.876   2.059  0.1167 -0.3499  0.5707
 5126SOL    HW222848   9.088   7.930   2.054 -0.6566  1.7404 -1.3620
 5127SOL     OW22849   4.895   8.729   2.525 -0.0411  0.1747 -0.0032
 5127SOL    HW122850   4.986   8.724   2.564 -0.2523 -2.3102  0.2818
 5127SOL    HW222851   4.896   8.692   2.432 -0.7579  0.0715  0.0212
 5128SOL     OW22852   0.853   9.300   1.004  0.3872 -0.2458  0.0958
 5128SOL    HW122853   0.918   9.377   1.003 -0.9471  0.8996 -1.6862
 5128SOL    HW222854   0.800   9.303   1.088  0.8476  0.3479  0.3733
 5130SOL     OW22855   7.688   1.578   2.288  0.3065 -0.0724 -0.6418
 5130SOL    HW122856   7.626   1.611   2.217 -0.6787 -0.2852  0.1158
 5130SOL    HW222857   7.763   1.643   2.300 -0.9178  1.2586 -0.0740
 5131SOL     OW22858   2.383   5.061   2.910  0.1443 -0.2425 -0.2793
 5131SOL    HW122859   2.325   4.985   2.942 -0.1367 -0.6908 -1.8028
 5131SOL    HW222860   2.360   5.144   2.960  1.8285 -1.5825  2.8398
 5132SOL     OW22861   7.800   7.766   1.977 -0.2178  0.3314  0.5034
 5132SOL    HW122862   7.863   7.827   2.025  0.8060  0.9942 -1.6171
 5132SOL    HW222863   7.706   7.783   2.008  0.5442 -0.1858  3.1870
 5133SOL     OW22864   3.362   4.496   1.929 -0.0527 -0.0769 -0.0979
 5133SOL    HW122865   3.318   4.586   1.931  0.1241  0.1084 -3.0618
 5133SOL    HW222866   3.453   4.502   1.969 -0.5419  0.7544  0.9244
 5134SOL     OW22867   8.776   3.432   3.307  0.0318  0.1891  0.5816
 5134SOL    HW122868   8.687   3.457   3.344  0.1440  1.0460  0.2860
 5134SOL    HW222869   8.847   3.486   3.353  0.4960 -1.2212  1.5373
 5135SOL     OW22870   0.289   8.842   1.983  0.2590 -0.0131 -0.1747
 5135SOL    HW122871   0.295   8.751   1.941  3.3340 -0.4047  0.9973
 5135SOL    HW222872   0.266   8.909   1.913 -1.0140 -1.5151 -1.2464
 5136SOL     OW22873   0.529   3.209   0.363  0.5275  0.1207 -0.0463
 5136SOL    HW122874   0.461   3.227   0.292  0.1501  1.8730  0.7300
 5136SOL    HW222875   0.494   3.241   0.451  2.2265  0.7707  0.4084
 5137SOL     OW22876   4.124   4.119   1.799  0.5489 -0.1158 -0.5533
 5137SOL    HW122877   4.139   4.021   1.780 -0.1615 -0.4362  0.4932
 5137SOL    HW222878   4.212   4.164   1.812  0.7809 -1.3657  2.5867
 5139SOL     OW22879   0.012   6.855   1.464  0.0869 -0.3466  0.3323
 5139SOL    HW122880   0.082   6.805   1.515 -0.2044 -0.1719  0.8989
 5139SOL    HW222881   0.033   6.953   1.464 -0.1074 -0.3041  0.4249
 5140SOL     OW22882   0.476   1.256   3.335 -0.0218  0.3839 -0.2105
 5140SOL    HW122883   0.567   1.234   3.300 -1.1527 -0.6742 -2.5615
 5140SOL    HW222884   0.421   1.173   3.342 -1.6167  1.3269 -1.1912
 5141SOL     OW22885   1.838   4.374   3.346  0.4403  0.1155  0.1700
 5141SOL    HW122886   1.828   4.454   3.405  1.5683 -0.3123  0.9648
 5141SOL    HW222887   1.913   4.389   3.281 -0.9720  0.6955 -1.3605
 5142SOL     OW22888   2.538   2.562   2.421  0.0845 -0.1044 -0.6128
 5142SOL    HW122889   2.517   2.639   2.481  1.3988 -0.8415  0.8292
 5142SOL    HW222890   2.465   2.494   2.428  0.4845 -0.4232  0.5742
 5143SOL     OW22891   1.355   8.767   3.301  0.2156  0.6471 -0.6589
 5143SOL    HW122892   1.293   8.734   3.372  0.1570  2.4528  0.1594
 5143SOL    HW222893   1.302   8.787   3.218  0.2579 -1.2881 -1.1739
 5145SOL     OW22894   2.142   9.952   1.531 -0.5067  0.1720  0.3366
 5145SOL    HW122895   2.079  10.006   1.586 -0.0682  0.4871  0.5379
 5145SOL    HW222896   2.182  10.009   1.459  1.0760  0.5403  1.4586
 5146SOL     OW22897   3.562   1.583   0.933  0.4357 -0.0139  0.0260
 5146SOL    HW122898   3.529   1.668   0.893  0.7276 -0.3881 -1.0227
 5146SOL    HW222899   3.484   1.523   0.953  0.2766  0.2324  0.1430
 5147SOL     OW22900   2.025   8.815   2.516 -0.2947 -0.5728 -0.7412
 5147SOL    HW122901   2.082   8.747   2.563  1.0805 -0.0637 -1.6373
 5147SOL    HW222902   1.959   8.854   2.581  2.1102  0.7203  1.0362
 5148SOL     OW22903   8.296   2.392   2.433 -0.3968  0.5236  0.1297
 5148SOL    HW122904   8.321   2.423   2.524  0.5972 -0.0427  0.0553
 5148SOL    HW222905   8.200   2.364   2.432 -0.1872 -0.2275  1.1948
 5149SOL     OW22906   7.858   2.013   3.310 -0.2569  0.5448  0.0518
 5149SOL    HW122907   7.863   2.106   3.276  0.1757  0.0454 -1.2642
 5149SOL    HW222908   7.943   1.965   3.291 -1.5944 -1.0738 -2.1166
 5150SOL     OW22909   9.567   1.543   0.523 -0.2872 -0.1610 -0.3974
 5150SOL    HW122910   9.614   1.621   0.482  1.8726 -1.3130 -0.2036
 5150SOL    HW222911   9.623   1.504   0.596 -2.8143  0.1063  1.7875
 5151SOL     OW22912   7.961   0.505   3.082  0.4776  0.1674 -0.6333
 5151SOL    HW122913   7.947   0.534   2.987  2.3946 -0.6578 -1.1898
 5151SOL    HW222914   7.997   0.581   3.135  0.6901  0.2467 -0.8895
 5152SOL     OW22915   1.741   5.801   2.417  0.1738 -0.4399  0.1013
 5152SOL    HW122916   1.805   5.765   2.485 -1.0099 -1.1665  0.8441
 5152SOL    HW222917   1.678   5.729   2.390 -0.2984  0.2638 -0.6726
 5153SOL     OW22918   8.211   1.460   2.625  0.1064 -0.3307 -0.1272
 5153SOL    HW122919   8.143   1.438   2.695  0.8004  0.0003  0.6544
 5153SOL    HW222920   8.172   1.441   2.535 -1.1760  0.2564  0.2852
 5154SOL     OW22921   3.928   3.247   1.881  0.3313  0.9823 -0.0115
 5154SOL    HW122922   3.892   3.286   1.966 -1.4999 -0.4288 -0.1162
 5154SOL    HW222923   3.857   3.249   1.811  1.3573  0.7215 -1.0725
 5155SOL     OW22924   2.401   0.853   1.693 -0.2010 -0.4170 -0.0085
 5155SOL    HW122925   2.391   0.911   1.612  1.0618  1.0114  0.8258
 5155SOL    HW222926   2.395   0.757   1.666  1.0245  0.0138 -1.9487
 5156SOL     OW22927   9.902   1.761   0.290  0.3574 -0.3059  0.0697
 5156SOL    HW122928   9.832   1.745   0.360  2.0732 -3.1872  1.2166
 5156SOL    HW222929   9.938   1.854   0.299 -2.2076  0.6898  0.4514
 5157SOL     OW22930   9.186   4.406   1.911 -0.5655 -0.2416  0.1221
 5157SOL    HW122931   9.160   4.310   1.921 -0.7825 -0.1354  0.6138
 5157SOL    HW222932   9.255   4.429   1.980  0.4159 -0.3683 -0.8088
 5158SOL     OW22933   3.566   5.426   1.988 -0.2772 -0.2233  0.3589
 5158SOL    HW122934   3.664   5.418   2.008 -0.0177 -0.1987 -0.8327
 5158SOL    HW222935   3.546   5.379   1.902 -1.8825 -2.9205  2.1559
 5160SOL     OW22936   3.175   5.172   3.395 -0.3512  0.6179  0.2475
 5160SOL    HW122937   3.242   5.246   3.388  0.6994 -0.4294 -1.0785
 5160SOL    HW222938   3.171   5.140   3.490  0.3468  1.3071  0.5145
 5161SOL     OW22939   1.346   9.395   1.029  0.0284  0.5654  0.5284
 5161SOL    HW122940   1.306   9.365   0.943  2.5294  1.5197 -1.0247
 5161SOL    HW222941   1.325   9.329   1.101 -2.5320  0.0173 -0.6674
 5162SOL     OW22942   2.878   0.753   1.097 -0.1839 -0.4345  0.1812
 5162SOL    HW122943   2.811   0.802   1.153 -0.4863  1.3245 -1.6602
 5162SOL    HW222944   2.836   0.673   1.056 -1.0347  0.3922 -0.5741
 5163SOL     OW22945   1.633   2.446   2.983  0.0035 -0.6842 -0.0279
 5163SOL    HW122946   1.614   2.447   2.884 -0.0390 -0.4382 -0.0176
 5163SOL    HW222947   1.558   2.492   3.031  0.3280 -0.2582  0.0680
 5164SOL     OW22948   2.557   9.462   2.699  0.2191 -0.3027 -0.5023
 5164SOL    HW122949   2.479   9.492   2.753  0.0113 -1.5044 -0.1062
 5164SOL    HW222950   2.576   9.528   2.626 -0.1010  0.8416  0.4437
 5166SOL     OW22951   4.966   2.546   1.494 -0.1736 -0.3481  0.2372
 5166SOL    HW122952   4.928   2.511   1.579 -0.5206 -0.1091  0.1852
 5166SOL    HW222953   4.991   2.642   1.505 -1.8260  0.1773 -0.4185
 5167SOL     OW22954   0.401   7.338   2.760  0.2985  0.4868  0.0986
 5167SOL    HW122955   0.498   7.360   2.768  0.3424  0.7287 -0.9497
 5167SOL    HW222956   0.353   7.415   2.717 -0.3123  0.2793  0.4099
 5168SOL     OW22957   1.799   9.785   0.421  0.1181  0.1837  0.4165
 5168SOL    HW122958   1.717   9.789   0.365  0.2412  0.9793  0.2902
 5168SOL    HW222959   1.791   9.710   0.486 -0.2664 -0.3817 -0.2820
 5169SOL     OW22960   2.332   6.658   3.214  0.0080 -0.3413  0.0167
 5169SOL    HW122961   2.407   6.606   3.255  0.5500  0.9802  0.7133
 5169SOL    HW222962   2.333   6.647   3.115 -1.0331 -3.2174  0.2730
 5170SOL     OW22963   0.360   7.781   0.874 -0.2863  0.0804  0.0403
 5170SOL    HW122964   0.380   7.878   0.886 -0.1298  0.1592 -0.8345
 5170SOL    HW222965   0.309   7.747   0.953 -2.1344  1.3413 -0.6008
 5171SOL     OW22966   2.404   2.080   1.264  0.3360  0.4865  0.8649
 5171SOL    HW122967   2.443   2.116   1.179 -1.1917  0.0518 -0.0269
 5171SOL    HW222968   2.327   2.138   1.293  1.0124  0.7945  2.1178
 5172SOL     OW22969   8.573   3.973   3.445  0.5769  0.1810 -0.1314
 5172SOL    HW122970   8.526   3.892   3.480  0.6537  0.5882  0.9526
 5172SOL    HW222971   8.523   4.055   3.475  0.2997  0.5286 -1.5111
 5174SOL     OW22972   8.340   5.396   2.153 -0.4157 -0.3212  0.2472
 5174SOL    HW122973   8.339   5.482   2.103  0.6725  0.0806  0.8815
 5174SOL    HW222974   8.247   5.363   2.165 -0.8464  0.8032  0.0592
 5175SOL     OW22975   9.253   1.929   2.216  0.1112 -0.4249 -0.6733
 5175SOL    HW122976   9.280   1.950   2.123 -0.1017  0.7575 -0.4780
 5175SOL    HW222977   9.156   1.903   2.217 -0.3999  1.4006 -0.5463
 5176SOL     OW22978   1.052   7.686   1.675  0.0035 -0.1096 -0.1455
 5176SOL    HW122979   1.003   7.601   1.653 -2.1212  0.8355  0.9071
 5176SOL    HW222980   0.992   7.764   1.661  2.0069  1.2734 -1.2643
 5177SOL     OW22981   5.045   3.247   1.604 -0.0768 -0.1479 -0.1456
 5177SOL    HW122982   5.028   3.336   1.561 -0.1831  0.4044  1.0182
 5177SOL    HW222983   4.965   3.221   1.660  1.0523  0.3348  1.7258
 5178SOL     OW22984   0.199   1.058   2.375 -0.1778 -0.1993 -0.1775
 5178SOL    HW122985   0.158   1.126   2.314  1.7525  1.1867  0.0056
 5178SOL    HW222986   0.238   1.105   2.454 -1.1749 -1.8140  1.3109
 5179SOL     OW22987   3.829   9.083   0.127 -0.2084  0.4368 -0.0303
 5179SOL    HW122988   3.824   9.129   0.039 -1.6937  3.1989  1.4396
 5179SOL    HW222989   3.919   9.099   0.169 -0.0774  0.4702 -0.3274
 5180SOL     OW22990   8.265   7.019   1.367  0.1063  0.1961  0.5136
 5180SOL    HW122991   8.193   6.951   1.378 -1.0461  1.3382  0.1494
 5180SOL    HW222992   8.224   7.111   1.360  1.4580  0.6921 -1.4433
 5181SOL     OW22993   7.340   9.099   3.632 -0.1965 -0.3529  0.1982
 5181SOL    HW122994   7.306   9.105   3.726 -2.3914 -1.9952 -0.4485
 5181SOL    HW222995   7.382   9.009   3.617 -0.2481 -0.2593 -0.5274
 5182SOL     OW22996   9.179   6.607   3.399  0.3204  0.0409 -0.4699
 5182SOL    HW122997   9.189   6.607   3.499 -1.0305 -0.4821 -0.3306
 5182SOL    HW222998   9.123   6.529   3.371  0.1996  0.5257 -1.5938
 5183SOL     OW22999   5.696   7.903   2.633 -0.4220  0.1785  0.2361
 5183SOL    HW123000   5.714   7.832   2.701  0.4177  0.7681  0.6436
 5183SOL    HW223001   5.618   7.958   2.662 -1.2590 -0.7563 -0.2258
 5184SOL     OW23002   0.723   9.643   2.300 -0.0014 -0.0453  0.1518
 5184SOL    HW123003   0.670   9.722   2.332 -0.1057  0.2616 -0.7708
 5184SOL    HW223004   0.661   9.574   2.264  0.2055  0.2047 -0.6899
 5185SOL     OW23005   1.219   0.238   0.323 -0.1062 -0.4157 -0.4631
 5185SOL    HW123006   1.205   0.141   0.346  0.7620 -0.6491 -0.9006
 5185SOL    HW223007   1.133   0.277   0.290 -0.6724 -0.8158  0.5139
 5186SOL     OW23008   6.774   0.061   1.451  0.0995 -0.3582 -0.5026
 5186SOL    HW123009   6.826   0.104   1.378 -1.0514  1.9034 -0.0446
 5186SOL    HW223010   6.836   0.022   1.519  1.1896  0.8615 -0.7858
 5188SOL     OW23011   9.843   0.420   2.408 -0.0051  0.1549 -0.3822
 5188SOL    HW123012   9.748   0.447   2.424 -0.7935 -2.0539 -1.0438
 5188SOL    HW223013   9.883   0.477   2.336 -1.2953  0.1853 -1.0844
 5189SOL     OW23014   4.136   1.777   3.457 -0.5093  0.1887  0.2969
 5189SOL    HW123015   4.125   1.849   3.389 -2.0936 -0.8015 -0.5468
 5189SOL    HW223016   4.056   1.717   3.454  0.6105 -1.3845  1.2225
 5190SOL     OW23017   0.173   0.911   1.590 -0.2631  0.4649  0.1639
 5190SOL    HW123018   0.270   0.887   1.589 -0.4483 -0.3244  0.7337
 5190SOL    HW223019   0.138   0.913   1.496  0.1300  0.0190  0.0070
 5191SOL     OW23020   3.974   5.193   2.138 -0.0481  0.2417  0.0307
 5191SOL    HW123021   3.932   5.262   2.079  5.5705  1.3098 -3.0540
 5191SOL    HW223022   4.016   5.237   2.217  0.6712 -0.0172 -0.1990
 5192SOL     OW23023   5.869   9.253   3.765 -0.7141 -0.3833  0.0851
 5192SOL    HW123024   5.874   9.202   3.679  0.3444 -0.7677  0.3742
 5192SOL    HW223025   5.875   9.190   3.842  1.5224  0.2433  0.4523
 5193SOL     OW23026   8.962   4.649   1.090 -0.1936  0.2033  0.3786
 5193SOL    HW123027   8.972   4.635   1.188  0.1638 -0.4889  0.2481
 5193SOL    HW223028   8.901   4.580   1.052 -0.5370  0.6263  0.1526
 5195SOL     OW23029   8.435   4.993   0.503  0.1186  0.5068 -0.5896
 5195SOL    HW123030   8.363   4.938   0.547 -0.1391 -0.4613 -2.1661
 5195SOL    HW223031   8.524   4.956   0.528 -0.0854 -1.6662 -2.8604
 5196SOL     OW23032   1.568   4.426   1.693  0.3908 -0.2588 -0.2124
 5196SOL    HW123033   1.624   4.489   1.748  0.9348 -0.5090 -0.4827
 5196SOL    HW223034   1.604   4.421   1.600  1.3087 -2.2042  0.2354
 5198SOL     OW23035   4.778   5.118   1.637  0.1238  0.1435  0.4802
 5198SOL    HW123036   4.722   5.156   1.711 -0.4530 -0.5899  0.4191
 5198SOL    HW223037   4.864   5.082   1.674  1.1714  2.4589  0.4125
 5200SOL     OW23038   2.744   9.972   0.417  0.5057  0.2385  0.3563
 5200SOL    HW123039   2.669  10.034   0.439 -0.0187 -0.3988  0.3862
 5200SOL    HW223040   2.824   9.997   0.472  0.3346  0.9501  0.2905
 5201SOL     OW23041   3.198   0.102   0.901 -0.0866  0.2858 -0.4516
 5201SOL    HW123042   3.117   0.154   0.875 -0.7516 -2.0558 -3.5262
 5201SOL    HW223043   3.239   0.063   0.818  0.6040 -3.6246  1.6075
 5204SOL     OW23044   2.126   8.801   3.099  0.1230 -0.1215 -0.2033
 5204SOL    HW123045   2.049   8.764   3.047  0.7638  0.2689 -1.4608
 5204SOL    HW223046   2.106   8.895   3.127  0.9730  0.7574 -2.4050
 5206SOL     OW23047   6.537   8.954   2.118 -0.3900 -0.0066 -0.7083
 5206SOL    HW123048   6.621   8.950   2.172 -0.5380  0.2553 -0.4584
 5206SOL    HW223049   6.488   8.868   2.126  0.6292 -0.7330 -2.1017
 5207SOL     OW23050   1.826   0.671   0.807  0.1445  0.0039  0.0944
 5207SOL    HW123051   1.783   0.672   0.717 -0.1812  1.6473  0.2635
 5207SOL    HW223052   1.921   0.639   0.798  0.1873  0.3833 -0.8486
 5208SOL     OW23053   3.110   2.704   0.334 -0.2631  0.2641 -0.1986
 5208SOL    HW123054   3.050   2.689   0.413 -2.1314  0.4923 -1.5452
 5208SOL    HW223055   3.072   2.660   0.254  1.9404 -0.4832 -0.8766
 5209SOL     OW23056   7.684   1.522   0.925  0.1350  0.0537 -0.1867
 5209SOL    HW123057   7.715   1.578   1.002 -1.3380  0.0908  0.3870
 5209SOL    HW223058   7.599   1.475   0.950  0.7824 -1.6002 -1.0393
 5210SOL     OW23059   5.890   7.806   3.323  0.0651 -0.1275 -0.3042
 5210SOL    HW123060   5.891   7.821   3.224  0.1585 -0.8256 -0.4129
 5210SOL    HW223061   5.931   7.885   3.369 -0.3811  0.3901 -0.7959
 5211SOL     OW23062   3.199   2.310   2.066 -0.5000  0.3328 -0.1259
 5211SOL    HW123063   3.241   2.399   2.050 -0.7434  0.6426  0.9320
 5211SOL    HW223064   3.114   2.303   2.012 -0.4215  0.6907 -0.2970
 5212SOL     OW23065   1.718   2.808   1.489  0.2098 -0.0854 -0.1179
 5212SOL    HW123066   1.766   2.722   1.476 -0.2139 -0.5771  1.4976
 5212SOL    HW223067   1.635   2.809   1.433  0.9945 -0.0881 -1.3011
 5214SOL     OW23068   3.827   4.470   0.419 -0.6434 -0.0770  0.4004
 5214SOL    HW123069   3.873   4.501   0.336 -0.9649 -1.6943 -0.4053
 5214SOL    HW223070   3.875   4.390   0.455  0.0554  1.1770  2.3115
 5215SOL     OW23071   4.385   7.412   1.878  0.8726 -0.2137  0.4415
 5215SOL    HW123072   4.336   7.325   1.882  1.1306 -0.3225  1.3194
 5215SOL    HW223073   4.377   7.460   1.966  0.1634  0.9700 -0.2453
 5217SOL     OW23074   5.580   8.044   3.711 -0.3576 -0.0370  0.6766
 5217SOL    HW123075   5.535   8.084   3.632  0.4898  0.8212  0.6181
 5217SOL    HW223076   5.530   8.066   3.794 -0.2257  0.6370  0.5766
 5218SOL     OW23077   0.429   0.802   0.644  0.8673 -0.3056 -0.3201
 5218SOL    HW123078   0.419   0.894   0.681 -0.5669 -0.9062  0.8104
 5218SOL    HW223079   0.461   0.808   0.549 -1.2075  1.4307 -0.9507
 5219SOL     OW23080   9.765   1.752   1.747 -0.0443  0.1623 -0.2538
 5219SOL    HW123081   9.790   1.817   1.675  1.4138 -0.3849 -0.2617
 5219SOL    HW223082   9.788   1.789   1.836 -1.2889  0.5844 -0.1021
 5220SOL     OW23083   8.047   8.132   1.278  0.0590  0.2664 -0.5327
 5220SOL    HW123084   8.051   8.142   1.179 -0.6709  1.6476 -0.4237
 5220SOL    HW223085   8.116   8.065   1.307 -0.9983 -1.5927 -2.1486
 5221SOL     OW23086   1.835   7.611   2.862 -0.3061 -0.6667  0.3221
 5221SOL    HW123087   1.773   7.670   2.913 -0.6557 -1.9204  1.3838
 5221SOL    HW223088   1.785   7.531   2.829  0.0010 -0.0712 -1.6933
 5222SOL     OW23089   4.554   7.695   0.637  0.4371 -0.2336  0.3316
 5222SOL    HW123090   4.617   7.631   0.594 -0.9340 -0.6806 -1.0802
 5222SOL    HW223091   4.484   7.723   0.570 -0.8199  0.2801  1.8314
 5223SOL     OW23092   4.537   6.539   2.858 -0.2564 -0.0782  0.2878
 5223SOL    HW123093   4.503   6.446   2.850 -1.3610  0.3636 -0.1773
 5223SOL    HW223094   4.524   6.588   2.772  2.0529 -0.0582 -0.0818
 5224SOL     OW23095   8.211   9.704   1.845 -0.0003  0.4176 -0.1453
 5224SOL    HW123096   8.284   9.678   1.781 -0.0122 -1.4815  0.5822
 5224SOL    HW223097   8.250   9.728   1.933 -0.2550 -0.7859  0.3034
 5225SOL     OW23098   9.150   1.044   3.205  0.5839 -0.2563  0.3053
 5225SOL    HW123099   9.060   1.082   3.226  0.9586 -0.1870  1.8055
 5225SOL    HW223100   9.220   1.096   3.253  1.3919 -0.6237 -0.4689
 5226SOL     OW23101   2.049   8.286   1.217  0.5962  0.1041  0.3398
 5226SOL    HW123102   2.055   8.355   1.288 -0.6557 -0.4894  1.0363
 5226SOL    HW223103   2.000   8.206   1.252 -1.7714  0.5733 -1.7543
 5228SOL     OW23104   8.185   0.355   1.636 -0.4461  0.0117 -0.1179
 5228SOL    HW123105   8.259   0.301   1.596 -1.3805 -1.5686  0.2202
 5228SOL    HW223106   8.172   0.439   1.584  0.0512 -0.8016 -1.5777
 5231SOL     OW23107   1.559   7.189   3.756  0.0926  0.3759  1.0268
 5231SOL    HW123108   1.465   7.195   3.792  0.4633  1.0892  1.9174
 5231SOL    HW223109   1.612   7.127   3.814  0.3843  0.6194  1.0200
 5232SOL     OW23110   4.887   2.847   1.075 -0.6464 -0.1228  0.6942
 5232SOL    HW123111   4.811   2.783   1.087 -1.0422  0.3648  0.8009
 5232SOL    HW223112   4.946   2.814   1.001 -0.4701 -0.9626  1.2010
 5233SOL     OW23113   9.307   2.910   3.650 -0.3082 -0.5392 -0.1081
 5233SOL    HW123114   9.230   2.847   3.657 -0.4047 -0.2177  2.1892
 5233SOL    HW223115   9.279   3.001   3.679  1.3873 -0.8710  2.8584
 5234SOL     OW23116   2.192   4.637   1.212 -0.6472 -0.0891 -0.1987
 5234SOL    HW123117   2.263   4.641   1.143 -1.0387 -1.9177 -0.7139
 5234SOL    HW223118   2.121   4.704   1.190 -1.0007 -0.9784 -1.8421
 5236SOL     OW23119   4.299   7.848   2.413  0.3072 -0.1737  0.1324
 5236SOL    HW123120   4.243   7.820   2.335  3.2685  1.0778 -2.5304
 5236SOL    HW223121   4.316   7.769   2.472 -0.8683 -1.4208 -1.1528
 5239SOL     OW23122   8.453   7.725   1.997  0.1131  0.3666  0.2584
 5239SOL    HW123123   8.438   7.626   1.985  1.7938  0.0134  0.9174
 5239SOL    HW223124   8.531   7.754   1.942  0.2698  1.1177  0.8655
 5240SOL     OW23125   4.270   4.457   0.214  0.1274  0.0984 -0.5127
 5240SOL    HW123126   4.332   4.443   0.291 -2.1736  0.6686  1.5355
 5240SOL    HW223127   4.305   4.530   0.156  1.7070 -0.0517  0.2248
 5242SOL     OW23128   8.218   9.259   0.659  0.1509 -0.5494  0.5669
 5242SOL    HW123129   8.148   9.202   0.701 -0.5779 -1.0641 -1.2880
 5242SOL    HW223130   8.194   9.356   0.672 -0.6191 -0.7179  0.4084
 5245SOL     OW23131   2.596   2.795   0.489 -0.2351 -0.3805 -0.0260
 5245SOL    HW123132   2.606   2.799   0.588 -1.6278 -0.4129  0.1256
 5245SOL    HW223133   2.546   2.712   0.464 -0.1720 -0.2104 -0.7206
 5246SOL     OW23134   1.950   4.759   1.134  0.4563 -0.1819  0.4074
 5246SOL    HW123135   1.936   4.714   1.047  1.5712 -0.6950  0.4880
 5246SOL    HW223136   1.868   4.810   1.159 -0.2588 -0.9355 -0.4044
 5247SOL     OW23137   7.244   8.273   1.438  0.8882 -0.0199 -0.1225
 5247SOL    HW123138   7.220   8.177   1.456  0.3101 -0.0383 -0.9400
 5247SOL    HW223139   7.339   8.289   1.464  1.0095 -0.8321 -0.0346
 5248SOL     OW23140   0.989   6.256   1.824  0.1733 -0.9499 -0.7711
 5248SOL    HW123141   0.913   6.275   1.762 -0.8782 -1.3973  0.3504
 5248SOL    HW223142   0.957   6.196   1.898  0.7230  1.6253  1.6392
 5249SOL     OW23143   4.002   4.152   2.249  0.1680 -0.0227  0.5314
 5249SOL    HW123144   4.094   4.141   2.210  0.9081  0.6497  2.0427
 5249SOL    HW223145   3.987   4.084   2.319 -0.9058 -0.7911 -0.4294
 5250SOL     OW23146   8.753   7.131   1.769  0.0282 -0.4602 -0.0361
 5250SOL    HW123147   8.683   7.100   1.834 -1.0805 -1.1653 -1.5463
 5250SOL    HW223148   8.712   7.141   1.678  1.3155  1.5325 -0.4177
 5251SOL     OW23149   1.313   9.541   3.383 -0.2137  0.1825  0.3425
 5251SOL    HW123150   1.387   9.586   3.432 -0.3257  0.4388  0.2767
 5251SOL    HW223151   1.333   9.540   3.285  0.7729 -1.7576  0.5415
 5252SOL     OW23152   2.793   6.245   3.673  0.4727 -0.1702  0.1409
 5252SOL    HW123153   2.878   6.269   3.719  0.3948  0.2693  0.0565
 5252SOL    HW223154   2.717   6.291   3.719  0.3596  0.0191 -0.2348
 5253SOL     OW23155   8.428   4.291   3.253  0.2380 -0.1919  0.5608
 5253SOL    HW123156   8.390   4.384   3.257 -3.6877 -1.6682 -0.1232
 5253SOL    HW223157   8.404   4.242   3.337  1.5603 -0.9146  0.5358
 5254SOL     OW23158   3.130   0.149   0.126  0.8529 -0.0313  0.4935
 5254SOL    HW123159   3.033   0.169   0.144  0.8853  0.5926 -0.0221
 5254SOL    HW223160   3.155   0.065   0.174  0.2754  0.2506  1.3125
 5256SOL     OW23161   1.291   2.119   0.208  0.3721  0.4424  0.0432
 5256SOL    HW123162   1.204   2.102   0.254 -0.0715  0.5983 -0.7435
 5256SOL    HW223163   1.276   2.135   0.111  1.3728 -0.4170 -0.2634
 5257SOL     OW23164   4.670   2.529   2.725 -0.2232 -0.4458  0.7306
 5257SOL    HW123165   4.721   2.613   2.743  0.1707 -0.5277  0.0256
 5257SOL    HW223166   4.668   2.512   2.626 -0.4135 -1.1923  0.8593
 5258SOL     OW23167   0.375   8.296   1.026 -0.3023  0.4369  0.1177
 5258SOL    HW123168   0.425   8.353   1.091 -1.3812  1.1335  0.3492
 5258SOL    HW223169   0.423   8.297   0.938  0.9191 -0.1500  0.7625
 5259SOL     OW23170   3.945   9.837   2.984  0.0692  0.7776  0.0063
 5259SOL    HW123171   3.930   9.834   2.885  0.9593  0.8666 -0.1289
 5259SOL    HW223172   3.872   9.786   3.030  1.2216 -1.6957 -0.8507
 5260SOL     OW23173   8.661   9.383   2.692  0.4844 -0.3596 -0.4338
 5260SOL    HW123174   8.603   9.457   2.726 -0.4624 -0.1308 -2.4896
 5260SOL    HW223175   8.752   9.391   2.734  0.2115  1.5881 -0.1459
 5261SOL     OW23176   0.742   8.963   1.647  0.0390 -0.2203  0.3382
 5261SOL    HW123177   0.748   8.889   1.580  1.5076  1.0499 -0.9628
 5261SOL    HW223178   0.658   8.952   1.701 -0.4674 -2.0344 -0.7687
 5262SOL     OW23179   0.655   8.269   0.547  0.2052 -0.1645 -0.0662
 5262SOL    HW123180   0.673   8.171   0.536 -1.9678 -0.4942 -0.9716
 5262SOL    HW223181   0.726   8.321   0.501  0.2963 -1.3629 -1.3268
 5263SOL     OW23182   2.558   7.419   2.867  0.6668  0.1232 -0.1452
 5263SOL    HW123183   2.545   7.333   2.818 -1.3438  0.1083  0.3738
 5263SOL    HW223184   2.537   7.496   2.807  0.6540  0.1978 -0.0473
 5264SOL     OW23185   2.083   0.844   0.340  0.2722  1.1278 -0.0937
 5264SOL    HW123186   2.131   0.892   0.266  0.2849  1.3648  0.0691
 5264SOL    HW223187   2.111   0.748   0.341  0.9007  1.3103  0.1336
 5265SOL     OW23188   3.169   2.664   2.132  0.5922  0.0168  0.4731
 5265SOL    HW123189   3.092   2.653   2.195 -0.3518  2.7843 -0.1451
 5265SOL    HW223190   3.162   2.752   2.085  3.7355 -0.0046 -0.1618
 5267SOL     OW23191   1.410   5.608   3.106  0.6204 -0.1346  0.5877
 5267SOL    HW123192   1.421   5.706   3.090  0.7497  0.0793  1.8875
 5267SOL    HW223193   1.312   5.586   3.112  0.5919 -0.0618  0.3699
 5269SOL     OW23194   4.375   7.433   2.350  0.0643  0.2733 -0.1493
 5269SOL    HW123195   4.430   7.368   2.402 -0.4695 -1.5230 -1.7543
 5269SOL    HW223196   4.288   7.390   2.326 -0.4106  1.6911 -1.0163
 5270SOL     OW23197   3.319   3.897   0.876 -0.1847 -0.0172 -0.2190
 5270SOL    HW123198   3.273   3.912   0.789  0.7540  0.3418 -0.6647
 5270SOL    HW223199   3.378   3.816   0.868 -0.0913  0.0218  0.0803
 5271SOL     OW23200   9.997   5.638   2.107  0.6003  0.0283  0.0405
 5271SOL    HW123201   9.926   5.703   2.078  0.6915  0.7300  1.3560
 5271SOL    HW223202   9.987   5.553   2.056 -1.5826 -0.1121  0.6360
 5272SOL     OW23203   9.623   0.856   0.892  0.1767  0.5970 -0.0127
 5272SOL    HW123204   9.581   0.771   0.923  0.3648  0.0758 -1.2039
 5272SOL    HW223205   9.573   0.892   0.814  1.5878  0.2711 -1.0838
 5273SOL     OW23206   9.304   4.701   2.271 -0.3538  0.5396 -0.2550
 5273SOL    HW123207   9.216   4.682   2.314 -0.5805 -1.0792 -1.3454
 5273SOL    HW223208   9.289   4.753   2.186 -0.1573  1.2383  0.1374
 5274SOL     OW23209   5.001   3.380   0.367 -0.1141 -0.3316 -0.2113
 5274SOL    HW123210   4.936   3.418   0.433  1.7233  0.4711  1.2033
 5274SOL    HW223211   5.084   3.352   0.416  0.7790 -0.9204 -2.0398
 5275SOL     OW23212   2.303   4.727   2.432  0.1499  0.0286 -0.2544
 5275SOL    HW123213   2.314   4.732   2.333  0.3563  1.3979 -0.1750
 5275SOL    HW223214   2.224   4.670   2.455 -0.6250  0.7107 -1.2424
 5277SOL     OW23215   5.500   9.218   1.964  0.2243 -0.2193  0.5973
 5277SOL    HW123216   5.420   9.276   1.979  0.1353 -0.2181  0.1156
 5277SOL    HW223217   5.571   9.242   2.032  0.7406  1.4635 -0.4945
 5278SOL     OW23218   9.014   7.668   0.750 -0.1152 -0.5034  0.6727
 5278SOL    HW123219   8.989   7.708   0.662 -0.6630  1.8738  1.8831
 5278SOL    HW223220   9.114   7.673   0.762 -0.0975 -0.3180  0.4421
 5280SOL     OW23221   1.325   8.696   0.939  0.1001  0.0122 -0.1051
 5280SOL    HW123222   1.345   8.783   0.893 -1.5999 -0.7010 -2.2621
 5280SOL    HW223223   1.267   8.640   0.881 -0.4329 -1.7949  2.0883
 5281SOL     OW23224   1.340   0.957   3.653  0.5035  0.3050 -0.5372
 5281SOL    HW123225   1.261   1.013   3.677  0.6726  0.4848 -0.3991
 5281SOL    HW223226   1.405   0.956   3.729  0.4366 -0.1934 -0.4873
 5283SOL     OW23227   3.511   0.416   0.944 -0.2111  1.0048 -0.6822
 5283SOL    HW123228   3.421   0.428   0.902  1.2072  2.2213 -3.4769
 5283SOL    HW223229   3.540   0.503   0.985  0.5667  1.2005 -1.6275
 5284SOL     OW23230   0.065   6.492   2.088  0.2700  0.2358  0.7717
 5284SOL    HW123231   0.072   6.592   2.099 -1.2506  0.4068  0.3249
 5284SOL    HW223232  -0.004   6.457   2.151 -2.1098  0.0291 -1.8592
 5285SOL     OW23233   3.346   3.656   0.126 -0.1202 -0.9989 -0.2074
 5285SOL    HW123234   3.386   3.747   0.131  0.0481 -1.1348  1.1177
 5285SOL    HW223235   3.272   3.648   0.193 -0.9465 -1.4503 -1.1455
 5286SOL     OW23236   7.365   0.547   0.150  0.1687  0.1029 -0.2419
 5286SOL    HW123237   7.369   0.451   0.178  0.6539 -0.1932 -1.3377
 5286SOL    HW223238   7.335   0.553   0.055  3.5869  0.8527 -1.3239
 5288SOL     OW23239   1.994   1.057   2.707  0.1395  0.1183  0.4484
 5288SOL    HW123240   2.001   1.081   2.610 -0.5185  0.2708  0.4371
 5288SOL    HW223241   2.017   0.960   2.719  1.6637  0.4471  0.3410
 5289SOL     OW23242   9.292   8.733   3.062  0.6964  0.1397  0.2846
 5289SOL    HW123243   9.275   8.670   2.986  0.4158  2.2035 -1.3870
 5289SOL    HW223244   9.210   8.788   3.079  1.1518  0.5145  1.3175
 5290SOL     OW23245   8.385   0.168   1.568 -0.2445 -0.0992 -0.1426
 5290SOL    HW123246   8.473   0.122   1.583 -0.0591  0.4936  0.5721
 5290SOL    HW223247   8.325   0.107   1.516  0.8637 -0.2075 -1.3293
 5291SOL     OW23248   9.194   0.329   2.898 -0.3635 -0.3440 -0.5069
 5291SOL    HW123249   9.101   0.293   2.908  0.1974 -1.9552 -1.0145
 5291SOL    HW223250   9.239   0.284   2.821  0.7459  0.6350 -0.4337
 5292SOL     OW23251   2.806   6.407   3.407  0.4413  0.9681  0.4191
 5292SOL    HW123252   2.740   6.332   3.398  0.4623  0.8169  1.5607
 5292SOL    HW223253   2.760   6.487   3.445  0.7039  1.1684  0.3170
 5293SOL     OW23254   0.386   7.747   3.352 -0.5155  0.2458  0.1976
 5293SOL    HW123255   0.386   7.757   3.452 -0.9562 -0.8178  0.3206
 5293SOL    HW223256   0.293   7.730   3.320 -0.3555  0.4372 -0.3763
 5294SOL     OW23257   7.818   8.171   2.792 -0.4658  0.5297 -0.3331
 5294SOL    HW123258   7.827   8.217   2.880  0.6317 -1.1062  0.4215
 5294SOL    HW223259   7.722   8.149   2.776 -0.6473  0.6771  0.5231
 5295SOL     OW23260   0.085   1.466   2.535 -0.0100 -0.4806  0.8075
 5295SOL    HW123261   0.093   1.395   2.605 -0.4019 -0.8497  0.4888
 5295SOL    HW223262  -0.009   1.467   2.500 -0.2114  0.7342  1.3690
 5296SOL     OW23263   2.642   7.276   3.299 -0.4443 -0.0415 -0.0439
 5296SOL    HW123264   2.611   7.202   3.240  0.4927 -0.3270 -0.1879
 5296SOL    HW223265   2.649   7.361   3.246 -1.7795  0.2191  0.1835
 5297SOL     OW23266   4.315   3.059   1.499 -0.8027 -0.0152 -0.0954
 5297SOL    HW123267   4.310   3.027   1.594 -0.0967  0.6023  0.1517
 5297SOL    HW223268   4.324   2.981   1.438 -0.0862 -0.3536  0.4352
 5298SOL     OW23269   4.666   0.406   0.028  0.2591  0.4059 -0.4346
 5298SOL    HW123270   4.681   0.456  -0.058  0.0840  0.7578 -0.2625
 5298SOL    HW223271   4.722   0.323   0.028 -1.0558 -0.5028 -1.6326
 5299SOL     OW23272   1.468   6.977   2.787 -0.0888 -0.9697 -0.0745
 5299SOL    HW123273   1.447   6.943   2.695  1.1759 -0.3932 -0.5828
 5299SOL    HW223274   1.567   6.985   2.798 -0.3163  2.4109  0.0509
 5300SOL     OW23275   8.102   6.621   3.049 -0.1194  0.0350  0.3832
 5300SOL    HW123276   8.187   6.590   3.005  0.5121  1.1217  0.8200
 5300SOL    HW223277   8.024   6.580   3.002  0.4926  1.9210 -2.4516
 5302SOL     OW23278   4.439   0.168   1.476 -0.0675 -0.1728  0.4289
 5302SOL    HW123279   4.450   0.079   1.520 -2.1853 -0.6301  0.0804
 5302SOL    HW223280   4.451   0.240   1.545 -1.2697 -0.8207  1.3394
 5303SOL     OW23281   7.938   9.313   2.592 -0.5587 -0.1919  0.3612
 5303SOL    HW123282   7.986   9.390   2.549 -0.7815  0.0741  0.5788
 5303SOL    HW223283   8.003   9.241   2.615 -0.4710 -0.4377 -0.6416
 5304SOL     OW23284   0.421   8.069   1.577  0.0634 -0.0016 -0.2088
 5304SOL    HW123285   0.471   8.153   1.554 -1.3179  1.6612  2.5469
 5304SOL    HW223286   0.367   8.040   1.498  0.1509  2.0034 -1.0472
 5305SOL     OW23287   9.227   5.396   1.381  0.2107  0.1583 -0.3931
 5305SOL    HW123288   9.220   5.382   1.282  0.8350 -0.1098 -0.3982
 5305SOL    HW223289   9.322   5.390   1.409  0.4841  3.9919 -0.3107
 5306SOL     OW23290   0.969   4.207   2.426  0.1016  0.5759 -0.4441
 5306SOL    HW123291   1.061   4.243   2.437  0.1093  0.1664  0.9867
 5306SOL    HW223292   0.932   4.235   2.337  0.7781  2.5515 -0.1227
 5307SOL     OW23293   2.585   5.910   2.395 -0.1403 -0.2629  0.2093
 5307SOL    HW123294   2.544   5.909   2.486 -0.4901  0.4559  0.0631
 5307SOL    HW223295   2.664   5.971   2.395 -0.4206  0.1009 -0.0875
 5308SOL     OW23296   8.055   6.776   0.084 -0.2058 -0.6604  0.5154
 5308SOL    HW123297   8.068   6.800   0.180  1.6294 -0.8620  0.3481
 5308SOL    HW223298   7.995   6.843   0.040  1.4779  1.2606  1.0672
 5309SOL     OW23299   2.188   1.213   0.381  0.1649 -0.1028  0.8349
 5309SOL    HW123300   2.126   1.149   0.337  0.7230  0.2403 -0.4543
 5309SOL    HW223301   2.238   1.166   0.454 -1.0127 -0.5739  1.3452
 5310SOL     OW23302   9.134   1.035   0.580 -0.8592 -0.6244  0.0493
 5310SOL    HW123303   9.145   0.966   0.652 -0.8714 -1.0806 -0.3886
 5310SOL    HW223304   9.057   1.095   0.603 -1.1907 -1.0898  0.1558
 5311SOL     OW23305   2.071   2.079   2.098 -0.2633  0.2686  0.8171
 5311SOL    HW123306   2.018   2.125   2.169 -0.1850  0.4476  0.7614
 5311SOL    HW223307   2.023   2.087   2.011  0.2648  1.1914  0.5917
 5313SOL     OW23308   4.270   2.090   1.685 -0.1798 -0.1303 -0.1641
 5313SOL    HW123309   4.253   2.121   1.779  0.3340  2.5951 -0.9281
 5313SOL    HW223310   4.184   2.057   1.645 -0.5418 -0.6585  1.0057
 5314SOL     OW23311   9.372   6.443   0.404  0.0715 -0.0924 -0.2475
 5314SOL    HW123312   9.392   6.425   0.500  0.5718 -1.6224 -0.6267
 5314SOL    HW223313   9.440   6.506   0.367 -0.1711  0.5632  0.4121
 5315SOL     OW23314   8.234   5.810   0.746 -0.9281 -0.0435  0.2363
 5315SOL    HW123315   8.288   5.808   0.662 -2.0959  1.4301 -0.5685
 5315SOL    HW223316   8.279   5.755   0.816 -0.0520 -1.4645 -1.4113
 5316SOL     OW23317   8.827   3.586   2.451 -0.0471  1.0535 -0.8326
 5316SOL    HW123318   8.839   3.660   2.518 -0.3961  0.3439  0.0150
 5316SOL    HW223319   8.749   3.607   2.393 -1.9095  0.0350  1.2103
 5317SOL     OW23320   5.036   0.407   2.538 -0.5434  0.0734 -0.2640
 5317SOL    HW123321   4.967   0.459   2.588 -0.1291  1.4056 -1.0654
 5317SOL    HW223322   5.078   0.465   2.468 -1.1429 -1.7411 -2.1984
 5318SOL     OW23323   9.842   5.364   2.751  0.5054 -0.6542  0.3626
 5318SOL    HW123324   9.939   5.372   2.775  0.4651 -0.6622  0.5328
 5318SOL    HW223325   9.824   5.417   2.668  0.7612 -1.0635  0.0440
 5319SOL     OW23326   4.533   1.250   0.360 -0.0811  0.2767 -0.3761
 5319SOL    HW123327   4.592   1.220   0.285  0.5644 -0.3624  0.3682
 5319SOL    HW223328   4.580   1.234   0.447 -1.0058  0.5829  0.1869
 5320SOL     OW23329   8.423   1.248   1.795  0.1013 -0.5091 -0.1214
 5320SOL    HW123330   8.327   1.227   1.813 -0.3397  1.2224 -0.3202
 5320SOL    HW223331   8.429   1.305   1.713  1.4496 -1.9994 -1.0736
 5321SOL     OW23332   1.377   8.524   1.183  0.3331 -0.0601 -0.1619
 5321SOL    HW123333   1.408   8.565   1.097  0.6761  0.2100  0.0892
 5321SOL    HW223334   1.416   8.574   1.260  0.0057 -0.2865  0.1537
 5322SOL     OW23335   0.327   5.852   2.336  0.1062 -0.7458 -0.4162
 5322SOL    HW123336   0.345   5.847   2.434  1.5451 -1.2299 -0.6934
 5322SOL    HW223337   0.308   5.761   2.300 -3.0348 -0.2647 -0.1412
 5324SOL     OW23338   3.137   9.858   3.428  0.0955  0.2815  0.1145
 5324SOL    HW123339   3.220   9.844   3.374 -1.2466 -0.8496 -1.7354
 5324SOL    HW223340   3.142   9.807   3.513  1.4180  0.4803  0.1587
 5326SOL     OW23341   1.708   8.898   3.426 -0.2656 -0.0240  0.4197
 5326SOL    HW123342   1.713   8.946   3.513 -1.4981  0.3528  0.2984
 5326SOL    HW223343   1.647   8.947   3.364  2.1084  0.7892 -1.3675
 5327SOL     OW23344   4.018   8.204   0.281  0.2655  0.1949  0.6092
 5327SOL    HW123345   3.966   8.277   0.238  2.1160  0.6114 -0.9893
 5327SOL    HW223346   3.978   8.115   0.256  0.1148  0.5222 -0.3283
 5328SOL     OW23347   8.319   1.778   3.597  0.0824 -0.3871 -0.2297
 5328SOL    HW123348   8.379   1.805   3.520  0.9048  0.4444  0.6804
 5328SOL    HW223349   8.224   1.800   3.574  0.5243  1.6498 -0.2762
 5329SOL     OW23350   8.465   9.476   1.835 -0.0950  0.0390  0.5455
 5329SOL    HW123351   8.536   9.409   1.814  0.3088  0.5759  0.1891
 5329SOL    HW223352   8.386   9.430   1.876  0.1107 -0.6736  0.1345
 5330SOL     OW23353   0.696   7.046   3.221 -0.3284  0.3518  0.5108
 5330SOL    HW123354   0.689   7.033   3.122 -0.3378 -0.0076  0.5577
 5330SOL    HW223355   0.711   6.957   3.265 -0.8613  0.4429  0.8770
 5331SOL     OW23356   3.594   0.714   1.946 -0.8288 -0.1244 -0.2493
 5331SOL    HW123357   3.557   0.722   2.038 -1.2925 -0.7960 -0.3744
 5331SOL    HW223358   3.535   0.762   1.881  0.0621  1.2518 -0.0578
 5332SOL     OW23359   9.703   9.054   2.803  0.0743 -0.7444 -0.2765
 5332SOL    HW123360   9.732   8.959   2.789 -0.7219 -1.1572  0.7723
 5332SOL    HW223361   9.768   9.101   2.862  1.4755 -0.0689 -2.2943
 5333SOL     OW23362   3.356   7.812   0.014  0.1723 -0.3800 -0.0338
 5333SOL    HW123363   3.425   7.802  -0.058 -0.0354 -1.6529 -0.0693
 5333SOL    HW223364   3.318   7.722   0.037 -0.2814  0.0997  1.1621
 5334SOL     OW23365   7.703   1.949   1.065 -0.2629  0.3745  0.1003
 5334SOL    HW123366   7.793   1.916   1.095 -0.0121  0.1192 -0.9201
 5334SOL    HW223367   7.633   1.884   1.094 -0.0164  0.1053  0.0991
 5335SOL     OW23368   8.737   3.519   3.036  0.2621 -0.0908 -0.0909
 5335SOL    HW123369   8.795   3.500   3.115 -0.9400  1.2509  1.1504
 5335SOL    HW223370   8.666   3.448   3.029 -1.6515  1.5524  2.0324
 5336SOL     OW23371   6.023   8.599   2.350  0.2040  0.2738 -0.7888
 5336SOL    HW123372   6.016   8.572   2.254 -0.5310 -1.7304 -0.1974
 5336SOL    HW223373   6.110   8.644   2.366  0.7803 -0.3400 -2.1642
 5337SOL     OW23374   8.492   6.667   2.483  0.3403 -0.2972 -0.5089
 5337SOL    HW123375   8.591   6.661   2.495  0.3692 -2.0416 -1.3925
 5337SOL    HW223376   8.470   6.736   2.414  0.9928 -0.4444 -0.8665
 5338SOL     OW23377   0.331   6.823   0.029  0.5806  0.0949 -0.4380
 5338SOL    HW123378   0.288   6.912   0.043 -0.8097 -0.4712 -1.1354
 5338SOL    HW223379   0.264   6.757  -0.002  1.9736 -0.7640 -1.7083
 5339SOL     OW23380   2.225   6.149   1.609  0.1052 -0.1958  0.6574
 5339SOL    HW123381   2.188   6.072   1.660  1.4092 -0.9461  0.5075
 5339SOL    HW223382   2.161   6.226   1.613  0.5608  0.0704  4.1302
 5340SOL     OW23383   9.730   0.718   3.552  0.3619 -0.6097  0.4927
 5340SOL    HW123384   9.647   0.747   3.600  1.5031 -0.9935  2.7721
 5340SOL    HW223385   9.810   0.749   3.603  1.6404 -0.4036 -1.5808
 5342SOL     OW23386   1.355   4.678   3.540  0.4506 -0.1749 -0.7102
 5342SOL    HW123387   1.356   4.700   3.637  0.1491 -0.6240 -0.6063
 5342SOL    HW223388   1.438   4.626   3.517  1.5415  1.6841 -1.1055
 5344SOL     OW23389   4.726   9.479   0.977 -0.0908 -0.0438  0.1497
 5344SOL    HW123390   4.756   9.392   1.017  1.7671  0.1178 -0.8603
 5344SOL    HW223391   4.805   9.530   0.945 -1.3983  0.7041 -2.0015
 5345SOL     OW23392   7.530   0.334   0.675 -0.2888 -0.1003  0.0674
 5345SOL    HW123393   7.601   0.402   0.688 -1.3964  0.6451  2.4716
 5345SOL    HW223394   7.555   0.250   0.722 -0.7167 -0.0357  0.4161
 5346SOL     OW23395   8.298   9.621   1.570  0.7638  0.1578 -0.2244
 5346SOL    HW123396   8.246   9.624   1.485  0.1922 -0.6963  0.0828
 5346SOL    HW223397   8.341   9.710   1.586 -0.5493  0.8689 -0.5249
 5349SOL     OW23398   7.326   0.054   0.031 -0.2473  0.8785 -0.3795
 5349SOL    HW123399   7.375  -0.018  -0.019  0.4463  0.3026  1.1121
 5349SOL    HW223400   7.265   0.102  -0.032 -1.1944 -1.4189 -1.2769
 5350SOL     OW23401   8.493   6.968   0.099 -0.1694 -0.1027  0.1621
 5350SOL    HW123402   8.449   7.014   0.176 -0.9014  0.2973 -0.4907
 5350SOL    HW223403   8.448   6.994   0.014  0.8740 -0.2520 -0.4472
 5351SOL     OW23404   8.073   0.592   1.749 -0.4312 -0.1855 -0.3439
 5351SOL    HW123405   8.017   0.560   1.673  0.1618  0.8564 -1.2284
 5351SOL    HW223406   8.016   0.602   1.831 -1.7499  1.7755 -1.4717
 5353SOL     OW23407   0.373   0.846   2.265 -0.0617 -0.3176 -0.2653
 5353SOL    HW123408   0.307   0.894   2.323 -0.1008 -0.6537 -0.0311
 5353SOL    HW223409   0.465   0.857   2.302 -0.1557 -0.9971  0.1659
 5354SOL     OW23410   7.914   1.976   1.711 -0.0367 -0.5066 -0.4785
 5354SOL    HW123411   7.950   1.996   1.620 -0.8238  0.4876 -0.5781
 5354SOL    HW223412   7.979   2.009   1.780  0.3545 -0.8638 -0.6750
 5355SOL     OW23413   7.602   8.744   1.653 -0.5302  0.4054 -0.1092
 5355SOL    HW123414   7.614   8.655   1.610 -0.8861 -0.1672  0.9382
 5355SOL    HW223415   7.509   8.777   1.635 -0.3666  0.6045 -0.5784
 5357SOL     OW23416   9.280   5.812   2.550  0.1537  0.0737 -0.1748
 5357SOL    HW123417   9.264   5.714   2.532  0.5709 -0.4394  2.1083
 5357SOL    HW223418   9.372   5.824   2.587  0.2782  1.4054 -0.9112
 5358SOL     OW23419   9.080   7.643   2.300 -0.0938  0.3152  0.1632
 5358SOL    HW123420   9.052   7.575   2.231  0.2017 -0.2978  0.6369
 5358SOL    HW223421   9.050   7.612   2.390  0.5155  0.5532  0.4453
 5359SOL     OW23422   0.048   0.752   0.918 -0.3411  0.1235 -0.1526
 5359SOL    HW123423   0.127   0.766   0.978  0.4572 -1.8156 -0.7311
 5359SOL    HW223424   0.012   0.841   0.891  1.2112  1.0401  0.6802
 5360SOL     OW23425   3.855   4.055   1.135  0.3784 -0.2934 -0.2652
 5360SOL    HW123426   3.853   4.123   1.062  1.4694  0.5246  0.4550
 5360SOL    HW223427   3.882   3.966   1.098 -0.5033 -0.2115 -1.1081
 5361SOL     OW23428   1.298   3.081   0.253 -0.7761  0.1244 -0.3583
 5361SOL    HW123429   1.379   3.023   0.265 -0.7649  0.2333  0.1102
 5361SOL    HW223430   1.322   3.161   0.198 -0.4352  0.4172  0.2074
 5362SOL     OW23431   0.030   8.920   2.362 -0.8423  0.2197 -0.0575
 5362SOL    HW123432  -0.005   8.868   2.284 -5.1819  1.6416  0.8426
 5362SOL    HW223433   0.015   9.018   2.348  2.5472  0.9007  0.5702
 5365SOL     OW23434   8.536   7.244   0.889  0.4452  0.6489  0.3082
 5365SOL    HW123435   8.565   7.327   0.842  0.6484  0.8222  0.7358
 5365SOL    HW223436   8.589   7.232   0.973 -0.8308  1.0776  1.1973
 5366SOL     OW23437   8.313   0.307   0.507 -0.1814  0.0502  0.2895
 5366SOL    HW123438   8.369   0.245   0.452 -0.3289 -0.0601  0.2639
 5366SOL    HW223439   8.364   0.337   0.588 -0.2834 -0.4858  0.5538
 5367SOL     OW23440   2.920   1.675   3.185  0.3067  0.3615  0.3947
 5367SOL    HW123441   2.940   1.608   3.113  0.0488 -0.6156  1.2190
 5367SOL    HW223442   2.845   1.735   3.155  0.9329  0.6610 -0.5824
 5370SOL     OW23443   4.591   3.815   1.058 -0.0815  0.0244  0.0822
 5370SOL    HW123444   4.578   3.758   0.976 -0.6741  1.0447 -0.5398
 5370SOL    HW223445   4.612   3.756   1.136 -1.3917 -1.1156 -0.4023
 5371SOL     OW23446   3.517   1.528   3.000  0.1152 -0.1809 -0.3863
 5371SOL    HW123447   3.493   1.515   3.096  0.7797 -3.1561 -0.5603
 5371SOL    HW223448   3.433   1.532   2.946 -0.2474  0.8420  0.2417
 5373SOL     OW23449   3.499   6.497   1.876  0.4037  0.8269  0.0239
 5373SOL    HW123450   3.527   6.448   1.959 -1.4561  0.8356  0.6847
 5373SOL    HW223451   3.429   6.443   1.828 -0.1427  1.8579 -0.3464
 5374SOL     OW23452   4.630   2.570   0.575  0.2133  0.3947 -0.5282
 5374SOL    HW123453   4.547   2.555   0.523  0.3579 -1.1365 -0.3186
 5374SOL    HW223454   4.710   2.555   0.516  0.3591  0.0506 -0.2462
 5376SOL     OW23455   4.042   9.594   1.187 -0.1677  0.6029 -0.4207
 5376SOL    HW123456   3.954   9.638   1.201  0.5447  2.0484 -0.3737
 5376SOL    HW223457   4.115   9.662   1.194  0.8342 -0.2397 -2.1210
 5377SOL     OW23458   8.553   1.419   0.254  0.0270  0.1268  0.4861
 5377SOL    HW123459   8.455   1.420   0.232  0.5478 -2.5098 -2.2734
 5377SOL    HW223460   8.603   1.472   0.185  0.8372 -1.2858 -0.0360
 5378SOL     OW23461   2.845   9.268   3.612 -0.2012 -0.3258  0.4117
 5378SOL    HW123462   2.879   9.219   3.693 -1.2370 -1.3023  0.2788
 5378SOL    HW223463   2.898   9.352   3.599 -0.0324 -0.1401  2.1231
 5379SOL     OW23464   9.584   7.833   2.381  0.1357 -0.5334 -0.1914
 5379SOL    HW123465   9.511   7.777   2.343  1.1381 -1.4191 -0.8375
 5379SOL    HW223466   9.573   7.928   2.351 -0.0723 -0.8910 -1.2406
 5380SOL     OW23467   9.862   2.741   0.970 -0.7498  0.4467 -0.7807
 5380SOL    HW123468   9.905   2.675   1.032  0.1619 -0.2921 -2.1826
 5380SOL    HW223469   9.763   2.738   0.983 -0.6141 -0.1660  0.1787
 5381SOL     OW23470   9.715   9.838   1.616  0.4072  0.0959  0.1936
 5381SOL    HW123471   9.657   9.901   1.564  0.2247 -0.5287 -0.3741
 5381SOL    HW223472   9.810   9.853   1.591  0.4141  0.5495  0.4960
 5383SOL     OW23473   7.985   2.728   0.773 -0.4937 -0.2419 -0.4598
 5383SOL    HW123474   7.931   2.702   0.853 -0.7564  0.0592 -0.5394
 5383SOL    HW223475   7.928   2.782   0.711 -0.1620 -0.1050 -0.6432
 5384SOL     OW23476   5.389   9.443   2.988 -0.4775 -0.4954  0.6791
 5384SOL    HW123477   5.368   9.357   2.942  0.3790 -0.5894  0.4459
 5384SOL    HW223478   5.475   9.433   3.039  0.8245  0.8750 -1.1534
 5385SOL     OW23479   5.881   8.517   2.569  0.7169 -0.4202 -0.0342
 5385SOL    HW123480   5.871   8.418   2.571  0.6030 -0.3911  2.3170
 5385SOL    HW223481   5.918   8.545   2.480 -2.1188 -2.2581 -1.8808
 5386SOL     OW23482   1.695   8.903   3.729  0.0904  0.1538 -0.2912
 5386SOL    HW123483   1.615   8.864   3.683  0.0980  1.2443 -1.2473
 5386SOL    HW223484   1.666   8.975   3.792  0.2957  0.2750 -0.3344
 5387SOL     OW23485   4.278   2.139   0.308 -0.3489 -0.1771  0.7136
 5387SOL    HW123486   4.246   2.216   0.253 -2.0804 -2.2770 -1.3344
 5387SOL    HW223487   4.377   2.130   0.298 -0.4404  0.3995 -0.9035
 5388SOL     OW23488   9.897   1.013   0.885 -0.3341  0.1201  0.2558
 5388SOL    HW123489   9.908   1.088   0.950 -1.1442  1.1588 -0.7801
 5388SOL    HW223490   9.801   0.983   0.883 -0.4712  0.5788 -0.9523
 5389SOL     OW23491   1.559   3.058   2.861 -0.0578  0.1017 -0.4730
 5389SOL    HW123492   1.559   2.995   2.783  0.7323 -0.2022 -0.2258
 5389SOL    HW223493   1.559   3.152   2.828  0.5559 -0.0272 -0.8441
 5390SOL     OW23494   9.597   6.991   3.532 -0.2740 -0.4179 -0.4301
 5390SOL    HW123495   9.676   7.019   3.588  0.7298 -0.1109 -1.9587
 5390SOL    HW223496   9.628   6.927   3.462 -1.4758 -0.6230 -0.7712
 5391SOL     OW23497   4.853   9.738   2.146  0.1531 -0.3077 -0.0664
 5391SOL    HW123498   4.879   9.659   2.201  0.6197 -1.4706 -1.9074
 5391SOL    HW223499   4.911   9.816   2.169 -1.1988 -0.0576  2.7269
 5392SOL     OW23500   4.991   9.978   2.128  0.7143 -0.4191  0.0743
 5392SOL    HW123501   4.975  10.053   2.192  0.1165  0.5697 -1.2112
 5392SOL    HW223502   5.048  10.009   2.053  0.6810 -1.3233 -0.3343
 5393SOL     OW23503   4.901   7.931   2.219  0.4122 -0.2609 -0.3656
 5393SOL    HW123504   4.851   8.013   2.246  0.4766  0.0525 -1.1795
 5393SOL    HW223505   4.839   7.853   2.214  0.0074  0.1152 -1.3221
 5395SOL     OW23506   0.491   4.812   2.752  0.6670 -0.1652 -0.6038
 5395SOL    HW123507   0.405   4.863   2.753  0.4130 -0.6029  0.5895
 5395SOL    HW223508   0.567   4.876   2.736  0.1660  0.2847 -1.2237
 5396SOL     OW23509   9.030   6.841   1.619  0.5164 -0.1887 -0.3048
 5396SOL    HW123510   9.127   6.821   1.604  0.7258  1.1360 -0.8132
 5396SOL    HW223511   9.020   6.905   1.695  0.0835  0.1486 -0.6425
 5397SOL     OW23512   0.607   8.058   3.313 -0.0218 -0.5234 -0.1170
 5397SOL    HW123513   0.654   8.144   3.292 -1.3031  0.2244 -0.0071
 5397SOL    HW223514   0.508   8.072   3.307 -0.2756 -1.6957  1.0297
 5398SOL     OW23515   1.420   4.129   3.609 -0.0509  0.6516  0.1438
 5398SOL    HW123516   1.438   4.043   3.562 -2.2151  0.4100 -0.3106
 5398SOL    HW223517   1.495   4.149   3.673  0.2971 -1.7664  0.5418
 5399SOL     OW23518   0.402   4.093   2.334  0.2324 -0.1892  0.6490
 5399SOL    HW123519   0.427   4.065   2.427 -1.3369 -0.3505  1.0470
 5399SOL    HW223520   0.303   4.110   2.331  0.4121  0.6389 -0.7843
 5400SOL     OW23521   1.287   9.194   2.021 -0.3101  0.0882 -0.0115
 5400SOL    HW123522   1.236   9.277   2.043  0.1176  0.6211 -0.9797
 5400SOL    HW223523   1.342   9.210   1.938  0.3794 -0.9013  0.2467
 5401SOL     OW23524   3.513   1.832   0.833 -0.2670 -0.0014 -0.4299
 5401SOL    HW123525   3.519   1.904   0.902  1.3073 -0.5047 -0.0224
 5401SOL    HW223526   3.515   1.874   0.742  0.5749  0.4827 -0.1984
 5403SOL     OW23527   3.387   0.098   2.137 -0.5607  0.4082 -0.3308
 5403SOL    HW123528   3.419   0.183   2.095  0.8523 -0.3129 -0.7640
 5403SOL    HW223529   3.456   0.064   2.201 -0.4539 -1.1550 -1.2387
 5404SOL     OW23530   0.985   5.414   0.037 -0.0869 -0.2761  0.5190
 5404SOL    HW123531   1.019   5.322   0.016 -1.6331 -0.3504 -1.8717
 5404SOL    HW223532   1.054   5.481   0.010 -0.2326 -0.5928 -0.6655
 5405SOL     OW23533   3.065   1.645   3.427 -0.4393  0.5302 -0.0758
 5405SOL    HW123534   3.004   1.665   3.351  1.1045  0.3829 -1.3753
 5405SOL    HW223535   3.018   1.665   3.514 -2.6645 -0.5418 -0.9932
 5406SOL     OW23536   8.475   6.798   1.689  0.4514  0.9036 -0.2165
 5406SOL    HW123537   8.522   6.757   1.610  0.6482  0.5454  0.0847
 5406SOL    HW223538   8.448   6.891   1.667 -0.6251  0.3886 -1.1672
 5407SOL     OW23539   9.617   6.852   3.036  0.1756  0.1094 -0.0774
 5407SOL    HW123540   9.709   6.893   3.037 -0.4545  1.6122 -1.0115
 5407SOL    HW223541   9.585   6.839   3.130  1.7940 -1.4770  0.2713
 5408SOL     OW23542   1.289   0.810   1.371  0.2030  0.0639 -0.6218
 5408SOL    HW123543   1.345   0.892   1.376  0.2410  0.0661 -1.1130
 5408SOL    HW223544   1.301   0.766   1.282  0.1257 -0.4325 -0.3886
 5409SOL     OW23545   7.912   7.167   1.458 -0.2254 -0.1550 -0.0281
 5409SOL    HW123546   7.828   7.191   1.409  1.1166 -1.8877 -3.3759
 5409SOL    HW223547   7.905   7.074   1.494 -0.7656  0.7053  2.1511
 5411SOL     OW23548   1.700   0.522   2.129 -0.7127 -0.0048 -0.1168
 5411SOL    HW123549   1.708   0.437   2.077 -0.7249 -0.9070  1.3098
 5411SOL    HW223550   1.792   0.556   2.151 -0.7129 -0.0687 -0.0178
 5412SOL     OW23551   2.413   5.682   0.538 -0.0392 -0.0024 -0.3486
 5412SOL    HW123552   2.395   5.594   0.582  1.7783  0.1200  0.7318
 5412SOL    HW223553   2.493   5.674   0.479  1.6434  1.4623  1.6336
 5415SOL     OW23554   2.598   1.235   1.906  0.6523 -0.2752 -0.0317
 5415SOL    HW123555   2.603   1.273   1.813  1.5766  0.7693  0.4412
 5415SOL    HW223556   2.551   1.146   1.903  0.3681 -0.0874 -1.4466
 5416SOL     OW23557   7.152   9.541   2.949  0.1327  0.0976 -0.2079
 5416SOL    HW123558   7.161   9.614   2.882 -0.4576  0.0684 -0.3223
 5416SOL    HW223559   7.111   9.461   2.905 -0.3648  0.1186  0.2138
 5418SOL     OW23560   5.734   8.416   2.022  0.3797  0.0072 -0.3943
 5418SOL    HW123561   5.747   8.356   1.943 -1.6692 -2.7633  1.2710
 5418SOL    HW223562   5.641   8.453   2.022  0.1105 -0.6105  1.0656
 5419SOL     OW23563   8.057   8.237   1.743  0.0877 -0.9624  0.1136
 5419SOL    HW123564   7.974   8.237   1.687 -1.2723  0.2074  2.0392
 5419SOL    HW223565   8.108   8.152   1.729 -0.9101 -1.2593 -1.8505
 5420SOL     OW23566   0.586   7.215   2.559 -0.1895  1.1106  0.0643
 5420SOL    HW123567   0.571   7.198   2.462 -1.3283  1.0682  0.2428
 5420SOL    HW223568   0.605   7.312   2.574  0.8932  0.9612 -0.3040
 5421SOL     OW23569   3.106   4.165   1.288 -0.4593 -1.1063  0.5901
 5421SOL    HW123570   3.047   4.114   1.226 -2.3732  1.7776 -0.0312
 5421SOL    HW223571   3.077   4.150   1.382 -2.5113  0.5673  0.2733
 5422SOL     OW23572   3.181   8.230   0.853  0.3051 -0.3522 -0.0331
 5422SOL    HW123573   3.141   8.239   0.944 -2.0664  0.9026 -1.1426
 5422SOL    HW223574   3.252   8.160   0.854 -1.6006 -2.3349  2.1598
 5423SOL     OW23575   4.367   3.191   0.502 -0.4175 -0.1082  0.1217
 5423SOL    HW123576   4.438   3.206   0.433 -1.7531  2.5865 -0.7352
 5423SOL    HW223577   4.410   3.171   0.590  1.3659  0.1283 -0.6650
 5424SOL     OW23578   1.759   9.354   1.280 -0.0237 -0.1618 -0.3137
 5424SOL    HW123579   1.786   9.375   1.187 -3.3508  1.7537 -0.9332
 5424SOL    HW223580   1.685   9.286   1.279  0.7419 -1.0505  1.0245
 5425SOL     OW23581   0.226   4.526   1.662 -0.1533 -0.2112  0.3114
 5425SOL    HW123582   0.197   4.453   1.601 -0.8890  0.6331 -0.3665
 5425SOL    HW223583   0.325   4.537   1.657  0.0479 -1.5887  0.9149
 5426SOL     OW23584   0.628   5.133   3.123  0.0312 -0.2306 -1.1563
 5426SOL    HW123585   0.667   5.084   3.201  0.9764  0.0001 -1.4739
 5426SOL    HW223586   0.548   5.083   3.089 -0.2789 -0.4203 -0.1529
 5427SOL     OW23587   0.122   5.346   0.243 -0.3929 -0.2085 -0.3711
 5427SOL    HW123588   0.048   5.384   0.187  0.3575  1.5281 -0.2160
 5427SOL    HW223589   0.205   5.338   0.187  0.2244  1.0656  0.3369
 5428SOL     OW23590   9.749   4.582   3.174 -0.0339  0.3147 -0.5521
 5428SOL    HW123591   9.773   4.647   3.102  0.4513  0.6218 -0.1253
 5428SOL    HW223592   9.817   4.588   3.248 -1.2765  0.9972  0.5610
 5429SOL     OW23593   8.643   3.309   1.564  0.1541 -0.5498  0.0859
 5429SOL    HW123594   8.725   3.263   1.531 -0.0904 -0.1657 -1.0793
 5429SOL    HW223595   8.650   3.407   1.544 -0.2538 -0.3996  0.6662
 5432SOL     OW23596   2.513   5.909   2.676  0.0646  0.2856  0.5758
 5432SOL    HW123597   2.549   5.987   2.727  1.1750  1.5826 -2.0876
 5432SOL    HW223598   2.432   5.938   2.625  1.0472 -0.0032 -1.1918
 5433SOL     OW23599   8.600   3.434   1.857  0.0649 -0.2784  0.0195
 5433SOL    HW123600   8.651   3.349   1.871  0.7420  0.2711  0.9705
 5433SOL    HW223601   8.506   3.412   1.832  0.4551 -1.3081 -0.6048
 5434SOL     OW23602   1.903   9.802   2.824 -0.4649  0.7308 -0.0870
 5434SOL    HW123603   1.946   9.814   2.914  0.0872  0.9704 -0.3816
 5434SOL    HW223604   1.831   9.871   2.812 -2.2112 -0.7995  1.1506
 5435SOL     OW23605   9.372   5.870   3.699  0.1520 -0.1049 -0.7398
 5435SOL    HW123606   9.296   5.806   3.709  1.0689 -0.9098  1.2729
 5435SOL    HW223607   9.439   5.832   3.634  2.0426 -2.5830  2.5102
 5436SOL     OW23608   8.638   6.016   2.924 -0.0018 -0.4891 -0.1409
 5436SOL    HW123609   8.700   5.970   2.988 -1.9014 -2.3696  0.4074
 5436SOL    HW223610   8.554   5.962   2.913 -0.6249  0.8640 -2.5994
 5437SOL     OW23611   8.839   8.669   0.983 -0.0905 -0.6997  0.0048
 5437SOL    HW123612   8.754   8.668   1.036 -0.0165 -1.3911  0.1182
 5437SOL    HW223613   8.877   8.762   0.982 -0.3161 -0.5923  0.8002
 5439SOL     OW23614   2.300   9.745   1.621  0.3931  0.1478  0.1752
 5439SOL    HW123615   2.248   9.827   1.597 -1.3244 -1.0445 -0.2700
 5439SOL    HW223616   2.397   9.761   1.600 -0.1672  1.4177 -1.6276
 5443SOL     OW23617   3.957   2.929   1.328  0.0929 -0.5385 -0.5134
 5443SOL    HW123618   3.859   2.928   1.350  0.0129  1.3372 -0.6890
 5443SOL    HW223619   3.970   2.905   1.232 -0.2424 -0.2503 -0.6308
 5444SOL     OW23620   8.664   3.231   2.747 -0.0995  0.4779 -0.6457
 5444SOL    HW123621   8.569   3.201   2.750 -0.7850  2.6453  0.0683
 5444SOL    HW223622   8.682   3.295   2.822  1.4913  1.3159 -1.6993
 5445SOL     OW23623   9.097   2.103   2.408  0.2311  0.4414  0.3700
 5445SOL    HW123624   9.093   2.188   2.357  0.1574 -1.2120 -2.5003
 5445SOL    HW223625   9.191   2.068   2.409 -0.3547 -1.3517 -1.8522
 5446SOL     OW23626   4.296   9.444   2.525 -0.4723  1.1215  0.2300
 5446SOL    HW123627   4.239   9.380   2.473 -1.4341  2.0186  0.1797
 5446SOL    HW223628   4.310   9.527   2.472  1.3544  0.6955  0.0121
 5447SOL     OW23629   1.818   1.570   2.785  0.3491 -0.1512  0.1381
 5447SOL    HW123630   1.767   1.509   2.724 -0.6154 -1.0918  1.8363
 5447SOL    HW223631   1.906   1.529   2.808 -0.8381 -1.5757  2.3200
 5448SOL     OW23632   8.929   0.747   1.151  0.2207  0.3744  0.6794
 5448SOL    HW123633   8.879   0.758   1.065  2.3568  1.1952 -0.5061
 5448SOL    HW223634   8.969   0.834   1.178  1.3181 -0.3222  1.3814
 5449SOL     OW23635   4.153   2.825   1.824  0.8582  0.2651 -0.4446
 5449SOL    HW123636   4.144   2.732   1.787  1.1601 -1.0874  2.7524
 5449SOL    HW223637   4.250   2.845   1.840  0.6909  0.6605  0.0583
 5450SOL     OW23638   3.842   8.063   3.552 -0.1297  0.0897 -0.2221
 5450SOL    HW123639   3.760   8.117   3.570  0.4372  1.1897 -0.9242
 5450SOL    HW223640   3.832   7.973   3.595 -1.3440  0.5130  0.4152
 5451SOL     OW23641   9.461   6.845   3.273 -0.2374 -0.0998 -0.5390
 5451SOL    HW123642   9.382   6.870   3.217 -0.6664 -0.1149  0.0559
 5451SOL    HW223643   9.477   6.747   3.267 -2.7769 -0.7563  2.5587
 5452SOL     OW23644   1.038   9.367   2.467  0.1096 -0.1631 -0.3948
 5452SOL    HW123645   1.006   9.461   2.475  1.6782  0.6510 -2.9218
 5452SOL    HW223646   1.004   9.313   2.544 -1.7929  2.1720  0.4658
 5453SOL     OW23647   0.983   7.810   2.430  0.1737 -0.3159  1.0243
 5453SOL    HW123648   0.969   7.889   2.489 -0.6700 -0.7606  1.4375
 5453SOL    HW223649   0.998   7.840   2.336  1.6764  0.4054  1.4778
 5454SOL     OW23650   6.195   0.074   2.814  0.3210  0.2785  0.0450
 5454SOL    HW123651   6.131   0.148   2.836 -1.1156 -0.9118 -0.0134
 5454SOL    HW223652   6.256   0.059   2.892 -0.8097  0.0961  0.9214
 5457SOL     OW23653   7.959   9.694   1.012 -0.2655  0.4320  0.4662
 5457SOL    HW123654   7.995   9.758   1.080  0.6427 -1.0422  1.3895
 5457SOL    HW223655   7.868   9.662   1.041 -0.2481  0.4623  0.5536
 5458SOL     OW23656   4.516   7.646   2.446  0.6060 -0.3004  0.5436
 5458SOL    HW123657   4.510   7.631   2.545  2.1904  1.8216  0.9967
 5458SOL    HW223658   4.476   7.568   2.398 -1.9779 -0.4851  2.8687
 5459SOL     OW23659   4.697   3.467   3.056  0.5205 -0.2119  0.2092
 5459SOL    HW123660   4.753   3.518   3.121 -0.8550 -1.7688  2.7104
 5459SOL    HW223661   4.601   3.494   3.068  0.1369 -1.3021 -0.4347
 5460SOL     OW23662   4.145   2.743   1.411  0.1677 -0.3935  0.0460
 5460SOL    HW123663   4.086   2.820   1.387 -0.8061 -1.1746 -0.0999
 5460SOL    HW223664   4.090   2.659   1.415  1.1321 -1.0060  0.6420
 5461SOL     OW23665   7.882   3.738   0.619  0.4694 -0.4998 -0.1075
 5461SOL    HW123666   7.965   3.786   0.649  0.6496 -1.0221  0.2390
 5461SOL    HW223667   7.819   3.804   0.577  0.5558  0.1115  0.6930
 5462SOL     OW23668   7.698   0.117   0.775 -0.6842 -0.7142 -0.3764
 5462SOL    HW123669   7.663   0.030   0.809  0.5588 -1.1439 -0.1571
 5462SOL    HW223670   7.716   0.178   0.852  1.5103 -1.4502 -0.2728
 5463SOL     OW23671   6.219   8.340   2.803 -0.1666 -0.2222  0.0116
 5463SOL    HW123672   6.250   8.375   2.715 -0.6087  1.1876  0.4037
 5463SOL    HW223673   6.120   8.351   2.811 -0.0340  0.3952  0.9854
 5464SOL     OW23674   9.606   3.276   1.412 -0.0772 -0.1235 -0.1429
 5464SOL    HW123675   9.508   3.286   1.428  0.2192  2.5558  0.2877
 5464SOL    HW223676   9.624   3.280   1.313 -0.4515 -1.2685 -0.2627
 5465SOL     OW23677   5.329   9.978   2.882  0.2769  0.9696  0.5653
 5465SOL    HW123678   5.419  10.003   2.848 -0.7909  2.8748 -1.0031
 5465SOL    HW223679   5.266  10.055   2.868 -1.4990 -0.1930  1.9531
 5466SOL     OW23680   1.602   7.484   3.196  0.2644  0.6758  0.5473
 5466SOL    HW123681   1.559   7.508   3.282 -3.5421 -2.8455 -0.2186
 5466SOL    HW223682   1.675   7.417   3.212 -0.2504  0.2447  1.1031
 5467SOL     OW23683   2.022   9.970   3.279 -0.1181 -0.6152  0.2974
 5467SOL    HW123684   2.114   9.936   3.295 -1.0622 -3.8871 -0.9021
 5467SOL    HW223685   1.955   9.906   3.316 -1.9544  0.5382 -0.9312
 5469SOL     OW23686   7.785   6.571   2.328  0.3475  0.1396  0.1873
 5469SOL    HW123687   7.752   6.635   2.260  2.1774  0.7324 -0.1756
 5469SOL    HW223688   7.712   6.551   2.393 -0.9937  0.6340 -1.1373
 5470SOL     OW23689   7.643   7.782   2.529 -0.5471 -0.1646 -0.2776
 5470SOL    HW123690   7.721   7.732   2.565 -0.5788 -0.0344 -0.0306
 5470SOL    HW223691   7.566   7.719   2.514 -0.9116 -0.0207  0.9594
 5471SOL     OW23692   2.221   1.718   3.067 -0.4675  0.0490 -0.3957
 5471SOL    HW123693   2.215   1.655   2.990  0.3651 -0.5775  0.0417
 5471SOL    HW223694   2.286   1.791   3.045  1.0654 -1.0522  0.3270
 5472SOL     OW23695   0.613   1.353   0.468  0.1692  0.3046 -0.2432
 5472SOL    HW123696   0.602   1.365   0.567 -1.0281  0.0795 -0.3477
 5472SOL    HW223697   0.584   1.437   0.421  1.6463  0.7717 -0.3603
 5473SOL     OW23698   0.493   7.114   2.953  0.4247  0.0786  0.2350
 5473SOL    HW123699   0.475   7.131   2.856  1.6161  1.3600  0.2343
 5473SOL    HW223700   0.590   7.126   2.972  0.3266 -0.9102  1.4482
 5474SOL     OW23701   4.419   0.564   0.913 -0.3082 -0.1569 -0.2396
 5474SOL    HW123702   4.448   0.468   0.917  0.8457  0.1526 -0.7279
 5474SOL    HW223703   4.369   0.581   0.829  0.5443 -0.0568 -0.7294
 5475SOL     OW23704   0.989   3.294   1.176 -0.5365  0.4823 -0.0533
 5475SOL    HW123705   0.900   3.248   1.174 -0.6985  0.7611  0.5178
 5475SOL    HW223706   1.054   3.237   1.226 -0.1935 -0.0585 -1.0937
 5477SOL     OW23707   5.957   6.918   2.570  0.0407 -0.3888 -0.2545
 5477SOL    HW123708   5.873   6.903   2.623 -0.0370  2.1596  0.4167
 5477SOL    HW223709   5.991   6.831   2.536 -1.3372 -1.8036  1.8560
 5478SOL     OW23710   7.909   9.431   1.159  0.3973  0.4421 -0.4811
 5478SOL    HW123711   7.953   9.351   1.118 -0.0133 -0.5877  1.0180
 5478SOL    HW223712   7.821   9.448   1.114  0.8841  0.5846 -1.3808
 5479SOL     OW23713   0.068   7.856   0.316  0.2864  0.0798  0.1811
 5479SOL    HW123714   0.068   7.756   0.317  0.0900  0.0807  0.3955
 5479SOL    HW223715   0.035   7.890   0.404 -0.3475  0.3312 -0.1486
 5480SOL     OW23716   7.297   7.122   3.582 -0.4363 -0.0956 -0.4372
 5480SOL    HW123717   7.341   7.137   3.671  0.1654 -0.6538 -0.6377
 5480SOL    HW223718   7.264   7.028   3.576 -0.6116 -0.0146 -0.7473
 5481SOL     OW23719   2.109   3.807   1.690 -0.0561  0.0775 -0.1063
 5481SOL    HW123720   2.143   3.837   1.601  0.2809  0.5039  0.1661
 5481SOL    HW223721   2.181   3.759   1.739  0.8468  2.7400  1.3116
 5482SOL     OW23722   4.710   4.257   1.143  0.3051 -0.3876 -0.0414
 5482SOL    HW123723   4.665   4.332   1.093 -0.4549 -1.0797 -0.4033
 5482SOL    HW223724   4.757   4.198   1.078 -0.0044 -0.8341  0.1390
 5483SOL     OW23725   5.155   0.146   1.945 -0.8727 -0.9883  0.0135
 5483SOL    HW123726   5.087   0.181   1.881 -1.1225 -3.0229 -0.8622
 5483SOL    HW223727   5.223   0.217   1.963 -1.8467  0.2385 -1.0210
 5484SOL     OW23728   5.705   9.551   3.483  0.0402 -0.1182  0.3366
 5484SOL    HW123729   5.733   9.567   3.389  1.4376 -2.2993  0.3389
 5484SOL    HW223730   5.661   9.461   3.490  1.3575 -0.6631  2.0210
 5485SOL     OW23731   9.373   1.756   1.580 -0.4743 -0.0258 -0.0838
 5485SOL    HW123732   9.357   1.843   1.628 -1.5352  0.6127 -1.5655
 5485SOL    HW223733   9.333   1.681   1.632 -0.2947  0.4737  0.7786
 5486SOL     OW23734   7.774   1.747   3.640  0.2620 -0.5004  0.3524
 5486SOL    HW123735   7.729   1.836   3.629  1.0887  0.0162  1.1278
 5486SOL    HW223736   7.714   1.675   3.605 -0.3946  0.3665 -0.3124
 5487SOL     OW23737   5.156   0.859   3.495  0.3798 -0.1553  0.3276
 5487SOL    HW123738   5.180   0.763   3.482  1.7769  0.2903 -0.4542
 5487SOL    HW223739   5.203   0.894   3.577 -0.2316 -0.1719  0.6869
 5489SOL     OW23740   0.695   9.336   0.040 -0.8555 -0.5215  0.7649
 5489SOL    HW123741   0.757   9.414   0.051 -0.3169 -0.8977  0.4383
 5489SOL    HW223742   0.620   9.361  -0.021  0.4170 -0.8747 -0.9843
 5490SOL     OW23743   1.321   0.470   2.060  0.0175 -0.2947 -0.3631
 5490SOL    HW123744   1.372   0.474   2.146  0.7645  0.8990 -0.8546
 5490SOL    HW223745   1.244   0.534   2.063  1.3341  1.3545 -1.4041
 5491SOL     OW23746   3.466   3.709   1.899  0.0151  0.7741 -0.2789
 5491SOL    HW123747   3.557   3.699   1.858 -0.3383 -0.9391 -0.7085
 5491SOL    HW223748   3.428   3.798   1.875  1.9477  1.8809  0.6648
 5492SOL     OW23749   0.440   0.789   1.598 -0.1399 -0.5091 -0.3548
 5492SOL    HW123750   0.487   0.821   1.681 -0.6246  0.2283 -0.3597
 5492SOL    HW223751   0.415   0.693   1.609  1.0046 -0.7943 -0.1902
 5493SOL     OW23752   0.082   3.320   1.999 -0.6087  0.2674 -0.6774
 5493SOL    HW123753   0.056   3.277   1.913 -0.3063  1.0702 -1.1827
 5493SOL    HW223754   0.142   3.398   1.980  2.1838 -1.5195  0.4340
 5495SOL     OW23755   8.554   4.698   2.968  0.3728 -0.4301 -0.1303
 5495SOL    HW123756   8.605   4.616   2.994 -0.8861 -0.6424  1.7908
 5495SOL    HW223757   8.471   4.670   2.918  0.1655 -0.2989  0.1432
 5496SOL     OW23758   9.617   8.843   0.146 -0.0024  0.2883 -0.2616
 5496SOL    HW123759   9.665   8.787   0.213 -1.5008  0.3959  0.9494
 5496SOL    HW223760   9.521   8.815   0.142 -0.3453  1.5170 -1.0111
 5497SOL     OW23761   7.977   9.568   1.722 -0.1619 -0.5306  0.7288
 5497SOL    HW123762   8.036   9.515   1.662 -0.0073 -1.4706  1.6976
 5497SOL    HW223763   8.032   9.610   1.795 -0.4747 -0.1268  0.7370
 5499SOL     OW23764   9.104   6.304   0.619  0.0755  0.1164  0.2143
 5499SOL    HW123765   9.132   6.371   0.688  0.5008 -0.3043  0.4495
 5499SOL    HW223766   9.004   6.295   0.621  0.0189  0.7065  0.2133
 5502SOL     OW23767   2.351   8.060   2.259  0.1341 -0.0728  0.2557
 5502SOL    HW123768   2.351   8.023   2.167 -2.2229  0.2758  0.0789
 5502SOL    HW223769   2.402   7.999   2.320  3.0632  0.5003 -1.5485
 5503SOL     OW23770   7.716   8.462   3.435  0.3186  0.1469 -0.5384
 5503SOL    HW123771   7.794   8.431   3.489 -0.4650  0.7198  0.9576
 5503SOL    HW223772   7.701   8.560   3.451 -1.4539 -0.2232  0.1546
 5504SOL     OW23773   9.591   8.887   0.506 -0.6703 -0.9277 -0.7052
 5504SOL    HW123774   9.536   8.864   0.586 -0.8707  0.1371 -0.5241
 5504SOL    HW223775   9.590   8.986   0.493 -0.3886 -1.0729 -1.8502
 5505SOL     OW23776   1.494   7.371   0.384  0.1882 -0.0334 -0.3393
 5505SOL    HW123777   1.398   7.399   0.392  0.0534 -0.2787 -1.0251
 5505SOL    HW223778   1.547   7.444   0.340 -0.2350 -0.9611 -2.4584
 5506SOL     OW23779   8.630   6.328   1.602 -0.2274  0.2475 -0.1689
 5506SOL    HW123780   8.681   6.399   1.650 -1.2305  1.2649 -0.5931
 5506SOL    HW223781   8.532   6.347   1.608 -0.5402 -1.4200  0.2137
 5508SOL     OW23782   8.355   2.839   0.985 -0.6246  0.5872 -0.1745
 5508SOL    HW123783   8.297   2.918   1.007 -2.0079 -0.0651 -1.3609
 5508SOL    HW223784   8.302   2.756   0.997 -0.0213 -0.0084 -1.6491
 5510SOL     OW23785   0.561   7.947   1.762 -0.6769 -0.1905 -0.5201
 5510SOL    HW123786   0.512   7.930   1.848 -0.0982 -1.5451 -0.4415
 5510SOL    HW223787   0.496   7.979   1.693 -1.2192  0.5089  0.3005
 5511SOL     OW23788   2.130   3.929   1.069  0.1359 -0.1113  0.5324
 5511SOL    HW123789   2.162   3.893   1.157 -0.7429 -1.1323  0.4362
 5511SOL    HW223790   2.082   4.015   1.084 -2.7553 -1.8346  1.4225
 5512SOL     OW23791   2.028   5.530   2.315 -0.1991  0.3056 -0.0500
 5512SOL    HW123792   2.002   5.443   2.355 -1.3539  1.5628  2.0161
 5512SOL    HW223793   1.954   5.563   2.256 -0.0524  0.2162 -0.2850
 5513SOL     OW23794   1.213   9.665   2.847  0.2117  0.3692 -0.2818
 5513SOL    HW123795   1.174   9.756   2.862  2.1400  0.8891  1.8988
 5513SOL    HW223796   1.285   9.670   2.778  0.8922  0.6846  0.4388
 5514SOL     OW23797   3.603   1.460   1.819  0.0942 -0.3239 -0.2544
 5514SOL    HW123798   3.684   1.482   1.874  0.1862 -0.4330 -0.3491
 5514SOL    HW223799   3.579   1.539   1.763  0.2995 -0.3910 -0.4343
 5516SOL     OW23800   4.966   2.792   0.352 -0.2916  0.0677 -0.0868
 5516SOL    HW123801   5.041   2.793   0.419  0.4541  0.4863 -0.9026
 5516SOL    HW223802   4.907   2.872   0.367  0.9930  1.2496 -1.1331
 5517SOL     OW23803   7.870   5.256   0.439 -0.1238  0.7728  0.1279
 5517SOL    HW123804   7.899   5.349   0.458  0.4017  0.5208  0.5633
 5517SOL    HW223805   7.835   5.250   0.345 -3.9343  2.3298  1.3570
 5518SOL     OW23806   1.920   6.464   2.082 -0.1589  0.7028  0.1014
 5518SOL    HW123807   1.919   6.560   2.107 -0.7748  1.0930 -1.3453
 5518SOL    HW223808   2.014   6.433   2.071  0.0184  1.3745 -0.2904
 5519SOL     OW23809   2.584   9.695   2.520  0.0985  0.0342 -0.5699
 5519SOL    HW123810   2.551   9.789   2.531  0.5107  0.0731  0.4082
 5519SOL    HW223811   2.537   9.651   2.443 -0.6584  0.7901 -0.5402
 5520SOL     OW23812   3.838   7.527   1.385 -0.0666 -0.8800 -0.0909
 5520SOL    HW123813   3.824   7.447   1.327  1.3861 -0.3424 -1.1899
 5520SOL    HW223814   3.936   7.541   1.399 -0.3838 -0.5992  1.9372
 5521SOL     OW23815   0.862   6.694   0.924 -0.5342  0.2188  0.5166
 5521SOL    HW123816   0.896   6.629   0.857  0.6828 -0.7892  2.0927
 5521SOL    HW223817   0.792   6.752   0.881 -1.4867 -1.9530 -0.9766
 5522SOL     OW23818   8.930   7.437   3.420 -0.0631  0.3044 -0.4729
 5522SOL    HW123819   8.888   7.371   3.359  2.1216 -0.7461 -0.8572
 5522SOL    HW223820   9.012   7.398   3.461 -0.7729  1.4463  2.1570
 5523SOL     OW23821   2.326   7.543   0.081 -0.4555 -0.3676 -0.4702
 5523SOL    HW123822   2.299   7.639   0.085 -0.5649 -0.3832 -0.8059
 5523SOL    HW223823   2.247   7.487   0.057  0.0639 -0.3136 -2.3810
 5524SOL     OW23824   9.593   6.385   2.412 -0.2421  0.0043 -0.2858
 5524SOL    HW123825   9.613   6.310   2.349  0.3431 -0.9103  0.9722
 5524SOL    HW223826   9.553   6.462   2.361  0.5774 -0.5714 -1.8163
 5525SOL     OW23827   8.136   1.833   2.147  0.9029 -0.2871  0.0194
 5525SOL    HW123828   8.185   1.920   2.139  1.6019 -0.7131 -0.4228
 5525SOL    HW223829   8.092   1.812   2.059 -0.3684  0.2625  0.5177
 5526SOL     OW23830   1.784   1.230   3.099 -0.6256 -0.2122 -0.5172
 5526SOL    HW123831   1.811   1.317   3.140 -0.1313 -0.4682 -0.3016
 5526SOL    HW223832   1.732   1.176   3.166  1.1077 -1.0925  0.1576
 5527SOL     OW23833   9.430   4.318   2.687  0.1580  0.4401 -0.1773
 5527SOL    HW123834   9.367   4.313   2.609 -0.1734  2.3464 -0.0682
 5527SOL    HW223835   9.510   4.261   2.669 -0.8235 -0.6925 -1.0463
 5528SOL     OW23836   2.879   5.337   0.880  0.4884 -0.1930 -0.4932
 5528SOL    HW123837   2.956   5.327   0.816  0.7261 -0.3577 -0.1818
 5528SOL    HW223838   2.910   5.318   0.973  0.4680  1.4492 -0.1532
 5529SOL     OW23839   1.052   6.539   3.535 -0.0167 -0.3955  0.4609
 5529SOL    HW123840   1.082   6.604   3.605  0.7838 -0.9306  0.6207
 5529SOL    HW223841   1.130   6.512   3.478 -0.7185  0.2959 -0.8641
 5530SOL     OW23842   3.197   5.693   2.509  0.5330  0.1701  0.1906
 5530SOL    HW123843   3.215   5.725   2.416  0.0098 -0.5907 -0.1799
 5530SOL    HW223844   3.100   5.707   2.531  0.1717 -1.6434 -0.1782
 5531SOL     OW23845   9.253   4.494   0.065  0.7784  0.2356  0.6832
 5531SOL    HW123846   9.292   4.497  -0.027 -0.4710 -0.4914  0.1304
 5531SOL    HW223847   9.156   4.515   0.062  0.6407 -0.1801  1.7947
 5533SOL     OW23848   8.408   9.311   0.246  0.1616 -0.2966 -0.7098
 5533SOL    HW123849   8.411   9.409   0.263  0.8269 -0.1325 -1.6760
 5533SOL    HW223850   8.317   9.285   0.214  0.4476  0.3058 -2.0579
 5534SOL     OW23851   8.459   5.609   1.815 -0.3932 -0.2657  0.0610
 5534SOL    HW123852   8.425   5.666   1.890 -0.5886  0.8663 -0.8629
 5534SOL    HW223853   8.492   5.668   1.741  0.1887 -1.3646 -0.5738
 5535SOL     OW23854   8.441   3.129   1.600  0.0577 -0.4452 -0.0926
 5535SOL    HW123855   8.533   3.168   1.588 -0.6179  1.1488 -0.3212
 5535SOL    HW223856   8.429   3.051   1.539  2.5047 -2.9963  2.5223
 5536SOL     OW23857   0.006   5.746   2.609 -0.3077 -0.0571  0.1966
 5536SOL    HW123858  -0.051   5.800   2.548 -0.8536 -0.2550  0.5270
 5536SOL    HW223859   0.101   5.777   2.603 -0.5671  0.7293  0.1535
 5537SOL     OW23860   8.812   9.563   0.149  0.2814 -0.2675  0.4108
 5537SOL    HW123861   8.889   9.609   0.193 -0.2948  1.0294  0.0977
 5537SOL    HW223862   8.744   9.631   0.122  0.8920 -0.9701 -3.0438
 5538SOL     OW23863   2.847   2.088   0.303 -0.3615 -0.3518 -0.4484
 5538SOL    HW123864   2.925   2.139   0.340 -0.7779 -0.2016  0.2306
 5538SOL    HW223865   2.876   2.037   0.222  0.5390 -0.5967  0.0191
 5539SOL     OW23866   0.854   4.902   2.977 -0.2038 -0.4862  0.1438
 5539SOL    HW123867   0.871   4.873   2.883 -0.6743 -1.2139  0.2850
 5539SOL    HW223868   0.875   5.000   2.985  1.1024 -0.7081 -0.3894
 5540SOL     OW23869   9.706   0.029   3.650  0.2344 -0.9092 -0.6948
 5540SOL    HW123870   9.728   0.119   3.689 -1.7056 -1.0167  0.7496
 5540SOL    HW223871   9.761  -0.041   3.695 -0.4757 -0.7893  0.3635
 5541SOL     OW23872   3.966   1.816   1.366  0.6217  0.3109 -0.5022
 5541SOL    HW123873   3.870   1.811   1.393  0.6972 -1.8602 -0.5154
 5541SOL    HW223874   4.013   1.733   1.396  2.1391  0.6684 -1.8132
 5542SOL     OW23875   1.501   5.165   2.056  0.0257 -0.4244  0.0057
 5542SOL    HW123876   1.526   5.158   1.960  1.3069 -1.5857  0.4237
 5542SOL    HW223877   1.487   5.262   2.080  2.2919  0.1050 -0.7035
 5543SOL     OW23878   1.561   9.119   2.833 -0.2312 -0.0424  0.4528
 5543SOL    HW123879   1.568   9.215   2.861 -1.6171 -0.5320  2.5917
 5543SOL    HW223880   1.478   9.105   2.780 -2.1355 -0.7724  3.4830
 5545SOL     OW23881   7.582   9.870   3.707 -0.0539 -0.1785 -0.2856
 5545SOL    HW123882   7.653   9.938   3.690 -1.6100  1.8296  0.9756
 5545SOL    HW223883   7.517   9.870   3.630 -1.1759  1.2344  0.6502
 5546SOL     OW23884   4.977   6.659   2.180  0.1510  0.2831 -0.1313
 5546SOL    HW123885   5.032   6.741   2.164  1.8664 -0.7241  0.4905
 5546SOL    HW223886   4.885   6.674   2.145  0.5122  2.3805 -0.2690
 5547SOL     OW23887   4.920   3.094   2.029  0.3168  0.1307 -0.4636
 5547SOL    HW123888   5.003   3.078   1.974  1.4644  1.3634  0.8749
 5547SOL    HW223889   4.945   3.097   2.126 -1.4210 -0.1763 -0.0015
 5548SOL     OW23890   0.756   0.777   0.450 -0.4148 -0.2444 -0.1326
 5548SOL    HW123891   0.659   0.793   0.430 -0.3890  2.1107  1.4662
 5548SOL    HW223892   0.812   0.839   0.396  0.0132  0.8905  1.5814
 5550SOL     OW23893   4.728   9.372   1.420  0.3504 -0.3638 -0.3114
 5550SOL    HW123894   4.680   9.315   1.487  0.5101  0.0976  0.2076
 5550SOL    HW223895   4.816   9.400   1.458 -0.1224  0.9952 -0.1622
 5551SOL     OW23896   1.385   5.361   1.458  0.1373 -0.2570  0.4526
 5551SOL    HW123897   1.319   5.357   1.383  1.2121 -0.2396 -0.5070
 5551SOL    HW223898   1.430   5.272   1.468  2.6184  0.7697 -1.3336
 5553SOL     OW23899   1.439   4.703   1.730  0.4251  0.0160 -0.1157
 5553SOL    HW123900   1.385   4.775   1.685  2.3658  0.3812 -1.9576
 5553SOL    HW223901   1.452   4.627   1.667 -0.8790 -1.6211  1.5381
 5555SOL     OW23902   7.845   1.084   2.743 -0.1326 -0.6189 -0.0478
 5555SOL    HW123903   7.758   1.035   2.746  0.5578 -1.9186 -0.9597
 5555SOL    HW223904   7.848   1.143   2.662 -0.2045 -0.4737  0.0537
 5556SOL     OW23905   9.766   7.318   1.159  0.1676 -0.0315 -0.4577
 5556SOL    HW123906   9.737   7.231   1.120 -3.0393  0.3172  0.9301
 5556SOL    HW223907   9.752   7.391   1.092 -0.3132 -0.1461 -0.4843
 5557SOL     OW23908   9.191   0.038   1.124  0.3963 -0.7979 -0.0290
 5557SOL    HW123909   9.149   0.049   1.214  0.8745 -1.1188  0.2352
 5557SOL    HW223910   9.283   0.077   1.125  0.0275  0.1050 -0.6688
 5558SOL     OW23911   1.920   2.155   2.658 -0.3564 -0.2164  0.4626
 5558SOL    HW123912   1.906   2.109   2.745  0.1854 -1.7449 -0.2437
 5558SOL    HW223913   1.884   2.099   2.584  0.6088  0.3342 -0.4425
 5559SOL     OW23914   1.922   6.266   1.381 -0.1514  0.9098 -0.2795
 5559SOL    HW123915   1.886   6.354   1.414  1.1346  0.6292  1.9435
 5559SOL    HW223916   1.928   6.201   1.457  3.0351  0.2956 -0.9700
 5561SOL     OW23917   4.671   8.189   1.634  0.3710 -0.9091 -0.1008
 5561SOL    HW123918   4.680   8.286   1.655  0.7766 -0.4233 -2.3783
 5561SOL    HW223919   4.761   8.152   1.609  0.4612 -2.2041  1.9920
 5563SOL     OW23920   4.532   9.050   2.518 -0.6671 -0.4440 -0.3241
 5563SOL    HW123921   4.600   9.118   2.491  0.6238 -0.5184  2.6110
 5563SOL    HW223922   4.444   9.095   2.535 -0.5519  0.0816 -1.1069
 5567SOL     OW23923   1.303   2.884   1.731  0.2749 -0.3883  0.2301
 5567SOL    HW123924   1.264   2.975   1.746 -3.2643 -2.0903  1.8299
 5567SOL    HW223925   1.239   2.828   1.679  1.6571 -2.5151  0.7555
 5568SOL     OW23926   2.432   4.680   3.131  0.0782 -0.2725  0.1168
 5568SOL    HW123927   2.522   4.674   3.174  1.1318 -0.0392 -1.9665
 5568SOL    HW223928   2.376   4.747   3.178  1.0223 -0.3791  1.4014
 5569SOL     OW23929   3.063   1.457   0.233  0.5519 -0.1550 -0.0440
 5569SOL    HW123930   3.027   1.371   0.197  2.1297 -1.2367  0.9143
 5569SOL    HW223931   3.000   1.492   0.303  0.6610 -1.3420  0.6704
 5570SOL     OW23932   9.661   3.318   1.796 -0.4028  0.4610 -0.0618
 5570SOL    HW123933   9.568   3.333   1.761 -2.0454  0.5626  4.0952
 5570SOL    HW223934   9.687   3.393   1.856  1.7999 -0.3295  0.0208
 5571SOL     OW23935   0.311   1.592   1.789 -0.3158 -0.2393 -0.1594
 5571SOL    HW123936   0.356   1.619   1.875  0.3801 -0.9092 -0.3090
 5571SOL    HW223937   0.212   1.590   1.803 -0.1339 -1.8584  1.0805
 5572SOL     OW23938   7.635   1.543   3.544  0.5526  0.0046  0.3879
 5572SOL    HW123939   7.541   1.551   3.510 -0.2368 -0.6821  2.3534
 5572SOL    HW223940   7.680   1.467   3.498 -0.5718 -1.0517  0.9939
 5573SOL     OW23941   9.783   8.335   1.532 -0.1801 -0.0221 -0.3321
 5573SOL    HW123942   9.693   8.360   1.567 -0.3414 -0.6072 -0.3254
 5573SOL    HW223943   9.789   8.235   1.524  0.2909  0.0454 -0.8032
 5574SOL     OW23944   0.219   2.061   0.095 -0.5045  0.3306 -0.0120
 5574SOL    HW123945   0.191   2.153   0.067  0.5201  0.0788 -2.0351
 5574SOL    HW223946   0.310   2.065   0.136  0.8294 -0.1006 -2.8016
 5575SOL     OW23947   5.075   8.940   3.220 -0.2725 -0.2858  0.1940
 5575SOL    HW123948   5.060   8.930   3.318  0.7060  0.3645  0.4052
 5575SOL    HW223949   5.153   8.883   3.192  0.0629  0.2898 -0.0400
 5576SOL     OW23950   9.747   0.844   0.274 -0.0886 -0.1590  0.1853
 5576SOL    HW123951   9.810   0.916   0.304  0.7768 -0.4897 -0.8240
 5576SOL    HW223952   9.796   0.778   0.217 -1.7384  0.6141 -2.2146
 5577SOL     OW23953   5.967   9.792   3.366  0.5919  0.0468  0.2080
 5577SOL    HW123954   5.988   9.801   3.463 -0.5473 -0.3881  0.5087
 5577SOL    HW223955   5.873   9.821   3.349  0.6343 -0.3096 -0.6878
 5579SOL     OW23956   4.142   2.419   1.933 -0.1578  0.4115  0.0512
 5579SOL    HW123957   4.132   2.475   1.851  0.4886  0.6542  0.1396
 5579SOL    HW223958   4.176   2.474   2.008  2.6437 -0.5573 -0.4576
 5580SOL     OW23959   2.297   3.941   3.710  0.1325 -0.2619 -0.2498
 5580SOL    HW123960   2.372   3.914   3.649 -0.5381  0.6056 -1.4895
 5580SOL    HW223961   2.212   3.896   3.682 -0.3468  0.7443 -0.4436
 5581SOL     OW23962   1.509   9.007   3.291  0.6442 -0.2367 -0.0391
 5581SOL    HW123963   1.446   8.931   3.279  2.1412 -1.5094  0.0299
 5581SOL    HW223964   1.541   9.038   3.201  1.0794 -0.5730  0.0011
 5582SOL     OW23965   1.652   5.575   0.438 -0.0307 -0.6845  0.6227
 5582SOL    HW123966   1.640   5.628   0.522 -0.5917 -0.9334  0.7024
 5582SOL    HW223967   1.622   5.481   0.454  0.0772 -0.7897  0.2074
 5583SOL     OW23968   9.490   0.464   1.488 -0.2207 -0.3698 -0.2730
 5583SOL    HW123969   9.404   0.418   1.468 -1.1982  1.8470 -1.3390
 5583SOL    HW223970   9.485   0.504   1.580 -0.1220 -0.7171 -0.1173
 5584SOL     OW23971   8.060   5.218   2.521  0.8602 -0.1088  0.0470
 5584SOL    HW123972   8.114   5.301   2.536 -0.3725  0.8718 -0.8188
 5584SOL    HW223973   7.964   5.237   2.541  0.7538 -1.7255  1.1953
 5585SOL     OW23974   9.860   3.779   0.641 -0.0194  0.0912 -0.5211
 5585SOL    HW123975   9.896   3.871   0.628  0.6123 -0.0960 -0.1038
 5585SOL    HW223976   9.934   3.712   0.636 -0.4855 -0.4089 -0.9252
 5586SOL     OW23977   0.042   6.024   3.475  0.0134 -0.0800 -0.2025
 5586SOL    HW123978   0.021   6.079   3.394  1.3962  1.8404  0.7263
 5586SOL    HW223979   0.073   5.933   3.445  0.7435  0.6852 -1.8466
 5587SOL     OW23980   1.187   9.450   1.964  0.5868  0.1326  0.0082
 5587SOL    HW123981   1.093   9.442   1.998  0.7505  1.6148  0.8475
 5587SOL    HW223982   1.187   9.450   1.864 -0.0358 -2.7901 -0.0247
 5588SOL     OW23983   0.603   6.383   0.624 -0.3774 -0.2557  0.1530
 5588SOL    HW123984   0.702   6.387   0.639 -0.5719  1.1637  1.1695
 5588SOL    HW223985   0.574   6.460   0.567 -0.7490 -1.3063 -1.0948
 5589SOL     OW23986   3.611   0.371   0.497  0.4090  0.1582 -0.7087
 5589SOL    HW123987   3.628   0.468   0.478  1.2333 -0.0214 -0.8897
 5589SOL    HW223988   3.619   0.355   0.596  2.2319 -0.1036 -0.8887
 5590SOL     OW23989   5.067   2.734   0.911  0.2735  0.2671  0.0418
 5590SOL    HW123990   5.007   2.686   0.847  0.9202 -1.2089  0.5455
 5590SOL    HW223991   5.137   2.784   0.859 -0.5751  0.9417 -0.4853
 5591SOL     OW23992   6.385   8.184   1.689 -0.0023 -0.2942  0.3916
 5591SOL    HW123993   6.431   8.097   1.702 -0.6318 -0.8094 -0.6880
 5591SOL    HW223994   6.443   8.258   1.723  1.2477 -0.9972 -0.1662
 5592SOL     OW23995   3.356   6.010   1.825  0.3177 -0.2585 -0.4009
 5592SOL    HW123996   3.344   6.036   1.729 -2.3694  0.6895  0.1466
 5592SOL    HW223997   3.335   5.912   1.835 -0.2478 -0.1704 -0.6599
 5593SOL     OW23998   9.521   5.449   3.728  0.4275 -0.7674  0.1320
 5593SOL    HW123999   9.573   5.365   3.744  0.8154 -0.7468 -1.0060
 5593SOL    HW224000   9.447   5.431   3.663  0.1226 -0.3732  0.3631
 5594SOL     OW24001   4.000   3.897   0.778 -0.3526 -0.2350  0.6402
 5594SOL    HW124002   4.091   3.857   0.770 -0.3164  0.2345 -1.7691
 5594SOL    HW224003   3.979   3.915   0.874  1.7900 -1.0321  1.2725
 5596SOL     OW24004   9.536   8.062   1.601 -0.9114 -0.5444 -1.0643
 5596SOL    HW124005   9.532   7.995   1.676 -0.1129  1.6847  1.0236
 5596SOL    HW224006   9.628   8.063   1.562 -0.7936 -0.2887 -0.7724
 5597SOL     OW24007   3.564   9.620   3.288  0.0170  0.1201  0.0359
 5597SOL    HW124008   3.525   9.573   3.209  0.6479 -0.3963  0.0215
 5597SOL    HW224009   3.641   9.566   3.323 -1.3669 -0.5598  2.0948
 5598SOL     OW24010   6.664   8.750   2.913  0.1534  0.3757 -0.0267
 5598SOL    HW124011   6.724   8.670   2.920 -0.0257  0.2353 -0.1050
 5598SOL    HW224012   6.695   8.808   2.838 -0.1145  0.0474 -0.3926
 5599SOL     OW24013   3.908   4.853   0.758  0.0321 -0.4385 -0.3564
 5599SOL    HW124014   3.973   4.829   0.830  1.2805  2.6465 -0.3518
 5599SOL    HW224015   3.931   4.806   0.673  0.6043 -1.4718  0.3754
 5600SOL     OW24016   4.539   2.386   0.245  0.0808 -0.2170 -0.5395
 5600SOL    HW124017   4.539   2.287   0.258 -0.1626 -0.2566 -0.8590
 5600SOL    HW224018   4.633   2.418   0.235  0.0882 -0.5590 -1.5735
 5601SOL     OW24019   7.836   5.886   2.841 -0.5418  0.3673  0.3798
 5601SOL    HW124020   7.760   5.869   2.904 -0.5097 -0.6162  0.1603
 5601SOL    HW224021   7.827   5.978   2.802 -0.3959  1.0852  2.0318
 5602SOL     OW24022   1.845   0.280   1.393 -0.4085  0.2320 -0.0503
 5602SOL    HW124023   1.813   0.186   1.382  1.5430 -0.3623 -0.8477
 5602SOL    HW224024   1.942   0.280   1.417 -0.6276  2.0229  0.9297
 5604SOL     OW24025   4.092   8.954   1.397 -0.3444 -0.0081  0.1809
 5604SOL    HW124026   4.031   9.009   1.339 -1.3682 -0.0271  1.2179
 5604SOL    HW224027   4.058   8.954   1.491  0.9615 -0.4817  0.6702
 5605SOL     OW24028   3.550   3.185   0.053 -0.0067  0.3309  0.6951
 5605SOL    HW124029   3.587   3.195  -0.039  1.1139 -0.4548  1.0417
 5605SOL    HW224030   3.580   3.262   0.109  1.1205 -0.2789  0.9624
 5606SOL     OW24031   4.208   3.076   3.672 -0.4878  0.2053  0.2943
 5606SOL    HW124032   4.302   3.050   3.692 -1.0399 -2.4243 -0.4182
 5606SOL    HW224033   4.171   3.129   3.749  0.6335 -1.2316  1.8503
 5607SOL     OW24034   3.283   7.728   2.550  0.1577  0.5363 -0.5081
 5607SOL    HW124035   3.210   7.659   2.553  0.9015 -0.2529 -0.3717
 5607SOL    HW224036   3.338   7.715   2.468  0.4996  0.7686 -0.3168
 5609SOL     OW24037   7.264   0.164   0.741  0.3508 -0.0633 -0.3969
 5609SOL    HW124038   7.300   0.214   0.820  0.5128 -1.0115  0.1410
 5609SOL    HW224039   7.266   0.223   0.661  1.1401  0.5838  0.0864
 5610SOL     OW24040   3.975   1.359   3.579 -0.3908  0.0233 -0.0355
 5610SOL    HW124041   4.042   1.305   3.630  0.7831  0.1090 -1.4455
 5610SOL    HW224042   3.993   1.350   3.481 -3.1141 -0.8056 -0.5124
 5611SOL     OW24043   0.691   6.774   2.646 -0.0867  0.3812  0.0002
 5611SOL    HW124044   0.771   6.813   2.693 -0.6001  0.0403  1.1697
 5611SOL    HW224045   0.631   6.731   2.713 -1.7432  1.4767 -0.7624
 5612SOL     OW24046   7.543   8.544   1.274 -0.7201  0.0959 -0.1211
 5612SOL    HW124047   7.535   8.587   1.184  0.3142 -0.1478 -0.3344
 5612SOL    HW224048   7.545   8.445   1.263  0.2529  0.0875  0.0979
 5613SOL     OW24049   8.091   4.440   3.366 -0.4643  0.4385  0.2216
 5613SOL    HW124050   8.179   4.440   3.317 -1.5600  2.0512 -1.8172
 5613SOL    HW224051   8.024   4.492   3.314 -2.3198  0.2780  2.3817
 5614SOL     OW24052   0.964   2.761   2.173  0.2978 -0.0274 -0.8277
 5614SOL    HW124053   0.977   2.746   2.271  0.4559 -0.9437 -0.9797
 5614SOL    HW224054   1.035   2.821   2.138  1.5683 -1.4743 -0.8002
 5616SOL     OW24055   0.494   1.608   1.584  0.5896  0.2138  0.4631
 5616SOL    HW124056   0.424   1.620   1.655 -0.4886  0.7663 -0.6804
 5616SOL    HW224057   0.543   1.522   1.601  0.7281  0.6030  2.1889
 5618SOL     OW24058   2.572   6.222   3.370  0.4376  0.1769 -0.5048
 5618SOL    HW124059   2.602   6.230   3.465 -0.5535  3.4865 -0.3989
 5618SOL    HW224060   2.474   6.241   3.365  0.8221  1.8128 -2.3966
 5619SOL     OW24061   8.039   9.895   0.532 -0.1479 -0.6452 -0.8428
 5619SOL    HW124062   7.947   9.875   0.499  0.3054  0.5838 -3.0050
 5619SOL    HW224063   8.035   9.969   0.599 -0.7557 -0.7669 -0.7420
 5620SOL     OW24064   1.768   6.596   1.451 -0.3659  0.1625  0.3086
 5620SOL    HW124065   1.757   6.690   1.485 -0.8108 -0.0701  0.8125
 5620SOL    HW224066   1.734   6.590   1.357  1.1093  0.8711 -0.2905
 5621SOL     OW24067   9.211   2.065   0.332 -0.0574  0.2231 -0.3750
 5621SOL    HW124068   9.162   2.151   0.346  1.9057  1.4635 -0.9051
 5621SOL    HW224069   9.270   2.046   0.411  0.2056 -0.1557 -0.6576
 5622SOL     OW24070   0.503   1.171   0.933 -0.0259  0.2978 -0.0432
 5622SOL    HW124071   0.584   1.209   0.890  0.3816  0.3901  0.8037
 5622SOL    HW224072   0.527   1.128   1.020 -1.3438  3.2558  1.8804
 5624SOL     OW24073   9.152   8.474   0.725  0.1468  0.2645  0.0267
 5624SOL    HW124074   9.178   8.546   0.790 -1.0614 -1.0784  2.0863
 5624SOL    HW224075   9.229   8.412   0.712  0.5445  0.7983 -0.1886
 5625SOL     OW24076   1.030   2.290   1.169 -0.1135  0.5739 -0.3600
 5625SOL    HW124077   0.946   2.255   1.210 -0.5437  1.5179 -0.4275
 5625SOL    HW224078   1.013   2.379   1.129  1.1047  1.1037  0.2696
 5626SOL     OW24079   2.208   7.510   3.643  0.1893  0.0020 -0.4323
 5626SOL    HW124080   2.265   7.522   3.562  0.8795 -0.8449 -0.0805
 5626SOL    HW224081   2.210   7.594   3.698  1.3648 -0.1426 -0.2506
 5627SOL     OW24082   8.389   0.376   2.295 -0.0681 -0.4464  0.3434
 5627SOL    HW124083   8.315   0.384   2.362 -1.7389 -0.8314 -1.3773
 5627SOL    HW224084   8.385   0.285   2.252  1.9127 -0.7544  0.7877
 5629SOL     OW24085   7.631   9.503   0.370 -0.0598  0.2556 -0.6044
 5629SOL    HW124086   7.668   9.591   0.402  1.4212 -0.4743 -0.2797
 5629SOL    HW224087   7.550   9.520   0.314 -0.0833  1.8041 -0.1282
 5632SOL     OW24088   0.235   7.739   0.598  0.2067  0.7065  0.0697
 5632SOL    HW124089   0.261   7.646   0.570 -1.4787 -0.2079  1.4651
 5632SOL    HW224090   0.245   7.748   0.697 -0.8434  1.6198  0.0986
 5633SOL     OW24091   3.927   8.046   0.586 -0.3584  0.1929 -0.1329
 5633SOL    HW124092   4.009   8.001   0.621 -0.2788  2.3880  2.6353
 5633SOL    HW224093   3.952   8.133   0.544 -1.0038 -0.3582 -1.7327
 5635SOL     OW24094   7.787   9.442   1.430 -0.3705  0.2241 -0.0078
 5635SOL    HW124095   7.839   9.439   1.345  0.5300 -2.1505  0.5728
 5635SOL    HW224096   7.782   9.536   1.464 -0.7830  1.2142 -2.6784
 5637SOL     OW24097   1.736   9.599   0.619  1.3294 -0.4132 -0.3724
 5637SOL    HW124098   1.802   9.634   0.686  1.4161  0.8480 -1.1068
 5637SOL    HW224099   1.756   9.503   0.599  1.2158 -0.8488  1.5083
 5638SOL     OW24100   3.502   6.715   2.462 -0.2825  0.2547 -0.1863
 5638SOL    HW124101   3.550   6.664   2.390  0.9103  0.6723  0.3000
 5638SOL    HW224102   3.563   6.785   2.499 -0.7422 -0.2449  1.5447
 5639SOL     OW24103   0.471   7.396   0.695  0.2025  0.4864 -0.5902
 5639SOL    HW124104   0.519   7.321   0.741 -1.8958 -1.3169 -1.2613
 5639SOL    HW224105   0.534   7.441   0.631  1.6553 -0.3340  0.2272
 5640SOL     OW24106   3.312   0.855   1.452  0.7867 -0.3551 -0.4116
 5640SOL    HW124107   3.267   0.783   1.400 -0.1944  1.1358 -1.6846
 5640SOL    HW224108   3.410   0.855   1.431  0.5107 -0.2077 -1.7464
 5642SOL     OW24109   4.934   5.287   1.496 -0.4928  0.0438 -0.2678
 5642SOL    HW124110   4.972   5.259   1.407  1.8151  0.4290  0.5579
 5642SOL    HW224111   4.868   5.219   1.527  0.1096 -1.0725 -1.3783
 5643SOL     OW24112   9.495   0.758   3.730 -0.3792  0.0479  0.1777
 5643SOL    HW124113   9.423   0.691   3.749 -1.8285  1.1235 -1.3821
 5643SOL    HW224114   9.467   0.848   3.764  0.4972  0.3569  0.0942
 5644SOL     OW24115   3.928   9.713   2.370  0.5824  0.3970  0.1066
 5644SOL    HW124116   3.925   9.676   2.278  0.5456 -0.9196  0.6252
 5644SOL    HW224117   4.011   9.768   2.382  0.5778  0.5802 -0.7004
 5645SOL     OW24118   8.073   8.346   2.301 -0.4375 -0.3266  0.0404
 5645SOL    HW124119   8.153   8.390   2.261  0.0144 -2.4371 -1.5134
 5645SOL    HW224120   8.097   8.309   2.391  0.2567 -0.6454 -0.2686
 5647SOL     OW24121   0.089   7.747   1.869  0.1795 -0.3117  0.1295
 5647SOL    HW124122   0.060   7.787   1.956  0.1554  2.8069 -1.2562
 5647SOL    HW224123   0.187   7.727   1.872  0.2940  0.3349  0.6650
 5648SOL     OW24124   7.694   0.625   0.906  0.2033  0.0166  0.3055
 5648SOL    HW124125   7.749   0.622   0.990 -0.2821  0.3535  0.6357
 5648SOL    HW224126   7.603   0.661   0.927  0.0210 -0.0726 -0.3334
 5649SOL     OW24127   1.565   3.635   2.094  0.2670  0.6124 -0.3566
 5649SOL    HW124128   1.541   3.538   2.103  3.0449 -0.0278  0.4263
 5649SOL    HW224129   1.483   3.686   2.068 -1.7232 -1.6261  1.2073
 5650SOL     OW24130   4.785   4.219   0.834  0.0041 -0.2410 -0.4190
 5650SOL    HW124131   4.779   4.318   0.841  1.6560 -0.2160  0.8633
 5650SOL    HW224132   4.764   4.191   0.740 -0.5413  1.3012 -0.7745
 5651SOL     OW24133   6.092   6.707   2.478 -0.2567  0.2603 -0.2645
 5651SOL    HW124134   6.045   6.698   2.390 -1.0870  0.2127  0.1771
 5651SOL    HW224135   6.082   6.622   2.530  2.5868 -0.7224 -1.2418
 5652SOL     OW24136   2.421   2.596   0.365  0.0801 -0.5367 -0.4143
 5652SOL    HW124137   2.339   2.619   0.418 -0.3831 -0.1581 -1.2948
 5652SOL    HW224138   2.419   2.499   0.341  0.3329 -0.7293  0.3292
 5654SOL     OW24139   1.907   0.150   0.689  1.0292  0.2195 -0.2567
 5654SOL    HW124140   1.851   0.071   0.714  0.1271  0.6070 -0.9957
 5654SOL    HW224141   1.868   0.232   0.731  1.3311  0.4220 -0.3758
 5655SOL     OW24142   0.986   1.490   1.738  0.6773 -0.0625 -0.4821
 5655SOL    HW124143   0.898   1.536   1.730  1.0130  0.3960 -1.6382
 5655SOL    HW224144   0.990   1.413   1.675  0.2416 -1.5255  1.2174
 5656SOL     OW24145   1.336   2.931   1.115 -0.6697  0.4830 -0.0415
 5656SOL    HW124146   1.427   2.893   1.099 -0.3270  1.1379  0.3377
 5656SOL    HW224147   1.331   3.023   1.079 -1.0410  0.6131  0.3372
 5657SOL     OW24148   9.606   0.414   0.852  0.2280  0.7090  0.3776
 5657SOL    HW124149   9.698   0.382   0.830  0.1753  1.2419 -0.6059
 5657SOL    HW224150   9.541   0.339   0.842  0.5630  0.2980  1.1981
 5658SOL     OW24151   2.215   9.368   2.767  0.2560 -0.2660 -0.1792
 5658SOL    HW124152   2.246   9.275   2.784  2.0058  0.1860 -0.8034
 5658SOL    HW224153   2.209   9.384   2.669 -3.0769 -0.6870 -0.0809
 5660SOL     OW24154   9.587   8.855   3.713  0.2170  0.4292 -0.1436
 5660SOL    HW124155   9.496   8.817   3.729  0.4081  0.4802  1.0508
 5660SOL    HW224156   9.617   8.906   3.793  0.3617  2.3163 -1.3839
 5661SOL     OW24157   8.329   7.622   2.874  0.4756 -0.2317  0.3613
 5661SOL    HW124158   8.286   7.646   2.961 -1.8916  0.2956 -0.9244
 5661SOL    HW224159   8.302   7.529   2.848  0.2849  0.0174 -0.3482
 5662SOL     OW24160   4.095   7.454   2.660 -0.5222  0.0185 -0.2618
 5662SOL    HW124161   4.002   7.440   2.693  0.4000 -1.6457  1.7108
 5662SOL    HW224162   4.130   7.540   2.696 -1.0340  0.3208 -0.4669
 5663SOL     OW24163   2.685   2.095   3.568  0.4298  0.0443  0.5606
 5663SOL    HW124164   2.650   2.133   3.653 -0.5946  1.3183 -0.4151
 5663SOL    HW224165   2.740   2.165   3.521 -1.2640  0.2660 -1.1277
 5664SOL     OW24166   0.455   1.069   2.118  0.0395  0.1299  0.1489
 5664SOL    HW124167   0.391   1.000   2.152  0.3323  0.2569  0.9686
 5664SOL    HW224168   0.511   1.103   2.194  1.7902 -0.7316 -0.7306
 5665SOL     OW24169   7.919   9.475   3.000  0.0953 -0.2504  0.0455
 5665SOL    HW124170   7.973   9.393   2.979  0.3259 -0.4309  1.3407
 5665SOL    HW224171   7.953   9.517   3.084  0.4881  1.6311 -1.0278
 5666SOL     OW24172   5.479   0.042   3.687  0.0222  0.0224 -0.4675
 5666SOL    HW124173   5.473   0.130   3.639 -0.3836 -0.3200 -1.0615
 5666SOL    HW224174   5.397   0.029   3.742 -0.1257 -0.1790 -0.7315
 5667SOL     OW24175   7.026   7.100   3.022  0.0822  0.3161 -0.2032
 5667SOL    HW124176   6.931   7.070   3.012  0.6461 -1.7109  0.1514
 5667SOL    HW224177   7.051   7.160   2.946 -1.3632  0.5504 -0.4988
 5668SOL     OW24178   6.754   0.192   3.616 -0.0073  0.6481 -0.0186
 5668SOL    HW124179   6.756   0.093   3.632  1.4937  0.8147  0.9658
 5668SOL    HW224180   6.663   0.227   3.635  0.0666 -0.1936  2.0242
 5670SOL     OW24181   5.256   6.936   2.566 -0.2570  0.1732  0.0207
 5670SOL    HW124182   5.243   7.029   2.600 -0.6737  0.5555 -1.1576
 5670SOL    HW224183   5.353   6.913   2.570 -0.1953  0.5307  0.6428
 5671SOL     OW24184   1.740   0.254   2.931  0.3058  0.0824 -0.0976
 5671SOL    HW124185   1.818   0.283   2.876 -0.5541 -1.2114 -2.0238
 5671SOL    HW224186   1.763   0.171   2.981  0.0542 -0.4739 -0.9085
 5672SOL     OW24187   9.108   6.715   2.480 -0.4044 -0.2250 -0.1529
 5672SOL    HW124188   9.132   6.801   2.523 -0.2738  0.0180 -0.7079
 5672SOL    HW224189   9.156   6.640   2.525 -0.3988  0.0105  0.2276
 5675SOL     OW24190   3.573   4.238   3.386  0.3123  0.3787  0.1232
 5675SOL    HW124191   3.578   4.307   3.313  0.2963 -0.0508 -0.2840
 5675SOL    HW224192   3.586   4.283   3.475 -2.3983  1.3136  0.0796
 5676SOL     OW24193   5.788   8.331   3.540 -0.2644 -0.0768  0.5211
 5676SOL    HW124194   5.773   8.290   3.450 -1.9040  1.4699  0.0569
 5676SOL    HW224195   5.729   8.411   3.550  3.4471  2.7306  1.0594
 5677SOL     OW24196   6.121   9.640   1.758  0.1319  0.7723  0.2431
 5677SOL    HW124197   6.205   9.628   1.705 -0.5151  1.7432 -1.0400
 5677SOL    HW224198   6.118   9.573   1.832  1.5735  0.1009 -0.2901
 5678SOL     OW24199   0.868   7.702   2.796  0.4630  0.4329  0.2015
 5678SOL    HW124200   0.881   7.785   2.741  1.1666 -0.2603 -0.6889
 5678SOL    HW224201   0.775   7.701   2.833  0.1475  1.1573 -0.5563
 5679SOL     OW24202   2.282   4.766   1.717  0.3336  0.3035 -0.6933
 5679SOL    HW124203   2.212   4.695   1.713 -1.5772  2.1980 -1.8551
 5679SOL    HW224204   2.284   4.817   1.631 -0.5621  3.6795  1.1483
 5680SOL     OW24205   7.493   6.042   2.865  0.3678 -0.2102  0.2076
 5680SOL    HW124206   7.504   6.136   2.898  1.3295 -0.1750 -0.1985
 5680SOL    HW224207   7.446   5.988   2.934 -0.3895  0.6289  0.3538
 5681SOL     OW24208   7.068   0.149   0.429  0.0370 -0.3475 -0.1451
 5681SOL    HW124209   7.051   0.117   0.335 -1.0892 -0.9098  0.2419
 5681SOL    HW224210   7.144   0.214   0.428  0.3480 -0.7067 -1.3832
 5682SOL     OW24211   1.970   5.142   0.735 -0.2153 -0.1852 -0.1439
 5682SOL    HW124212   1.927   5.131   0.824 -1.1107  0.0487 -0.5464
 5682SOL    HW224213   2.069   5.155   0.747 -0.2500 -0.7514  0.7724
 5683SOL     OW24214   0.708   6.739   3.018  0.1059  0.0369  0.0194
 5683SOL    HW124215   0.652   6.720   3.099 -0.1150 -0.2285 -0.1951
 5683SOL    HW224216   0.781   6.804   3.043 -0.2332  0.3055  0.3176
 5684SOL     OW24217   3.550   4.325   2.260  0.7966  0.1449  0.3867
 5684SOL    HW124218   3.525   4.229   2.268 -0.4877  0.4222 -0.2313
 5684SOL    HW224219   3.473   4.382   2.290  0.2058  1.0300 -2.6965
 5686SOL     OW24220   4.493   7.025   2.298  0.0568 -1.0244  0.5599
 5686SOL    HW124221   4.475   7.109   2.348  1.6520 -0.8133  0.7974
 5686SOL    HW224222   4.406   6.984   2.268 -0.7750  0.0391  1.5136
 5687SOL     OW24223   9.444   8.482   2.141  0.2679  0.7711  0.8097
 5687SOL    HW124224   9.431   8.576   2.108 -1.9275  0.6490  1.2793
 5687SOL    HW224225   9.488   8.484   2.231  0.8659  1.3098  0.5111
 5688SOL     OW24226   2.311   0.044   3.675  0.6825  0.1495 -0.2183
 5688SOL    HW124227   2.266   0.102   3.607  2.0024  1.4069 -0.0472
 5688SOL    HW224228   2.336  -0.043   3.633  1.0155  0.7131 -1.2118
 5689SOL     OW24229   2.247   3.377   0.600 -0.1159 -0.1966 -0.8137
 5689SOL    HW124230   2.288   3.395   0.510 -1.8464 -0.0059 -1.5880
 5689SOL    HW224231   2.287   3.439   0.668  1.1177 -0.2554 -1.4641
 5690SOL     OW24232   1.315   3.642   1.853 -0.1890 -0.4110 -0.1115
 5690SOL    HW124233   1.253   3.699   1.799 -0.7588  0.7146  1.6787
 5690SOL    HW224234   1.407   3.645   1.812 -0.6222  0.3717 -1.0455
 5692SOL     OW24235   3.121   6.053   2.692 -0.1065 -0.1842 -0.3466
 5692SOL    HW124236   3.088   6.146   2.710 -0.7720 -0.5472  0.3196
 5692SOL    HW224237   3.054   5.986   2.724 -0.2548 -0.8931 -2.0699
 5693SOL     OW24238   1.643   4.212   3.752  0.0249 -0.1959 -0.0827
 5693SOL    HW124239   1.719   4.193   3.690  2.0013  1.4264  1.7735
 5693SOL    HW224240   1.670   4.282   3.818 -1.7700 -2.2757  3.0087
 5694SOL     OW24241   3.890   2.326   1.284  0.0983  0.6606 -0.8603
 5694SOL    HW124242   3.899   2.251   1.218 -0.2002  1.0114 -1.3051
 5694SOL    HW224243   3.807   2.378   1.264  0.6931  1.5634 -1.0187
 5695SOL     OW24244   8.151   7.257   1.377  0.0525 -0.4609 -0.3087
 5695SOL    HW124245   8.065   7.216   1.405  0.9765 -1.1315  1.5976
 5695SOL    HW224246   8.141   7.357   1.374 -0.2799 -0.4228  1.6884
 5697SOL     OW24247   9.302   5.231   1.964  0.8022 -0.3232 -0.4956
 5697SOL    HW124248   9.234   5.224   2.037  1.5508  2.2242  0.5179
 5697SOL    HW224249   9.371   5.159   1.976  1.5967  0.7862  2.1097
 5699SOL     OW24250   3.167   1.183   2.183 -0.1698  0.1095  0.0602
 5699SOL    HW124251   3.205   1.202   2.274 -0.3546 -3.9289  1.0748
 5699SOL    HW224252   3.068   1.170   2.190 -0.3507  0.9458 -0.9249
 5700SOL     OW24253   2.262   1.581   1.912  0.0081 -0.2627  0.6422
 5700SOL    HW124254   2.227   1.657   1.967 -1.4779 -0.6422  0.2646
 5700SOL    HW224255   2.308   1.515   1.971  0.8840  0.6879  1.0377
 5701SOL     OW24256   3.811   4.328   2.735 -0.2736 -0.0509  0.0019
 5701SOL    HW124257   3.711   4.324   2.733 -0.2128 -1.4201 -1.1699
 5701SOL    HW224258   3.841   4.423   2.736 -1.5692  0.3671 -0.4050
 5702SOL     OW24259   1.035   3.255   2.081 -0.6081  0.3947 -0.2682
 5702SOL    HW124260   1.082   3.341   2.061 -2.1494  1.5302  0.8333
 5702SOL    HW224261   1.013   3.251   2.178 -1.5698 -0.7150 -0.5206
 5704SOL     OW24262   8.328   1.648   1.384 -0.1549 -0.1271  0.1373
 5704SOL    HW124263   8.289   1.725   1.334  1.8416  1.5250  1.0609
 5704SOL    HW224264   8.417   1.625   1.347  1.1869  0.8820  2.6298
 5705SOL     OW24265   9.578   5.683   2.495  0.4233 -0.6351 -0.1444
 5705SOL    HW124266   9.551   5.734   2.577 -0.1201 -2.1755  0.6544
 5705SOL    HW224267   9.540   5.591   2.499  1.3577 -1.1039 -1.5941
 5706SOL     OW24268   4.428   7.964   2.031 -0.3852  0.2279 -0.4563
 5706SOL    HW124269   4.453   8.060   2.024 -1.5424  0.4945 -0.8566
 5706SOL    HW224270   4.334   7.955   2.063 -0.0035 -0.7868  0.4555
 5708SOL     OW24271   1.949   7.396   0.798  0.1846  0.2378  0.0128
 5708SOL    HW124272   1.885   7.341   0.853  0.0855 -0.5472 -0.8811
 5708SOL    HW224273   1.947   7.364   0.703  3.0312 -0.8126  0.2511
 5710SOL     OW24274   1.127   9.460   0.562  0.2234  0.3815  0.0295
 5710SOL    HW124275   1.180   9.423   0.486  0.4599  0.6191  0.0767
 5710SOL    HW224276   1.186   9.519   0.618  0.6959 -1.6419  1.7419
 5712SOL     OW24277   8.351   6.446   2.430  0.1417 -0.0403  0.6304
 5712SOL    HW124278   8.402   6.529   2.454 -1.0730  0.7120  0.6729
 5712SOL    HW224279   8.276   6.433   2.495 -0.2111 -0.6827  0.1020
 5714SOL     OW24280   2.392   2.516   3.560  0.0793  0.5809  0.0821
 5714SOL    HW124281   2.417   2.526   3.656  0.2553  0.2408  0.0740
 5714SOL    HW224282   2.302   2.474   3.553  0.5670 -0.4858  0.0920
 5715SOL     OW24283   8.949   6.515   1.539 -0.0891 -0.4481 -0.4074
 5715SOL    HW124284   8.872   6.539   1.598  0.2465 -1.1560  0.3120
 5715SOL    HW224285   9.018   6.466   1.591 -0.0715 -1.6228 -1.5198
 5716SOL     OW24286   0.280   0.138   0.617  0.0352 -0.2254  0.3340
 5716SOL    HW124287   0.308   0.156   0.523  1.7033  1.5316  1.1236
 5716SOL    HW224288   0.358   0.103   0.669 -0.6843 -0.5332  1.2255
 5717SOL     OW24289   3.239   6.913   1.303 -0.2650 -0.3161 -0.2176
 5717SOL    HW124290   3.197   6.987   1.251 -0.5530  0.3890  1.0127
 5717SOL    HW224291   3.218   6.826   1.258 -2.3293  0.0911 -0.1318
 5718SOL     OW24292   5.715   8.694   2.706 -0.4504 -0.7174 -0.2009
 5718SOL    HW124293   5.641   8.655   2.761  0.4976 -2.1500  0.0664
 5718SOL    HW224294   5.741   8.629   2.634 -0.2773  0.2882 -1.0673
 5719SOL     OW24295   1.980   5.290   2.003 -0.1800  0.7800  0.2859
 5719SOL    HW124296   1.888   5.327   1.988 -0.8931 -1.2561 -0.4816
 5719SOL    HW224297   1.974   5.196   2.035  1.6401  0.8242  0.8478
 5720SOL     OW24298   6.924   8.547   1.831 -0.2283  0.0420  0.1334
 5720SOL    HW124299   6.845   8.605   1.812  0.2113  0.5611 -0.1363
 5720SOL    HW224300   6.961   8.512   1.745 -0.0481 -0.0321  0.2415
 5721SOL     OW24301   0.713   8.299   3.122 -0.9074 -0.1069 -0.3371
 5721SOL    HW124302   0.789   8.361   3.104 -0.4025 -0.5000  0.4251
 5721SOL    HW224303   0.734   8.209   3.083 -1.0922 -0.1543 -0.3319
 5722SOL     OW24304   8.116   6.435   3.297  0.3759  0.4204 -0.1854
 5722SOL    HW124305   8.202   6.390   3.271 -1.5962 -3.0747 -0.9436
 5722SOL    HW224306   8.087   6.495   3.223  1.0557 -0.0576 -0.8573
 5723SOL     OW24307   0.616   5.432   1.494 -0.1126  0.2627 -0.1083
 5723SOL    HW124308   0.560   5.503   1.537  0.5275  0.7516 -0.0742
 5723SOL    HW224309   0.713   5.455   1.505  0.1270 -1.1988  0.8798
 5724SOL     OW24310   6.163   7.149   3.013  0.3675  0.0602  0.1684
 5724SOL    HW124311   6.231   7.215   3.045 -1.6808  2.1960  0.2864
 5724SOL    HW224312   6.112   7.114   3.091 -0.1879  0.2024 -0.1305
 5725SOL     OW24313   6.397   9.579   3.258  0.1898  0.0996  0.1082
 5725SOL    HW124314   6.333   9.642   3.302 -0.5414 -0.4581 -0.1268
 5725SOL    HW224315   6.393   9.592   3.159  2.6304  2.0997  0.2441
 5726SOL     OW24316   4.719   2.500   2.431  0.2830  0.4779  0.0638
 5726SOL    HW124317   4.706   2.590   2.391 -3.0415  0.6474  1.3522
 5726SOL    HW224318   4.684   2.430   2.369  0.8658  0.2281  0.0087
 5727SOL     OW24319   0.038   2.638   2.282  0.1499 -0.0926  0.6591
 5727SOL    HW124320   0.121   2.653   2.228 -0.2705  1.9660  0.5645
 5727SOL    HW224321   0.057   2.574   2.356  1.6025 -0.2419  0.1680
 5728SOL     OW24322   3.444   8.502   0.359 -0.2683  0.2204 -0.1818
 5728SOL    HW124323   3.365   8.559   0.383  0.4380  0.5349  1.4946
 5728SOL    HW224324   3.528   8.548   0.389  0.4432 -0.8437 -0.5146
 5730SOL     OW24325   9.285   4.980   0.277 -0.7149 -0.0553  0.0147
 5730SOL    HW124326   9.314   4.949   0.368 -0.8845 -2.0341 -0.5847
 5730SOL    HW224327   9.225   4.912   0.236  0.8792 -0.0816 -2.3668
 5731SOL     OW24328   9.119   3.479   1.447  0.3559 -0.3000 -0.2951
 5731SOL    HW124329   9.155   3.436   1.364  1.4688 -0.5613  0.3066
 5731SOL    HW224330   9.195   3.515   1.501 -0.4013  0.3608  0.3427
 5732SOL     OW24331   3.750   1.395   2.948 -0.0663  0.1648 -0.5052
 5732SOL    HW124332   3.788   1.401   3.040 -0.8635  1.1237 -0.2336
 5732SOL    HW224333   3.654   1.423   2.950 -0.2014 -0.2089 -1.5567
 5733SOL     OW24334   3.268   8.807   3.282  0.3494 -0.1518  0.2607
 5733SOL    HW124335   3.350   8.777   3.330 -0.5648 -2.5505  0.3927
 5733SOL    HW224336   3.192   8.746   3.305 -0.9841  0.8424 -1.4092
 5734SOL     OW24337   2.266   3.854   1.280  0.7594 -0.5556  0.2952
 5734SOL    HW124338   2.361   3.878   1.259 -0.1198  2.6337 -0.4235
 5734SOL    HW224339   2.242   3.890   1.370  0.1357 -1.0251  0.3166
 5735SOL     OW24340   3.193   8.716   1.763 -0.0698 -0.3332  0.2330
 5735SOL    HW124341   3.204   8.753   1.671  0.2157 -1.5585 -0.2355
 5735SOL    HW224342   3.166   8.790   1.826  1.3043  0.8166 -0.5091
 5737SOL     OW24343   7.822   7.949   3.755  0.1059 -0.6243  0.2382
 5737SOL    HW124344   7.733   7.984   3.727  0.1812  0.6727  1.5906
 5737SOL    HW224345   7.894   8.010   3.722  0.2083  0.8932  3.1107
 5738SOL     OW24346   3.018   6.488   1.785 -0.0350  0.0480 -0.3021
 5738SOL    HW124347   3.044   6.407   1.839 -0.0778 -0.4594 -1.0334
 5738SOL    HW224348   2.983   6.558   1.847  1.1143 -0.0345  0.4722
 5739SOL     OW24349   6.945   9.709   3.288  0.3416  0.2931  0.0635
 5739SOL    HW124350   6.847   9.695   3.301 -0.0626  2.5913 -0.3664
 5739SOL    HW224351   6.988   9.622   3.263 -1.8403 -0.4274 -1.2871
 5740SOL     OW24352   2.630   2.987   2.830 -0.7132 -0.2192 -0.6014
 5740SOL    HW124353   2.668   3.041   2.754 -1.9499 -0.7744 -1.6274
 5740SOL    HW224354   2.682   2.901   2.838  0.3430  0.4701  0.1240
 5741SOL     OW24355   4.200   9.510   0.515  0.2017 -0.3080  0.1497
 5741SOL    HW124356   4.195   9.442   0.588 -1.5997 -1.1763 -0.7653
 5741SOL    HW224357   4.197   9.464   0.426  2.8513  0.6970 -0.5112
 5742SOL     OW24358   2.144   0.075   0.773  0.3109 -0.3549  0.1519
 5742SOL    HW124359   2.120   0.031   0.859  1.6868 -1.0721  0.1917
 5742SOL    HW224360   2.062   0.107   0.727 -0.5612 -1.3824  0.9816
 5743SOL     OW24361   0.650   7.423   2.274 -0.5989  0.2228 -0.5364
 5743SOL    HW124362   0.628   7.325   2.276 -1.2428  0.3716 -0.4895
 5743SOL    HW224363   0.746   7.434   2.248  0.7439 -0.6322  3.6842
 5744SOL     OW24364   3.311   8.310   3.085  1.0164  0.3977  0.5978
 5744SOL    HW124365   3.292   8.408   3.094  2.1158  0.8472 -1.6619
 5744SOL    HW224366   3.314   8.269   3.176  2.3950  2.8341  1.7198
 5745SOL     OW24367   3.384   9.420   2.408 -0.5263 -0.4234 -0.4685
 5745SOL    HW124368   3.445   9.451   2.335  1.4631  0.4692  1.5378
 5745SOL    HW224369   3.414   9.331   2.442 -0.1883  0.1289  0.6961
 5746SOL     OW24370   2.296   7.199   3.388 -0.0121 -0.0438  0.1618
 5746SOL    HW124371   2.369   7.238   3.445  0.3369  1.1345 -1.0570
 5746SOL    HW224372   2.213   7.254   3.398  0.7773  1.7064 -2.3466
 5747SOL     OW24373   9.872   0.697   0.106  0.1983  0.6264 -0.2265
 5747SOL    HW124374   9.881   0.619   0.168  0.5329  0.6639 -0.2284
 5747SOL    HW224375   9.877   0.665   0.011 -2.5389  0.2640 -0.3023
 5748SOL     OW24376   9.533   2.986   3.483 -0.1805  0.9653 -0.3294
 5748SOL    HW124377   9.573   3.061   3.537  0.0744  0.4805  0.1558
 5748SOL    HW224378   9.466   2.937   3.539 -0.1633  0.6744 -0.5633
 5749SOL     OW24379   0.729   7.213   1.959 -0.2485 -0.1691 -0.0115
 5749SOL    HW124380   0.799   7.283   1.974 -0.2407  0.1116 -1.2818
 5749SOL    HW224381   0.656   7.224   2.026  0.1534  0.5411  0.3185
 5750SOL     OW24382   5.024   5.036   1.729 -0.4006 -0.3948 -0.2347
 5750SOL    HW124383   5.045   5.030   1.826 -0.5078 -0.1265 -0.1941
 5750SOL    HW224384   5.091   4.984   1.676  0.2199  0.2685 -0.0946
 5751SOL     OW24385   0.930   7.003   0.631  0.2687 -0.3479 -0.3675
 5751SOL    HW124386   0.994   6.934   0.662  0.8518  0.6358  0.6504
 5751SOL    HW224387   0.935   7.012   0.531  1.8543 -0.1357 -0.2730
 5752SOL     OW24388   0.632   3.722   2.909 -0.2483 -0.8433  0.0347
 5752SOL    HW124389   0.691   3.687   2.836 -0.7197  0.5100 -1.0087
 5752SOL    HW224390   0.685   3.730   2.993  1.5524  1.8301 -1.2606
 5753SOL     OW24391   3.751   7.582   0.603 -0.1806  0.6131 -0.0830
 5753SOL    HW124392   3.798   7.654   0.653  0.6283 -0.5459  0.8374
 5753SOL    HW224393   3.653   7.585   0.623 -0.3763  2.4267 -1.2609
 5754SOL     OW24394   8.848   5.184   2.834  0.3061  0.2317  0.1898
 5754SOL    HW124395   8.781   5.252   2.863  0.1737 -0.3202  1.2086
 5754SOL    HW224396   8.879   5.132   2.914 -0.2314 -1.4599 -0.6717
 5755SOL     OW24397   5.569   8.033   3.160  0.2225  0.0093  0.4700
 5755SOL    HW124398   5.587   7.938   3.182  0.9756  0.5215  2.1872
 5755SOL    HW224399   5.471   8.051   3.163  0.2078 -0.2532  2.2265
 5758SOL     OW24400   9.783   4.031   3.725 -0.5606  0.5175 -0.2663
 5758SOL    HW124401   9.805   4.023   3.628  0.1823  1.4048 -0.1792
 5758SOL    HW224402   9.819   3.951   3.774  2.0378  1.6480 -0.2257
 5759SOL     OW24403   7.773   8.920   3.162  0.0958  0.3219  0.1874
 5759SOL    HW124404   7.757   8.822   3.162  0.5473  0.2253 -2.2119
 5759SOL    HW224405   7.857   8.941   3.113 -0.8991  2.0331 -0.8631
 5760SOL     OW24406   1.349   1.272   0.833 -0.1881 -0.3678 -0.0633
 5760SOL    HW124407   1.365   1.230   0.743  0.9746 -0.0031 -0.0331
 5760SOL    HW224408   1.252   1.266   0.856 -0.3386 -1.3138 -0.9249
 5761SOL     OW24409   9.559   5.416   3.290  0.6665 -0.1852  0.3735
 5761SOL    HW124410   9.635   5.451   3.345  1.4498  0.9498 -1.3721
 5761SOL    HW224411   9.584   5.420   3.193 -1.3440 -0.4748 -0.1761
 5762SOL     OW24412   4.882   0.371   2.836 -0.0024  0.1611 -0.5940
 5762SOL    HW124413   4.819   0.445   2.811 -0.1087  0.1820 -0.2687
 5762SOL    HW224414   4.854   0.287   2.791 -0.4657  0.0910 -0.1827
 5763SOL     OW24415   8.968   7.323   0.327  0.1761  0.1493 -0.2525
 5763SOL    HW124416   8.917   7.396   0.281 -0.2970  0.0063  0.0472
 5763SOL    HW224417   8.908   7.245   0.343  0.4977 -0.0313  0.0803
 5764SOL     OW24418   9.140   1.978   1.224 -0.5138 -0.5026  0.2518
 5764SOL    HW124419   9.081   2.021   1.156 -0.2818  0.9883  0.9693
 5764SOL    HW224420   9.084   1.938   1.297 -0.6582  0.7163  0.8184
 5768SOL     OW24421   1.376   0.197   2.784 -0.4934 -0.4346  0.0727
 5768SOL    HW124422   1.317   0.161   2.856 -1.9054  0.1776 -0.7592
 5768SOL    HW224423   1.387   0.128   2.713  0.9445 -1.0588  0.8811
 5769SOL     OW24424   0.593   5.817   1.677 -0.2123  0.0979  0.2102
 5769SOL    HW124425   0.516   5.874   1.705 -0.4687 -0.6671  1.0748
 5769SOL    HW224426   0.579   5.724   1.710  0.3439 -0.3978 -0.9501
 5770SOL     OW24427   1.443   8.244   2.824 -0.0235  0.1462 -0.3332
 5770SOL    HW124428   1.453   8.277   2.918 -1.5721  1.9840 -0.7919
 5770SOL    HW224429   1.533   8.214   2.789  1.3240  3.2503  0.3415
 5771SOL     OW24430   3.170   0.111   3.262 -0.0469 -0.1071  0.3169
 5771SOL    HW124431   3.102   0.176   3.297 -0.4370 -1.2116  1.6503
 5771SOL    HW224432   3.137   0.018   3.277  0.6831 -0.6300 -1.2363
 5773SOL     OW24433   8.106   0.462   0.804  0.4325 -0.8319  0.0381
 5773SOL    HW124434   8.206   0.460   0.804  0.4477 -0.2893 -0.5202
 5773SOL    HW224435   8.072   0.427   0.717  0.1688  0.0378 -0.2179
 5774SOL     OW24436   9.833   5.651   1.183  0.6262 -0.8375  0.1005
 5774SOL    HW124437   9.829   5.648   1.083  1.6559 -1.6880  0.0709
 5774SOL    HW224438   9.918   5.695   1.211  0.4976 -0.9083  0.6010
 5775SOL     OW24439   8.480   8.503   2.846  0.1722  0.7155 -0.1714
 5775SOL    HW124440   8.446   8.453   2.926 -0.9133  0.3351 -0.8574
 5775SOL    HW224441   8.577   8.525   2.859  0.5182 -1.0764  0.3814
 5776SOL     OW24442   4.460   1.444   2.199  0.5443  0.2966  0.2330
 5776SOL    HW124443   4.420   1.412   2.285  1.1148 -0.1119  0.3511
 5776SOL    HW224444   4.421   1.533   2.175 -3.8094 -2.0812 -1.9811
 5777SOL     OW24445   8.014   0.793   1.141 -0.1473  0.1054 -0.0109
 5777SOL    HW124446   8.003   0.818   1.237 -0.8569  2.8674 -0.7383
 5777SOL    HW224447   8.110   0.797   1.115 -0.1307  1.1177  0.1808
 5778SOL     OW24448   1.711   1.906   3.566  0.1977 -0.3328 -0.1669
 5778SOL    HW124449   1.708   1.806   3.573  0.4617 -0.4763 -1.9525
 5778SOL    HW224450   1.625   1.945   3.600 -0.4260 -1.2360 -0.7081
 5780SOL     OW24451   5.592   9.310   3.623  0.2438 -0.3318 -0.1436
 5780SOL    HW124452   5.634   9.280   3.709 -3.9625 -1.7894  1.5275
 5780SOL    HW224453   5.599   9.237   3.555  1.1682 -0.2224 -0.1727
 5781SOL     OW24454   8.636   4.490   1.242 -0.3914 -1.0758 -0.3426
 5781SOL    HW124455   8.562   4.501   1.176 -0.4760 -0.0137 -0.0887
 5781SOL    HW224456   8.712   4.441   1.200 -0.5168 -0.5620 -1.1706
 5782SOL     OW24457   1.009   0.398   0.854 -0.0898 -0.3559  0.3658
 5782SOL    HW124458   1.052   0.309   0.842  0.1214 -0.5168  2.1914
 5782SOL    HW224459   1.074   0.470   0.832 -0.3093 -0.6362 -1.2674
 5784SOL     OW24460   2.421   8.861   3.047  0.4288 -0.0156 -0.4291
 5784SOL    HW124461   2.330   8.832   3.019  0.3575  0.0460 -0.2642
 5784SOL    HW224462   2.417   8.896   3.141  0.8039 -0.9480 -0.0664
 5785SOL     OW24463   0.896   7.473   0.748  0.6298 -0.1806  0.2958
 5785SOL    HW124464   0.901   7.375   0.726  1.6332 -0.2561  0.8032
 5785SOL    HW224465   0.973   7.520   0.704 -0.1786  0.4803 -0.4245
 5786SOL     OW24466   9.955   0.196   0.068 -0.8379 -0.0503  0.2388
 5786SOL    HW124467   9.975   0.261  -0.006 -1.5699  0.8346  0.8172
 5786SOL    HW224468  10.032   0.194   0.132 -0.4839 -0.3291 -0.1922
 5787SOL     OW24469   0.622   2.836   1.775 -0.1797  0.1759 -0.0680
 5787SOL    HW124470   0.599   2.870   1.866 -0.5319  0.4585 -0.2611
 5787SOL    HW224471   0.657   2.742   1.782  1.1566  0.7079  0.4975
 5788SOL     OW24472   9.508   3.560   2.189  0.4148 -0.0324  0.4264
 5788SOL    HW124473   9.582   3.579   2.253  1.1294 -0.0272 -0.3950
 5788SOL    HW224474   9.428   3.615   2.213  1.0862  0.8915  0.5814
 5789SOL     OW24475   9.535   3.911   1.090  0.2217 -0.0679 -0.3588
 5789SOL    HW124476   9.603   3.838   1.081  0.4571  0.2120 -0.8687
 5789SOL    HW224477   9.446   3.878   1.059  0.2344 -0.2724 -0.1775
 5790SOL     OW24478   7.248   8.104   1.886  0.2943  0.5956 -0.1643
 5790SOL    HW124479   7.266   8.175   1.953 -1.2630  1.3317 -0.4959
 5790SOL    HW224480   7.291   8.127   1.799  2.6613 -0.5587  0.6652
 5791SOL     OW24481   2.311   1.022   1.218 -0.2331  0.2410 -0.1543
 5791SOL    HW124482   2.359   1.028   1.131  0.2130  0.1922  0.0860
 5791SOL    HW224483   2.220   1.061   1.209 -1.2239 -2.2258 -1.3670
 5792SOL     OW24484   0.815   6.668   0.462 -0.1888  0.0529 -0.1701
 5792SOL    HW124485   0.894   6.629   0.415  0.1795 -0.7428  1.0761
 5792SOL    HW224486   0.737   6.607   0.453 -0.0731 -0.1802  0.3772
 5793SOL     OW24487   1.248   2.279   1.857  0.4540  0.4566  0.2709
 5793SOL    HW124488   1.153   2.247   1.865  0.6202 -0.5230 -1.4044
 5793SOL    HW224489   1.260   2.326   1.770  1.5484  0.3872  0.3817
 5794SOL     OW24490   2.392   8.994   1.737 -0.0849 -0.0521 -0.0086
 5794SOL    HW124491   2.413   9.081   1.782  1.2567  1.0540 -2.6533
 5794SOL    HW224492   2.306   8.957   1.773  0.6030  1.0644  2.9460
 5796SOL     OW24493   1.692   4.104   2.648 -0.3695 -0.0252  0.4886
 5796SOL    HW124494   1.699   4.035   2.720  0.6897 -0.3202  0.1106
 5796SOL    HW224495   1.613   4.164   2.667  0.4532  0.4979  2.4081
 5797SOL     OW24496   9.257   2.738   2.986 -0.3017 -0.0599 -0.6652
 5797SOL    HW124497   9.322   2.813   2.972 -0.1887 -0.2370 -1.0957
 5797SOL    HW224498   9.281   2.661   2.927 -0.7509 -0.2233 -0.6418
 5798SOL     OW24499   5.797   6.492   2.694 -0.3092  0.3513 -0.2389
 5798SOL    HW124500   5.871   6.553   2.724 -1.2042  2.0263 -1.3200
 5798SOL    HW224501   5.792   6.493   2.594 -0.2820 -1.6033 -0.2720
 5800SOL     OW24502   1.774   9.348   0.583  0.1520 -0.1986 -0.0718
 5800SOL    HW124503   1.777   9.255   0.620  0.2572  0.4643  1.6599
 5800SOL    HW224504   1.848   9.360   0.517 -0.4876 -1.6459 -1.0718
 5801SOL     OW24505   6.737   1.530   2.773 -0.0610  0.1349 -0.2554
 5801SOL    HW124506   6.667   1.491   2.713  0.4926 -0.7542 -0.3208
 5801SOL    HW224507   6.727   1.492   2.865  0.4997 -0.1893 -0.3270
 5803SOL     OW24508   9.831   5.595   0.909 -0.0733  0.3990 -0.4841
 5803SOL    HW124509   9.819   5.503   0.874 -2.9306 -0.5484  2.6789
 5803SOL    HW224510   9.755   5.653   0.879 -0.3366  0.6626  0.6394
 5804SOL     OW24511   8.963   5.515   1.730 -0.2457 -0.6741 -0.2606
 5804SOL    HW124512   8.896   5.568   1.678 -1.5780 -0.8823  1.2007
 5804SOL    HW224513   9.054   5.550   1.712 -0.9638  1.1272 -0.5086
 5805SOL     OW24514   3.930   8.937   2.538 -0.0670  0.4604 -0.0381
 5805SOL    HW124515   3.849   8.914   2.484 -0.9078  1.3711  0.8196
 5805SOL    HW224516   3.984   9.006   2.490 -0.7022  1.1141  0.1839
 5808SOL     OW24517   7.630   0.327   3.595 -0.0536 -0.1766 -0.4588
 5808SOL    HW124518   7.599   0.422   3.589 -0.9334 -0.2843  1.8615
 5808SOL    HW224519   7.580   0.271   3.528 -1.0822  0.5983 -0.3440
 5809SOL     OW24520   5.523   7.527   3.125  0.0180 -0.6042  0.4327
 5809SOL    HW124521   5.467   7.572   3.055  1.0804 -1.9362 -1.3194
 5809SOL    HW224522   5.465   7.470   3.183 -0.5474 -1.3956 -0.9063
 5810SOL     OW24523   1.072   2.059   0.610 -0.6232 -0.8190 -0.0761
 5810SOL    HW124524   1.026   2.118   0.677 -0.8634 -0.5898 -0.4370
 5810SOL    HW224525   1.006   1.994   0.573 -1.3812  1.3223 -2.6518
 5811SOL     OW24526   2.524   4.403   2.763  0.1651 -0.0277 -0.8271
 5811SOL    HW124527   2.591   4.341   2.722 -0.0925  0.0911 -1.4201
 5811SOL    HW224528   2.546   4.415   2.860  1.9009  1.2265 -1.3481
 5812SOL     OW24529   0.812   8.419   1.599 -0.4399  0.0198  0.0896
 5812SOL    HW124530   0.768   8.499   1.638  0.6867  0.1731  1.0881
 5812SOL    HW224531   0.905   8.410   1.637 -0.8891 -2.2828  0.7218
 5813SOL     OW24532   3.568   9.053   2.054 -0.4342  0.3845  0.1444
 5813SOL    HW124533   3.523   9.002   2.127  0.1800  0.4485  0.5769
 5813SOL    HW224534   3.545   9.014   1.965  2.4720 -2.6143  0.6187
 5814SOL     OW24535   0.204   3.477   3.525 -0.3905  0.3636 -0.0125
 5814SOL    HW124536   0.156   3.400   3.568 -0.8388  1.1808  0.9896
 5814SOL    HW224537   0.288   3.495   3.576 -0.9236  1.3389  0.5336
 5815SOL     OW24538   1.306   7.736   3.463  0.4450 -0.2231 -0.2571
 5815SOL    HW124539   1.213   7.771   3.479  0.2952 -0.5414 -0.4256
 5815SOL    HW224540   1.312   7.699   3.370  0.7322 -0.2332 -0.2358
 5817SOL     OW24541   3.024   5.312   1.122 -0.1122  0.6076  0.3420
 5817SOL    HW124542   3.018   5.390   1.185  2.4039  0.1060  1.2958
 5817SOL    HW224543   3.025   5.227   1.175 -0.1375  0.0773 -0.5090
 5818SOL     OW24544   9.916   2.347   2.088  0.0573  0.3644 -0.3364
 5818SOL    HW124545   9.890   2.251   2.081 -0.6383  0.1733  3.7766
 5818SOL    HW224546  10.005   2.361   2.043  0.1212 -2.1292 -1.0617
 5819SOL     OW24547   3.288   1.490   2.834  0.1259 -0.3576 -0.0427
 5819SOL    HW124548   3.321   1.486   2.739 -0.7623 -0.0473 -0.3721
 5819SOL    HW224549   3.278   1.397   2.870 -1.9487 -0.5641 -1.1106
 5820SOL     OW24550   9.439   6.863   1.345  0.6139  0.1702  0.5201
 5820SOL    HW124551   9.473   6.800   1.276 -0.5133 -0.2254  0.3120
 5820SOL    HW224552   9.371   6.925   1.304  2.6982  2.4711  0.3843
 5821SOL     OW24553   0.470   9.034   3.337 -0.0378  0.4516  0.1381
 5821SOL    HW124554   0.471   9.128   3.370  0.9758  1.2339 -2.0447
 5821SOL    HW224555   0.394   9.021   3.274  0.3490  0.0373 -0.2460
 5822SOL     OW24556   9.098   2.987   3.265  0.3633 -0.1461  0.4750
 5822SOL    HW124557   9.089   2.905   3.323  1.1156  0.2604  1.1836
 5822SOL    HW224558   9.073   2.964   3.171  1.2878 -1.3889  0.5121
 5823SOL     OW24559   8.109   0.971   2.662 -0.1782  0.2236  0.2090
 5823SOL    HW124560   8.207   0.954   2.650 -0.2302  0.0841 -0.0238
 5823SOL    HW224561   8.092   1.004   2.755 -0.0594 -0.9222  0.6452
 5824SOL     OW24562   9.895   3.134   2.335  0.1094  0.3721 -0.1326
 5824SOL    HW124563   9.935   3.064   2.276 -0.1136  0.2897 -0.1840
 5824SOL    HW224564   9.797   3.118   2.344  0.3617 -0.4386  1.3923
 5826SOL     OW24565   1.284   7.650   1.581 -0.0112  0.2742  0.0065
 5826SOL    HW124566   1.196   7.675   1.623 -0.0050  0.7469 -0.2503
 5826SOL    HW224567   1.332   7.734   1.553  1.4224  0.1183  1.9511
 5827SOL     OW24568   2.323   6.642   2.948  0.3034  0.2429 -0.1196
 5827SOL    HW124569   2.269   6.703   2.889  0.0908 -0.0155 -0.1905
 5827SOL    HW224570   2.398   6.603   2.895  1.6656  2.0241  0.4382
 5829SOL     OW24571   7.723   0.285   1.584  0.1626 -0.4237 -0.1188
 5829SOL    HW124572   7.682   0.208   1.536 -1.9727 -0.4343  1.6718
 5829SOL    HW224573   7.764   0.253   1.670  3.8362 -0.3829 -1.7335
 5830SOL     OW24574   1.882   5.474   3.022  0.3209 -0.8389  0.2015
 5830SOL    HW124575   1.788   5.446   3.001  0.1768 -0.3363  0.1589
 5830SOL    HW224576   1.945   5.399   3.001 -0.0210 -1.0020 -0.2584
 5831SOL     OW24577   8.172   8.904   1.308  0.0468  0.0231  0.2449
 5831SOL    HW124578   8.235   8.901   1.230  0.7346  0.6719  0.7692
 5831SOL    HW224579   8.085   8.862   1.282  0.6008 -0.6408 -0.5651
 5832SOL     OW24580   8.941   1.449   2.972 -0.4577 -0.5858 -0.2274
 5832SOL    HW124581   8.998   1.408   3.044  1.1526 -0.4067 -1.3853
 5832SOL    HW224582   8.931   1.547   2.990 -0.7744 -0.6951  0.2141
 5833SOL     OW24583   3.122   9.656   2.779  0.0025 -0.4358  0.1574
 5833SOL    HW124584   3.053   9.616   2.840  0.7852 -2.3740 -0.1891
 5833SOL    HW224585   3.097   9.636   2.684 -0.3983  1.2573 -0.1171
 5835SOL     OW24586   9.114   7.064   0.962  0.0143  0.5591 -0.3978
 5835SOL    HW124587   9.019   7.086   0.943 -0.3960 -1.0040 -0.1727
 5835SOL    HW224588   9.161   7.039   0.877 -0.1161  0.0249 -0.3103
 5836SOL     OW24589   8.764   9.642   1.467 -0.1126 -0.0154 -0.4233
 5836SOL    HW124590   8.770   9.625   1.369  1.2470 -1.4312 -0.1128
 5836SOL    HW224591   8.690   9.587   1.506 -0.4805  0.3483 -0.6050
 5837SOL     OW24592   9.103   3.919   2.468  0.1201 -0.1278  0.3237
 5837SOL    HW124593   9.078   3.918   2.565 -0.5178  1.4073  0.1952
 5837SOL    HW224594   9.063   4.000   2.424 -0.6264 -1.4336 -1.4933
 5838SOL     OW24595   0.016   7.327   2.595  0.0552  0.2697  0.0358
 5838SOL    HW124596  -0.060   7.263   2.605 -0.4119  0.4037 -2.3861
 5838SOL    HW224597   0.101   7.284   2.625 -0.5952 -0.7133  0.4857
 5839SOL     OW24598   1.836   9.054   0.365 -0.3078 -0.7029 -0.3135
 5839SOL    HW124599   1.758   9.113   0.345  1.3060  1.6816  0.2592
 5839SOL    HW224600   1.835   9.030   0.463 -0.6001 -1.0991 -0.4123
 5840SOL     OW24601   7.835   2.340   2.280  0.2064  0.3829  0.4470
 5840SOL    HW124602   7.910   2.293   2.234  1.1346  0.4202  1.9167
 5840SOL    HW224603   7.772   2.377   2.211 -0.4444 -2.8116 -0.7548
 5841SOL     OW24604   1.147   2.522   3.645 -0.7680  0.1955 -0.4228
 5841SOL    HW124605   1.081   2.510   3.570 -1.0460 -0.3182 -0.0989
 5841SOL    HW224606   1.237   2.490   3.614 -0.8532  0.1056 -0.5843
 5842SOL     OW24607   4.087   0.458   3.683 -0.0708  0.2424  0.3235
 5842SOL    HW124608   4.164   0.395   3.694  0.0793  0.2323 -0.7439
 5842SOL    HW224609   4.101   0.538   3.742  0.4653 -0.0347  0.5719
 5843SOL     OW24610   8.790   5.729   0.599  0.2158  1.4104 -0.2123
 5843SOL    HW124611   8.774   5.820   0.562 -1.8937  2.3893  2.9470
 5843SOL    HW224612   8.720   5.666   0.564 -0.5865  1.8712  0.5589
 5844SOL     OW24613   9.390   4.844   0.974 -0.0705  0.0070  0.2758
 5844SOL    HW124614   9.364   4.874   1.066  0.1669 -0.3887  0.4696
 5844SOL    HW224615   9.315   4.793   0.933  0.1888 -0.6613  0.6254
 5845SOL     OW24616   4.557   8.065   0.418  0.4956  0.0604  0.0473
 5845SOL    HW124617   4.577   8.014   0.501  1.2753  0.0594 -0.1429
 5845SOL    HW224618   4.556   8.163   0.437  1.4113  0.0976 -0.0989
 5846SOL     OW24619   6.549   0.506   1.987  0.3403  0.1726 -0.4628
 5846SOL    HW124620   6.561   0.423   2.041 -0.7202  1.0692  1.2010
 5846SOL    HW224621   6.637   0.552   1.974  1.0886 -1.6767 -2.2247
 5847SOL     OW24622   8.645   6.347   2.389  0.4004  0.1614 -0.1953
 5847SOL    HW124623   8.570   6.406   2.362  0.5435 -0.3243 -1.7160
 5847SOL    HW224624   8.683   6.378   2.476  0.6196  2.4421 -1.0723
 5848SOL     OW24625   8.481   2.533   1.723  0.0605  0.5141 -0.6579
 5848SOL    HW124626   8.487   2.502   1.628 -0.7536 -1.6667 -0.0326
 5848SOL    HW224627   8.568   2.518   1.769  0.5253  1.7868 -1.1171
 5850SOL     OW24628   8.719   0.923   1.417 -0.3269  0.0825  0.0188
 5850SOL    HW124629   8.727   1.017   1.448 -2.2581  0.1289  0.4099
 5850SOL    HW224630   8.627   0.889   1.436 -0.0174 -1.4901 -1.2033
 5851SOL     OW24631   0.974   9.257   1.396  0.0161  0.0379 -0.3222
 5851SOL    HW124632   0.994   9.207   1.481 -2.5815 -0.4621  0.0583
 5851SOL    HW224633   0.998   9.353   1.407 -0.3416 -0.0130  1.0119
 5852SOL     OW24634   3.043   1.202   1.078  0.1240 -0.2041 -0.0137
 5852SOL    HW124635   3.091   1.117   1.056  1.8101  0.5481  0.6612
 5852SOL    HW224636   2.947   1.182   1.096  0.6544 -2.0649  0.8843
 5853SOL     OW24637   9.234   5.557   1.604  0.6396  0.2782 -0.2660
 5853SOL    HW124638   9.229   5.656   1.590  0.7049  0.4689  0.9844
 5853SOL    HW224639   9.209   5.510   1.520  1.5213  1.3616 -1.1442
 5854SOL     OW24640   8.773   8.227   0.801  0.0002  0.4576  0.2795
 5854SOL    HW124641   8.685   8.238   0.846  0.1747 -0.6758  0.9200
 5854SOL    HW224642   8.815   8.317   0.786 -0.0628  0.8449  2.3757
 5857SOL     OW24643   4.044   1.533   0.688 -0.0340  0.2781 -0.2279
 5857SOL    HW124644   4.020   1.440   0.661  2.3695  0.0004 -1.5407
 5857SOL    HW224645   4.102   1.574   0.618 -2.0608  3.2299 -0.2485
 5858SOL     OW24646   2.356   0.785   0.234 -0.1972 -0.8093 -0.0446
 5858SOL    HW124647   2.316   0.752   0.148  1.0609 -1.6576 -0.3135
 5858SOL    HW224648   2.435   0.842   0.214 -0.1645 -0.6478  0.5445
 5859SOL     OW24649   1.021   9.910   0.026  0.1491  0.3173 -0.4191
 5859SOL    HW124650   1.072   9.976  -0.029 -0.4984  1.2715  0.1123
 5859SOL    HW224651   1.079   9.831   0.045  0.8962  0.6755 -1.1624
 5860SOL     OW24652   3.139   1.639   1.902  0.0202  0.3627 -0.0962
 5860SOL    HW124653   3.166   1.543   1.910 -0.4508  0.1905 -0.5353
 5860SOL    HW224654   3.068   1.648   1.832  0.4677  1.1109 -0.4620
 5861SOL     OW24655   2.045   9.622   2.417 -0.1261  0.1235  0.2915
 5861SOL    HW124656   2.075   9.705   2.463 -2.6296  0.9462  0.5262
 5861SOL    HW224657   2.074   9.624   2.322  1.4969  0.3571  0.7876
 5862SOL     OW24658   5.063   9.804   3.534  0.4434  0.1692 -0.3112
 5862SOL    HW124659   5.051   9.810   3.435 -0.3029 -0.7343 -0.2745
 5862SOL    HW224660   5.111   9.886   3.566  0.2706  0.6905 -1.3526
 5863SOL     OW24661   3.231   2.685   3.201 -0.4980 -0.0255  0.3330
 5863SOL    HW124662   3.314   2.632   3.219  0.8883  2.1751  0.6050
 5863SOL    HW224663   3.240   2.733   3.114 -0.2482  2.4730  1.6903
 5864SOL     OW24664   9.603   7.093   1.410 -0.6703  0.2866 -0.0009
 5864SOL    HW124665   9.544   7.015   1.388  0.9149 -0.3312 -2.2995
 5864SOL    HW224666   9.642   7.080   1.501 -1.8370 -0.7160  0.3696
 5865SOL     OW24667   0.241   0.124   1.510 -0.0747 -0.1110 -0.5180
 5865SOL    HW124668   0.171   0.167   1.452 -1.5921 -0.7435  0.8216
 5865SOL    HW224669   0.245   0.172   1.597 -0.0696 -1.1759  0.0685
 5867SOL     OW24670   9.566   7.584   0.482 -0.5962 -0.5053 -0.3422
 5867SOL    HW124671   9.506   7.543   0.413  1.1282 -1.4451 -1.3058
 5867SOL    HW224672   9.622   7.513   0.524  0.1340  0.4143  0.2570
 5868SOL     OW24673   1.317   5.860   2.242 -0.0753 -0.0870 -0.3383
 5868SOL    HW124674   1.373   5.868   2.325 -0.5752 -0.8995  0.0736
 5868SOL    HW224675   1.376   5.833   2.165  0.3652  0.5444 -0.2316
 5869SOL     OW24676   6.240   8.681   3.460  0.3605  0.3647  0.3143
 5869SOL    HW124677   6.307   8.656   3.389  0.1863 -0.0029  0.2757
 5869SOL    HW224678   6.179   8.603   3.476  1.3431 -0.0950  1.9468
 5871SOL     OW24679   2.474   7.466   1.320  0.4255 -0.1678  0.0351
 5871SOL    HW124680   2.392   7.521   1.334  0.6608 -0.0019  0.7877
 5871SOL    HW224681   2.449   7.369   1.314  0.3224 -0.2643  1.7805
 5873SOL     OW24682   2.858   6.799   1.396  0.7058 -0.0176 -0.4049
 5873SOL    HW124683   2.840   6.734   1.470 -0.3367  1.2119  0.4325
 5873SOL    HW224684   2.819   6.763   1.311  0.0005 -0.4292  0.0805
 5874SOL     OW24685   8.753   4.918   2.205  0.9059 -0.1811  0.3288
 5874SOL    HW124686   8.710   4.961   2.125 -0.2173 -0.3754  0.8187
 5874SOL    HW224687   8.847   4.949   2.213  0.6197  0.8696 -0.3081
 5875SOL     OW24688   1.609   5.792   2.780 -0.2278  0.2251 -0.0853
 5875SOL    HW124689   1.589   5.697   2.803 -0.8378  0.3946  0.0932
 5875SOL    HW224690   1.707   5.809   2.790 -0.0990 -0.4161 -0.2384
 5878SOL     OW24691   1.765   2.980   1.899 -0.4790  0.6690  0.0711
 5878SOL    HW124692   1.818   3.020   1.974  3.3989  1.4470 -2.8872
 5878SOL    HW224693   1.749   2.883   1.918  0.8241  0.7484  1.7258
 5879SOL     OW24694   4.282   1.254   1.332 -0.2334  0.2347 -0.2294
 5879SOL    HW124695   4.308   1.210   1.246 -0.0294  2.6338 -1.4156
 5879SOL    HW224696   4.358   1.248   1.397  0.0884 -0.4101 -0.6632
 5880SOL     OW24697   4.188   0.417   2.324 -0.5107  0.0394  0.0017
 5880SOL    HW124698   4.113   0.461   2.275 -0.8089 -0.9657 -0.4486
 5880SOL    HW224699   4.245   0.487   2.368 -1.5429  0.8204  0.1083
 5881SOL     OW24700   3.445   2.038   1.362 -0.1837 -0.0054  0.3967
 5881SOL    HW124701   3.543   2.023   1.346  0.2591  0.1955  2.6494
 5881SOL    HW224702   3.397   1.951   1.355  0.3984 -0.3590  0.7368
 5882SOL     OW24703   5.002   0.652   3.043 -0.2925 -0.1647  0.0803
 5882SOL    HW124704   5.067   0.697   3.105 -0.3869 -0.0006  0.0609
 5882SOL    HW224705   5.050   0.583   2.988 -0.0179  0.3573 -0.3426
 5883SOL     OW24706   1.123   4.282   0.601 -0.3317  0.0668 -0.1792
 5883SOL    HW124707   1.053   4.263   0.532 -0.9608  1.2540  0.1278
 5883SOL    HW224708   1.214   4.272   0.559 -0.6619 -1.4642 -0.5748
 5884SOL     OW24709   4.904   7.098   1.827  0.2758  0.3208 -0.0570
 5884SOL    HW124710   4.806   7.090   1.845  0.4005  0.0825  0.5256
 5884SOL    HW224711   4.919   7.155   1.746 -0.3999 -0.7894 -0.9829
 5885SOL     OW24712   9.361   2.108   1.484  0.3117  0.0372  0.2023
 5885SOL    HW124713   9.388   2.050   1.407 -0.3575 -0.4638  0.3487
 5885SOL    HW224714   9.263   2.126   1.481  0.1636 -0.5344  1.3091
 5887SOL     OW24715   8.401   9.510   2.953  0.0060 -0.2851  0.3535
 5887SOL    HW124716   8.355   9.576   3.012 -2.2970 -2.4564  1.0363
 5887SOL    HW224717   8.486   9.480   2.997 -0.2512  0.2670  1.2376
 5888SOL     OW24718   1.221   8.643   3.513 -0.1415 -0.0924 -0.8240
 5888SOL    HW124719   1.161   8.595   3.450 -0.3940 -2.3767  1.0733
 5888SOL    HW224720   1.166   8.690   3.582  0.1712  0.5638 -1.0225
 5889SOL     OW24721   7.722   2.549   1.673  0.4017  0.4850  0.4858
 5889SOL    HW124722   7.675   2.501   1.747 -1.1512  0.0756 -0.7354
 5889SOL    HW224723   7.779   2.484   1.622  0.9061  0.6193  0.8792
 5890SOL     OW24724   4.310   3.530   0.077  0.1711 -0.0572 -0.0409
 5890SOL    HW124725   4.365   3.448   0.059  0.9944  0.2866  0.8193
 5890SOL    HW224726   4.220   3.503   0.112  0.6907 -0.5991  0.9265
 5891SOL     OW24727   8.819   9.779   2.913 -0.2207 -0.0188 -0.0765
 5891SOL    HW124728   8.850   9.747   2.823  1.4244 -1.1342  0.8537
 5891SOL    HW224729   8.771   9.704   2.959 -0.1243  0.2141  0.3969
 5892SOL     OW24730   5.351   0.607   3.433  0.3103  0.0009 -0.1716
 5892SOL    HW124731   5.315   0.525   3.478 -1.1534  1.5521  1.5636
 5892SOL    HW224732   5.419   0.650   3.491  1.6777 -0.4031 -1.4457
 5893SOL     OW24733   7.223   8.297   3.111 -0.0057  0.2390  0.9992
 5893SOL    HW124734   7.184   8.367   3.172 -0.9498 -0.2621  0.9744
 5893SOL    HW224735   7.195   8.206   3.142 -2.6929  0.0907 -1.7002
 5895SOL     OW24736   5.312   8.628   1.617 -0.0331  0.5727  0.4636
 5895SOL    HW124737   5.314   8.711   1.673 -0.2388  0.3896  0.7467
 5895SOL    HW224738   5.405   8.603   1.590 -0.0370  1.3394 -0.2873
 5896SOL     OW24739   1.908   2.456   3.068  0.4129  0.1259  0.1770
 5896SOL    HW124740   1.809   2.464   3.060  0.5107  1.0644 -0.1513
 5896SOL    HW224741   1.939   2.377   3.015  0.1122  1.2943 -1.7866
 5898SOL     OW24742   8.923   9.672   3.331  0.0053  0.2902  0.0969
 5898SOL    HW124743   8.991   9.701   3.264 -0.8484 -0.2737 -1.0268
 5898SOL    HW224744   8.931   9.573   3.346 -1.3881  0.0114 -0.9819
 5900SOL     OW24745   4.028   8.849   3.079  0.1379 -0.1648 -0.4366
 5900SOL    HW124746   4.023   8.750   3.062  0.1523 -0.3495  0.5967
 5900SOL    HW224747   4.091   8.891   3.014  0.0914 -0.8243 -0.9140
 5901SOL     OW24748   3.312   5.315   0.989  0.2445 -0.1086 -0.1547
 5901SOL    HW124749   3.264   5.289   1.073  0.9511  2.4690  1.0968
 5901SOL    HW224750   3.346   5.232   0.943 -0.4006 -1.5760  1.9249
 5902SOL     OW24751   8.518   6.801   0.429  0.6037  0.3724  0.3972
 5902SOL    HW124752   8.461   6.816   0.348  1.2760 -0.3199 -0.2169
 5902SOL    HW224753   8.608   6.766   0.400  0.3054 -1.4105  1.5235
 5903SOL     OW24754   2.745   1.440   1.107 -0.1600 -0.1549  0.0415
 5903SOL    HW124755   2.836   1.449   1.148 -0.2587  1.6111 -0.0930
 5903SOL    HW224756   2.735   1.506   1.032 -1.1843 -1.0514 -0.6366
 5904SOL     OW24757   1.097   4.634   0.158  0.2710  0.1614 -0.1581
 5904SOL    HW124758   1.117   4.537   0.153 -0.7599 -0.0812  0.1699
 5904SOL    HW224759   1.023   4.656   0.094  0.8609  0.8251 -0.6173
 5905SOL     OW24760   8.473   8.888   0.758 -0.5575 -0.7830 -0.0537
 5905SOL    HW124761   8.447   8.931   0.672 -1.0757  0.1116  0.5433
 5905SOL    HW224762   8.499   8.958   0.824  1.3619 -1.5401  0.0459
 5906SOL     OW24763   1.296   1.290   1.977  0.4183  0.1992 -0.0128
 5906SOL    HW124764   1.245   1.208   1.951 -2.8214  2.1773 -0.0240
 5906SOL    HW224765   1.377   1.298   1.919  0.8306 -3.0114  0.0371
 5907SOL     OW24766   9.681   4.301   3.751  0.3778  0.0349  0.4840
 5907SOL    HW124767   9.644   4.329   3.663 -0.1081  0.0376  0.6893
 5907SOL    HW224768   9.704   4.204   3.748  2.6083  0.5612 -0.4145
 5908SOL     OW24769   6.022   6.736   2.206  0.1987  0.4025  0.2784
 5908SOL    HW124770   6.111   6.780   2.217 -0.0809  0.7309  1.3514
 5908SOL    HW224771   5.955   6.803   2.176  0.5179 -0.0614 -1.5305
 5909SOL     OW24772   4.059   7.220   1.387  0.4398  0.1268 -0.4533
 5909SOL    HW124773   3.981   7.241   1.328 -0.2230 -0.8534  0.0626
 5909SOL    HW224774   4.135   7.280   1.364 -1.0184  2.3216  0.2137
 5911SOL     OW24775   1.603   9.205   0.201 -0.8433  0.1368  0.1354
 5911SOL    HW124776   1.656   9.289   0.206 -0.4509 -0.1996  2.5586
 5911SOL    HW224777   1.515   9.223   0.156 -0.7402  1.8254  0.5869
 5912SOL     OW24778   7.952   5.659   1.856  0.1554  0.3109  0.0695
 5912SOL    HW124779   7.948   5.567   1.818 -0.8187  0.6154 -0.5714
 5912SOL    HW224780   7.892   5.720   1.804 -0.3773  0.9688  1.4300
 5913SOL     OW24781   9.769   5.967   0.871 -0.3242  0.1741 -0.0949
 5913SOL    HW124782   9.845   5.962   0.937 -0.6675  1.5294  0.4173
 5913SOL    HW224783   9.783   6.044   0.810 -0.8063 -0.1568 -0.6317
 5916SOL     OW24784   5.047   9.217   3.614  0.7184 -0.0382 -0.4535
 5916SOL    HW124785   5.007   9.274   3.686  0.4119 -0.0937 -0.5827
 5916SOL    HW224786   5.147   9.216   3.625  0.6501 -0.3364  0.1908
 5917SOL     OW24787   9.950   8.492   2.735  0.3195 -0.0209  0.2682
 5917SOL    HW124788  10.021   8.429   2.704  0.7191  0.6987 -0.3023
 5917SOL    HW224789   9.955   8.502   2.834  0.4127 -0.6888  0.3344
 5918SOL     OW24790   9.309   6.241   2.284  0.4482  0.0778  0.0720
 5918SOL    HW124791   9.403   6.247   2.251  0.4468 -0.7803 -0.0983
 5918SOL    HW224792   9.247   6.271   2.211  0.6343  1.6618  0.5404
 5919SOL     OW24793   9.491   5.983   2.104  0.0314  0.2855 -0.1969
 5919SOL    HW124794   9.587   5.955   2.101 -0.9982 -3.4480 -1.5126
 5919SOL    HW224795   9.440   5.920   2.161 -1.6110  2.5590  0.9248
 5920SOL     OW24796   9.126   8.168   0.045  0.1418  0.4143 -0.0559
 5920SOL    HW124797   9.094   8.162  -0.050  0.4806 -0.0592 -0.1435
 5920SOL    HW224798   9.087   8.249   0.089 -0.4136  0.3602 -0.4503
 5922SOL     OW24799   2.771   2.002   1.910 -0.2733 -0.0040  0.3400
 5922SOL    HW124800   2.691   2.057   1.887  0.1682  0.5645  0.1325
 5922SOL    HW224801   2.812   2.038   1.994  1.2442  1.3408 -0.9299
 5923SOL     OW24802   7.836   8.876   1.671 -0.6194 -0.2599 -0.0627
 5923SOL    HW124803   7.839   8.944   1.599  0.8916  0.2030  0.4220
 5923SOL    HW224804   7.749   8.826   1.667 -1.7464  1.6843 -0.4194
 5924SOL     OW24805   3.930   6.626   3.576  0.1287 -0.1374  0.4745
 5924SOL    HW124806   4.004   6.676   3.621  0.6230 -0.5987  0.1666
 5924SOL    HW224807   3.951   6.613   3.480 -0.4619 -0.0629  0.3323
 5925SOL     OW24808   8.422   7.086   0.350 -0.4393 -0.2745  0.2656
 5925SOL    HW124809   8.496   7.152   0.363 -1.7438  1.3782 -0.5459
 5925SOL    HW224810   8.438   7.007   0.409 -0.2495  1.9529  3.3130
 5927SOL     OW24811   2.171   5.601   1.630 -0.1507  0.3825  0.1893
 5927SOL    HW124812   2.199   5.649   1.547  0.9663 -1.6133 -0.6369
 5927SOL    HW224813   2.252   5.584   1.688 -0.1826 -2.0394 -0.3967
 5929SOL     OW24814   1.858   7.354   0.035  0.5978  0.4000  0.5088
 5929SOL    HW124815   1.859   7.260   0.069  1.3983  0.3923  0.4718
 5929SOL    HW224816   1.814   7.413   0.103 -1.1485 -0.2078 -0.0537
 5931SOL     OW24817   0.789   2.557   3.583  0.4162 -0.2014  0.3410
 5931SOL    HW124818   0.869   2.503   3.558 -0.7476 -1.4982 -0.6262
 5931SOL    HW224819   0.756   2.606   3.503 -0.2019 -0.2541  0.5651
 5932SOL     OW24820   2.611   1.919   0.372 -0.2188 -0.0545  0.1509
 5932SOL    HW124821   2.538   1.981   0.345 -0.2315  0.4629  1.3335
 5932SOL    HW224822   2.699   1.962   0.355 -0.2037 -0.2949 -0.3817
 5933SOL     OW24823   1.762   1.388   1.130  0.4772  0.0267 -0.4286
 5933SOL    HW124824   1.680   1.367   1.077  0.1418  0.6621 -0.1596
 5933SOL    HW224825   1.831   1.428   1.069  0.4033 -0.0286 -0.5500
 5934SOL     OW24826   4.191   6.815   2.852 -0.1983 -0.1404  0.6909
 5934SOL    HW124827   4.278   6.863   2.869 -1.7428  2.6546  1.0726
 5934SOL    HW224828   4.204   6.746   2.781  2.6291 -0.6905  1.6804
 5935SOL     OW24829   4.748   0.343   2.556 -0.0478  0.1796 -0.2968
 5935SOL    HW124830   4.794   0.379   2.475 -0.1722 -0.9382 -0.8700
 5935SOL    HW224831   4.703   0.257   2.534  2.1095 -1.4936  1.5861
 5937SOL     OW24832   8.491   5.128   2.908 -0.3117 -0.6343 -0.3862
 5937SOL    HW124833   8.509   5.179   2.825 -1.0504  0.7902  0.3162
 5937SOL    HW224834   8.536   5.173   2.985  1.2998 -2.5398 -0.1515
 5938SOL     OW24835   8.436   4.214   1.300 -0.2362  0.1491  0.9957
 5938SOL    HW124836   8.466   4.167   1.217 -1.3577  0.5653  0.3472
 5938SOL    HW224837   8.382   4.294   1.276 -0.9554  0.0192  2.1333
 5939SOL     OW24838   0.311   9.082   1.153 -0.3829 -0.3338 -0.2844
 5939SOL    HW124839   0.394   9.039   1.119 -0.1958 -0.3346  0.1731
 5939SOL    HW224840   0.316   9.091   1.252 -0.9000 -0.2707 -0.2632
 5940SOL     OW24841   8.295   4.657   3.764 -0.0018  0.1419 -0.0302
 5940SOL    HW124842   8.241   4.587   3.716 -0.0752 -0.7572  1.3344
 5940SOL    HW224843   8.377   4.615   3.803  1.3284  1.3583 -1.4701
 5941SOL     OW24844   7.691   0.391   2.516  0.4512  0.2278  0.1833
 5941SOL    HW124845   7.618   0.457   2.503  0.9659  0.5150 -1.4234
 5941SOL    HW224846   7.653   0.299   2.522 -0.0409  0.3517 -0.8706
 5944SOL     OW24847   1.775   6.114   0.593  0.3918  0.1257  0.0853
 5944SOL    HW124848   1.731   6.124   0.682  0.9176  0.1331  0.3464
 5944SOL    HW224849   1.816   6.023   0.586  2.1867  0.8738  0.6889
 5945SOL     OW24850   9.013   5.534   0.644  0.3758  0.2444  0.2155
 5945SOL    HW124851   8.947   5.609   0.633 -0.0118 -0.0637  0.4169
 5945SOL    HW224852   8.998   5.466   0.573 -0.8505 -0.7972  1.4345
 5948SOL     OW24853   4.123   6.223   1.995  0.0892  0.8012  0.5489
 5948SOL    HW124854   4.035   6.181   1.972  0.6809 -1.4238  2.1618
 5948SOL    HW224855   4.110   6.290   2.068 -0.1533 -0.1304  1.3657
 5951SOL     OW24856   9.016   6.100   3.445  0.2291  0.3879 -0.2648
 5951SOL    HW124857   9.015   6.133   3.351 -0.7375 -0.4915 -0.5693
 5951SOL    HW224858   9.108   6.070   3.469  0.3055 -0.1188 -1.1871
 5952SOL     OW24859   0.584   4.454   2.569  0.3712 -0.8314 -0.4331
 5952SOL    HW124860   0.656   4.484   2.506 -1.6590 -0.5777 -2.7158
 5952SOL    HW224861   0.614   4.371   2.616  1.7527 -1.3347 -2.1349
 5953SOL     OW24862   1.279   5.118   2.381  0.1293 -0.0969  0.0827
 5953SOL    HW124863   1.276   5.039   2.318 -1.4812  0.9254 -1.1745
 5953SOL    HW224864   1.192   5.167   2.375  0.8471  1.3418  1.4289
 5954SOL     OW24865   7.359   0.396   2.303 -0.2997 -0.4240  0.3122
 5954SOL    HW124866   7.306   0.312   2.288  0.3728 -0.7210 -0.4631
 5954SOL    HW224867   7.457   0.374   2.299 -0.0350  1.0546 -4.1774
 5955SOL     OW24868   5.319   8.608   3.279 -0.0872  0.1697 -0.2052
 5955SOL    HW124869   5.266   8.636   3.199 -0.7856  0.4890  0.3615
 5955SOL    HW224870   5.382   8.534   3.253 -0.1210  0.4492 -1.1009
 5956SOL     OW24871   4.414   1.946   0.001 -0.1440 -0.1309  0.3871
 5956SOL    HW124872   4.475   1.879   0.044 -0.8374 -0.7533  0.4204
 5956SOL    HW224873   4.332   1.899  -0.031 -0.5251  0.6732  0.1886
 5957SOL     OW24874   2.833   1.759   2.117 -0.3897  0.1939  0.6361
 5957SOL    HW124875   2.800   1.760   2.022  0.3378  0.4641  0.3808
 5957SOL    HW224876   2.923   1.801   2.121 -0.9651  1.3543  1.6676
 5958SOL     OW24877   1.357   8.886   0.672 -0.1216 -0.1435 -0.3443
 5958SOL    HW124878   1.390   8.970   0.715 -0.4923 -0.7059  1.0750
 5958SOL    HW224879   1.257   8.884   0.677 -0.1477 -0.3724 -0.9465
 5960SOL     OW24880   1.667   5.444   2.208  0.6125 -0.3150  0.0532
 5960SOL    HW124881   1.626   5.366   2.254 -0.8695  0.8382  0.7535
 5960SOL    HW224882   1.687   5.420   2.113 -0.2597 -1.4007  0.1309
 5961SOL     OW24883   6.598   7.693   2.957  0.2051  0.6038 -0.1842
 5961SOL    HW124884   6.525   7.626   2.969  1.0834 -0.1605  0.9318
 5961SOL    HW224885   6.580   7.746   2.874 -1.2639 -0.0188 -0.2866
 5962SOL     OW24886   9.419   4.039   2.038 -0.2785  0.0548  0.5547
 5962SOL    HW124887   9.348   4.009   2.102  1.8639 -1.6945  2.1672
 5962SOL    HW224888   9.509   4.017   2.074  1.1793  2.7261 -1.2091
 5963SOL     OW24889   0.363   1.536   2.913 -0.0446  0.5200 -0.1097
 5963SOL    HW124890   0.353   1.456   2.973  0.7810  0.3540 -0.1861
 5963SOL    HW224891   0.324   1.616   2.959 -1.7612 -0.1049 -0.4418
 5965SOL     OW24892   3.176   0.973   0.798  0.0797  0.5088  0.1056
 5965SOL    HW124893   3.107   1.039   0.767  0.5586  1.1878  0.4730
 5965SOL    HW224894   3.196   0.909   0.725 -2.0528 -0.6363  0.4785
 5966SOL     OW24895   9.035   4.402   0.935  0.2832  0.3751  0.0207
 5966SOL    HW124896   9.059   4.474   0.869  0.8718  2.7149  2.6769
 5966SOL    HW224897   9.119   4.365   0.975 -0.0650 -1.1560 -0.6186
 5968SOL     OW24898   9.874   7.781   0.722  0.3246 -0.2432  0.6344
 5968SOL    HW124899   9.803   7.815   0.661 -0.0650 -1.0800  0.6121
 5968SOL    HW224900   9.927   7.710   0.676  2.0487  1.2966  0.1764
 5969SOL     OW24901   8.460   5.086   1.687 -0.2306  0.2099  0.6137
 5969SOL    HW124902   8.450   5.058   1.782 -2.6490  2.0695  0.9509
 5969SOL    HW224903   8.435   5.183   1.677 -1.7958 -0.4088 -2.1838
 5974SOL     OW24904   9.286   8.690   1.524 -0.7430 -0.9543 -0.3698
 5974SOL    HW124905   9.217   8.703   1.452 -1.6208  1.3411  0.8523
 5974SOL    HW224906   9.240   8.667   1.610  0.0518  0.1806  0.3602
 5975SOL     OW24907   1.524   9.538   1.899  0.5930  0.8442  0.3057
 5975SOL    HW124908   1.496   9.561   1.806 -1.9453 -0.9437  0.5677
 5975SOL    HW224909   1.474   9.596   1.964  0.3707  0.2682  0.6490
 5977SOL     OW24910   0.682   0.020   0.607 -0.2934  0.4044 -0.0540
 5977SOL    HW124911   0.651   0.027   0.702 -0.9807  0.2316 -0.2596
 5977SOL    HW224912   0.746   0.094   0.587 -0.6388  0.8190  0.3569
 5978SOL     OW24913   1.153   5.513   3.133 -0.1445  0.3388  0.0387
 5978SOL    HW124914   1.072   5.522   3.191  0.2852 -0.1045  0.7161
 5978SOL    HW224915   1.165   5.417   3.107  1.7895 -0.0813  2.3379
 5979SOL     OW24916   8.734   6.595   2.889 -0.6371  0.5450  0.5390
 5979SOL    HW124917   8.695   6.637   2.972 -1.5008  1.6244 -0.3981
 5979SOL    HW224918   8.833   6.592   2.897 -0.5719  2.6598  0.7010
 5980SOL     OW24919   5.659   7.610   2.061  0.0731 -0.2806  0.5266
 5980SOL    HW124920   5.573   7.640   2.019  0.6107  1.7916  0.8620
 5980SOL    HW224921   5.638   7.555   2.142 -0.9434  0.1007  0.5393
 5981SOL     OW24922   0.784   0.611   1.786 -0.3712  0.6781  0.6251
 5981SOL    HW124923   0.770   0.595   1.883 -0.2337  2.5523  0.9818
 5981SOL    HW224924   0.882   0.609   1.765 -0.4448 -0.4516  0.3885
 5983SOL     OW24925   2.211   0.040   2.681  0.3027 -0.1966 -0.2216
 5983SOL    HW124926   2.272   0.049   2.759 -1.2095  0.3306  0.9148
 5983SOL    HW224927   2.249   0.091   2.603  0.7820  1.0292  0.7972
 5984SOL     OW24928   6.443   9.738   3.753 -0.0572  0.4880  0.1117
 5984SOL    HW124929   6.460   9.766   3.848  0.0481  1.8332 -0.3047
 5984SOL    HW224930   6.529   9.709   3.711 -0.1570 -0.4415  0.5174
 5985SOL     OW24931   2.351   7.094   2.026  0.4660 -0.1383  0.2118
 5985SOL    HW124932   2.430   7.051   2.070  0.6886  0.3738  0.3159
 5985SOL    HW224933   2.368   7.192   2.016  1.2717 -0.5444 -2.8600
 5986SOL     OW24934   3.831   2.495   3.062  0.3060  0.0939 -0.4059
 5986SOL    HW124935   3.882   2.411   3.080 -0.8224 -0.6251 -0.4635
 5986SOL    HW224936   3.847   2.524   2.968  0.5627 -0.1567 -0.4399
 5987SOL     OW24937   2.743   5.312   1.778  0.5435  0.3151 -0.2012
 5987SOL    HW124938   2.843   5.307   1.773  0.4261 -1.3092 -1.2597
 5987SOL    HW224939   2.704   5.256   1.705 -1.1516  0.6945  0.4116
 5988SOL     OW24940   8.467   0.306   0.735 -0.1231  0.8832  0.4782
 5988SOL    HW124941   8.425   0.361   0.807  1.6033  1.6655  0.8938
 5988SOL    HW224942   8.455   0.209   0.756 -0.3180  1.1035  1.3973
 5990SOL     OW24943   0.435   6.938   2.202 -0.2158 -0.4027 -0.5842
 5990SOL    HW124944   0.452   6.902   2.294 -0.5135  0.4541 -0.1852
 5990SOL    HW224945   0.431   6.863   2.137 -0.2845 -1.0450  0.1543
 5992SOL     OW24946   1.321   3.966   1.299  0.5896  0.1224 -0.4841
 5992SOL    HW124947   1.241   3.907   1.314  1.8375 -0.9756  2.1190
 5992SOL    HW224948   1.340   4.018   1.382  0.6013  2.9030 -2.1636
 5993SOL     OW24949   1.403   9.895   0.448  0.4083  0.3124  0.5205
 5993SOL    HW124950   1.409   9.804   0.489  1.2512 -0.0725 -0.4482
 5993SOL    HW224951   1.495   9.929   0.429  0.0881  1.3181  0.7557
 5994SOL     OW24952   5.694   3.173   0.808 -0.1182 -0.2330 -0.4826
 5994SOL    HW124953   5.626   3.191   0.737 -1.2110 -2.9020 -0.1529
 5994SOL    HW224954   5.653   3.188   0.898 -0.5784 -2.7053 -0.2561
 5995SOL     OW24955   8.917   5.367   3.486 -0.0745 -0.8423  0.6932
 5995SOL    HW124956   8.978   5.315   3.426 -0.6516 -0.6351 -0.0891
 5995SOL    HW224957   8.832   5.315   3.500 -0.3724 -0.4283  0.4605
 5996SOL     OW24958   2.040   6.420   0.514  0.0581  0.0003  0.0333
 5996SOL    HW124959   2.054   6.500   0.456 -0.9464 -0.3066 -0.6440
 5996SOL    HW224960   2.120   6.360   0.510  0.3280  0.3923 -0.3722
 5997SOL     OW24961   0.927   1.776   1.464  0.5464  0.3907  0.6601
 5997SOL    HW124962   0.976   1.699   1.423 -1.7426 -0.7121 -0.0872
 5997SOL    HW224963   0.830   1.770   1.440  0.2936  3.4004  0.7771
 5998SOL     OW24964   1.665   7.570   0.248 -0.6955 -0.2753  0.1019
 5998SOL    HW124965   1.619   7.593   0.162 -0.7349  0.9371  0.4355
 5998SOL    HW224966   1.670   7.651   0.305 -0.5737 -1.0535  1.2096
 5999SOL     OW24967   1.025   8.790   0.241  0.0544 -0.1583 -0.1775
 5999SOL    HW124968   1.024   8.745   0.152  0.9264 -1.8503  0.6617
 5999SOL    HW224969   0.935   8.832   0.258 -0.1733  0.0266 -1.7545
 6000SOL     OW24970   4.776   8.527   1.969 -0.3975  0.6622 -0.1993
 6000SOL    HW124971   4.677   8.527   1.983 -0.4132 -1.2800 -0.2870
 6000SOL    HW224972   4.817   8.450   2.017  0.8890  0.5094 -1.5270
 6001SOL     OW24973   8.565   9.718   1.839  0.5760  0.6122  0.2494
 6001SOL    HW124974   8.518   9.631   1.830 -0.8768  1.3645  0.2825
 6001SOL    HW224975   8.541   9.777   1.762 -0.3280  1.8120  1.4231
 6002SOL     OW24976   0.702   8.971   1.297 -0.2306  0.2105  0.0869
 6002SOL    HW124977   0.799   8.982   1.274 -0.2350 -0.4659 -0.2698
 6002SOL    HW224978   0.672   9.050   1.350  0.0369  1.3427 -1.3812
 6003SOL     OW24979   6.794   9.588   2.192 -0.1814 -0.1948  0.0460
 6003SOL    HW124980   6.753   9.671   2.154  0.6969  0.0199 -0.4470
 6003SOL    HW224981   6.802   9.519   2.121  0.3186 -0.2323  0.1343
 6004SOL     OW24982   9.117   7.534   1.284  0.0212  0.1391  0.2120
 6004SOL    HW124983   9.136   7.464   1.216 -1.0012  0.5226 -0.4840
 6004SOL    HW224984   9.027   7.519   1.324  1.0722 -0.7490  2.3276
 6005SOL     OW24985   9.979   4.726   0.613 -0.0094  0.3898  0.4755
 6005SOL    HW124986   9.927   4.686   0.537  0.1198  0.4410  0.3595
 6005SOL    HW224987  10.035   4.802   0.578  0.0186  0.4390  0.6296
 6006SOL     OW24988   2.084   2.801   0.979  0.4074  0.2320  0.1141
 6006SOL    HW124989   2.060   2.706   0.961  0.3341  0.1161  0.7807
 6006SOL    HW224990   2.098   2.813   1.078 -2.6491  1.6091  0.4564
 6007SOL     OW24991   8.939   8.820   1.626  0.1348  0.3123  0.0230
 6007SOL    HW124992   8.898   8.909   1.603 -1.0439  0.0397  1.0515
 6007SOL    HW224993   8.868   8.757   1.655  0.7156 -1.5921 -2.5502
 6008SOL     OW24994   0.856   9.112   0.049  0.2441 -0.4643  0.3857
 6008SOL    HW124995   0.836   9.068   0.136  2.4236  0.4029  1.3631
 6008SOL    HW224996   0.799   9.194   0.039 -0.3991 -0.8668  0.7389
 6010SOL     OW24997   0.424   6.113   3.416  0.2234 -0.1052  0.8780
 6010SOL    HW124998   0.501   6.176   3.410  0.6944 -0.7078  0.6377
 6010SOL    HW224999   0.447   6.038   3.478  0.1853 -0.7872  0.0742
 6011SOL     OW25000   5.873   7.531   3.413  0.1871  0.0007  0.5441
 6011SOL    HW125001   5.871   7.629   3.393  0.9154 -0.0891  0.0040
 6011SOL    HW225002   5.789   7.504   3.459 -0.1056  0.8425  0.5018
 6012SOL     OW25003   2.871   5.131   2.472  0.0344  0.7661 -0.3789
 6012SOL    HW125004   2.917   5.102   2.556  1.4603  2.0173 -0.7190
 6012SOL    HW225005   2.807   5.205   2.493 -0.1875  0.5465 -0.2765
 6013SOL     OW25006   6.645   9.763   0.444  0.7056  0.4020  0.4674
 6013SOL    HW125007   6.700   9.718   0.514  0.5799 -1.1254 -0.3933
 6013SOL    HW225008   6.548   9.756   0.467  0.6415 -0.4299 -0.0393
 6014SOL     OW25009   5.826   0.394   3.198  0.1694 -0.4143  0.2849
 6014SOL    HW125010   5.831   0.316   3.135  0.0431 -2.2361  2.4611
 6014SOL    HW225011   5.836   0.361   3.292  0.9965  2.3300  1.1944
 6015SOL     OW25012   7.558   8.485   3.008  0.0151 -0.0160 -0.1997
 6015SOL    HW125013   7.478   8.508   3.063 -0.0111 -1.4556  0.3809
 6015SOL    HW225014   7.527   8.446   2.921  0.0791 -0.0146 -0.2229
 6016SOL     OW25015   7.699   8.784   1.963  0.7016  0.5399  0.4380
 6016SOL    HW125016   7.670   8.824   1.875  0.4684  1.8140  1.0897
 6016SOL    HW225017   7.638   8.708   1.985  1.0786 -0.1259 -0.7572
 6017SOL     OW25018   3.369   6.723   2.703 -0.9912 -0.2825 -0.3277
 6017SOL    HW125019   3.434   6.737   2.629 -1.5819  0.6136 -0.6849
 6017SOL    HW225020   3.409   6.755   2.789 -1.4096  1.4155 -0.7465
 6021SOL     OW25021   1.217   3.702   3.440 -0.1651 -0.4364 -0.6379
 6021SOL    HW125022   1.169   3.614   3.442  1.1629 -1.1905 -0.9041
 6021SOL    HW225023   1.207   3.743   3.350 -1.2103 -0.0789 -0.3562
 6024SOL     OW25024   1.719   7.570   1.447 -0.7278  0.1859  0.0716
 6024SOL    HW125025   1.751   7.664   1.458  1.0056 -0.1803 -1.5376
 6024SOL    HW225026   1.676   7.538   1.532  1.7507  1.2589  1.7657
 6025SOL     OW25027   4.703   0.419   1.707  0.1877 -0.1019 -0.1319
 6025SOL    HW125028   4.657   0.451   1.624 -0.6030  0.1019  0.3778
 6025SOL    HW225029   4.635   0.380   1.769  0.6467  0.6065  0.8211
 6027SOL     OW25030   0.707   3.610   2.099 -0.7419 -0.2349 -0.8802
 6027SOL    HW125031   0.741   3.529   2.051  1.2607  0.0809 -0.0570
 6027SOL    HW225032   0.767   3.687   2.081 -0.2092  0.0079  1.7191
 6028SOL     OW25033   4.452   0.450   2.987 -0.1968 -0.1669  0.1779
 6028SOL    HW125034   4.484   0.465   3.081  0.4632  0.9237 -0.2150
 6028SOL    HW225035   4.527   0.414   2.931 -0.3263  0.1074 -0.1715
 6029SOL     OW25036   1.380   9.982   2.649  0.0859  0.3493  0.6719
 6029SOL    HW125037   1.463   9.929   2.630 -0.8564 -0.8195 -0.3038
 6029SOL    HW225038   1.347  10.022   2.563 -0.4007  0.7356  1.0414
 6030SOL     OW25039   8.631   6.093   1.741 -0.2311 -0.4028 -0.0617
 6030SOL    HW125040   8.643   6.169   1.677  0.5159 -0.8264 -0.4340
 6030SOL    HW225041   8.535   6.084   1.766 -0.3533  0.5153 -0.2040
 6032SOL     OW25042   0.250   8.773   3.008  0.2729  0.1695  0.0438
 6032SOL    HW125043   0.251   8.737   2.914  0.0967 -0.9415  0.4680
 6032SOL    HW225044   0.303   8.713   3.067 -0.3012  0.4282  0.8228
 6033SOL     OW25045   9.005   9.575   2.052  0.8710 -0.0098 -0.4622
 6033SOL    HW125046   9.089   9.565   2.000  0.5631  1.9003 -1.3863
 6033SOL    HW225047   8.975   9.671   2.049 -0.9764 -0.5273  0.3899
 6034SOL     OW25048   1.273   1.870   0.713  0.6237  0.2329 -0.2722
 6034SOL    HW125049   1.218   1.950   0.691 -1.0807 -0.9739 -0.4935
 6034SOL    HW225050   1.334   1.849   0.637 -0.3818  0.1238 -1.0549
 6035SOL     OW25051   9.084   3.396   1.829  0.2767 -0.2342  0.0295
 6035SOL    HW125052   9.178   3.366   1.815  0.1441  0.2238 -1.8669
 6035SOL    HW225053   9.061   3.386   1.926  2.4687  0.2344  0.6387
 6036SOL     OW25054   5.884   0.445   2.520  0.2007 -0.0616  0.1523
 6036SOL    HW125055   5.937   0.383   2.464 -0.2332 -1.1128  0.8825
 6036SOL    HW225056   5.883   0.536   2.478 -0.7443 -1.0034 -1.9187
 6037SOL     OW25057   5.920   0.060   3.562  0.0895 -0.4920 -0.4173
 6037SOL    HW125058   5.970  -0.011   3.612 -0.7437 -1.2035 -0.5761
 6037SOL    HW225059   5.972   0.087   3.481  1.2270  0.3336  0.5750
 6038SOL     OW25060   9.894   4.438   0.322 -0.2826  0.7908  0.2544
 6038SOL    HW125061   9.853   4.361   0.273 -1.7381  1.5186  0.3054
 6038SOL    HW225062   9.857   4.442   0.415  0.3160  1.1281  0.4805
 6039SOL     OW25063   8.377   4.193   3.502  0.2370 -0.0348  0.0341
 6039SOL    HW125064   8.444   4.226   3.569  0.0160  1.6247 -0.5189
 6039SOL    HW225065   8.286   4.195   3.543  0.1756  0.4350 -0.1203
 6040SOL     OW25066   3.719   2.535   0.646 -0.1265 -0.4026 -0.0941
 6040SOL    HW125067   3.792   2.563   0.708  0.6309  0.1438 -1.2072
 6040SOL    HW225068   3.631   2.570   0.679  0.4727  1.1296 -0.1044
 6041SOL     OW25069   1.340   7.272   2.200 -0.1359  0.2669  0.3144
 6041SOL    HW125070   1.329   7.186   2.150  2.2398  0.0494  0.1044
 6041SOL    HW225071   1.319   7.349   2.140 -2.6096 -0.1390  0.5981
 6043SOL     OW25072   3.047   7.824   3.529  0.0414  0.5122  0.0859
 6043SOL    HW125073   3.061   7.802   3.626  1.5287  1.5586  0.1348
 6043SOL    HW225074   2.953   7.804   3.504  0.0997 -1.4561  1.2841
 6044SOL     OW25075   2.975   6.299   2.388  0.4165 -0.3323  0.4031
 6044SOL    HW125076   3.050   6.363   2.379  0.0727 -0.0328 -0.4265
 6044SOL    HW225077   2.903   6.339   2.444 -0.5717  0.7527 -1.5766
 6045SOL     OW25078   8.947   2.831   1.401  0.2657 -0.6616  0.4102
 6045SOL    HW125079   8.928   2.927   1.419  0.0552 -0.3411 -1.4407
 6045SOL    HW225080   9.040   2.822   1.365  0.2304 -1.1320  0.4332
 6046SOL     OW25081   1.226   5.685   1.538  0.2986 -0.1597 -0.7366
 6046SOL    HW125082   1.266   5.619   1.602  0.0327 -0.9704 -1.4013
 6046SOL    HW225083   1.129   5.667   1.526 -0.2626  1.6953  0.7217
 6048SOL     OW25084   0.071   8.555   0.284  0.2341  0.4185  0.0834
 6048SOL    HW125085   0.050   8.653   0.295 -1.7025 -0.1418  1.6910
 6048SOL    HW225086   0.023   8.520   0.204  0.9577  0.8007 -0.5153
 6050SOL     OW25087   4.930   7.798   0.529 -0.4707  0.3542  0.1538
 6050SOL    HW125088   4.868   7.730   0.488 -0.5641 -0.6485  1.9139
 6050SOL    HW225089   4.882   7.885   0.537  0.0393  1.0300 -3.2645
 6051SOL     OW25090   5.547   8.834   3.122 -0.1784 -0.2100 -0.1296
 6051SOL    HW125091   5.608   8.893   3.175 -0.0602 -0.4089 -0.0417
 6051SOL    HW225092   5.460   8.880   3.108  0.1822  0.3083 -0.7260
 6052SOL     OW25093   9.765   3.012   2.970  0.1805  0.0328 -0.2608
 6052SOL    HW125094   9.863   3.027   2.985 -0.4242  2.3077  1.5714
 6052SOL    HW225095   9.728   2.959   3.046 -0.4626  1.0256  0.1090
 6053SOL     OW25096   3.791   4.053   0.366 -0.2702  0.5113 -0.0605
 6053SOL    HW125097   3.782   3.969   0.312  0.5430  1.2849 -1.4339
 6053SOL    HW225098   3.716   4.115   0.343 -1.6297 -0.3366  1.9273
 6054SOL     OW25099   6.437   0.549   3.020 -0.1623  0.0750  0.4954
 6054SOL    HW125100   6.450   0.640   3.059 -0.4498  1.0156 -1.5617
 6054SOL    HW225101   6.362   0.503   3.068 -0.0378  0.9121  1.5240
 6055SOL     OW25102   0.717   4.013   0.486 -0.2116 -0.1466 -0.1645
 6055SOL    HW125103   0.669   4.072   0.421 -0.2791 -1.2181 -1.1116
 6055SOL    HW225104   0.786   3.958   0.437  0.7226  0.0592  0.8915
 6056SOL     OW25105   9.208   2.344   3.160  0.0349 -0.4999  0.7178
 6056SOL    HW125106   9.304   2.323   3.140 -0.3797  0.3034 -2.4286
 6056SOL    HW225107   9.201   2.437   3.195  0.4345 -0.6168  1.1119
 6057SOL     OW25108   1.258   3.187   0.544  0.4646  0.6779 -0.2107
 6057SOL    HW125109   1.301   3.161   0.457 -2.1616 -1.5934 -0.8959
 6057SOL    HW225110   1.172   3.233   0.525 -0.1737  0.0832  1.2031
 6058SOL     OW25111   4.763   4.478   0.893  0.2052  0.3502  0.1629
 6058SOL    HW125112   4.672   4.518   0.882 -0.1560  0.3066  2.6822
 6058SOL    HW225113   4.814   4.531   0.960  0.7852 -1.6492  1.3283
 6059SOL     OW25114   9.738   1.041   1.628  0.0261  0.2148  0.0812
 6059SOL    HW125115   9.837   1.038   1.642  0.2393 -4.1676 -1.7708
 6059SOL    HW225116   9.713   1.127   1.583  3.2776  0.5354 -1.2148
 6060SOL     OW25117   2.069   9.346   0.085  0.3608 -0.6209  0.0829
 6060SOL    HW125118   2.126   9.353   0.003 -0.7394  1.3453 -0.5298
 6060SOL    HW225119   2.113   9.395   0.161  1.5745 -2.7700  0.8322
 6061SOL     OW25120   2.367   5.155   1.567 -0.1776 -0.1974 -0.2487
 6061SOL    HW125121   2.325   5.214   1.499 -1.6212 -1.5238 -0.5279
 6061SOL    HW225122   2.353   5.194   1.658 -1.4418 -0.2879 -0.4009
 6062SOL     OW25123   0.013   3.557   0.762  0.1508  0.0031 -0.4829
 6062SOL    HW125124   0.049   3.603   0.843  0.0727 -0.6681 -0.0643
 6062SOL    HW225125   0.068   3.583   0.682 -0.0998  1.0830 -0.3125
 6063SOL     OW25126   4.692   9.172   2.242 -0.2198 -0.1558  0.3684
 6063SOL    HW125127   4.622   9.144   2.176  1.0849  0.0597 -1.1720
 6063SOL    HW225128   4.664   9.255   2.289 -0.5464  0.5509 -1.0343
 6065SOL     OW25129   4.097   5.284   1.812 -0.3206 -0.5628  0.0356
 6065SOL    HW125130   4.190   5.276   1.776 -1.1534 -1.2331 -2.0063
 6065SOL    HW225131   4.070   5.198   1.855  0.7829  0.3323  2.5999
 6068SOL     OW25132   0.522   8.505   1.156  0.5334  0.0487  0.1866
 6068SOL    HW125133   0.527   8.498   1.256  1.1953 -1.6140  0.0574
 6068SOL    HW225134   0.473   8.588   1.131 -2.4373 -1.0838  1.9315
 6069SOL     OW25135   7.985   2.482   2.507 -0.0289  0.3808  0.0695
 6069SOL    HW125136   7.933   2.454   2.427 -1.3666  2.9277 -0.0106
 6069SOL    HW225137   7.936   2.555   2.555  2.7236  1.8307  0.8307
 6070SOL     OW25138   6.818   9.796   2.501  0.0878 -0.1524 -0.3470
 6070SOL    HW125139   6.879   9.737   2.553  0.6641  2.0645  1.5375
 6070SOL    HW225140   6.816   9.887   2.542 -3.0021  0.3579 -1.5039
 6071SOL     OW25141   4.820   0.860   2.227 -0.3359 -0.0184  0.1576
 6071SOL    HW125142   4.738   0.906   2.260 -0.1006  1.8534 -1.7164
 6071SOL    HW225143   4.797   0.798   2.152 -0.1648 -0.1481  0.2113
 6073SOL     OW25144   4.131   7.755   3.274  0.1826  0.5910 -0.3452
 6073SOL    HW125145   4.032   7.742   3.282  0.2976 -0.6828 -0.7587
 6073SOL    HW225146   4.157   7.843   3.314 -1.0877  0.8431 -0.0495
 6077SOL     OW25147   9.775   6.154   0.665 -0.2689 -0.1923 -0.2419
 6077SOL    HW125148   9.842   6.176   0.594  0.3013  1.1204  0.6787
 6077SOL    HW225149   9.684   6.148   0.624 -0.0613  1.3694 -0.9678
 6081SOL     OW25150   8.416   1.137   1.412  0.1285  0.1815 -0.0119
 6081SOL    HW125151   8.413   1.233   1.439  1.9042  0.5360 -1.0100
 6081SOL    HW225152   8.429   1.131   1.313  5.5760 -1.0222  0.6328
 6082SOL     OW25153   0.555   9.554   3.487 -0.6135  0.0462  0.0392
 6082SOL    HW125154   0.462   9.520   3.492 -0.6520  0.0419 -0.7727
 6082SOL    HW225155   0.561   9.643   3.533 -1.5882  1.2747 -2.1419
 6083SOL     OW25156   2.543   3.267   2.879  0.1284  0.2974  0.1188
 6083SOL    HW125157   2.559   3.280   2.977  0.6970 -0.1601  0.0884
 6083SOL    HW225158   2.523   3.171   2.861 -1.2833  0.6128 -0.0400
 6084SOL     OW25159   2.375   6.376   3.579 -0.1367  0.2332 -0.1361
 6084SOL    HW125160   2.410   6.459   3.622 -0.6074  0.0852  0.5592
 6084SOL    HW225161   2.333   6.318   3.650 -0.2223 -0.3767 -0.6854
 6085SOL     OW25162   7.479   6.973   3.025  0.3496  0.3359 -0.1621
 6085SOL    HW125163   7.379   6.970   3.035  0.4910 -1.7276  0.7871
 6085SOL    HW225164   7.503   6.971   2.928 -0.4700 -1.9930 -0.3383
 6086SOL     OW25165   3.790   2.235   2.891  0.1555  0.0035  0.5004
 6086SOL    HW125166   3.792   2.249   2.990  0.1748 -1.0069  0.6527
 6086SOL    HW225167   3.880   2.204   2.860  0.1405  0.2825  0.1707
 6087SOL     OW25168   9.222   7.986   0.862  0.1656 -0.0955  0.3194
 6087SOL    HW125169   9.269   7.970   0.949  1.3639  0.5687 -0.1956
 6087SOL    HW225170   9.164   8.066   0.870  0.4323  0.0876  0.4511
 6088SOL     OW25171   3.203   6.468   1.471  0.0129 -0.3401  0.1198
 6088SOL    HW125172   3.266   6.428   1.537 -0.3533  0.4682  0.9777
 6088SOL    HW225173   3.109   6.462   1.505 -0.2131 -0.1608 -0.4506
 6089SOL     OW25174   0.723   8.609   2.116 -0.2519  0.4869 -0.3713
 6089SOL    HW125175   0.709   8.516   2.081  0.5255  0.0392  0.4758
 6089SOL    HW225176   0.643   8.637   2.170 -0.2480  0.0756 -0.1472
 6090SOL     OW25177   1.408   9.780   1.487 -0.2207  0.6104  0.4882
 6090SOL    HW125178   1.501   9.780   1.450 -0.4992  3.3842 -0.4032
 6090SOL    HW225179   1.399   9.709   1.556  1.5674 -1.9367 -1.7752
 6091SOL     OW25180   2.178   8.907   1.879 -0.4947 -0.3050 -0.8885
 6091SOL    HW125181   2.089   8.947   1.859 -0.8904  0.1061  1.5194
 6091SOL    HW225182   2.181   8.812   1.846 -1.7016 -0.2175 -1.2641
 6092SOL     OW25183   2.901   1.578   0.417 -0.2102  0.5506 -0.0920
 6092SOL    HW125184   2.805   1.583   0.445 -0.1902  1.6724 -0.2191
 6092SOL    HW225185   2.949   1.660   0.445  0.1323  1.1020 -2.1806
 6093SOL     OW25186   9.924   9.631   0.484 -0.0478 -0.1441  0.1788
 6093SOL    HW125187   9.871   9.577   0.418  0.2493  0.0428 -0.2125
 6093SOL    HW225188  10.006   9.666   0.440 -0.3908  0.8854  0.3511
 6094SOL     OW25189   7.859   6.422   3.711  0.2063  0.0380 -0.3332
 6094SOL    HW125190   7.784   6.483   3.686 -1.0973 -1.2613  0.4022
 6094SOL    HW225191   7.932   6.430   3.643 -0.8972  0.7623 -1.4399
 6095SOL     OW25192   9.785   5.523   1.836  0.1889  0.0349 -0.0656
 6095SOL    HW125193   9.805   5.593   1.768 -1.6730  0.5554 -0.1150
 6095SOL    HW225194   9.703   5.549   1.887  0.9502 -0.8686  1.6611
 6096SOL     OW25195   7.251   8.507   2.927 -0.7933  0.2118 -0.2735
 6096SOL    HW125196   7.258   8.432   2.993 -1.9380 -0.0885 -0.4780
 6096SOL    HW225197   7.318   8.494   2.854 -0.3143 -0.0765  0.2174
 6097SOL     OW25198   5.856   6.953   2.178 -0.2370  0.1781 -0.1907
 6097SOL    HW125199   5.772   6.955   2.233 -0.0895  1.1924 -0.0020
 6097SOL    HW225200   5.898   7.044   2.178  0.2999 -0.0685 -1.1520
 6098SOL     OW25201   0.939   3.416   0.771 -0.0639 -0.9373 -0.4378
 6098SOL    HW125202   0.914   3.487   0.837 -1.2094 -0.1378 -1.6824
 6098SOL    HW225203   0.964   3.332   0.819  0.1569 -0.0430  1.0247
 6100SOL     OW25204   2.192   3.624   3.136 -0.5479  0.0081  0.5851
 6100SOL    HW125205   2.279   3.674   3.132 -1.1041  0.9485  0.1752
 6100SOL    HW225206   2.128   3.661   3.069 -0.3820 -2.4407 -1.0049
 6101SOL     OW25207   1.883   1.517   0.062  0.9062 -0.4888  0.3768
 6101SOL    HW125208   1.877   1.429   0.111 -1.3723 -0.5326  0.0485
 6101SOL    HW225209   1.859   1.591   0.124 -0.1883 -0.3804 -0.1694
 6102SOL     OW25210   4.147   0.350   2.742 -0.2599 -0.0078 -0.2778
 6102SOL    HW125211   4.107   0.274   2.691 -0.0127 -0.4658  0.2037
 6102SOL    HW225212   4.184   0.316   2.829 -0.7669  0.7765  0.2544
 6103SOL     OW25213   7.993   8.915   2.967  0.7727  0.7151  0.3666
 6103SOL    HW125214   7.908   8.904   2.915 -0.4108  2.1017  1.9503
 6103SOL    HW225215   8.052   8.836   2.951 -0.3228  0.2469 -1.6356
 6104SOL     OW25216   9.042   1.235   2.277  0.1921  0.1936 -0.1282
 6104SOL    HW125217   9.030   1.255   2.180  0.1318 -1.7533 -0.5383
 6104SOL    HW225218   9.128   1.274   2.308  0.7652 -0.1450 -1.2571
 6106SOL     OW25219   9.090   2.429   0.413  0.5008 -0.1765  0.6846
 6106SOL    HW125220   9.190   2.421   0.417  0.3812 -1.7425  0.7517
 6106SOL    HW225221   9.066   2.515   0.367  1.8838 -0.6038 -0.9073
 6107SOL     OW25222   7.668   1.011   2.299 -0.4551 -0.2917  0.0662
 6107SOL    HW125223   7.593   1.021   2.234 -0.6731 -2.1698  0.0059
 6107SOL    HW225224   7.648   1.063   2.382 -1.5631 -0.3450 -0.1619
 6108SOL     OW25225   7.941   3.152   0.249 -0.9048 -0.3143 -0.1539
 6108SOL    HW125226   7.928   3.170   0.346 -2.1023 -0.2442 -0.3128
 6108SOL    HW225227   7.956   3.239   0.201  0.6261 -0.4345  0.0928
 6109SOL     OW25228   9.132   5.636   0.219 -0.6215  0.2274 -0.4900
 6109SOL    HW125229   9.176   5.725   0.228  0.1212  0.0187 -1.8673
 6109SOL    HW225230   9.190   5.566   0.260 -0.8066  0.2706 -0.1551
 6110SOL     OW25231   1.002   0.726   2.619 -0.1305  0.1209 -0.3028
 6110SOL    HW125232   0.986   0.668   2.698  1.1201  0.9622  0.5785
 6110SOL    HW225233   1.094   0.711   2.584  0.5849  2.2500  0.5377
 6111SOL     OW25234   4.392   1.380   1.004  0.0197 -0.4120 -0.6596
 6111SOL    HW125235   4.458   1.327   1.056 -0.1206  1.3142  1.3037
 6111SOL    HW225236   4.339   1.318   0.945  0.5681 -2.3174  0.8072
 6112SOL     OW25237   2.485   5.472   2.468  0.1280 -0.6987  0.1620
 6112SOL    HW125238   2.419   5.402   2.494  1.3233 -1.9925 -0.2006
 6112SOL    HW225239   2.469   5.555   2.521 -1.6931 -1.0307  0.1691
 6113SOL     OW25240   9.937   5.493   0.075  0.3586  0.0170  0.3753
 6113SOL    HW125241   9.974   5.539  -0.006  0.3140  0.2235  0.4704
 6113SOL    HW225242   9.837   5.495   0.071  0.3549 -0.7408  0.0061
 6114SOL     OW25243   9.010   4.403   3.721  0.1333  0.1017 -0.4854
 6114SOL    HW125244   9.103   4.397   3.684  0.9272  2.6617  0.9734
 6114SOL    HW225245   8.998   4.491   3.767 -2.1218 -1.3509  1.8237
 6115SOL     OW25246   7.858   0.519   1.578 -0.2190  0.4492 -0.1938
 6115SOL    HW125247   7.821   0.426   1.583  0.9676 -0.0614 -0.5956
 6115SOL    HW225248   7.919   0.526   1.499 -1.0243  1.8480 -0.7158
 6116SOL     OW25249   3.635   8.878   0.070 -0.1993 -0.7127 -0.2607
 6116SOL    HW125250   3.682   8.828  -0.003  1.1028 -0.7644  0.6112
 6116SOL    HW225251   3.678   8.967   0.083 -1.0369 -0.3045 -0.1958
 6117SOL     OW25252   2.730   3.819   3.374  0.0608 -0.3901  0.1654
 6117SOL    HW125253   2.683   3.736   3.343  2.0125 -2.1299  1.7416
 6117SOL    HW225254   2.825   3.798   3.396  0.3463  2.0683  1.4940
 6118SOL     OW25255   7.773   6.055   3.604  0.1565  0.1870 -0.6139
 6118SOL    HW125256   7.695   6.117   3.613 -0.3412 -0.2524 -1.8412
 6118SOL    HW225257   7.758   5.992   3.528  0.7723 -1.2909  0.4468
 6119SOL     OW25258   3.454   6.846   0.034 -0.7535  0.1707  0.0146
 6119SOL    HW125259   3.432   6.861  -0.063 -1.1051 -0.4804 -0.0107
 6119SOL    HW225260   3.370   6.828   0.085 -0.3037 -2.5202 -0.1201
 6121SOL     OW25261   0.478   9.536   1.784 -0.8708  0.0884  0.0006
 6121SOL    HW125262   0.431   9.616   1.820 -0.4117  0.5773 -0.4703
 6121SOL    HW225263   0.502   9.552   1.688  1.9413  0.6384  0.7492
 6122SOL     OW25264   2.382   6.226   3.097  0.4136  0.5102  0.1443
 6122SOL    HW125265   2.335   6.249   3.182 -0.0130 -0.7745  0.2579
 6122SOL    HW225266   2.470   6.275   3.093  0.7130  0.1165  1.5963
 6123SOL     OW25267   3.789   5.515   2.783 -0.4070 -0.0854  0.2398
 6123SOL    HW125268   3.814   5.516   2.686 -3.1300 -1.0061 -0.5142
 6123SOL    HW225269   3.833   5.593   2.829 -0.5086  1.4308 -2.1149
 6124SOL     OW25270   2.377   7.707   1.862 -0.1391 -0.6305  0.3655
 6124SOL    HW125271   2.280   7.730   1.868 -0.0158  0.2597 -1.0178
 6124SOL    HW225272   2.416   7.746   1.779  1.5722 -0.4050  1.2598
 6125SOL     OW25273   2.817   7.343   0.876 -0.2393 -0.2214 -0.5136
 6125SOL    HW125274   2.728   7.371   0.910  0.0308 -1.0486  0.9231
 6125SOL    HW225275   2.888   7.399   0.918  0.0409 -0.7355 -0.2910
 6126SOL     OW25276   9.856   4.807   0.880  0.2050 -0.0160  0.3059
 6126SOL    HW125277   9.908   4.783   0.798 -2.3707  0.4308 -1.5242
 6126SOL    HW225278   9.912   4.865   0.939  1.8666  0.2256 -1.4488
 6127SOL     OW25279   3.510   5.535   2.854 -0.1455  0.1048  0.0557
 6127SOL    HW125280   3.609   5.522   2.849  0.1163  2.0938 -0.1770
 6127SOL    HW225281   3.469   5.513   2.766  0.0004 -1.2498  0.3071
 6128SOL     OW25282   1.177   7.719   0.415  0.4295 -0.1608 -0.1102
 6128SOL    HW125283   1.160   7.803   0.362  1.3985 -0.1611 -0.4293
 6128SOL    HW225284   1.275   7.697   0.412  0.3781 -0.5575  1.0965
 6130SOL     OW25285   9.264   6.957   2.577 -0.5894  0.4230  0.1097
 6130SOL    HW125286   9.335   7.025   2.559 -1.0487  1.1645  1.0500
 6130SOL    HW225287   9.302   6.865   2.565 -0.1992  0.8314 -2.0511
 6132SOL     OW25288   4.392   3.717   0.555  0.4290 -0.2960  0.3437
 6132SOL    HW125289   4.346   3.770   0.484  0.0574  0.7898  1.3613
 6132SOL    HW225290   4.382   3.619   0.537  0.0317 -0.0290 -0.8897
 6133SOL     OW25291   2.467   3.728   0.436 -0.4374  0.4576 -0.1081
 6133SOL    HW125292   2.564   3.707   0.424 -0.3959  1.1875 -1.1910
 6133SOL    HW225293   2.412   3.658   0.392 -0.3969  0.0501  0.4944
 6134SOL     OW25294   0.009   0.381   1.842  0.2043 -0.1919 -0.7833
 6134SOL    HW125295   0.077   0.452   1.858  1.1487 -1.1947 -0.2874
 6134SOL    HW225296  -0.079   0.424   1.820  0.6275  1.1335  0.0363
 6135SOL     OW25297   6.841   7.887   2.154  0.7935 -0.2459  0.5294
 6135SOL    HW125298   6.829   7.835   2.239 -1.9932 -0.1596  0.2367
 6135SOL    HW225299   6.911   7.957   2.168  1.8964 -1.6047  2.0894
 6136SOL     OW25300   9.641   9.181   3.501 -0.2211  0.0773 -0.0689
 6136SOL    HW125301   9.663   9.127   3.420  2.9367 -1.4193  1.6813
 6136SOL    HW225302   9.716   9.175   3.567 -2.2027  2.1582  2.5186
 6137SOL     OW25303   2.512   3.900   3.532 -0.2160  0.4515  0.5021
 6137SOL    HW125304   2.590   3.846   3.500 -0.3374  0.7140 -0.2575
 6137SOL    HW225305   2.535   3.997   3.531 -0.4076  0.5002  0.6917
 6138SOL     OW25306   0.121   6.288   2.387  0.3789  0.0713 -0.3211
 6138SOL    HW125307   0.038   6.334   2.418 -0.8218  0.4425 -3.8453
 6138SOL    HW225308   0.099   6.193   2.361  1.6257 -0.6720  1.2786
 6139SOL     OW25309   9.652   4.643   3.714  0.0884  0.5471  0.2277
 6139SOL    HW125310   9.711   4.721   3.691 -1.5774  2.0341  0.9499
 6139SOL    HW225311   9.592   4.623   3.637  0.0167  0.4289  0.3146
 6140SOL     OW25312   0.173   4.631   1.916  0.0274 -0.5604  0.2855
 6140SOL    HW125313   0.195   4.589   1.828  0.9939 -0.2148  0.3533
 6140SOL    HW225314   0.254   4.631   1.974 -0.1972  0.5774  0.6192
 6141SOL     OW25315   4.502   4.559   1.253 -0.1834  0.0255  0.1203
 6141SOL    HW125316   4.562   4.619   1.201 -0.1602 -1.8594 -2.1550
 6141SOL    HW225317   4.448   4.504   1.189 -2.6446  0.0278  2.1197
 6142SOL     OW25318   2.313   7.111   2.491 -0.3066 -0.0544 -0.1246
 6142SOL    HW125319   2.397   7.113   2.436  1.2273 -0.7653  2.1002
 6142SOL    HW225320   2.252   7.185   2.462  1.6610  1.3148 -0.9067
 6143SOL     OW25321   4.105   7.378   3.640  0.5081  0.0327 -0.2593
 6143SOL    HW125322   4.122   7.322   3.559 -0.3459 -0.8818  0.1730
 6143SOL    HW225323   4.189   7.383   3.695  1.2586  1.1539 -1.4809
 6144SOL     OW25324   9.679   8.331   3.398 -0.2048 -0.0559  0.4443
 6144SOL    HW125325   9.611   8.373   3.458 -0.5250 -0.2261  0.2016
 6144SOL    HW225326   9.723   8.254   3.445 -0.9042 -0.5871  0.2329
 6145SOL     OW25327   0.934   9.057   0.871 -0.0382  0.5978  0.0020
 6145SOL    HW125328   0.917   9.151   0.897 -0.1437 -0.1229  2.6274
 6145SOL    HW225329   0.850   9.004   0.876  0.1764  0.1701 -0.7050
 6146SOL     OW25330   1.937   1.326   2.395  0.3190  0.0474  0.5038
 6146SOL    HW125331   1.960   1.399   2.331 -0.1587 -0.1266  0.1284
 6146SOL    HW225332   1.854   1.350   2.444  0.7412  0.2242  1.1306
 6147SOL     OW25333   3.082   5.745   2.152  0.3543  0.1154 -0.2809
 6147SOL    HW125334   2.989   5.751   2.188  0.1136 -1.1859 -0.6547
 6147SOL    HW225335   3.102   5.650   2.128  1.6488  0.4517 -0.5501
 6148SOL     OW25336   0.825   6.577   3.379  0.4164 -0.4292 -0.0243
 6148SOL    HW125337   0.910   6.577   3.431  0.0319 -0.5606  0.6068
 6148SOL    HW225338   0.750   6.544   3.437 -0.4373  1.4933  0.0172
 6150SOL     OW25339   9.295   1.472   2.289 -0.1569  0.3211  0.1240
 6150SOL    HW125340   9.321   1.413   2.212 -1.4499  0.1988 -0.2309
 6150SOL    HW225341   9.353   1.452   2.367  1.3522  0.6311 -0.9023
 6151SOL     OW25342   2.600   6.565   0.402 -0.5805  0.1796  0.6615
 6151SOL    HW125343   2.557   6.599   0.485  0.2618  1.4617  0.5908
 6151SOL    HW225344   2.622   6.468   0.413 -1.1771  0.1506  1.6432
 6152SOL     OW25345   9.373   8.889   0.739 -0.7811  0.2000  0.0159
 6152SOL    HW125346   9.462   8.917   0.775 -0.8847  1.7990 -0.9189
 6152SOL    HW225347   9.301   8.942   0.782 -1.5009 -2.4532  2.2138
 6154SOL     OW25348   2.963   0.551   0.749 -0.1258 -0.0754 -0.2833
 6154SOL    HW125349   2.869   0.537   0.781  0.3775 -2.3570  0.2905
 6154SOL    HW225350   2.983   0.649   0.748 -1.9043  0.3475  1.3660
 6155SOL     OW25351   9.641   5.085   0.093  0.2215  0.0490  0.5866
 6155SOL    HW125352   9.698   5.159   0.129 -0.6976  0.1409  1.8773
 6155SOL    HW225353   9.645   5.006   0.154 -0.3854 -0.2404  0.2601
 6156SOL     OW25354   3.968   9.342   1.572  0.2003 -0.4793 -0.0656
 6156SOL    HW125355   4.066   9.358   1.581  0.4883 -1.3259 -1.4982
 6156SOL    HW225356   3.943   9.343   1.475 -1.0309 -1.2840  0.2273
 6157SOL     OW25357   9.768   2.486   1.321  0.1713 -0.5167  0.0719
 6157SOL    HW125358   9.745   2.455   1.228  1.3260  0.1483 -0.4468
 6157SOL    HW225359   9.861   2.523   1.321  0.3904 -1.0468  1.6298
 6158SOL     OW25360   3.031   9.353   0.600 -0.0915 -0.0157  0.6483
 6158SOL    HW125361   2.999   9.345   0.506 -0.0295 -2.1149  0.7667
 6158SOL    HW225362   3.058   9.447   0.619  1.4892  0.0998 -1.9564
 6160SOL     OW25363   7.951   9.520   0.027  0.6071  0.5622 -0.1130
 6160SOL    HW125364   8.010   9.599   0.041 -2.0235  2.3842  1.1832
 6160SOL    HW225365   7.930   9.511  -0.071  1.3355  1.1594 -0.3267
 6161SOL     OW25366   3.806   3.091   0.615 -0.1663 -0.2959 -0.3232
 6161SOL    HW125367   3.805   3.030   0.694 -1.6560  0.4376  0.2531
 6161SOL    HW225368   3.900   3.113   0.591  0.2997  0.0976  1.7528
 6162SOL     OW25369   0.479   3.619   1.853 -0.2631 -0.3020 -0.2637
 6162SOL    HW125370   0.535   3.671   1.918 -2.6560  1.7780  0.1846
 6162SOL    HW225371   0.494   3.656   1.761  0.4488 -0.9413 -0.4115
 6163SOL     OW25372   3.458   5.280   1.777 -0.0348  0.5321 -0.1611
 6163SOL    HW125373   3.407   5.360   1.744  1.3971  1.5248 -0.0192
 6163SOL    HW225374   3.474   5.217   1.701 -2.1794 -0.1905 -0.0363
 6164SOL     OW25375   8.773   8.967   3.405  0.0956  0.2874 -0.7239
 6164SOL    HW125376   8.748   8.879   3.446  0.1941  0.4854 -0.2455
 6164SOL    HW225377   8.860   8.998   3.443 -0.6224  1.2777  0.1315
 6165SOL     OW25378   3.954   9.014   3.282  0.0423  0.0105  0.2815
 6165SOL    HW125379   3.866   9.014   3.330 -0.7068  1.1524 -1.0627
 6165SOL    HW225380   3.954   8.940   3.214  0.4498 -0.5208  0.8543
 6166SOL     OW25381   1.364   5.549   0.233 -0.5293  0.0665 -0.0860
 6166SOL    HW125382   1.325   5.466   0.273  0.1609  0.3605  1.2092
 6166SOL    HW225383   1.339   5.628   0.289  0.4486  0.4901 -0.2489
 6167SOL     OW25384   9.566   7.757   3.526 -0.2060  0.1676 -0.1082
 6167SOL    HW125385   9.483   7.801   3.491  0.9236  1.7377 -0.8468
 6167SOL    HW225386   9.591   7.681   3.465 -0.6204  0.2172 -0.3437
 6168SOL     OW25387   2.415   0.143   1.627 -0.0838 -0.5031  0.3305
 6168SOL    HW125388   2.492   0.138   1.690  0.1241 -1.2037  0.0283
 6168SOL    HW225389   2.330   0.123   1.676 -0.0257 -0.1305  0.5812
 6169SOL     OW25390   1.906   9.549   1.434  0.0761 -0.2269  0.0230
 6169SOL    HW125391   1.954   9.618   1.381 -0.0103 -0.2621 -0.0996
 6169SOL    HW225392   1.858   9.486   1.373  1.0394 -1.0496  0.0895
 6170SOL     OW25393   9.329   9.783   1.060 -0.0569 -0.1315  0.4990
 6170SOL    HW125394   9.426   9.761   1.072  0.2298  1.0664  0.4456
 6170SOL    HW225395   9.307   9.865   1.113 -0.8839 -0.0088 -0.0339
 6171SOL     OW25396   1.446   1.877   0.500 -0.0148  0.1695  0.0376
 6171SOL    HW125397   1.516   1.927   0.550 -2.7584  2.4308  1.8266
 6171SOL    HW225398   1.448   1.903   0.403  1.4701  0.3605  0.1221
 6172SOL     OW25399   8.094   9.563   2.196  0.0742 -0.3235  0.2479
 6172SOL    HW125400   8.088   9.474   2.150 -1.6647  0.2630 -0.6892
 6172SOL    HW225401   8.013   9.617   2.175  0.2449  0.7817  2.3097
 6173SOL     OW25402   1.050   3.809   1.695 -0.2249  0.3119  0.3479
 6173SOL    HW125403   1.141   3.809   1.653  0.0963  0.6944  1.0371
 6173SOL    HW225404   0.995   3.735   1.655  1.3587 -1.8388  1.9985
 6174SOL     OW25405   3.865   4.205   1.822 -0.5046  0.0192 -0.3103
 6174SOL    HW125406   3.843   4.222   1.918  2.5924  0.7112  0.3225
 6174SOL    HW225407   3.962   4.182   1.813 -1.1732 -1.9366 -3.0691
 6175SOL     OW25408   0.399   3.701   3.480 -0.0268 -0.2139  0.6278
 6175SOL    HW125409   0.342   3.620   3.492  0.5736 -0.3352  2.8890
 6175SOL    HW225410   0.469   3.683   3.411 -2.0461 -0.4045 -1.4222
 6176SOL     OW25411   3.515   8.175   2.200  0.2772 -0.0618  0.4910
 6176SOL    HW125412   3.531   8.097   2.260  1.1291  0.5278  1.0472
 6176SOL    HW225413   3.436   8.227   2.234 -1.2607 -1.5317 -0.7727
 6177SOL     OW25414   2.323   6.755   3.481  0.3700 -0.0374  0.1591
 6177SOL    HW125415   2.236   6.737   3.435  1.1896 -4.3495  0.0892
 6177SOL    HW225416   2.396   6.761   3.413  0.8450 -1.6339  0.4867
 6178SOL     OW25417   0.713   9.391   1.312 -0.1210  0.3208  0.2629
 6178SOL    HW125418   0.645   9.348   1.253 -1.8470  0.2389  2.2343
 6178SOL    HW225419   0.762   9.319   1.363 -1.8345  0.5119  2.2931
 6179SOL     OW25420   1.281   7.645   3.181  0.0390  0.0246 -0.3492
 6179SOL    HW125421   1.302   7.552   3.152 -0.7030 -0.2357 -0.0566
 6179SOL    HW225422   1.284   7.706   3.102  1.7957 -0.0126 -0.3427
 6180SOL     OW25423   2.492   1.837   2.098  0.0671 -0.0229 -0.3716
 6180SOL    HW125424   2.396   1.820   2.073  0.5086 -0.0976 -2.1048
 6180SOL    HW225425   2.550   1.768   2.055  0.8679 -0.2423  1.0425
 6181SOL     OW25426   4.045  -0.001   0.509  0.1379  0.4637 -0.6009
 6181SOL    HW125427   3.977   0.046   0.453 -2.0950 -1.5307  0.3177
 6181SOL    HW225428   4.035   0.028   0.604  1.1231  0.7619 -0.5883
 6182SOL     OW25429   3.724   0.556   3.270 -0.1467  0.0268 -0.2606
 6182SOL    HW125430   3.788   0.560   3.346 -1.8774  4.2623  1.1523
 6182SOL    HW225431   3.632   0.538   3.305 -0.9213  1.7531 -1.3273
 6183SOL     OW25432   2.813   8.396   1.411  0.0594 -0.1851  0.3284
 6183SOL    HW125433   2.885   8.359   1.470  1.0024  1.9205  0.5477
 6183SOL    HW225434   2.728   8.401   1.462  0.4606  0.0345  0.9852
 6184SOL     OW25435   8.619   2.979   3.634 -0.1189 -0.4007  0.2223
 6184SOL    HW125436   8.665   3.036   3.702 -0.3939 -1.1757  1.0631
 6184SOL    HW225437   8.543   2.930   3.678  0.0805 -1.3696 -0.5108
 6185SOL     OW25438   2.231   2.339   1.245  0.2013  0.6368 -0.4651
 6185SOL    HW125439   2.290   2.387   1.180  1.4682  0.4808  0.5490
 6185SOL    HW225440   2.225   2.392   1.329 -0.6274  0.3475 -0.3361
 6186SOL     OW25441   8.404   6.257   1.876 -0.3198 -0.0035  0.3559
 6186SOL    HW125442   8.381   6.162   1.899  0.3089 -0.5859 -1.3025
 6186SOL    HW225443   8.491   6.281   1.918 -0.6013 -0.0762  0.9869
 6187SOL     OW25444   8.809   9.062   1.536 -0.3732 -0.2107  0.4217
 6187SOL    HW125445   8.785   9.104   1.624 -0.5267 -0.5393  0.5383
 6187SOL    HW225446   8.750   9.099   1.464  1.0403  1.4946  0.1141
 6188SOL     OW25447   5.333   9.984   3.239 -0.0883  0.7298  0.0846
 6188SOL    HW125448   5.308  10.006   3.334 -1.4136  0.7854 -0.2614
 6188SOL    HW225449   5.318  10.065   3.182 -1.8474 -0.0764 -0.6304
 6189SOL     OW25450   4.004   7.513   1.654  0.1896 -0.0063 -0.4704
 6189SOL    HW125451   3.920   7.462   1.637  0.6199 -0.9466  0.1877
 6189SOL    HW225452   4.083   7.453   1.642  0.6519  0.2168  1.3468
 6190SOL     OW25453   7.942   0.115   2.767  0.4958  0.3236 -0.3847
 6190SOL    HW125454   7.896   0.105   2.855  2.2617  1.4828  0.7013
 6190SOL    HW225455   7.928   0.032   2.713  0.9046 -1.1662  1.7231
 6191SOL     OW25456   0.188   3.009   1.354  0.3708 -0.0777  0.1913
 6191SOL    HW125457   0.202   2.932   1.415 -1.3899 -1.9287 -1.6406
 6191SOL    HW225458   0.104   2.994   1.301  0.0576  3.0384 -0.3072
 6192SOL     OW25459   3.258   3.550   0.501 -0.0157  0.1139  0.0024
 6192SOL    HW125460   3.167   3.527   0.467  0.6564  0.4211 -2.1109
 6192SOL    HW225461   3.270   3.649   0.500  0.3840  0.0699  0.1839
 6193SOL     OW25462   4.288   1.418   3.200  0.8744  0.3967  0.3834
 6193SOL    HW125463   4.327   1.332   3.169  0.3806 -0.4749  2.1421
 6193SOL    HW225464   4.249   1.467   3.121  3.4151  0.2388 -1.0446
 6194SOL     OW25465   3.274   1.505   3.599  0.4908 -0.6217  0.1652
 6194SOL    HW125466   3.212   1.522   3.522 -0.5144  0.8830  1.2812
 6194SOL    HW225467   3.357   1.460   3.566 -0.1635 -0.4743 -1.7149
 6195SOL     OW25468   4.407   3.785   1.687 -0.3657 -0.3972 -0.3334
 6195SOL    HW125469   4.491   3.792   1.740  0.8714  1.1877 -2.4262
 6195SOL    HW225470   4.375   3.690   1.687  1.2652 -0.9651  0.7190
 6196SOL     OW25471   8.213   8.749   2.602  0.5777 -0.5169 -0.1012
 6196SOL    HW125472   8.304   8.733   2.564  0.4670 -3.0382  0.5862
 6196SOL    HW225473   8.155   8.791   2.533  2.2695  1.2440 -0.5091
 6197SOL     OW25474   9.776   4.225   1.384 -0.6474  0.0988  0.0334
 6197SOL    HW125475   9.751   4.299   1.446 -1.1581  0.5068 -0.6525
 6197SOL    HW225476   9.819   4.151   1.436 -0.2170  0.8297  0.7360
 6198SOL     OW25477   2.635   0.515   3.415  0.2064  0.3342  0.5023
 6198SOL    HW125478   2.575   0.594   3.402  0.9475  1.0940  1.6286
 6198SOL    HW225479   2.581   0.431   3.410 -0.6861  0.9231 -0.0922
 6199SOL     OW25480   8.386   7.627   0.679 -0.5061 -0.0575  0.2238
 6199SOL    HW125481   8.379   7.725   0.662  1.4486  0.2055  0.7469
 6199SOL    HW225482   8.326   7.602   0.755 -0.3556  0.9005  0.6669
 6200SOL     OW25483   0.635   6.294   3.351  0.1097 -0.5464 -0.1666
 6200SOL    HW125484   0.626   6.345   3.266 -0.4193 -0.3907 -0.0214
 6200SOL    HW225485   0.713   6.232   3.346 -0.4432 -1.1728 -1.0957
 6202SOL     OW25486   0.306   5.869   0.811 -0.0543  0.1774 -0.2354
 6202SOL    HW125487   0.256   5.937   0.757 -0.5505 -0.8210 -1.0397
 6202SOL    HW225488   0.355   5.916   0.885 -0.6226  1.3785 -0.5969
 6203SOL     OW25489   5.369   8.864   1.762 -0.7629 -0.3139 -0.3611
 6203SOL    HW125490   5.416   8.936   1.712  2.1375 -2.2944 -0.6191
 6203SOL    HW225491   5.365   8.888   1.859  1.0313 -0.1720 -0.2966
 6205SOL     OW25492   8.921   4.134   2.917 -0.6227 -0.2823 -0.1937
 6205SOL    HW125493   8.983   4.076   2.970 -1.2690 -2.0879 -1.3569
 6205SOL    HW225494   8.947   4.230   2.928  1.5324 -0.9115  0.4013
 6206SOL     OW25495   4.864   1.367   2.354 -0.1322  0.0197  0.7523
 6206SOL    HW125496   4.893   1.418   2.435  1.4443 -1.5493  1.2081
 6206SOL    HW225497   4.800   1.296   2.380  0.6972 -0.7574  0.6894
 6207SOL     OW25498   0.711   3.798   0.645 -0.3832 -0.3553 -0.0304
 6207SOL    HW125499   0.760   3.830   0.726 -1.6570  0.1835  0.5556
 6207SOL    HW225500   0.709   3.870   0.576 -0.2477 -0.4137 -0.0939
 6208SOL     OW25501   4.725   1.742   3.194  0.4761  1.0623 -0.1256
 6208SOL    HW125502   4.706   1.656   3.240  2.0440  0.2364 -0.9811
 6208SOL    HW225503   4.642   1.799   3.194 -1.0625 -1.1042 -0.9591
 6209SOL     OW25504   8.542   1.288   3.438  0.2194  0.6377  0.0023
 6209SOL    HW125505   8.517   1.251   3.349 -2.3099  0.3498  0.7714
 6209SOL    HW225506   8.473   1.355   3.467  0.2379 -0.2619  2.3056
 6210SOL     OW25507   2.899   8.622   2.226  0.1481 -0.4518 -0.5140
 6210SOL    HW125508   2.866   8.713   2.251  0.3316 -0.8238  1.0977
 6210SOL    HW225509   2.836   8.553   2.260  1.9020 -1.1044  1.5010
 6211SOL     OW25510   8.294   7.724   2.418 -0.3636 -0.4606  0.4721
 6211SOL    HW125511   8.222   7.752   2.481 -1.6962 -2.0715 -0.3011
 6211SOL    HW225512   8.262   7.734   2.323  0.5240 -0.9336  0.1121
 6212SOL     OW25513   9.510   4.158   1.286 -0.3348 -0.0420 -0.0822
 6212SOL    HW125514   9.511   4.200   1.195  0.1340  1.3211  0.5406
 6212SOL    HW225515   9.604   4.141   1.315 -0.2734  2.7652  1.5940
 6213SOL     OW25516   4.056   6.690   2.207  0.5787 -0.1364  0.1906
 6213SOL    HW125517   4.017   6.687   2.115  1.3886  0.0968 -0.1583
 6213SOL    HW225518   4.021   6.770   2.256  1.7195  0.8741 -0.6184
 6214SOL     OW25519   9.045   2.533   1.556  0.5167  0.4484  0.4332
 6214SOL    HW125520   9.113   2.597   1.592  0.8040  1.9871 -2.6049
 6214SOL    HW225521   8.959   2.581   1.543  0.3998 -0.0694 -0.7719
 6215SOL     OW25522   7.763   1.603   1.165 -0.2880 -0.5853  0.2654
 6215SOL    HW125523   7.827   1.680   1.171 -1.1291  0.2214 -0.8029
 6215SOL    HW225524   7.714   1.594   1.251  1.1223 -1.0994  1.0381
 6216SOL     OW25525   5.579   9.943   3.108  0.6541  0.5174  0.1084
 6216SOL    HW125526   5.564  10.000   3.027  0.8154 -0.6924 -0.7729
 6216SOL    HW225527   5.499   9.950   3.168 -0.9515 -1.1911 -1.7391
 6217SOL     OW25528   8.942   0.477   2.107  0.3103 -0.1118 -0.0701
 6217SOL    HW125529   8.857   0.504   2.150  0.7760 -1.9939  2.1157
 6217SOL    HW225530   9.008   0.552   2.113 -1.1871  1.4077 -1.9160
 6218SOL     OW25531   1.074   0.176   0.660  0.6845 -0.2915  0.4728
 6218SOL    HW125532   1.134   0.116   0.607 -0.6019 -0.4574 -0.8473
 6218SOL    HW225533   0.999   0.207   0.601 -0.2570  0.2817  1.9608
 6220SOL     OW25534   9.464   4.498   3.317 -0.7168  0.1142  0.0105
 6220SOL    HW125535   9.403   4.468   3.243  1.2440 -0.3925 -1.4574
 6220SOL    HW225536   9.548   4.534   3.277  0.1551  0.3141  2.0126
 6221SOL     OW25537   9.265   7.005   2.853 -0.2007  0.0983  0.1298
 6221SOL    HW125538   9.350   7.052   2.878 -0.0477  0.5609 -1.2502
 6221SOL    HW225539   9.254   7.006   2.754 -1.1365 -1.1676  0.2156
 6222SOL     OW25540   3.621   1.272   0.268  0.3290 -0.7173 -0.6045
 6222SOL    HW125541   3.681   1.293   0.344  0.2329  0.7601 -0.9359
 6222SOL    HW225542   3.540   1.223   0.302  0.7960 -1.0064  0.0929
 6223SOL     OW25543   7.206   7.564   3.366 -0.1234  0.4437  0.1050
 6223SOL    HW125544   7.134   7.562   3.296 -0.1124  1.8738  0.0354
 6223SOL    HW225545   7.216   7.473   3.406  0.1198 -0.4982 -2.0118
 6224SOL     OW25546   8.184   7.686   0.903 -0.1463 -1.1377 -0.7833
 6224SOL    HW125547   8.146   7.729   0.985  1.4386  0.7700 -1.0036
 6224SOL    HW225548   8.221   7.596   0.926 -0.3757 -0.9251  0.4389
 6225SOL     OW25549   0.610   2.875   2.822  0.2093  0.4705  0.0572
 6225SOL    HW125550   0.582   2.956   2.873 -0.6482 -0.9303  1.8735
 6225SOL    HW225551   0.547   2.859   2.746  0.4420  1.5459 -0.3677
 6226SOL     OW25552   7.155   9.783   0.530  0.4922  0.3762  0.7897
 6226SOL    HW125553   7.207   9.798   0.446  0.2803  0.7687  0.7279
 6226SOL    HW225554   7.092   9.859   0.544  0.5036  0.2932  1.2863
 6227SOL     OW25555   2.167   5.938   2.118  0.7090 -0.3528  0.4082
 6227SOL    HW125556   2.170   5.880   2.200 -1.1858 -0.6608  0.2897
 6227SOL    HW225557   2.098   6.010   2.132  0.7087 -0.1342 -0.7328
 6228SOL     OW25558   4.889   3.876   0.168 -1.1447  0.0617 -0.0555
 6228SOL    HW125559   4.937   3.929   0.238 -2.0649  0.0209  0.6153
 6228SOL    HW225560   4.794   3.863   0.196 -1.2648 -0.7952 -0.8562
 6231SOL     OW25561   1.561   1.767   1.601  0.2452  0.6620  0.4987
 6231SOL    HW125562   1.608   1.684   1.569  1.0503  1.2074  0.2362
 6231SOL    HW225563   1.466   1.765   1.571  1.0449  1.2991 -2.2810
 6232SOL     OW25564   3.147   5.743   1.271 -0.0642 -0.2329 -0.0101
 6232SOL    HW125565   3.137   5.768   1.174 -0.3643  1.0668  0.3513
 6232SOL    HW225566   3.105   5.654   1.286 -0.1884 -0.3582 -1.0473
 6233SOL     OW25567   2.602   5.867   3.514  0.4651 -0.0696 -0.5013
 6233SOL    HW125568   2.674   5.936   3.521  0.1721  0.1458  0.4465
 6233SOL    HW225569   2.588   5.843   3.418  0.3677  1.4110 -0.8707
 6234SOL     OW25570   9.690   4.334   1.145 -0.6139 -0.5031 -0.5164
 6234SOL    HW125571   9.759   4.304   1.078 -0.6055  0.5229 -0.9806
 6234SOL    HW225572   9.729   4.327   1.237  0.9348  2.1444 -0.9160
 6235SOL     OW25573   9.260   3.875   0.301  0.0063  0.0578  0.1620
 6235SOL    HW125574   9.217   3.787   0.279  2.2600 -1.0654  0.2188
 6235SOL    HW225575   9.326   3.864   0.374  0.9848  1.6376 -0.4510
 6236SOL     OW25576   2.612   4.885   0.905  0.1536 -1.2117  0.2711
 6236SOL    HW125577   2.706   4.896   0.871  0.1069  0.3089  0.6285
 6236SOL    HW225578   2.612   4.893   1.005 -0.6593  0.9731  0.1142
 6237SOL     OW25579   2.194   7.660   2.232  0.1754 -0.7820 -0.6620
 6237SOL    HW125580   2.177   7.731   2.300  1.9285 -0.3017 -0.6929
 6237SOL    HW225581   2.130   7.670   2.156  0.5755  0.9387 -0.7951
 6238SOL     OW25582   3.177   2.882   1.673 -0.4545 -0.0904 -0.1861
 6238SOL    HW125583   3.124   2.854   1.753 -0.9856  2.0291  0.2510
 6238SOL    HW225584   3.273   2.894   1.700 -0.6174  0.5441  0.1394
 6240SOL     OW25585   9.105   7.425   1.814  0.1850 -0.0046 -0.7648
 6240SOL    HW125586   9.154   7.339   1.796  0.9103  0.3640 -0.5521
 6240SOL    HW225587   9.059   7.455   1.731  1.2166  0.2225 -1.2544
 6243SOL     OW25588   2.708   0.780   2.893 -0.1522  0.0870  0.3728
 6243SOL    HW125589   2.754   0.852   2.841 -0.0113 -0.2860 -0.0288
 6243SOL    HW225590   2.771   0.741   2.960  0.3144 -0.8310 -0.5848
 6244SOL     OW25591   4.138   1.907   0.970  0.0262  0.1644  0.0580
 6244SOL    HW125592   4.075   1.855   0.912  0.8190 -0.4906 -0.2302
 6244SOL    HW225593   4.216   1.937   0.915  0.4530  0.1091  0.6362
 6245SOL     OW25594   2.832   0.744   3.316 -0.2650 -0.0004  0.1961
 6245SOL    HW125595   2.917   0.764   3.366 -0.4332 -1.5484  1.1529
 6245SOL    HW225596   2.778   0.678   3.369 -1.2940 -0.2687 -1.1844
 6246SOL     OW25597   3.637   0.560   0.164 -0.0573  0.2325 -0.5449
 6246SOL    HW125598   3.619   0.604   0.252  0.1681 -1.1622  0.2232
 6246SOL    HW225599   3.611   0.463   0.169 -1.0182  0.3606 -2.3473
 6247SOL     OW25600   5.040   3.568   1.156  1.1481 -0.1405  0.3378
 6247SOL    HW125601   5.070   3.514   1.077  0.0581 -0.8915  0.4249
 6247SOL    HW225602   5.028   3.663   1.129  0.0765 -0.5322 -0.5752
 6251SOL     OW25603   4.017   9.336   1.295  0.1183 -0.7431  0.0726
 6251SOL    HW125604   4.117   9.336   1.295  0.1183 -0.0718 -1.3734
 6251SOL    HW225605   3.983   9.414   1.244 -1.1700  0.3428  2.4799
 6252SOL     OW25606   0.737   9.659   1.198 -0.1050 -0.0956 -0.4407
 6252SOL    HW125607   0.729   9.572   1.246  0.4490 -1.1922 -2.2756
 6252SOL    HW225608   0.822   9.704   1.225  0.6254 -1.1134 -1.0047
 6253SOL     OW25609   3.874   7.299   1.169 -0.2265 -0.0354 -0.3053
 6253SOL    HW125610   3.785   7.345   1.160 -0.0381  1.0922  2.6890
 6253SOL    HW225611   3.935   7.330   1.097 -1.0547  2.1964 -0.0964
 6254SOL     OW25612   2.343   5.291   3.053  0.1394 -0.2253 -0.0301
 6254SOL    HW125613   2.367   5.269   3.147 -0.3677  0.4156  0.2510
 6254SOL    HW225614   2.414   5.350   3.013  0.4903 -0.7177 -0.1431
 6255SOL     OW25615   0.670   8.976   3.108  0.0269 -0.1581  0.0361
 6255SOL    HW125616   0.639   9.048   3.170 -0.7149 -1.2084  0.9208
 6255SOL    HW225617   0.652   9.003   3.013  0.8313  1.3060  0.2858
 6256SOL     OW25618   1.940   8.097   1.639 -0.3213  0.3710 -0.0340
 6256SOL    HW125619   1.911   8.135   1.551 -0.8382  1.0021  0.4046
 6256SOL    HW225620   1.988   8.167   1.691 -0.6872  0.2178  0.5049
 6258SOL     OW25621   8.729   2.460   2.489  0.3447  0.9344 -0.3101
 6258SOL    HW125622   8.782   2.397   2.546  0.3266  0.7837 -0.4555
 6258SOL    HW225623   8.749   2.554   2.515 -0.4470  0.8415  0.6247
 6261SOL     OW25624   3.923   2.622   0.776 -0.3476  0.3646  0.4671
 6261SOL    HW125625   3.991   2.671   0.720  0.1221  0.3391  1.0116
 6261SOL    HW225626   3.969   2.580   0.854 -0.8598 -0.3925  0.3592
 6263SOL     OW25627   4.380   8.752   3.048  0.2143  0.0607 -0.7889
 6263SOL    HW125628   4.459   8.795   3.004 -0.2528  0.3572 -1.3479
 6263SOL    HW225629   4.376   8.655   3.023  0.7179 -0.0839 -0.3088
 6264SOL     OW25630   7.819   9.889   2.633  0.1580 -0.0042  0.2965
 6264SOL    HW125631   7.911   9.882   2.596  0.5771 -0.9835  1.5159
 6264SOL    HW225632   7.790   9.801   2.670 -1.5470  0.1061 -0.6864
 6265SOL     OW25633   5.445   6.937   2.806  0.5526 -0.1643  0.1317
 6265SOL    HW125634   5.483   7.029   2.794  0.0172  0.2222  1.4077
 6265SOL    HW225635   5.398   6.931   2.894 -1.3450 -0.9856 -0.9114
 6266SOL     OW25636   4.405   0.048   1.214  0.4324  0.7114  0.0111
 6266SOL    HW125637   4.375   0.109   1.140  1.1523  0.5096 -0.4546
 6266SOL    HW225638   4.390   0.093   1.302 -0.2005  1.0566 -0.2683
 6267SOL     OW25639   4.149   9.518   2.740 -0.1623 -0.9345 -0.1387
 6267SOL    HW125640   4.060   9.532   2.696 -1.0691 -0.9861  1.6761
 6267SOL    HW225641   4.211   9.475   2.674 -1.9452 -2.3924 -0.9139
 6268SOL     OW25642   9.547   8.623   1.578 -0.0162  0.1790  0.4425
 6268SOL    HW125643   9.552   8.527   1.605 -0.2315 -0.0313 -0.2433
 6268SOL    HW225644   9.452   8.646   1.556 -0.5773  1.4875  3.9375
 6269SOL     OW25645   6.885   8.736   3.118 -0.4084  0.2740  0.4749
 6269SOL    HW125646   6.806   8.755   3.061  0.9595  0.4555 -1.4226
 6269SOL    HW225647   6.902   8.813   3.179  0.4170  1.8044 -1.6324
 6270SOL     OW25648   1.914   4.248   3.610 -0.3812  0.5207 -0.4314
 6270SOL    HW125649   1.893   4.245   3.512 -0.7689  0.5182 -0.3493
 6270SOL    HW225650   1.966   4.331   3.630  1.1030 -0.2849 -0.9101
 6271SOL     OW25651   2.706   2.807   0.752  0.2645  0.0681  0.7183
 6271SOL    HW125652   2.690   2.867   0.831  1.7847 -0.0956  1.1816
 6271SOL    HW225653   2.735   2.717   0.784  2.2328  0.3984 -0.0011
 6272SOL     OW25654   7.593   4.829   0.427 -0.5349 -0.2348  0.5506
 6272SOL    HW125655   7.543   4.874   0.501 -0.1081 -0.6283  1.0792
 6272SOL    HW225656   7.676   4.786   0.463 -0.3212 -0.4326 -0.1543
 6273SOL     OW25657   8.967   5.524   1.358  0.0954  0.3743  0.5885
 6273SOL    HW125658   9.042   5.462   1.380  0.7830  1.4711  1.4257
 6273SOL    HW225659   8.931   5.503   1.267  1.8415  0.2596 -0.0934
 6274SOL     OW25660   8.123   2.694   2.345  0.1188 -0.1440  0.3907
 6274SOL    HW125661   8.093   2.623   2.410 -1.7817  0.8464  0.6504
 6274SOL    HW225662   8.123   2.656   2.253 -1.9558 -0.2173  0.3917
 6275SOL     OW25663   2.051   9.824   2.585 -0.0202  0.0190 -0.2713
 6275SOL    HW125664   1.993   9.802   2.664  0.9992 -0.3493  0.3858
 6275SOL    HW225665   2.121   9.889   2.613  1.8274 -1.9249 -0.2734
 6276SOL     OW25666   5.667   8.309   2.766 -0.1947 -0.6395 -0.2216
 6276SOL    HW125667   5.651   8.224   2.816  1.3570 -0.5493  0.4829
 6276SOL    HW225668   5.722   8.290   2.685 -1.2393 -0.5366 -0.9581
 6277SOL     OW25669   5.604   0.254   2.398 -0.0278  0.2648 -0.1511
 6277SOL    HW125670   5.689   0.201   2.405 -2.1520 -3.1953  0.8756
 6277SOL    HW225671   5.557   0.253   2.486 -0.7983  2.8101 -0.4925
 6278SOL     OW25672   4.436   3.384   3.471  0.1696 -0.0700 -0.4764
 6278SOL    HW125673   4.459   3.290   3.495 -0.4507 -0.1691 -0.2483
 6278SOL    HW225674   4.342   3.387   3.437  0.2157  0.4541 -0.5620
 6279SOL     OW25675   0.883   4.958   1.718  0.4960  0.3558 -0.1280
 6279SOL    HW125676   0.903   4.906   1.635  1.1896  0.3607  0.0386
 6279SOL    HW225677   0.816   5.029   1.696  0.0645 -0.1564 -0.5061
 6281SOL     OW25678   9.773   3.877   2.302  0.6972 -0.4895 -0.2005
 6281SOL    HW125679   9.774   3.779   2.286  0.0315 -1.0645  2.9572
 6281SOL    HW225680   9.855   3.904   2.351 -0.1691  0.1374  0.9341
 6283SOL     OW25681   3.448   8.480   3.413 -0.0761  0.0070 -0.0626
 6283SOL    HW125682   3.520   8.412   3.406 -0.5354 -0.9668  3.8514
 6283SOL    HW225683   3.359   8.435   3.419 -0.7900  1.1211 -1.6400
 6287SOL     OW25684   4.426   6.981   2.873 -0.0087  0.0133 -0.6296
 6287SOL    HW125685   4.477   6.916   2.928  0.7523 -0.5088 -1.9313
 6287SOL    HW225686   4.476   7.068   2.869 -0.6478  0.4534  0.4619
 6288SOL     OW25687   2.223   5.597   1.209  0.3229  0.9042  0.2028
 6288SOL    HW125688   2.161   5.524   1.181  0.5195  0.2995  1.3040
 6288SOL    HW225689   2.310   5.558   1.240  0.9823  1.7018 -0.6194
 6290SOL     OW25690   0.265   8.716   3.687  0.1365 -0.1576  0.0215
 6290SOL    HW125691   0.210   8.751   3.763  0.5000 -1.4475  0.8808
 6290SOL    HW225692   0.236   8.623   3.664  0.0736  0.1956 -1.3841
 6291SOL     OW25693   7.453   7.299   2.438  0.1150  0.3233 -0.2486
 6291SOL    HW125694   7.433   7.220   2.381 -0.7288  0.4905 -0.1871
 6291SOL    HW225695   7.501   7.270   2.521 -1.1497 -0.2453  0.2842
 6293SOL     OW25696   3.680   4.951   0.635  0.0071  0.4605 -0.3759
 6293SOL    HW125697   3.660   5.049   0.625  0.0024  0.5700  0.6254
 6293SOL    HW225698   3.777   4.940   0.657 -0.0198  0.2488 -0.3677
 6294SOL     OW25699   4.237   8.102   2.494  0.1498 -0.5389 -0.1370
 6294SOL    HW125700   4.302   8.169   2.457  0.5541 -0.2468  1.0940
 6294SOL    HW225701   4.280   8.012   2.495  0.8493 -0.2115  1.4215
 6295SOL     OW25702   9.654   4.903   0.318  0.1526 -0.4243 -0.4074
 6295SOL    HW125703   9.665   4.932   0.413  0.3877  2.2314 -1.2066
 6295SOL    HW225704   9.694   4.812   0.307  1.8014 -0.0154  1.6319
 6296SOL     OW25705   2.319   8.768   3.699  0.0152 -0.1803  0.0533
 6296SOL    HW125706   2.293   8.712   3.619 -1.6828  1.0155 -0.2782
 6296SOL    HW225707   2.418   8.774   3.705  0.1773 -0.8586 -1.5902
 6297SOL     OW25708   3.585   3.886   1.184  0.3574  0.2644  0.0979
 6297SOL    HW125709   3.572   3.853   1.090  0.2840 -0.8891  0.4982
 6297SOL    HW225710   3.648   3.963   1.184 -0.5895  1.0539 -1.0355
 6298SOL     OW25711   4.066   8.290   0.538 -0.3232  0.1131  0.4006
 6298SOL    HW125712   4.080   8.250   0.448 -4.7943 -0.0615 -0.3181
 6298SOL    HW225713   4.143   8.265   0.598  0.6267 -3.3446 -2.1092
 6299SOL     OW25714   2.102   7.783   1.833 -0.3160  0.4145  0.4216
 6299SOL    HW125715   2.030   7.771   1.902 -0.1566  0.1346  0.5389
 6299SOL    HW225716   2.065   7.836   1.756 -0.3720  1.0948  0.9102
 6300SOL     OW25717   5.867   9.063   3.490 -0.7019 -0.3198 -0.2052
 6300SOL    HW125718   5.772   9.055   3.459 -0.8258  1.3158 -0.2824
 6300SOL    HW225719   5.904   9.152   3.463  1.2576 -1.4018 -1.2323
 6301SOL     OW25720   6.057   8.731   2.711 -0.1298  0.1774 -0.3170
 6301SOL    HW125721   6.045   8.823   2.674  1.2946  0.4853 -0.0223
 6301SOL    HW225722   5.972   8.680   2.698 -0.4900  1.0753 -1.7453
 6302SOL     OW25723   5.543   9.069   2.266  0.4346 -0.3126 -0.3935
 6302SOL    HW125724   5.556   9.167   2.285 -0.6041 -0.3518  0.5236
 6302SOL    HW225725   5.548   9.018   2.351 -0.6861 -0.8757 -0.6581
 6303SOL     OW25726   9.518   8.118   3.280  0.0942  0.4850  0.1311
 6303SOL    HW125727   9.542   8.213   3.299 -1.0607  0.6325  0.9316
 6303SOL    HW225728   9.451   8.114   3.206 -0.8864  0.3931  1.0155
 6304SOL     OW25729   5.098   8.243   2.954 -0.0778  0.8605  0.2153
 6304SOL    HW125730   5.057   8.317   3.008 -1.2763  0.0509  0.4291
 6304SOL    HW225731   5.067   8.155   2.989 -1.7298  0.3357 -2.4186
 6305SOL     OW25732   9.408   2.062   2.002 -0.4997 -0.2279  0.3929
 6305SOL    HW125733   9.478   2.128   2.030  0.5889 -0.6128 -1.3719
 6305SOL    HW225734   9.321   2.110   1.991 -0.3248  0.4173  1.7686
 6307SOL     OW25735   8.161   9.527   0.727  0.1633 -0.6152  0.7285
 6307SOL    HW125736   8.163   9.565   0.819 -0.8006  0.6695  0.2310
 6307SOL    HW225737   8.214   9.586   0.665 -1.1066 -0.2149  0.0066
 6308SOL     OW25738   5.042   7.931   1.637  0.1389  0.1319  0.4746
 6308SOL    HW125739   5.016   8.024   1.612 -0.7187 -0.4340 -0.7965
 6308SOL    HW225740   5.141   7.926   1.650  0.2630  1.0733 -0.0718
 6309SOL     OW25741   2.251   0.771   0.764 -0.2082 -0.2024 -0.1247
 6309SOL    HW125742   2.167   0.734   0.726  0.0981  0.1040 -1.1283
 6309SOL    HW225743   2.230   0.833   0.840 -0.9327  0.4086 -0.8190
 6310SOL     OW25744   7.031   0.163   3.229 -0.7093  0.1513 -0.4135
 6310SOL    HW125745   6.959   0.096   3.250  0.8148 -1.0247  1.2702
 6310SOL    HW225746   7.115   0.114   3.204  0.1239  1.4529 -0.2098
 6311SOL     OW25747   1.486   9.294   0.574  0.6306  0.0445  0.5638
 6311SOL    HW125748   1.457   9.224   0.509 -1.1385  0.8864  0.4226
 6311SOL    HW225749   1.573   9.334   0.544  0.0301  0.1529 -1.0553
 6312SOL     OW25750   0.871   6.415   3.173 -0.1329  0.3748 -0.0708
 6312SOL    HW125751   0.852   6.490   3.237  0.0931  1.2067 -0.9775
 6312SOL    HW225752   0.791   6.398   3.117 -0.8445 -1.3509  1.4185
 6313SOL     OW25753   7.884   7.438   1.957  0.4224 -0.1339  0.1540
 6313SOL    HW125754   7.835   7.525   1.949  0.4113  0.0289  1.9046
 6313SOL    HW225755   7.905   7.403   1.865 -0.6077  1.1231 -0.5750
 6316SOL     OW25756   3.000   1.673   2.579 -0.3117  0.3521 -0.2863
 6316SOL    HW125757   3.033   1.640   2.668  1.0645  2.1484 -0.1238
 6316SOL    HW225758   2.970   1.594   2.525 -1.7181 -0.7261  1.9703
 6317SOL     OW25759   1.083   8.741   3.729 -0.7438  0.4280  0.6150
 6317SOL    HW125760   1.068   8.840   3.729  0.5385  0.6432 -1.1906
 6317SOL    HW225761   1.116   8.712   3.818 -0.6343  1.7061  0.9935
 6318SOL     OW25762   9.281   4.885   1.769 -0.1745 -0.4711  0.2298
 6318SOL    HW125763   9.228   4.847   1.693 -0.3944  0.5418 -0.1326
 6318SOL    HW225764   9.363   4.929   1.732  0.7332 -1.6961  0.7510
 6319SOL     OW25765   9.250   9.776   2.250  0.1275  0.2414  0.1924
 6319SOL    HW125766   9.157   9.747   2.274  0.1544 -1.8094 -1.9891
 6319SOL    HW225767   9.250   9.812   2.156  1.6999 -0.6471 -0.1573
 6320SOL     OW25768   1.939   1.011   0.504  0.0193 -0.3539 -0.7933
 6320SOL    HW125769   1.850   0.968   0.519  0.9065 -1.1518  2.8593
 6320SOL    HW225770   1.996   0.952   0.448  0.2145 -2.6793  1.7481
 6321SOL     OW25771   4.096   8.179   1.512 -0.2747 -0.1456  0.4740
 6321SOL    HW125772   4.003   8.171   1.477  0.0651  1.2981 -0.8014
 6321SOL    HW225773   4.160   8.144   1.444  0.3431  1.9984 -0.0677
 6322SOL     OW25774   3.688   9.858   1.456 -0.2078 -0.1729  0.5952
 6322SOL    HW125775   3.657   9.763   1.464  2.3350 -1.0840  0.0518
 6322SOL    HW225776   3.670   9.906   1.542 -0.5598 -1.4341  1.2349
 6323SOL     OW25777   0.238   3.222   1.529  0.3065 -0.3618  0.1896
 6323SOL    HW125778   0.239   3.151   1.459 -0.7056 -0.2194  0.0198
 6323SOL    HW225779   0.313   3.286   1.513 -0.3937  0.1184 -1.2168
 6325SOL     OW25780   4.821   8.295   3.510 -0.1346  0.0276  0.2837
 6325SOL    HW125781   4.816   8.204   3.469  1.9963 -0.0238  0.0788
 6325SOL    HW225782   4.816   8.364   3.438 -1.3681  0.0751  0.4052
 6326SOL     OW25783   3.974   4.967   1.153 -0.2051  0.2418 -0.2426
 6326SOL    HW125784   3.889   4.922   1.125 -0.7696  0.9749  0.2685
 6326SOL    HW225785   3.957   5.021   1.235  1.1024 -0.7359  0.6887
 6329SOL     OW25786   0.237   9.694   0.427  0.4511 -0.1589  0.0891
 6329SOL    HW125787   0.311   9.749   0.388  1.1366 -0.2969  1.1878
 6329SOL    HW225788   0.232   9.710   0.526 -0.5262 -0.6933  0.1334
 6330SOL     OW25789   1.734   2.657   1.205  0.4399 -0.3504 -0.3776
 6330SOL    HW125790   1.743   2.558   1.189  0.8880 -0.3297 -0.2567
 6330SOL    HW225791   1.816   2.691   1.250  1.3121  0.4928 -2.5140
 6331SOL     OW25792   3.957   2.795   2.705 -0.5985 -0.3140  0.3065
 6331SOL    HW125793   3.896   2.872   2.725 -0.1790  0.3053 -0.8150
 6331SOL    HW225794   4.038   2.828   2.658 -0.0872 -1.3529  0.4526
 6332SOL     OW25795   2.682   0.867   1.248 -0.2068  0.5071 -0.3012
 6332SOL    HW125796   2.592   0.895   1.281  0.0681  1.8606 -0.6749
 6332SOL    HW225797   2.731   0.820   1.321 -0.5715  1.2457  0.4225
 6333SOL     OW25798   1.723   1.039   3.753  0.5894 -0.6265 -0.1820
 6333SOL    HW125799   1.801   1.057   3.814  0.8744 -0.4591 -0.5930
 6333SOL    HW225800   1.706   0.940   3.750  0.4987 -0.6236  0.2628
 6335SOL     OW25801   9.785   7.994   3.268  0.0488  0.2227 -0.7132
 6335SOL    HW125802   9.696   8.041   3.269 -0.1981 -0.1849 -2.4797
 6335SOL    HW225803   9.831   8.008   3.356 -1.1112  1.6838 -0.3211
 6337SOL     OW25804   0.201   0.590   1.863  0.1350 -0.6401  0.0982
 6337SOL    HW125805   0.264   0.597   1.941 -0.8871  1.6421  0.7485
 6337SOL    HW225806   0.205   0.674   1.809 -1.2409 -1.0827 -0.7181
 6338SOL     OW25807   9.932   2.944   1.230  0.5070  0.3353 -0.4653
 6338SOL    HW125808   9.929   2.971   1.134  1.6018 -1.0926 -0.9198
 6338SOL    HW225809   9.845   2.967   1.273 -0.3582  0.1208 -2.0445
 6339SOL     OW25810   5.375   0.092   1.672  0.4014  0.1277  0.2768
 6339SOL    HW125811   5.371   0.073   1.574  0.6120  1.7303 -0.0653
 6339SOL    HW225812   5.350   0.010   1.723 -1.5840 -0.2028 -1.1600
 6340SOL     OW25813   0.404   3.320   0.615  0.0320  0.1935  0.1951
 6340SOL    HW125814   0.338   3.248   0.638  0.5510 -1.0124 -2.0113
 6340SOL    HW225815   0.463   3.337   0.695 -2.1677  0.4787  1.8052
 6341SOL     OW25816   9.126   8.865   2.128  0.8170  0.5030  0.0426
 6341SOL    HW125817   9.047   8.836   2.181  0.5982 -1.8299 -1.4878
 6341SOL    HW225818   9.108   8.851   2.030  2.8755  0.5190 -0.3719
 6342SOL     OW25819   1.859   5.616   3.242 -0.0933  0.4984 -0.4895
 6342SOL    HW125820   1.929   5.581   3.304 -1.5100  0.8749  1.3649
 6342SOL    HW225821   1.866   5.569   3.154  0.4724 -1.7541  0.7052
 6343SOL     OW25822   1.437   6.321   0.256  0.1152  0.4615 -0.2470
 6343SOL    HW125823   1.397   6.406   0.289 -0.8129  0.2654 -0.8552
 6343SOL    HW225824   1.461   6.263   0.333  2.7172  2.1523  0.2584
 6344SOL     OW25825   4.032   0.096   2.726 -0.0509  0.1422 -0.4532
 6344SOL    HW125826   3.952   0.098   2.787 -0.2863 -0.7527 -0.7274
 6344SOL    HW225827   4.071   0.004   2.726  0.0111  0.1685 -1.5869
 6345SOL     OW25828   2.760   1.204   0.901  0.6184  0.8106 -0.9067
 6345SOL    HW125829   2.774   1.301   0.886 -0.9503  1.2781  0.4308
 6345SOL    HW225830   2.704   1.166   0.826  0.9661  1.0056 -1.2638
 6346SOL     OW25831   4.836   3.534   2.781 -1.2588  0.2585  0.5018
 6346SOL    HW125832   4.757   3.495   2.828 -0.8034 -2.4941 -0.9157
 6346SOL    HW225833   4.910   3.549   2.847 -1.2891 -1.8038  1.0502
 6347SOL     OW25834   8.630   7.279   0.324  0.2552 -0.4076 -0.2054
 6347SOL    HW125835   8.617   7.378   0.329 -3.3813 -0.7229 -1.4472
 6347SOL    HW225836   8.685   7.256   0.243  0.3591  0.5554 -0.4059
 6348SOL     OW25837   8.813   2.639   3.720 -0.2853  0.1503  0.6151
 6348SOL    HW125838   8.830   2.601   3.629 -0.8659  1.5873 -0.1098
 6348SOL    HW225839   8.755   2.575   3.772  0.7197 -1.0564  0.2906
 6350SOL     OW25840   2.138   7.064   3.233  0.0559 -0.1603  0.2065
 6350SOL    HW125841   2.192   7.109   3.304  0.4488  0.2151 -0.3248
 6350SOL    HW225842   2.109   7.131   3.164  0.7734 -0.7377 -0.6728
 6351SOL     OW25843   4.415   8.343   2.669 -0.4700 -0.5385 -0.5672
 6351SOL    HW125844   4.331   8.311   2.627  0.4179  0.8613 -3.5842
 6351SOL    HW225845   4.493   8.293   2.631  0.4294  1.3045 -1.2593
 6354SOL     OW25846   8.897   9.070   0.663  0.5382 -0.0526 -0.7807
 6354SOL    HW125847   8.831   9.144   0.650 -0.1743 -0.7817 -1.3237
 6354SOL    HW225848   8.989   9.104   0.644  0.3917  1.1317  0.5879
 6355SOL     OW25849   6.115   0.176   1.265 -0.4330  0.1438  0.0475
 6355SOL    HW125850   6.056   0.252   1.291 -0.6392 -0.8840  2.7997
 6355SOL    HW225851   6.189   0.166   1.332  1.7142  0.1205 -2.2179
 6356SOL     OW25852   0.761   0.275   0.883  0.1685 -0.2339  0.2442
 6356SOL    HW125853   0.688   0.278   0.814  1.6889 -3.5362 -1.6292
 6356SOL    HW225854   0.842   0.319   0.846  0.3863 -0.2688  0.6870
 6357SOL     OW25855   8.383   7.626   3.232 -0.1122  0.1247 -0.1569
 6357SOL    HW125856   8.459   7.639   3.167 -0.3111  1.7166 -0.1109
 6357SOL    HW225857   8.410   7.662   3.321 -0.6216 -0.0526  0.0649
 6358SOL     OW25858   5.326   2.023   1.001  0.3613  0.1420 -0.3412
 6358SOL    HW125859   5.276   2.095   1.049  0.5306  0.3940 -0.5445
 6358SOL    HW225860   5.421   2.050   0.989  0.2387  0.2335 -1.1353
 6359SOL     OW25861   8.651   6.437   0.427 -0.3320  0.2062 -0.8100
 6359SOL    HW125862   8.737   6.445   0.478 -0.9579  2.1246  0.0018
 6359SOL    HW225863   8.668   6.459   0.330  0.0254  1.0616 -0.5640
 6360SOL     OW25864   5.439   7.728   3.467  0.2032  0.2197 -0.3237
 6360SOL    HW125865   5.490   7.756   3.386 -0.8540  0.1881 -1.0076
 6360SOL    HW225866   5.500   7.727   3.546  1.5519 -1.0722 -1.3593
 6361SOL     OW25867   2.191   8.448   0.229  0.4186 -0.3987 -0.2063
 6361SOL    HW125868   2.106   8.427   0.278  0.7490 -1.3065 -0.0205
 6361SOL    HW225869   2.267   8.399   0.271  1.1796  1.0067  0.0983
 6363SOL     OW25870   4.777   8.615   2.844  0.0156 -0.1010  0.5226
 6363SOL    HW125871   4.772   8.585   2.749  3.3755  4.2523 -1.2118
 6363SOL    HW225872   4.717   8.695   2.857  0.5593  0.1289  1.7054
 6365SOL     OW25873   1.476   1.011   2.111 -0.2757 -0.7660 -0.3526
 6365SOL    HW125874   1.527   0.936   2.070  1.2612  0.2907 -0.4259
 6365SOL    HW225875   1.539   1.084   2.136 -1.8927  1.1029 -1.5818
 6367SOL     OW25876   3.449   2.021   1.660 -0.1963  0.3342 -0.1330
 6367SOL    HW125877   3.469   2.101   1.715  1.5633  1.0822 -1.8004
 6367SOL    HW225878   3.452   2.045   1.563 -0.6749 -1.5247 -0.6392
 6368SOL     OW25879   0.745   7.261   1.214  0.2421 -0.0472 -0.0430
 6368SOL    HW125880   0.813   7.311   1.160 -0.9932  1.9990  0.2488
 6368SOL    HW225881   0.670   7.235   1.154 -0.1151  0.3306  0.2395
 6370SOL     OW25882   7.522   9.023   2.908  0.5000  0.1202  0.2224
 6370SOL    HW125883   7.554   8.966   2.833  2.0156 -0.4924  1.2887
 6370SOL    HW225884   7.510   8.967   2.990 -0.7859  0.8300  0.5434
 6371SOL     OW25885   1.960   6.031   0.019 -0.1123 -0.2854  0.6723
 6371SOL    HW125886   1.969   5.962   0.091  0.7977 -0.1415  0.7091
 6371SOL    HW225887   1.922   6.115   0.058  1.3393  0.1319  1.2177
 6372SOL     OW25888   0.040   9.890   2.946 -0.0838 -0.1488 -0.3731
 6372SOL    HW125889  -0.045   9.911   2.897 -1.1336  1.3464  1.9996
 6372SOL    HW225890   0.024   9.896   3.044  2.6553 -0.3954  0.1232
 6373SOL     OW25891   8.036   9.009   1.858  0.2142 -0.0808 -0.2591
 6373SOL    HW125892   7.996   9.100   1.870 -0.1026 -0.4025  1.1636
 6373SOL    HW225893   7.973   8.952   1.804 -0.1234  0.1718 -0.1308
 6374SOL     OW25894   0.055   9.321   2.805 -0.0267 -0.5480 -0.0398
 6374SOL    HW125895   0.052   9.419   2.822  2.7026 -0.4510  0.1535
 6374SOL    HW225896   0.139   9.283   2.844 -1.4420 -3.1228  0.6350
 6375SOL     OW25897   3.307   2.101   0.135  0.1940  0.5500  0.0640
 6375SOL    HW125898   3.398   2.081   0.170  0.4483 -1.5052 -1.6310
 6375SOL    HW225899   3.241   2.035   0.171 -0.5994  1.8849  1.1031
 6376SOL     OW25900   0.321   9.855   1.602  0.1002  0.4022 -0.3260
 6376SOL    HW125901   0.284   9.947   1.596 -0.8245 -0.0165 -1.1788
 6376SOL    HW225902   0.333   9.830   1.698 -1.2141  0.7916 -0.0554
 6377SOL     OW25903   4.063   7.990   2.299 -0.1495  0.3271 -0.1055
 6377SOL    HW125904   4.085   7.956   2.208 -0.2245 -1.0993  0.3896
 6377SOL    HW225905   4.145   8.030   2.341  0.7347 -1.9634  0.4462
 6378SOL     OW25906   8.238   3.842   3.149  0.0124  0.1710  0.1753
 6378SOL    HW125907   8.279   3.930   3.125  0.4466 -0.0866 -0.0430
 6378SOL    HW225908   8.236   3.784   3.068 -0.0865 -0.0923  0.3672
 6381SOL     OW25909   5.464   8.440   2.666 -0.8606 -0.3416 -0.3552
 6381SOL    HW125910   5.491   8.510   2.600  0.8072  0.2190  0.9004
 6381SOL    HW225911   5.545   8.390   2.697 -1.7367 -1.1857  0.5981
 6383SOL     OW25912   4.753   1.817   1.408 -0.7001  0.2194  0.0742
 6383SOL    HW125913   4.809   1.818   1.325 -1.3828 -0.0906 -0.3902
 6383SOL    HW225914   4.739   1.911   1.439  0.4908  0.2768  0.4761
 6384SOL     OW25915   2.272   2.842   2.444  0.3316  0.0135 -0.1278
 6384SOL    HW125916   2.248   2.763   2.388 -1.4814  0.4691 -0.0175
 6384SOL    HW225917   2.339   2.815   2.513 -1.2230 -1.7620  0.7291
 6385SOL     OW25918   3.151   2.960   0.259  0.2832  0.1449  0.3016
 6385SOL    HW125919   3.127   2.869   0.293 -0.4326  0.4013  0.5035
 6385SOL    HW225920   3.106   2.976   0.171  0.0317  0.4698  0.4845
 6386SOL     OW25921   5.225   8.636   2.051 -0.5707 -0.6459 -0.2717
 6386SOL    HW125922   5.180   8.615   2.138  0.4050 -0.1312  0.3693
 6386SOL    HW225923   5.179   8.713   2.007 -1.4313 -1.2860 -0.5020
 6387SOL     OW25924   3.603   4.405   3.621 -0.5874 -0.4289  0.5904
 6387SOL    HW125925   3.638   4.450   3.703  1.3646 -1.0009  0.1090
 6387SOL    HW225926   3.506   4.425   3.611 -0.2579  1.8466  1.5809
 6388SOL     OW25927   9.551   2.402   0.619  0.0436  0.4286  0.1511
 6388SOL    HW125928   9.554   2.337   0.543 -2.6541  2.8982 -2.1917
 6388SOL    HW225929   9.635   2.394   0.673  0.4694 -3.8276 -0.9730
 6390SOL     OW25930   3.211   0.292   3.040 -0.1032  0.1586  0.3292
 6390SOL    HW125931   3.219   0.221   3.110 -1.0447  0.4079  0.6921
 6390SOL    HW225932   3.186   0.250   2.953  0.6614 -0.1038  0.2303
 6391SOL     OW25933   2.935   2.780   1.245  0.2209 -0.6656 -0.0205
 6391SOL    HW125934   2.872   2.851   1.277  0.7011 -0.5634  0.7005
 6391SOL    HW225935   2.999   2.756   1.318  0.8003 -1.0165 -0.6341
 6394SOL     OW25936   1.747   3.847   2.211 -0.3782 -0.2071  0.0020
 6394SOL    HW125937   1.745   3.842   2.311  1.5889 -1.0565  0.0289
 6394SOL    HW225938   1.710   3.762   2.173 -0.5180 -0.1558  0.0250
 6395SOL     OW25939   9.843   9.815   3.751  0.1260 -0.0163  0.7020
 6395SOL    HW125940   9.876   9.729   3.710 -3.7630 -2.1616  1.7583
 6395SOL    HW225941   9.818   9.798   3.846 -0.4782  2.3641  0.9789
 6396SOL     OW25942   9.410   7.261   1.958 -0.5177 -0.8043  0.0826
 6396SOL    HW125943   9.322   7.236   1.916 -0.0112 -1.7108 -0.4428
 6396SOL    HW225944   9.438   7.188   2.021 -0.3760 -0.2890  0.6179
 6397SOL     OW25945   2.928   1.646   0.761  0.0004  0.0270 -0.4696
 6397SOL    HW125946   2.979   1.686   0.685 -0.1960  0.9047 -0.1486
 6397SOL    HW225947   2.969   1.675   0.848 -0.1924 -0.4053 -0.2319
 6399SOL     OW25948   2.544   1.704   0.216 -0.4397 -0.1239 -0.4252
 6399SOL    HW125949   2.575   1.773   0.281 -0.7966 -0.2143 -0.1605
 6399SOL    HW225950   2.458   1.665   0.247 -1.2422  0.7144 -1.5841
 6401SOL     OW25951   7.273   6.821   2.720 -0.0241  0.3079 -0.0987
 6401SOL    HW125952   7.219   6.839   2.802 -1.9071 -0.2945 -1.1750
 6401SOL    HW225953   7.232   6.870   2.642  1.8116  0.9761 -0.6550
 6402SOL     OW25954   9.888   6.989   3.047  0.0263 -0.0996  0.2016
 6402SOL    HW125955   9.885   7.079   3.091  0.1874  0.5577 -1.1022
 6402SOL    HW225956   9.979   6.948   3.060  0.0043 -0.0120  0.6553
 6403SOL     OW25957   9.950   8.065   2.470 -0.1334 -0.0394  0.5416
 6403SOL    HW125958   9.966   8.079   2.567  0.0513 -1.9534  0.8155
 6403SOL    HW225959   9.853   8.082   2.449 -0.7077 -1.9771  1.5384
 6404SOL     OW25960   8.115   8.603   3.723 -0.3151  0.5614 -0.1434
 6404SOL    HW125961   8.193   8.618   3.782 -1.1269 -0.3728  1.1750
 6404SOL    HW225962   8.145   8.603   3.627  1.2320  0.4612  0.3351
 6406SOL     OW25963   1.954   6.835   3.254  0.1090 -0.6796 -0.0642
 6406SOL    HW125964   1.982   6.771   3.326  1.0685 -1.1509 -0.8444
 6406SOL    HW225965   2.024   6.905   3.243  1.4931 -2.3572 -2.6215
 6407SOL     OW25966   7.757   8.757   2.509 -0.1634  0.0630  0.5417
 6407SOL    HW125967   7.829   8.689   2.502 -0.9771 -0.9213  1.6274
 6407SOL    HW225968   7.691   8.743   2.435 -0.5072 -0.5496  0.9591
 6408SOL     OW25969   3.704   7.840   2.190  0.4622 -0.2638 -0.1895
 6408SOL    HW125970   3.605   7.841   2.175  0.4198  1.8392  0.0467
 6408SOL    HW225971   3.726   7.784   2.270 -0.7717  1.1772  1.1778
 6409SOL     OW25972   9.434   2.131   2.622  0.7235 -0.6451  0.2941
 6409SOL    HW125973   9.362   2.151   2.689  0.5099 -0.8591  0.1326
 6409SOL    HW225974   9.478   2.045   2.645  1.4735 -0.1211  0.8461
 6410SOL     OW25975   2.576   3.656   2.272 -0.0156 -0.0647 -0.7370
 6410SOL    HW125976   2.621   3.582   2.221 -1.3126 -1.0997 -0.4148
 6410SOL    HW225977   2.522   3.711   2.208  1.3821  0.9420 -1.0621
 6411SOL     OW25978   4.213   8.418   1.563 -0.6587 -0.9031 -0.3260
 6411SOL    HW125979   4.179   8.325   1.550 -1.2486 -0.8237  0.5551
 6411SOL    HW225980   4.157   8.482   1.510  0.4291 -1.1577 -1.7964
 6412SOL     OW25981   9.691   9.076   3.244 -0.6500  0.3574  0.2381
 6412SOL    HW125982   9.781   9.058   3.204 -0.6337  1.7622 -0.4027
 6412SOL    HW225983   9.626   9.007   3.212  0.1769 -0.6148  0.6348
 6413SOL     OW25984   9.824   3.161   1.560  0.2249 -0.0839 -0.4855
 6413SOL    HW125985   9.838   3.063   1.544  2.0377 -0.1303  1.2718
 6413SOL    HW225986   9.728   3.183   1.543  0.0204 -1.9572 -1.9278
 6415SOL     OW25987   2.696   0.308   0.341  0.0080  0.5265 -0.0207
 6415SOL    HW125988   2.641   0.277   0.263 -0.7847 -0.5202  0.9387
 6415SOL    HW225989   2.675   0.252   0.421  0.0956  2.2262  1.2147
 6416SOL     OW25990   4.023   7.964   2.604 -0.1685 -0.9741  0.1272
 6416SOL    HW125991   4.037   7.950   2.506 -0.2272  0.4475 -0.1050
 6416SOL    HW225992   3.926   7.980   2.622 -0.1204 -0.9682  0.3803
 6417SOL     OW25993   3.458   7.522   3.151 -0.0495 -0.5643 -0.2297
 6417SOL    HW125994   3.370   7.527   3.104  0.4977 -0.4465 -1.2524
 6417SOL    HW225995   3.460   7.441   3.210 -1.6882  0.6497  1.5461
 6420SOL     OW25996   3.731   1.637   3.301  0.0556 -0.4533 -0.0508
 6420SOL    HW125997   3.766   1.725   3.271  0.3903 -0.6286 -0.1805
 6420SOL    HW225998   3.636   1.647   3.333  0.8689  0.4111  2.1983
 6421SOL     OW25999   2.656   0.016   2.743  0.4434  0.0675 -0.7070
 6421SOL    HW126000   2.589   0.090   2.753  1.0129  0.3580  1.0282
 6421SOL    HW226001   2.630  -0.060   2.801 -0.2721 -1.2237 -2.6731
 6422SOL     OW26002   3.938   2.177   0.914  0.4504  0.2988  1.0262
 6422SOL    HW126003   3.965   2.131   0.830  1.5141  1.6775  0.6076
 6422SOL    HW226004   3.838   2.183   0.918  0.4182  0.6929 -0.3790
 6423SOL     OW26005   3.698   6.167   2.264 -0.7570 -0.2424 -0.1399
 6423SOL    HW126006   3.758   6.242   2.234  0.7336 -0.7115  1.5464
 6423SOL    HW226007   3.635   6.143   2.191  1.1313  0.2811 -1.9718
 6425SOL     OW26008   8.792   0.811   1.935 -0.5617  0.0211 -0.3504
 6425SOL    HW126009   8.834   0.796   2.025  0.9284  0.5870 -0.9309
 6425SOL    HW226010   8.701   0.770   1.933 -0.2098 -0.8530  1.0901
 6427SOL     OW26011   2.059   9.001   2.751  0.5916 -0.2171  0.1246
 6427SOL    HW126012   2.122   9.067   2.792  0.9556 -0.1162 -0.5891
 6427SOL    HW226013   2.043   9.026   2.655 -0.7277 -0.0898  0.3654
 6428SOL     OW26014   3.658   8.769   2.941  0.5148 -0.2199 -0.0078
 6428SOL    HW126015   3.572   8.789   2.894  0.1033 -0.1332  0.7678
 6428SOL    HW226016   3.639   8.712   3.022  1.3589 -1.4359 -0.6597
 6429SOL     OW26017   5.806   6.514   2.387 -0.2907  0.6477  0.4624
 6429SOL    HW126018   5.815   6.578   2.310  1.9137  0.7335  0.7417
 6429SOL    HW226019   5.880   6.446   2.382 -1.2076 -0.4432  1.4968
 6430SOL     OW26020   1.144   8.771   2.160 -0.5713  0.2111  0.0447
 6430SOL    HW126021   1.210   8.750   2.088 -1.9322  0.8103 -1.4014
 6430SOL    HW226022   1.110   8.685   2.199  0.2990 -0.1105  0.1171
 6431SOL     OW26023   3.339   8.470   1.282  0.3846 -0.0047  0.4543
 6431SOL    HW126024   3.263   8.418   1.243  0.1483 -0.4073  1.4567
 6431SOL    HW226025   3.371   8.536   1.214 -1.0080  0.3337  0.1071
 6432SOL     OW26026   8.742   1.609   3.768  0.0025  0.3447  0.2403
 6432SOL    HW126027   8.656   1.591   3.719  0.4773  0.4237 -0.6414
 6432SOL    HW226028   8.747   1.552   3.849 -1.3600  1.1012  0.8614
 6433SOL     OW26029   3.936   4.427   1.525 -0.5728  0.4054 -0.7186
 6433SOL    HW126030   3.922   4.363   1.600 -2.4804  2.9302  1.2009
 6433SOL    HW226031   3.907   4.386   1.439 -0.9996 -1.5531  0.3475
 6434SOL     OW26032   9.265   9.986   2.859 -0.0963  0.1954  0.6339
 6434SOL    HW126033   9.230   9.898   2.829  0.2037  0.0957  0.5820
 6434SOL    HW226034   9.233  10.005   2.953 -0.7708  0.3669  0.3740
 6435SOL     OW26035   9.624   9.978   1.135 -0.1317  0.1691  0.0170
 6435SOL    HW126036   9.697   9.927   1.090  1.1304  1.9471  0.0148
 6435SOL    HW226037   9.640  10.076   1.126 -2.1342  0.5991  0.6518
 6436SOL     OW26038   1.258   1.208   1.538  0.2980 -0.1503 -0.0616
 6436SOL    HW126039   1.260   1.127   1.596  0.2219 -0.2807 -0.2393
 6436SOL    HW226040   1.188   1.271   1.572  0.0020 -0.3866 -0.2201
 6437SOL     OW26041   6.775   0.016   0.409 -0.1274  1.0963 -0.4362
 6437SOL    HW126042   6.819   0.032   0.497 -0.6207 -0.8981  0.1858
 6437SOL    HW226043   6.727  -0.072   0.410 -1.2173  1.6316 -2.2630
 6438SOL     OW26044   2.701   3.351   0.428 -0.2399 -0.0966  0.5272
 6438SOL    HW126045   2.729   3.447   0.436 -2.2496  0.4742  1.0064
 6438SOL    HW226046   2.699   3.325   0.331 -2.2701  1.1779  0.1861
 6439SOL     OW26047   3.119   4.293   0.860 -0.0400 -0.0321  0.1729
 6439SOL    HW126048   3.160   4.242   0.935  1.8167 -0.3439 -1.0097
 6439SOL    HW226049   3.138   4.390   0.871  0.0530 -0.0545  0.2145
 6441SOL     OW26050   2.333   7.529   3.420 -0.4663  0.5324  0.1593
 6441SOL    HW126051   2.315   7.591   3.344 -2.5638 -1.0933 -0.6984
 6441SOL    HW226052   2.426   7.493   3.412 -0.7345  0.2268 -1.7527
 6442SOL     OW26053   2.062   7.277   1.919 -0.0790 -0.0671  0.4188
 6442SOL    HW126054   1.983   7.323   1.879 -0.9170  0.5095  2.7076
 6442SOL    HW226055   2.133   7.344   1.939  0.5562 -0.4310 -0.5572
 6443SOL     OW26056   1.192   3.453   0.937 -0.0835 -0.7686  0.1438
 6443SOL    HW126057   1.152   3.541   0.909 -1.7444 -1.7080 -0.4790
 6443SOL    HW226058   1.239   3.412   0.859 -1.5942 -1.6656 -0.3245
 6445SOL     OW26059   9.876   9.182   2.969 -0.2452  0.1323 -0.3276
 6445SOL    HW126060   9.942   9.206   2.897  0.3087 -1.4390 -0.3685
 6445SOL    HW226061   9.924   9.176   3.057 -0.7729  1.2398  0.0502
 6446SOL     OW26062   2.323   8.192   1.062 -0.4990  0.0089  0.1475
 6446SOL    HW126063   2.244   8.239   1.100  0.3848  0.8729  0.9455
 6446SOL    HW226064   2.389   8.173   1.135  0.1081 -0.5431 -0.5372
 6447SOL     OW26065   8.630   7.978   1.064 -0.6775 -0.1196  0.7237
 6447SOL    HW126066   8.719   7.950   1.028 -0.4916  0.5217  0.6874
 6447SOL    HW226067   8.559   7.956   0.997 -0.6227 -1.1595  0.9919
 6448SOL     OW26068   5.865   9.708   2.676  0.0199 -0.0026 -0.1653
 6448SOL    HW126069   5.837   9.724   2.771  3.7872 -1.2942  1.2744
 6448SOL    HW226070   5.867   9.610   2.658 -1.1654  0.2543 -1.7551
 6449SOL     OW26071   9.655   7.277   2.704 -0.0289 -0.4156 -0.3455
 6449SOL    HW126072   9.588   7.278   2.778  0.7656  0.4023  0.3855
 6449SOL    HW226073   9.738   7.229   2.734  0.4577  0.2805 -0.5505
 6451SOL     OW26074   0.267   6.382   3.419 -0.3014  0.2156 -0.0965
 6451SOL    HW126075   0.315   6.294   3.430 -0.6190  0.1868  1.1222
 6451SOL    HW226076   0.172   6.372   3.449 -0.4637  0.8586 -0.3950
 6453SOL     OW26077   8.067   9.230   2.966 -0.0170  0.2040 -0.1302
 6453SOL    HW126078   8.044   9.133   2.958 -1.0575  0.4318 -0.0068
 6453SOL    HW226079   8.163   9.243   2.944  0.1924 -0.8902  0.0985
 6454SOL     OW26080   1.314   7.634   2.614  0.2695 -0.4227 -0.1290
 6454SOL    HW126081   1.246   7.702   2.585  0.1154 -0.3692  0.3480
 6454SOL    HW226082   1.338   7.651   2.710  2.5383  0.8917 -0.8922
 6456SOL     OW26083   0.943   1.221   2.155  0.2432  0.1134  0.5929
 6456SOL    HW126084   1.032   1.251   2.189  0.6251 -0.9670  0.5786
 6456SOL    HW226085   0.870   1.274   2.199  0.9863  3.0768 -1.5478
 6457SOL     OW26086   1.408   3.620   1.097 -0.1165 -0.3060  0.2602
 6457SOL    HW126087   1.400   3.705   1.044 -0.1721  0.6373  1.7363
 6457SOL    HW226088   1.489   3.570   1.067  0.9207  1.1462  0.5378
 6458SOL     OW26089   8.280   2.218   1.426  0.1270 -0.9495  0.4865
 6458SOL    HW126090   8.338   2.169   1.362  1.3031 -0.0832  0.8764
 6458SOL    HW226091   8.327   2.300   1.458 -2.4518  1.3269 -1.3829
 6460SOL     OW26092   1.326   3.746   2.522  0.1303 -1.1003  0.3737
 6460SOL    HW126093   1.426   3.752   2.515  0.1857  0.1236  1.9510
 6460SOL    HW226094   1.302   3.684   2.597 -0.2790 -0.8100  0.4827
 6461SOL     OW26095   2.827   1.427   2.705  0.0259 -0.1611  0.1512
 6461SOL    HW126096   2.872   1.342   2.677  0.8295 -0.2027  1.4788
 6461SOL    HW226097   2.804   1.421   2.803 -1.4848  0.4730 -0.1525
 6462SOL     OW26098   0.457   1.617   2.507  0.0164 -0.5998 -0.4618
 6462SOL    HW126099   0.520   1.635   2.584 -0.1535  0.1381 -0.4891
 6462SOL    HW226100   0.367   1.656   2.528 -0.0141 -0.3419 -1.0606
 6463SOL     OW26101   9.452   8.457   3.115 -0.0386 -0.0415 -0.2460
 6463SOL    HW126102   9.492   8.373   3.078  0.1905 -0.0105 -0.0665
 6463SOL    HW226103   9.375   8.485   3.058 -0.0971 -0.3591 -0.3208
 6464SOL     OW26104   4.137   2.594   2.926 -0.2481 -0.4136  0.5203
 6464SOL    HW126105   4.049   2.590   2.878 -0.0241 -1.5136  0.1898
 6464SOL    HW226106   4.196   2.661   2.882 -1.0418  0.6176  0.9734
 6465SOL     OW26107   0.251   1.324   1.260  0.0463 -0.1280 -0.6769
 6465SOL    HW126108   0.221   1.283   1.346 -0.5890 -1.0146 -1.3102
 6465SOL    HW226109   0.201   1.283   1.184  2.4398 -1.1878 -1.7200
 6466SOL     OW26110   8.849   4.196   0.887 -0.0893 -0.2319 -0.2854
 6466SOL    HW126111   8.751   4.218   0.894 -0.3728  0.0510 -4.1399
 6466SOL    HW226112   8.902   4.281   0.888 -0.0587 -0.2520 -0.2436
 6467SOL     OW26113   2.192   0.109   1.831  0.3531  0.4801  0.3174
 6467SOL    HW126114   2.098   0.114   1.864 -0.0690  0.6487 -0.8927
 6467SOL    HW226115   2.245   0.050   1.891 -0.3663  0.8967  1.3724
 6468SOL     OW26116   2.621   5.281   0.469  0.4315 -0.3018 -0.0589
 6468SOL    HW126117   2.685   5.311   0.399  1.1408 -1.7248 -0.0443
 6468SOL    HW226118   2.643   5.325   0.556  0.8884 -0.1587 -0.2469
 6469SOL     OW26119   4.606   0.522   0.431  0.3847 -0.0492 -0.1808
 6469SOL    HW126120   4.664   0.532   0.512 -0.0472 -0.0576  0.1255
 6469SOL    HW226121   4.596   0.424   0.409 -0.5570 -0.1150  0.5163
 6470SOL     OW26122   2.634   3.611   0.859  0.1159 -0.0721  0.0660
 6470SOL    HW126123   2.617   3.555   0.778  2.4598 -1.1380  0.2647
 6470SOL    HW226124   2.548   3.628   0.907 -0.7461 -2.9615 -0.3622
 6471SOL     OW26125   3.586   5.729   3.552 -0.4467  0.3503 -0.1120
 6471SOL    HW126126   3.596   5.816   3.601 -0.6407  0.0851  0.4022
 6471SOL    HW226127   3.497   5.728   3.504 -0.4095  0.4670 -0.1832
 6473SOL     OW26128   1.192   9.714   0.979 -0.2699  0.2294  0.4309
 6473SOL    HW126129   1.243   9.746   1.058 -0.3209  0.4018  0.3930
 6473SOL    HW226130   1.147   9.791   0.934 -0.0035  0.1724  0.0633
 6474SOL     OW26131   8.546   4.239   2.224  0.9140 -0.0336  0.4097
 6474SOL    HW126132   8.464   4.206   2.271  0.3079 -0.1130 -0.6774
 6474SOL    HW226133   8.576   4.324   2.266 -0.2501  0.4625  0.2638
 6475SOL     OW26134   0.200   5.843   2.090 -0.1011 -0.4015  0.2467
 6475SOL    HW126135   0.140   5.831   2.011  0.2749 -0.2653 -0.0639
 6475SOL    HW226136   0.145   5.859   2.172 -0.4570  1.0402 -0.2660
 6476SOL     OW26137   8.579   7.402   0.634 -0.2151  0.8230 -0.3662
 6476SOL    HW126138   8.488   7.440   0.620 -0.1472  0.6520 -1.3052
 6476SOL    HW226139   8.637   7.469   0.681 -0.9295  0.7863  0.5774
 6477SOL     OW26140   9.341   8.929   1.655 -0.4223 -0.4423  0.2483
 6477SOL    HW126141   9.323   8.849   1.597  0.1452 -0.6450  0.3545
 6477SOL    HW226142   9.291   9.007   1.619  0.1250 -0.5037 -0.6626
 6478SOL     OW26143   9.188   2.607   3.243  0.0509 -0.5553  0.0959
 6478SOL    HW126144   9.247   2.661   3.183  2.3152 -1.5416  1.3681
 6478SOL    HW226145   9.118   2.666   3.284  0.7213  0.8195 -0.7262
 6479SOL     OW26146   8.809   6.925   2.432  0.0449  0.3021  1.5358
 6479SOL    HW126147   8.762   6.843   2.462 -0.1242 -0.5960 -1.1234
 6479SOL    HW226148   8.747   6.983   2.379  1.7878 -0.8558 -1.9247
 6481SOL     OW26149   2.347   5.231   1.820 -0.4080 -0.0941 -0.2836
 6481SOL    HW126150   2.394   5.217   1.908  1.2517  0.2930 -1.0875
 6481SOL    HW226151   2.257   5.188   1.823  0.1282 -1.1531  1.1855
 6483SOL     OW26152   3.161   6.080   0.722 -0.5174  0.2705  0.4707
 6483SOL    HW126153   3.164   6.167   0.674  0.3652  1.0337  1.9003
 6483SOL    HW226154   3.165   6.095   0.821 -2.3849 -1.2758  0.8167
 6484SOL     OW26155   0.004   2.224   0.573 -0.3054 -0.3180 -0.0471
 6484SOL    HW126156  -0.024   2.317   0.546 -1.1109 -0.4663  0.2681
 6484SOL    HW226157   0.101   2.224   0.594 -0.5831  0.7732  1.3064
 6485SOL     OW26158   3.015   2.224   0.728  0.1561 -0.2325  0.4189
 6485SOL    HW126159   3.094   2.272   0.767  2.5496 -3.2973 -0.4397
 6485SOL    HW226160   3.034   2.203   0.632 -2.2975  0.1265 -0.1737
 6486SOL     OW26161   1.975   0.162   2.550  0.5907 -0.6035 -0.0731
 6486SOL    HW126162   1.906   0.099   2.514  1.6560 -2.1826  0.6158
 6486SOL    HW226163   2.050   0.110   2.590  1.0784  1.1089  1.2897
 6487SOL     OW26164   5.825   9.799   2.948  0.0373 -0.7913  0.1881
 6487SOL    HW126165   5.744   9.776   3.002 -0.5772 -2.0446 -1.2328
 6487SOL    HW226166   5.895   9.840   3.008 -1.7406  0.5694  1.3698
 6488SOL     OW26167   1.424   2.883   2.028 -0.3402 -0.2678  0.1513
 6488SOL    HW126168   1.521   2.858   2.030 -0.8375 -2.1638  1.5448
 6488SOL    HW226169   1.383   2.855   1.942  0.6287  1.7229 -0.9939
 6489SOL     OW26170   0.357   2.730   1.822 -0.1711  0.8251 -0.1069
 6489SOL    HW126171   0.387   2.695   1.733  1.3953  0.8411  0.3919
 6489SOL    HW226172   0.430   2.785   1.862 -0.7993  0.6705  1.2785
 6491SOL     OW26173   7.468   6.173   3.339 -0.3673  0.9412  0.0512
 6491SOL    HW126174   7.510   6.263   3.347  1.2900  0.0528  1.7027
 6491SOL    HW226175   7.515   6.120   3.269  0.8580  0.1896  1.4227
 6492SOL     OW26176   1.685   1.153   0.792  0.5966 -0.3361 -0.4016
 6492SOL    HW126177   1.607   1.091   0.801 -0.5819  0.9326 -1.6283
 6492SOL    HW226178   1.676   1.228   0.856  1.6556 -1.0136  0.5736
 6495SOL     OW26179   0.541   1.072   0.579  0.2561  0.2262 -0.4208
 6495SOL    HW126180   0.544   1.164   0.617 -1.8306  0.7282 -1.4492
 6495SOL    HW226181   0.604   1.065   0.502  1.6433  0.2885  0.6771
 6496SOL     OW26182   1.942   8.414   0.665  0.9087  0.2150  0.0364
 6496SOL    HW126183   2.018   8.394   0.727  1.2888  2.5346  0.3597
 6496SOL    HW226184   1.861   8.363   0.694  1.5528 -0.0294  1.4422
 6497SOL     OW26185   2.462   0.188   2.838 -0.7159  0.2023 -0.7758
 6497SOL    HW126186   2.427   0.204   2.930 -0.0716 -2.3045 -0.0749
 6497SOL    HW226187   2.447   0.270   2.782 -1.4356  1.6120  1.4341
 6498SOL     OW26188   0.194   1.912   2.808 -0.4468  0.2513  0.1193
 6498SOL    HW126189   0.165   1.830   2.758  0.7963 -0.3638  0.3834
 6498SOL    HW226190   0.160   1.993   2.761 -0.1539 -0.3574 -1.1680
 6501SOL     OW26191   2.293   9.131   0.778  0.4725 -0.0922 -0.1191
 6501SOL    HW126192   2.240   9.203   0.735  0.3484  0.0987  0.3534
 6501SOL    HW226193   2.363   9.098   0.714  2.2764  2.2651  0.5424
 6502SOL     OW26194   4.184   1.557   2.066 -0.0302 -0.0672  0.0049
 6502SOL    HW126195   4.195   1.494   1.989  0.1152  0.7999 -0.6999
 6502SOL    HW226196   4.248   1.633   2.055 -0.5961  0.4906  0.5447
 6503SOL     OW26197   2.301   7.113   2.785 -0.1668 -0.1424  0.1077
 6503SOL    HW126198   2.222   7.088   2.841  0.6950  1.2102  1.9551
 6503SOL    HW226199   2.273   7.180   2.717 -0.8332 -0.4615  0.0598
 6504SOL     OW26200   3.405   0.937   3.736 -0.1503  0.8216 -0.2207
 6504SOL    HW126201   3.334   1.005   3.719 -1.3919 -0.4287 -0.1568
 6504SOL    HW226202   3.399   0.864   3.667  0.0823 -0.0726  0.6846
 6505SOL     OW26203   5.217   9.791   2.351 -0.4466 -0.0211 -0.1040
 6505SOL    HW126204   5.120   9.772   2.361  0.0944 -2.4325  0.9196
 6505SOL    HW226205   5.242   9.866   2.412 -1.3670 -0.4601  0.8306
 6507SOL     OW26206   8.365   8.840   3.464 -0.6343 -0.2604  0.8580
 6507SOL    HW126207   8.449   8.808   3.419 -1.2248 -0.8794  0.1789
 6507SOL    HW226208   8.294   8.771   3.454 -1.6111  0.8077  0.3062
 6508SOL     OW26209   9.452   5.198   1.043  0.0694 -0.1573 -0.3579
 6508SOL    HW126210   9.503   5.113   1.028  0.3800 -0.2480  1.1895
 6508SOL    HW226211   9.379   5.182   1.109  0.6844  0.9785  0.6272
 6510SOL     OW26212   0.904   4.847   1.967 -0.4302 -0.2896  0.6276
 6510SOL    HW126213   0.808   4.847   1.996  0.0538  0.8650  2.2833
 6510SOL    HW226214   0.910   4.868   1.870 -1.8698 -0.5907  0.4674
 6511SOL     OW26215   4.401   3.494   1.814 -0.0865  0.0344  0.2319
 6511SOL    HW126216   4.426   3.539   1.900 -0.2573  0.5621  0.0073
 6511SOL    HW226217   4.319   3.439   1.828 -0.7318  0.9702  0.1469
 6512SOL     OW26218   3.044   7.361   0.124  0.0950  0.3977  0.5398
 6512SOL    HW126219   2.980   7.415   0.069 -1.9088 -2.6924 -0.2797
 6512SOL    HW226220   2.998   7.331   0.208  0.9670 -0.6264  0.6523
 6513SOL     OW26221   1.850   4.210   0.551 -0.4518  0.1064 -0.6411
 6513SOL    HW126222   1.854   4.123   0.599  1.0168  1.7136  2.2957
 6513SOL    HW226223   1.900   4.204   0.465  1.2612 -1.4145  0.4429
 6514SOL     OW26224   2.951   7.789   0.153 -0.2556  0.5960 -0.3031
 6514SOL    HW126225   3.022   7.772   0.221 -0.5850  0.8905  0.1228
 6514SOL    HW226226   2.952   7.886   0.128  1.2971  0.0930 -2.3498
 6515SOL     OW26227   3.407   0.017   1.770 -0.4364  0.2296  0.4697
 6515SOL    HW126228   3.369  -0.068   1.805  0.1111 -0.0849  0.2967
 6515SOL    HW226229   3.413   0.084   1.845  0.3191 -0.2936  0.8790
 6516SOL     OW26230   8.562   9.142   3.744 -0.7478  0.3123 -0.0122
 6516SOL    HW126231   8.656   9.174   3.758 -1.1408  0.4800  2.3684
 6516SOL    HW226232   8.554   9.047   3.773 -1.3592  0.3502 -0.0549
 6519SOL     OW26233   8.927   4.091   2.323  0.3841  0.0768 -0.3065
 6519SOL    HW126234   8.909   4.176   2.274  2.8499  1.1193  0.5480
 6519SOL    HW226235   8.843   4.036   2.325 -1.2743  2.5110 -0.7672
 6520SOL     OW26236   0.909   1.543   3.749 -0.0016 -0.1359  0.1904
 6520SOL    HW126237   0.831   1.521   3.690  0.9863 -1.8817 -0.4969
 6520SOL    HW226238   0.978   1.593   3.696 -0.3098  0.7382  0.6015
 6521SOL     OW26239   8.893   4.760   1.697  0.2768 -0.2757  0.3420
 6521SOL    HW126240   8.978   4.744   1.648 -1.7654  0.8385 -3.7775
 6521SOL    HW226241   8.869   4.857   1.692 -1.3194 -0.5981  1.3347
 6522SOL     OW26242   2.732   3.544   2.958 -0.4375 -0.0042  0.5840
 6522SOL    HW126243   2.725   3.534   2.858 -0.6979 -0.0749  0.6105
 6522SOL    HW226244   2.737   3.454   3.000 -1.9248 -0.0069  0.7574
 6523SOL     OW26245   1.694   8.570   2.686  0.5467 -0.3919  0.2540
 6523SOL    HW126246   1.698   8.562   2.786 -2.5315 -0.3397  0.4135
 6523SOL    HW226247   1.689   8.667   2.661  1.8478 -0.3772 -0.0156
 6525SOL     OW26248   2.579   9.867   1.412 -0.2712  0.6085 -0.1714
 6525SOL    HW126249   2.590   9.855   1.510 -0.5560  1.5202 -0.0219
 6525SOL    HW226250   2.668   9.883   1.370 -0.1881  0.5628 -0.0119
 6526SOL     OW26251   5.836   0.841   2.756 -0.2211 -0.1339 -0.5521
 6526SOL    HW126252   5.928   0.817   2.786 -0.0486 -0.0016 -0.9736
 6526SOL    HW226253   5.769   0.790   2.810  0.0930 -0.0645 -0.1000
 6527SOL     OW26254   9.055   8.215   0.837 -0.2498 -0.5677 -0.2036
 6527SOL    HW126255   8.959   8.190   0.820  0.2517 -2.1038 -0.8833
 6527SOL    HW226256   9.069   8.311   0.811 -1.6897 -0.2000  0.2956
 6529SOL     OW26257   8.614   0.615   1.010 -0.1690 -0.0379  0.4390
 6529SOL    HW126258   8.649   0.586   1.099  0.5866  0.9628  0.4774
 6529SOL    HW226259   8.671   0.578   0.938 -1.0113 -1.1759  0.3397
 6530SOL     OW26260   3.927   2.977   1.764 -0.0255  0.0747 -0.2420
 6530SOL    HW126261   3.927   3.062   1.817 -2.3937 -1.1393  1.8190
 6530SOL    HW226262   4.010   2.925   1.784 -0.0652  0.4552  0.9428
 6531SOL     OW26263   7.575   7.617   2.174 -0.0304  0.1442  0.2843
 6531SOL    HW126264   7.560   7.716   2.171  0.1404  0.1741  0.3982
 6531SOL    HW226265   7.607   7.585   2.085  1.1893  0.4011  0.6258
 6533SOL     OW26266   6.999   9.205   1.883  0.0180 -0.2730 -0.2724
 6533SOL    HW126267   7.004   9.189   1.785 -0.3915  0.5756 -0.4392
 6533SOL    HW226268   7.061   9.143   1.931  0.5099 -0.4205 -1.0967
 6534SOL     OW26269   9.850   9.691   2.611  0.0395 -0.4098 -0.0732
 6534SOL    HW126270   9.757   9.662   2.588 -0.3610  2.8263 -2.8115
 6534SOL    HW226271   9.847   9.766   2.677  0.7620 -1.0797  0.7363
 6535SOL     OW26272   1.345   3.345   2.625 -0.3234 -0.4780 -0.4254
 6535SOL    HW126273   1.279   3.286   2.672 -1.7217  0.1190 -1.5674
 6535SOL    HW226274   1.424   3.362   2.684 -1.9292  0.0828  1.6296
 6536SOL     OW26275   3.172   6.908   2.774  0.1760 -0.2119  0.3799
 6536SOL    HW126276   3.212   7.000   2.768 -0.4797  0.0287 -0.6428
 6536SOL    HW226277   3.230   6.843   2.725  1.2801 -0.5735  2.1692
 6537SOL     OW26278   4.510   4.538   0.827 -0.4314  0.0534  0.2978
 6537SOL    HW126279   4.428   4.590   0.802 -1.0536  0.6122  3.2758
 6537SOL    HW226280   4.486   4.442   0.840 -0.4021  0.0358  0.2258
 6538SOL     OW26281   8.781   2.628   0.426 -0.5570 -0.7043  0.0709
 6538SOL    HW126282   8.793   2.529   0.420 -1.9332 -0.8897  0.1994
 6538SOL    HW226283   8.846   2.673   0.365  1.2153 -1.6061  1.2458
 6539SOL     OW26284   8.937   9.452   0.695 -0.1403  0.5985 -0.1214
 6539SOL    HW126285   8.994   9.405   0.629  1.7102  0.0825  1.7955
 6539SOL    HW226286   8.844   9.416   0.691  0.3415 -0.5268 -1.3143
 6540SOL     OW26287   1.155   7.552   1.172 -0.5913 -0.5186  0.7271
 6540SOL    HW126288   1.058   7.535   1.185 -1.0079  0.6986 -0.6703
 6540SOL    HW226289   1.172   7.576   1.076  0.6397  2.2516  1.6054
 6542SOL     OW26290   7.223   6.102   3.230 -0.3067 -0.4030 -0.0734
 6542SOL    HW126291   7.303   6.117   3.289  0.3906 -1.8961 -0.6187
 6542SOL    HW226292   7.148   6.161   3.260  0.8271  0.6318  0.7772
 6543SOL     OW26293   3.353   2.676   2.404 -0.0999 -0.6492 -1.2080
 6543SOL    HW126294   3.417   2.693   2.478 -0.7483 -0.2681 -0.7291
 6543SOL    HW226295   3.325   2.580   2.405  0.2847 -0.7626 -1.2772
 6544SOL     OW26296   4.985   7.278   2.982 -0.1327 -0.9227 -0.1870
 6544SOL    HW126297   5.010   7.311   2.891 -0.1054  2.7122  1.0634
 6544SOL    HW226298   5.067   7.257   3.034  0.0314  0.9437  0.3507
 6545SOL     OW26299   8.733   7.474   2.623  0.4478  0.2238 -0.1532
 6545SOL    HW126300   8.637   7.502   2.636  0.2055 -0.7991  0.3885
 6545SOL    HW226301   8.783   7.487   2.708  1.0472  1.7037 -0.7274
 6546SOL     OW26302   0.603   8.290   1.476  0.0225  0.3227 -0.0801
 6546SOL    HW126303   0.539   8.360   1.446 -0.8772 -0.7952 -0.8053
 6546SOL    HW226304   0.679   8.333   1.526 -0.4514  1.8069 -0.6182
 6548SOL     OW26305   0.435   6.845   1.564  0.5571  0.2182 -0.0820
 6548SOL    HW126306   0.347   6.803   1.586  0.3138  0.1740 -1.0969
 6548SOL    HW226307   0.504   6.815   1.629 -0.3353  0.8167  1.1632
 6550SOL     OW26308   9.007   1.719   2.567 -0.2618  0.2191 -0.4008
 6550SOL    HW126309   8.917   1.682   2.589 -0.3508  0.7905  0.2192
 6550SOL    HW226310   9.013   1.814   2.600  0.5741  0.1707 -0.4015
 6553SOL     OW26311   0.336   9.116   3.756 -0.6342  0.4996  0.7836
 6553SOL    HW126312   0.292   9.088   3.671 -0.5226  0.5726  0.7010
 6553SOL    HW226313   0.391   9.041   3.792 -1.1885  0.2513  1.1283
 6554SOL     OW26314   2.262   5.217   2.321 -0.4349 -0.8748 -0.7850
 6554SOL    HW126315   2.271   5.257   2.412  0.8039 -0.8773 -0.8870
 6554SOL    HW226316   2.262   5.290   2.252 -3.7057 -0.7140 -0.6744
 6555SOL     OW26317   2.056   5.433   2.717 -0.2675 -0.0445 -0.5223
 6555SOL    HW126318   2.060   5.531   2.698  2.0319 -0.0380 -0.0648
 6555SOL    HW226319   1.971   5.396   2.679 -0.5848  1.8867 -1.7722
 6557SOL     OW26320   8.089   9.951   1.911 -0.6522 -0.6696  0.7210
 6557SOL    HW126321   8.157   9.878   1.899 -0.8564 -0.8659  0.7489
 6557SOL    HW226322   8.130  10.039   1.888 -0.7350 -0.9182 -0.4233
 6558SOL     OW26323   2.585   9.942   0.103  0.0504  0.0856 -0.1998
 6558SOL    HW126324   2.682   9.960   0.090  0.5830 -1.1667  1.8104
 6558SOL    HW226325   2.547   9.904   0.019  1.6016 -0.6317 -0.5939
 6560SOL     OW26326   4.554   0.891   2.944 -0.2742  0.5897  0.0878
 6560SOL    HW126327   4.578   0.892   2.847 -3.1442  1.2486 -0.6690
 6560SOL    HW226328   4.479   0.826   2.959  1.8016 -1.4333  2.3491
 6561SOL     OW26329   1.664   8.396   3.632  0.7284 -0.2218  0.5812
 6561SOL    HW126330   1.683   8.310   3.678 -0.5442  0.4147  2.3507
 6561SOL    HW226331   1.631   8.379   3.540  1.3577 -1.5818  0.6028
 6562SOL     OW26332   7.410   6.625   3.739  0.2785  0.0888  0.4463
 6562SOL    HW126333   7.391   6.538   3.693  0.2340  1.0278 -1.3871
 6562SOL    HW226334   7.508   6.631   3.758  0.5197  0.2435 -0.7652
 6563SOL     OW26335   1.989   6.926   0.267  0.1813 -0.3389 -0.0696
 6563SOL    HW126336   2.024   6.985   0.340  0.1022 -1.9833  1.3588
 6563SOL    HW226337   2.064   6.903   0.205 -0.0455  2.1629 -1.3013
 6564SOL     OW26338   4.521   2.443   1.758 -0.5581  0.4970  0.5687
 6564SOL    HW126339   4.590   2.416   1.690  1.4788  2.0827  1.9432
 6564SOL    HW226340   4.451   2.500   1.714 -0.8475 -0.8462 -0.7727
 6565SOL     OW26341   1.914   1.024   2.969 -0.1002 -0.7083 -0.1478
 6565SOL    HW126342   1.864   1.088   3.028 -1.0609 -1.5990  0.0071
 6565SOL    HW226343   1.918   1.062   2.877  1.2146  0.5877  0.4200
 6566SOL     OW26344   7.667   9.449   1.025 -0.1563  0.1191  0.1885
 6566SOL    HW126345   7.674   9.419   0.930  1.0519  1.6684 -0.2347
 6566SOL    HW226346   7.576   9.428   1.061 -0.5772 -0.5775 -1.2696
 6567SOL     OW26347   1.463   4.430   1.328  0.6607  0.4257  0.0315
 6567SOL    HW126348   1.458   4.390   1.236 -0.5814 -1.0471  0.7210
 6567SOL    HW226349   1.556   4.420   1.363  0.8206 -0.2133 -0.5478
 6568SOL     OW26350   2.421   0.933   2.686 -0.4064 -0.4204 -0.7445
 6568SOL    HW126351   2.414   1.020   2.638  0.4369  1.0538  1.6685
 6568SOL    HW226352   2.482   0.872   2.636  2.2311  1.8732 -0.4683
 6569SOL     OW26353   3.219   5.783   1.863 -0.0164 -0.2026 -0.3882
 6569SOL    HW126354   3.208   5.735   1.950  1.2076 -0.6948 -0.4877
 6569SOL    HW226355   3.248   5.718   1.793 -0.2633  0.3277 -0.9793
 6570SOL     OW26356   1.395   6.479   3.727  0.0044 -0.0161 -0.3046
 6570SOL    HW126357   1.466   6.451   3.662 -0.1720  0.3050 -0.6402
 6570SOL    HW226358   1.327   6.406   3.736  0.4520 -0.3766  0.1192
 6571SOL     OW26359   7.538   0.352   3.258  0.0444 -0.0788 -0.5111
 6571SOL    HW126360   7.485   0.335   3.175 -1.5434 -0.2872  0.5266
 6571SOL    HW226361   7.635   0.337   3.239 -0.4446 -1.6602 -1.9307
 6572SOL     OW26362   2.201   5.387   3.437 -0.4776 -0.0795  0.3133
 6572SOL    HW126363   2.245   5.453   3.497 -1.4986 -2.0025  3.2464
 6572SOL    HW226364   2.104   5.409   3.428 -0.2496  0.4360 -0.9885
 6573SOL     OW26365   3.431   3.293   1.549 -0.6762  0.4747  0.5851
 6573SOL    HW126366   3.416   3.378   1.599 -0.3726  0.0767  1.3611
 6573SOL    HW226367   3.466   3.314   1.458 -0.3828  1.1736  0.8525
 6574SOL     OW26368   3.470   4.921   2.029 -0.0298  0.1439 -0.2638
 6574SOL    HW126369   3.541   4.956   1.968 -0.6842  1.2552 -0.4186
 6574SOL    HW226370   3.381   4.958   2.000 -0.4704 -0.0683  0.8017
 6575SOL     OW26371   0.598   4.647   1.220 -0.5395  0.0705 -0.3731
 6575SOL    HW126372   0.528   4.689   1.279 -0.6167  1.3522 -1.3585
 6575SOL    HW226373   0.606   4.700   1.136  0.7900 -0.7690 -0.7789
 6576SOL     OW26374   2.327   2.292   0.671 -0.1593 -0.0692 -0.4956
 6576SOL    HW126375   2.349   2.195   0.682 -1.1544 -0.4333 -1.6481
 6576SOL    HW226376   2.314   2.313   0.575  1.3006  1.5073 -0.3764
 6577SOL     OW26377   9.968   9.869   1.515 -0.2799  0.6333 -0.1475
 6577SOL    HW126378  10.059   9.838   1.543 -0.6035 -0.7547 -0.5926
 6577SOL    HW226379   9.959   9.967   1.532  0.3659  0.2947  2.3986
 6578SOL     OW26380   2.822   6.140   3.038  0.0946 -0.2691 -0.2590
 6578SOL    HW126381   2.866   6.223   3.072  0.4177 -1.0899  1.3766
 6578SOL    HW226382   2.805   6.078   3.114 -3.5377 -0.1600 -0.8929
 6579SOL     OW26383   3.927   4.760   1.541  0.2076 -0.0444  0.0207
 6579SOL    HW126384   3.861   4.688   1.522 -1.7089  1.6218  0.1829
 6579SOL    HW226385   3.902   4.807   1.626  1.0742  1.2057 -0.4043
 6580SOL     OW26386   2.849   3.944   1.442  0.2148 -0.0454 -0.2130
 6580SOL    HW126387   2.806   3.907   1.524 -1.2190 -0.1092 -0.9699
 6580SOL    HW226388   2.947   3.926   1.444 -0.0485 -1.4069  0.7404
 6581SOL     OW26389   8.823   5.210   2.090 -0.0070 -0.3976  0.1496
 6581SOL    HW126390   8.753   5.158   2.040  0.2225 -1.1351  0.5795
 6581SOL    HW226391   8.831   5.301   2.051 -0.9434 -0.4322 -0.1524
 6583SOL     OW26392   2.708   7.070   0.949  0.1828  0.4501 -0.1466
 6583SOL    HW126393   2.729   7.167   0.935  1.8935  0.1517  0.1922
 6583SOL    HW226394   2.755   7.016   0.879 -1.3903 -0.0987 -0.8115
 6584SOL     OW26395   8.701   5.019   2.633  0.3517 -0.0150 -0.3266
 6584SOL    HW126396   8.791   5.029   2.676  0.3392 -0.4661 -0.1907
 6584SOL    HW226397   8.642   5.095   2.660  1.4307  1.5424 -2.2831
 6585SOL     OW26398   0.386   0.999   3.410 -0.4490  0.2450  0.4496
 6585SOL    HW126399   0.459   0.939   3.377  0.9611  2.7210 -1.1329
 6585SOL    HW226400   0.300   0.973   3.368  0.2053 -0.4514 -0.4940
 6586SOL     OW26401   2.625   3.280   3.144 -0.0392  0.2540 -0.7040
 6586SOL    HW126402   2.659   3.199   3.192 -1.2716 -0.5474 -1.1547
 6586SOL    HW226403   2.568   3.334   3.206  1.4282  1.2338 -0.1580
 6587SOL     OW26404   4.735   1.326   3.500 -0.2448  0.0158 -0.3838
 6587SOL    HW126405   4.668   1.287   3.562 -0.3645  0.6562 -0.1135
 6587SOL    HW226406   4.792   1.252   3.462 -0.5742 -0.4373  0.0002
 6588SOL     OW26407   4.338   0.028   0.822 -0.2641 -0.5836 -0.2929
 6588SOL    HW126408   4.257   0.082   0.844 -0.2133 -0.3808 -0.6001
 6588SOL    HW226409   4.382   0.066   0.741 -0.1208 -0.9738 -0.3975
 6589SOL     OW26410   7.012   7.597   3.150 -0.9132 -0.4408 -0.0795
 6589SOL    HW126411   7.047   7.605   3.057 -1.4442 -1.6257 -0.3887
 6589SOL    HW226412   6.932   7.657   3.160 -0.2861  0.4074 -0.0945
 6590SOL     OW26413   3.257   4.122   1.017 -0.1613 -0.4419 -0.1784
 6590SOL    HW126414   3.231   4.117   1.114  0.8892 -0.6660  0.0980
 6590SOL    HW226415   3.294   4.034   0.988  1.2649  0.1699 -0.2708
 6591SOL     OW26416   9.626   7.063   2.244  0.2296 -0.0640  0.2472
 6591SOL    HW126417   9.721   7.083   2.270 -0.3585  1.7393  1.1030
 6591SOL    HW226418   9.573   7.148   2.247 -1.3318 -1.0016 -0.5801
 6593SOL     OW26419   2.873   8.984   3.363  0.2307 -0.2217  0.2149
 6593SOL    HW126420   2.800   8.937   3.412 -0.1887 -0.4533 -0.6205
 6593SOL    HW226421   2.898   8.931   3.282  2.2651 -0.8187  1.2172
 6594SOL     OW26422   8.368   3.704   0.520 -0.5909 -0.4273 -0.3750
 6594SOL    HW126423   8.301   3.707   0.594  0.0546  0.2811  0.1838
 6594SOL    HW226424   8.385   3.608   0.494  1.0062 -0.8349  2.0600
 6595SOL     OW26425   2.640   9.232   3.218 -0.2441  0.4206  0.2502
 6595SOL    HW126426   2.694   9.313   3.243  1.6274 -1.3941  2.2754
 6595SOL    HW226427   2.606   9.188   3.301 -2.9263  0.2035 -0.9254
 6598SOL     OW26428   1.072   2.376   2.590  0.0315 -0.0416  0.0946
 6598SOL    HW126429   1.102   2.301   2.532  0.0594 -0.2137  0.3319
 6598SOL    HW226430   1.119   2.371   2.678  1.6993  1.5334 -0.6671
 6599SOL     OW26431   2.259   6.797   0.415  0.0930  0.7368  0.0954
 6599SOL    HW126432   2.331   6.840   0.470 -0.0478 -0.7209  1.4638
 6599SOL    HW226433   2.175   6.790   0.469 -0.6129  0.9948 -0.9570
 6600SOL     OW26434   0.255   7.423   3.293  0.3955  0.3984 -0.4295
 6600SOL    HW126435   0.331   7.485   3.278  0.7163 -0.0162 -0.5269
 6600SOL    HW226436   0.247   7.360   3.216 -0.6308  1.0436 -0.8542
 6601SOL     OW26437   3.872   7.912   0.231 -0.0770 -0.0581 -0.1102
 6601SOL    HW126438   3.884   7.830   0.287 -0.2888  0.6389  0.9771
 6601SOL    HW226439   3.787   7.957   0.256  0.7459  1.2842  0.3411
 6602SOL     OW26440   6.782   0.066   2.924  0.4361  0.2490 -0.1082
 6602SOL    HW126441   6.812   0.142   2.982 -0.1050 -0.0734  0.6085
 6602SOL    HW226442   6.807  -0.021   2.968  1.6819  0.0087 -1.2602
 6605SOL     OW26443   7.572   0.296   2.180  0.2325 -0.1478 -0.1288
 6605SOL    HW126444   7.583   0.341   2.092  1.1029  5.2045  2.4617
 6605SOL    HW226445   7.659   0.298   2.230 -0.4681 -2.2068  1.2461
 6611SOL     OW26446   8.305   8.433   0.984 -0.0483  0.3898  0.0432
 6611SOL    HW126447   8.396   8.392   0.985  0.1971  0.9268  1.1178
 6611SOL    HW226448   8.276   8.453   1.078 -1.0462  0.7193 -0.3205
 6612SOL     OW26449   9.567   6.317   3.225 -1.2509 -0.2677 -0.0913
 6612SOL    HW126450   9.649   6.319   3.282 -2.3255 -0.9994  1.5421
 6612SOL    HW226451   9.591   6.290   3.132  0.3087 -0.8315  0.4629
 6613SOL     OW26452   2.248   2.209   3.425  0.0858 -0.3219 -0.0232
 6613SOL    HW126453   2.307   2.232   3.347 -0.7256  0.8659 -0.3062
 6613SOL    HW226454   2.296   2.145   3.485  1.5654  0.4107 -0.3838
 6614SOL     OW26455   2.604   3.017   3.425 -0.0357 -0.3029 -0.2170
 6614SOL    HW126456   2.631   2.926   3.454  1.9277  0.1726 -0.4371
 6614SOL    HW226457   2.547   3.011   3.343  0.6678 -1.3101 -0.6409
 6615SOL     OW26458   6.915   6.645   3.104  0.0373  0.4620 -0.5543
 6615SOL    HW126459   6.984   6.574   3.114 -1.0563 -0.2987  2.0331
 6615SOL    HW226460   6.923   6.710   3.180 -3.5149 -0.9731  1.1946
 6616SOL     OW26461   9.800   4.363   1.960 -0.1367  0.2964 -0.4227
 6616SOL    HW126462   9.782   4.410   2.047 -0.5669  1.3560 -1.0756
 6616SOL    HW226463   9.834   4.271   1.978  1.9669  1.2953  0.8992
 6618SOL     OW26464   3.592   2.651   3.768 -0.2154 -0.1939 -0.2296
 6618SOL    HW126465   3.555   2.594   3.841 -1.1243 -0.4013 -0.8397
 6618SOL    HW226466   3.651   2.596   3.709  1.2814  0.1891  0.8744
 6619SOL     OW26467   7.933   8.239   2.555  0.0851  0.0819 -0.3920
 6619SOL    HW126468   7.877   8.193   2.623 -0.0477  0.7225 -0.0646
 6619SOL    HW226469   8.029   8.211   2.565 -0.0630 -0.4552 -0.4818
 6621SOL     OW26470   3.935   0.570   2.820 -0.2724 -0.1382  0.7740
 6621SOL    HW126471   3.975   0.484   2.789 -0.2990  0.0527  0.1969
 6621SOL    HW226472   3.859   0.550   2.883 -1.7701 -0.6281 -1.1254
 6623SOL     OW26473   7.828   9.156   0.499  0.8728 -0.3416  0.1781
 6623SOL    HW126474   7.849   9.102   0.417 -0.6908  1.3925 -1.4065
 6623SOL    HW226475   7.847   9.253   0.481 -0.2901  0.1654  1.5708
 6624SOL     OW26476   7.907   0.807   2.665 -0.6870 -0.2488  0.2333
 6624SOL    HW126477   7.986   0.868   2.664 -1.3688  0.6458 -0.3499
 6624SOL    HW226478   7.892   0.771   2.573 -0.4732 -1.0692  0.5122
 6625SOL     OW26479   4.017   5.815   2.569 -0.4925  0.0017  0.5190
 6625SOL    HW126480   4.043   5.730   2.524 -0.9599  0.4918 -0.7146
 6625SOL    HW226481   3.950   5.864   2.512  0.7961  1.8434  0.5489
 6626SOL     OW26482   0.191   6.073   1.589  0.7181 -0.4776 -0.2091
 6626SOL    HW126483   0.255   6.133   1.540  0.9988 -0.1494  0.5567
 6626SOL    HW226484   0.100   6.114   1.588  1.0253  0.2428  0.7959
 6627SOL     OW26485   1.409   6.732   3.570 -0.2800  0.6834  0.0368
 6627SOL    HW126486   1.470   6.810   3.585  0.2975  0.2922 -0.2572
 6627SOL    HW226487   1.397   6.682   3.655  2.0787 -0.8730 -0.5100
 6629SOL     OW26488   2.935   4.875   1.556 -0.2380  0.4627  0.5266
 6629SOL    HW126489   2.853   4.829   1.590 -0.9618 -0.0423 -1.8139
 6629SOL    HW226490   2.909   4.952   1.498  0.9170 -0.3050 -1.0367
 6630SOL     OW26491   2.668   7.637   0.781  0.4935  0.1848 -0.0944
 6630SOL    HW126492   2.693   7.595   0.694  0.7959 -0.6509  0.3888
 6630SOL    HW226493   2.568   7.643   0.788  0.4006 -1.6948  0.3980
 6631SOL     OW26494   3.171   8.333   3.336 -0.0380  0.0692  0.2089
 6631SOL    HW126495   3.104   8.329   3.261  0.0518 -0.2324  0.1425
 6631SOL    HW226496   3.177   8.243   3.379  1.6086 -0.3642 -0.9113
 6633SOL     OW26497   3.304   2.916   0.695  0.6449 -0.2068 -0.3071
 6633SOL    HW126498   3.378   2.959   0.747 -0.3119  2.5569 -1.1504
 6633SOL    HW226499   3.334   2.900   0.601  0.8192 -0.9390 -0.1322
 6636SOL     OW26500   9.696   4.997   1.136  0.0333  0.6156  0.4344
 6636SOL    HW126501   9.656   4.987   1.227 -0.6050 -0.5987  0.0290
 6636SOL    HW226502   9.770   4.930   1.124 -0.8722 -0.2470 -0.4671
 6638SOL     OW26503   6.670   8.605   2.162 -0.4326  0.5711  0.2856
 6638SOL    HW126504   6.642   8.616   2.258 -0.8187  2.2753 -0.0126
 6638SOL    HW226505   6.592   8.624   2.102 -0.4785 -1.5478 -0.3451
 6639SOL     OW26506   7.227   1.208   3.018  0.4387  0.2396  0.2310
 6639SOL    HW126507   7.245   1.151   2.938  0.7710  0.5166  0.1088
 6639SOL    HW226508   7.220   1.150   3.100  0.2068 -0.0306  0.0197
 6640SOL     OW26509   8.406   8.940   0.520 -0.4463 -0.1278  0.0744
 6640SOL    HW126510   8.365   8.925   0.430  0.3764  1.2821 -0.5544
 6640SOL    HW226511   8.446   9.032   0.523  0.6673 -0.6464  1.4488
 6641SOL     OW26512   2.299   9.125   2.791 -0.0158  0.3988  0.6803
 6641SOL    HW126513   2.324   9.073   2.709 -1.2766  1.6670 -0.5331
 6641SOL    HW226514   2.370   9.114   2.861 -0.0466 -2.6019  0.3024
 6642SOL     OW26515   0.738   0.156   1.378 -0.3993 -0.4123  0.1089
 6642SOL    HW126516   0.711   0.062   1.354 -1.4190 -0.3630  0.9955
 6642SOL    HW226517   0.797   0.193   1.307  0.0952 -1.7663 -0.2029
 6643SOL     OW26518   9.996   8.882   1.173 -0.0949 -0.3282  0.1294
 6643SOL    HW126519  10.056   8.908   1.098 -0.0986  0.6114  0.4467
 6643SOL    HW226520   9.983   8.783   1.173  2.1662 -0.6548  0.6062
 6644SOL     OW26521   0.793   9.000   0.287 -0.3243  0.0569 -0.2036
 6644SOL    HW126522   0.828   9.071   0.348  0.9947 -0.4294 -0.3617
 6644SOL    HW226523   0.746   8.930   0.340 -1.1397  0.7628  0.0097
 6645SOL     OW26524   2.432   6.206   2.189 -0.5173 -0.0346 -0.1441
 6645SOL    HW126525   2.523   6.166   2.201 -0.1967  0.2679 -1.5322
 6645SOL    HW226526   2.377   6.146   2.130 -0.9418  0.2139 -0.0016
 6646SOL     OW26527   0.697   2.756   0.738  0.0472  0.0196 -0.4265
 6646SOL    HW126528   0.701   2.726   0.642 -1.7049 -0.7919 -0.2593
 6646SOL    HW226529   0.776   2.813   0.757  2.6354 -3.0953 -1.2436
 6647SOL     OW26530   4.265   9.074   3.666 -0.4360  0.3134  0.1507
 6647SOL    HW126531   4.243   9.085   3.763 -1.8534 -0.1795 -0.0996
 6647SOL    HW226532   4.192   9.023   3.621 -1.0512  2.7078 -1.6859
 6648SOL     OW26533   2.189   1.847   0.334  0.1430 -0.2584 -0.3002
 6648SOL    HW126534   2.136   1.867   0.416  0.9348 -0.7328  0.3345
 6648SOL    HW226535   2.218   1.752   0.335 -0.2979 -0.4161 -1.4013
 6651SOL     OW26536   7.644   1.907   0.110  0.4025  0.0194  0.6475
 6651SOL    HW126537   7.686   1.827   0.154 -0.1526 -0.5164  0.2171
 6651SOL    HW226538   7.598   1.878   0.026 -1.4115  0.4791  1.4657
 6652SOL     OW26539   7.673   0.329   2.861 -0.9631  0.3813  0.6231
 6652SOL    HW126540   7.728   0.249   2.838 -1.1441  1.0373 -2.3915
 6652SOL    HW226541   7.615   0.309   2.940 -0.1213 -2.0376  0.6540
 6653SOL     OW26542   1.840   1.765   2.986  0.5491  0.2822  0.1376
 6653SOL    HW126543   1.898   1.737   3.062  1.0813  1.3047  0.1115
 6653SOL    HW226544   1.816   1.685   2.931 -0.9584 -0.6950  2.1378
 6654SOL     OW26545   0.662   0.170   1.888 -0.4052 -0.1527 -0.0914
 6654SOL    HW126546   0.615   0.181   1.800 -0.6374 -1.6742 -0.1805
 6654SOL    HW226547   0.606   0.113   1.948 -0.0687  0.5681  0.9187
 6655SOL     OW26548   9.248   6.910   3.113  0.2745  0.4322 -0.6150
 6655SOL    HW126549   9.238   6.993   3.169 -4.1257  0.3421 -1.0618
 6655SOL    HW226550   9.268   6.936   3.019  1.1236  0.8715 -0.3205
 6656SOL     OW26551   1.861   5.874   0.686 -0.5231 -0.2620 -0.1053
 6656SOL    HW126552   1.909   5.830   0.610 -0.1266  0.6912 -0.4245
 6656SOL    HW226553   1.908   5.852   0.772 -1.2966 -1.7932 -0.0583
 6657SOL     OW26554   9.566   0.036   3.385  0.0874 -0.2223 -0.7404
 6657SOL    HW126555   9.524   0.126   3.374 -1.0908 -0.6656  0.0670
 6657SOL    HW226556   9.621   0.035   3.469  0.1031 -0.2504 -0.7512
 6658SOL     OW26557   0.699   3.021   1.595 -0.1104 -0.1332  0.3900
 6658SOL    HW126558   0.660   2.956   1.659 -0.4457 -2.0095 -1.6589
 6658SOL    HW226559   0.795   2.998   1.579 -0.5125 -0.8327 -1.1595
 6659SOL     OW26560   9.957   6.193   1.649 -0.5201  0.3355 -0.8571
 6659SOL    HW126561   9.930   6.154   1.737  0.4844  1.8227  0.1293
 6659SOL    HW226562   9.923   6.287   1.643  1.3965  1.0423 -1.0487
 6660SOL     OW26563   4.617   9.373   3.691 -0.2348  0.0034  0.2223
 6660SOL    HW126564   4.651   9.395   3.782  2.2717  1.2451 -0.9801
 6660SOL    HW226565   4.683   9.316   3.643 -1.6409 -0.8403 -0.7653
 6661SOL     OW26566   3.179   9.756   2.437 -0.1183 -0.0061 -0.4654
 6661SOL    HW126567   3.148   9.851   2.428 -0.5115  0.0259  1.1603
 6661SOL    HW226568   3.189   9.716   2.346  0.7245  1.8101 -1.2047
 6662SOL     OW26569   3.773   9.440   3.392  0.3607 -0.1835 -0.6755
 6662SOL    HW126570   3.790   9.406   3.300 -0.5042  2.2743 -1.7854
 6662SOL    HW226571   3.857   9.482   3.428  1.0931 -2.3644  0.2340
 6663SOL     OW26572   2.049   6.740   0.580  0.2714  0.2417  0.0969
 6663SOL    HW126573   2.027   6.814   0.643  1.1684 -0.0556  0.7633
 6663SOL    HW226574   1.980   6.737   0.507 -1.4103 -0.0981  1.6542
 6664SOL     OW26575   1.160   8.552   1.420  0.5314 -0.4119 -0.1889
 6664SOL    HW126576   1.157   8.651   1.427  1.1967 -0.2795 -1.5814
 6664SOL    HW226577   1.087   8.520   1.359  0.3552 -0.7728  0.2089
 6667SOL     OW26578   1.302   9.148   2.376  0.5791  0.0796  0.7389
 6667SOL    HW126579   1.216   9.119   2.336  1.6435 -1.4386 -0.5069
 6667SOL    HW226580   1.295   9.148   2.476 -1.5040  2.0760  0.6407
 6668SOL     OW26581   2.851   5.841   1.384 -0.7084  0.2162  0.1940
 6668SOL    HW126582   2.920   5.769   1.382 -0.3378  0.6036 -0.7557
 6668SOL    HW226583   2.814   5.855   1.292 -1.6580  0.4001  0.5899
 6669SOL     OW26584   4.624   7.859   0.055  0.2717 -0.0758 -0.0763
 6669SOL    HW126585   4.545   7.919   0.063  0.9527  0.8965 -0.4598
 6669SOL    HW226586   4.664   7.868  -0.037  1.4950  0.3324  0.4761
 6671SOL     OW26587   0.915   6.896   2.753  0.4521  0.3146 -0.0643
 6671SOL    HW126588   0.947   6.920   2.661  1.7999  1.2121  0.6260
 6671SOL    HW226589   0.973   6.824   2.791 -0.7108 -0.7648 -0.2796
 6672SOL     OW26590   6.808   9.402   3.239 -0.1443 -0.4629  0.5248
 6672SOL    HW126591   6.779   9.480   3.183 -0.2179 -1.0626 -0.2774
 6672SOL    HW226592   6.908   9.395   3.236 -0.0206  0.5074  1.8255
 6673SOL     OW26593   1.678   6.470   0.704  0.3600 -0.3200  0.7776
 6673SOL    HW126594   1.775   6.482   0.725  0.4362  2.5176 -0.9470
 6673SOL    HW226595   1.667   6.448   0.607 -0.8507  2.5645  0.2013
 6674SOL     OW26596   8.220   2.256   0.410 -0.2618  0.6934  0.0136
 6674SOL    HW126597   8.126   2.280   0.436 -0.6573 -0.8946  0.0670
 6674SOL    HW226598   8.221   2.168   0.364  1.3520  0.1826  0.9662
 6676SOL     OW26599   3.328   1.424   1.856 -0.2492  0.0939 -0.7213
 6676SOL    HW126600   3.317   1.334   1.814 -0.7341  0.5671 -1.6219
 6676SOL    HW226601   3.426   1.443   1.868 -0.1678 -1.1822  0.8805
 6677SOL     OW26602   3.391   9.432   2.802  0.3508 -0.0595  0.0290
 6677SOL    HW126603   3.489   9.425   2.823  0.7658  0.5149 -1.5953
 6677SOL    HW226604   3.376   9.510   2.742 -0.9610 -0.7793 -0.6019
 6678SOL     OW26605   8.456   9.727   0.894  0.2791  0.3165 -0.3685
 6678SOL    HW126606   8.367   9.766   0.873  0.5527  1.6104  0.8037
 6678SOL    HW226607   8.510   9.793   0.947 -0.5180 -2.8921  4.7866
 6679SOL     OW26608   3.578   4.766   0.387 -0.5748 -0.1700  0.2466
 6679SOL    HW126609   3.670   4.775   0.425 -0.8008 -0.9747  0.9806
 6679SOL    HW226610   3.552   4.670   0.383 -0.7250 -0.0770 -1.5604
 6680SOL     OW26611   4.072   2.662   0.042 -0.1768  0.5259 -0.2590
 6680SOL    HW126612   4.055   2.596   0.115  1.8811  1.0093  0.7060
 6680SOL    HW226613   4.023   2.747   0.061 -1.6519 -0.2039 -0.7514
 6681SOL     OW26614   9.770   6.703   2.327  0.0533  0.2623 -0.0929
 6681SOL    HW126615   9.790   6.617   2.280 -1.7174  0.6816 -1.6710
 6681SOL    HW226616   9.854   6.738   2.369  0.9462 -1.8592 -0.0260
 6682SOL     OW26617   8.680   8.533   0.040 -0.2315  0.0481 -0.3829
 6682SOL    HW126618   8.604   8.496   0.093 -0.2211  0.2199 -0.2453
 6682SOL    HW226619   8.745   8.577   0.103  0.7275 -1.4039 -0.3343
 6684SOL     OW26620   8.564   7.070   1.935 -0.5135  0.4967 -0.3940
 6684SOL    HW126621   8.550   6.972   1.950 -1.7182  0.5287 -1.2262
 6684SOL    HW226622   8.518   7.122   2.007  1.2873  0.4392  0.8410
 6686SOL     OW26623   3.296   8.832   1.156  0.6972 -0.7407 -0.2372
 6686SOL    HW126624   3.340   8.750   1.118  0.4017 -1.3232  0.6611
 6686SOL    HW226625   3.362   8.906   1.162  0.8994 -0.8242 -1.3295
 6687SOL     OW26626   2.048   8.379   2.998  0.0653 -0.2178 -0.0201
 6687SOL    HW126627   2.022   8.320   2.921  0.2964 -1.5978  0.9359
 6687SOL    HW226628   1.973   8.441   3.019 -0.2803 -0.3241 -0.8966
 6688SOL     OW26629   2.541   0.096   0.527 -0.1236 -0.4430  0.0505
 6688SOL    HW126630   2.489   0.175   0.495  0.5506 -0.2758 -0.6403
 6688SOL    HW226631   2.498   0.060   0.610  0.0721  1.1997  0.9019
 6689SOL     OW26632   1.897   1.113   3.540 -0.0206 -0.1606  0.1080
 6689SOL    HW126633   1.974   1.074   3.590 -0.6879 -1.7602 -0.0879
 6689SOL    HW226634   1.812   1.098   3.591 -0.2840  1.1430  0.0803
 6690SOL     OW26635   6.620   7.677   2.310 -0.9113 -0.3370 -0.4405
 6690SOL    HW126636   6.568   7.721   2.236 -1.1672 -0.8215 -0.5481
 6690SOL    HW226637   6.560   7.665   2.390 -0.9661 -0.8974 -0.5647
 6692SOL     OW26638   2.220   3.592   2.216 -0.1826 -0.0318 -0.2587
 6692SOL    HW126639   2.148   3.568   2.281  1.1439  0.3043  1.3631
 6692SOL    HW226640   2.218   3.528   2.140 -0.1442 -1.9859  1.3483
 6693SOL     OW26641   0.897   1.891   0.020  0.6705 -0.4746 -0.1619
 6693SOL    HW126642   0.968   1.856   0.081 -1.3249 -0.3778  2.3019
 6693SOL    HW226643   0.823   1.824   0.014 -1.5308  1.6679  1.7193
 6695SOL     OW26644   8.935   1.188   3.300 -0.3467 -0.3507 -0.3753
 6695SOL    HW126645   8.866   1.117   3.291 -0.5186 -0.0177 -1.7786
 6695SOL    HW226646   8.910   1.250   3.375 -0.7353 -1.1377  0.1565
 6696SOL     OW26647   1.831   7.940   1.832 -0.3459 -0.1158 -0.1797
 6696SOL    HW126648   1.881   7.959   1.916 -0.5346  1.8950 -0.4977
 6696SOL    HW226649   1.877   7.983   1.754  0.1637 -2.4638 -1.2348
 6697SOL     OW26650   1.234   4.906   3.140  0.0574 -0.2348  0.5216
 6697SOL    HW126651   1.177   4.868   3.068  1.5310  0.5332 -1.0887
 6697SOL    HW226652   1.232   5.006   3.135  2.7582 -0.1878 -0.6166
 6699SOL     OW26653   9.027   3.317   2.075  0.0470 -0.1178 -0.2999
 6699SOL    HW126654   9.033   3.230   2.125 -0.7424 -0.1701 -0.2868
 6699SOL    HW226655   9.026   3.393   2.140 -0.3562 -0.1575 -0.2537
 6701SOL     OW26656   9.254   1.758   1.112  0.5704  0.3762  0.0657
 6701SOL    HW126657   9.183   1.697   1.075  1.0265 -0.2759  0.2643
 6701SOL    HW226658   9.211   1.831   1.165  0.1751 -1.4885  2.3697
 6702SOL     OW26659   6.354   7.961   3.106  0.6520 -0.2827  0.0682
 6702SOL    HW126660   6.299   8.005   3.177 -0.2989 -2.1361  0.5130
 6702SOL    HW226661   6.312   7.977   3.017  2.6087  3.2525 -0.3220
 6703SOL     OW26662   2.891   0.407   1.902 -0.2788 -0.2337  0.0264
 6703SOL    HW126663   2.932   0.479   1.846  0.3001 -0.9904 -0.5342
 6703SOL    HW226664   2.886   0.322   1.849  0.0496 -0.8962  1.0351
 6704SOL     OW26665   0.073   3.001   0.170 -0.7313  0.2094  0.2691
 6704SOL    HW126666   0.010   3.037   0.100  0.7210  0.8546 -0.7263
 6704SOL    HW226667   0.130   2.929   0.129  0.9057  1.3772  0.4782
 6705SOL     OW26668   1.261   0.837   0.484 -0.1979 -0.2452 -0.1482
 6705SOL    HW126669   1.214   0.870   0.566  0.1943 -0.5438  0.1954
 6705SOL    HW226670   1.226   0.747   0.460  1.8460 -1.5035  1.4694
 6706SOL     OW26671   0.328   0.881   1.886 -0.1970 -0.2815 -0.4597
 6706SOL    HW126672   0.275   0.907   1.966  2.0611  0.8093  0.7350
 6706SOL    HW226673   0.334   0.959   1.824 -2.0267 -1.1544 -1.7753
 6707SOL     OW26674   7.706   5.774   3.079  0.0318 -0.3022 -0.6660
 6707SOL    HW126675   7.771   5.729   3.140  1.5540  1.7378 -0.7073
 6707SOL    HW226676   7.671   5.857   3.123 -0.8666 -0.2092 -1.5267
 6708SOL     OW26677   6.967   9.610   2.636  0.8207  0.0255  0.2103
 6708SOL    HW126678   6.904   9.544   2.677  0.6397  0.3372  0.4294
 6708SOL    HW226679   7.022   9.652   2.707 -0.3496  1.4731  0.2715
 6709SOL     OW26680   9.032   8.819   3.051  0.5513  0.1096  0.5617
 6709SOL    HW126681   9.018   8.721   3.059  1.6783  0.0725  2.4295
 6709SOL    HW226682   9.019   8.847   2.956  3.9078 -2.4582 -0.7707
 6710SOL     OW26683   4.823   8.581   0.264  0.1240  0.1669  0.4071
 6710SOL    HW126684   4.878   8.609   0.185  0.2794 -1.1812  0.0320
 6710SOL    HW226685   4.730   8.618   0.255  0.2453  0.3212 -0.2222
 6711SOL     OW26686   1.495   2.731   3.750  0.3582 -0.4885  0.3375
 6711SOL    HW126687   1.415   2.790   3.758  0.1750 -0.5973 -0.6273
 6711SOL    HW226688   1.547   2.734   3.835 -0.3976 -0.0257  0.7912
 6713SOL     OW26689   9.817   7.541   2.294  1.0961  0.3082 -0.1730
 6713SOL    HW126690   9.873   7.619   2.321  2.0238 -0.7463  1.1013
 6713SOL    HW226691   9.755   7.517   2.369 -0.4679  0.9149 -1.2395
 6715SOL     OW26692   5.467   9.567   2.730 -0.5666  0.1792  0.6889
 6715SOL    HW126693   5.488   9.473   2.706  2.9633  0.4549  2.3859
 6715SOL    HW226694   5.430   9.570   2.823 -2.1349  0.3469  0.0735
 6717SOL     OW26695   7.994   8.565   3.182  0.0835 -0.2220  0.5699
 6717SOL    HW126696   7.951   8.477   3.204 -0.2319  0.0422  1.0018
 6717SOL    HW226697   8.085   8.548   3.143 -1.2762 -0.8963 -2.5233
 6718SOL     OW26698   8.239   9.645   1.310 -0.3573  0.3569  0.6706
 6718SOL    HW126699   8.164   9.702   1.276  0.6013  1.3640  0.2222
 6718SOL    HW226700   8.253   9.568   1.247  0.4188  1.3768 -0.4238
 6719SOL     OW26701   2.827   3.757   1.698  0.3778  0.9355  0.3290
 6719SOL    HW126702   2.785   3.683   1.646  0.8630  1.4806 -0.8478
 6719SOL    HW226703   2.835   3.729   1.794  0.2018 -0.3856 -0.0221
 6720SOL     OW26704   5.003   0.056   2.554  0.0383 -0.2862 -0.2422
 6720SOL    HW126705   5.044  -0.035   2.549  1.2405  0.2877 -0.9485
 6720SOL    HW226706   5.022   0.106   2.470  0.7794  1.2134  0.7994
 6722SOL     OW26707   4.702   2.954   0.539  0.1706 -0.5697  0.0540
 6722SOL    HW126708   4.639   2.879   0.522  0.3213 -0.1296 -2.6548
 6722SOL    HW226709   4.711   2.969   0.638 -3.8222 -0.7403  0.5069
 6723SOL     OW26710   8.390   8.075   3.588  0.6216 -0.0319  0.4335
 6723SOL    HW126711   8.386   8.154   3.649 -0.0726 -0.4082  0.8927
 6723SOL    HW226712   8.301   8.029   3.588  0.7615 -0.3110 -0.5005
 6724SOL     OW26713   4.293   9.172   1.765  0.4610 -0.4160  0.3252
 6724SOL    HW126714   4.297   9.251   1.704 -1.2727 -0.1287  0.5317
 6724SOL    HW226715   4.257   9.093   1.715  0.7318 -0.6529  0.5049
 6725SOL     OW26716   8.441   9.494   1.007 -0.6675  0.0348 -0.2817
 6725SOL    HW126717   8.455   9.584   0.966 -1.2011 -0.1359 -0.8613
 6725SOL    HW226718   8.345   9.484   1.033  0.1025  1.0287  3.2069
 6726SOL     OW26719   6.342   0.205   2.445 -0.0811  0.0174 -0.3219
 6726SOL    HW126720   6.388   0.292   2.461 -0.5166  0.1093  0.4442
 6726SOL    HW226721   6.393   0.131   2.488  0.0628 -0.0540 -0.6124
 6727SOL     OW26722   9.352   7.646   2.328 -0.0729  0.1507 -0.1990
 6727SOL    HW126723   9.373   7.594   2.245 -0.5757 -1.6557  0.7766
 6727SOL    HW226724   9.255   7.668   2.330  0.0777  0.8711 -0.4457
 6728SOL     OW26725   3.793   4.216   2.077 -0.0081  0.5429 -0.0033
 6728SOL    HW126726   3.714   4.252   2.126  1.2123  2.0788  0.8904
 6728SOL    HW226727   3.860   4.181   2.143  0.4816  0.1479 -0.6988
 6730SOL     OW26728   0.636   1.355   2.855  0.0701  0.0196 -0.5956
 6730SOL    HW126729   0.623   1.264   2.895 -0.7941  0.3025 -0.2141
 6730SOL    HW226730   0.573   1.367   2.778  0.3710  0.1988 -0.8143
 6731SOL     OW26731   0.594   1.038   1.155 -0.5272  0.0347 -0.1525
 6731SOL    HW126732   0.675   1.029   1.097 -0.0239 -0.0360  0.5535
 6731SOL    HW226733   0.552   0.948   1.169 -0.0774 -0.0946  0.3964
 6734SOL     OW26734   0.287   6.641   2.784  0.4202 -0.4275 -0.2915
 6734SOL    HW126735   0.264   6.731   2.821 -1.8880 -1.0387 -0.1368
 6734SOL    HW226736   0.373   6.609   2.824  0.2783  0.8828  1.0995
 6735SOL     OW26737   0.099   5.163   2.565  0.2849 -0.0853  0.1840
 6735SOL    HW126738   0.109   5.178   2.467 -2.2197 -0.4300 -0.1630
 6735SOL    HW226739   0.122   5.248   2.614  1.5634  0.0832 -0.6749
 6737SOL     OW26740   3.022   9.123   0.750 -0.3268  0.4108 -0.2022
 6737SOL    HW126741   2.994   9.037   0.708  0.9580 -0.0887 -0.0440
 6737SOL    HW226742   3.058   9.185   0.680  1.9179 -0.4641  0.1453
 6738SOL     OW26743   1.164   3.862   0.425 -0.4424  0.0556  0.0199
 6738SOL    HW126744   1.177   3.871   0.523  1.7969  0.9438 -0.3298
 6738SOL    HW226745   1.069   3.837   0.406 -1.1500  0.8693  2.3365
 6740SOL     OW26746   8.098   2.535   2.104  0.0302 -0.5019 -0.1705
 6740SOL    HW126747   8.097   2.435   2.105 -0.3566 -0.5216 -1.3230
 6740SOL    HW226748   8.137   2.566   2.017  0.9588  0.3555  0.5419
 6741SOL     OW26749   0.674   4.394   0.462  0.2089  0.3447  0.1704
 6741SOL    HW126750   0.616   4.327   0.415  0.6030 -0.9915  1.5514
 6741SOL    HW226751   0.627   4.428   0.544 -0.0945  1.9734 -0.6509
 6742SOL     OW26752   0.130   5.792   3.406  0.1440 -0.2821 -0.7208
 6742SOL    HW126753   0.230   5.795   3.399  0.2335 -0.5581  0.3932
 6742SOL    HW226754   0.099   5.697   3.401 -0.0366 -0.2265 -0.6486
 6743SOL     OW26755   8.198   7.318   2.388  0.0895 -0.1956  0.6133
 6743SOL    HW126756   8.192   7.227   2.348 -1.1291 -0.0794  0.5124
 6743SOL    HW226757   8.212   7.386   2.315 -1.5616 -0.0429  0.4204
 6744SOL     OW26758   3.620   5.045   0.156  0.3025 -0.7305  0.7380
 6744SOL    HW126759   3.660   5.100   0.083 -2.1666  1.3381  0.8682
 6744SOL    HW226760   3.628   4.948   0.133  0.9805 -0.1680 -1.5304
 6745SOL     OW26761   4.682   4.725   1.152 -0.6069  0.1808  0.8097
 6745SOL    HW126762   4.742   4.736   1.072  0.0265 -1.1050  1.1091
 6745SOL    HW226763   4.689   4.806   1.210  0.7405  0.0984  0.7759
 6749SOL     OW26764   7.774   3.480   0.597  0.3930  0.1890  0.2427
 6749SOL    HW126765   7.811   3.571   0.614 -1.4708  0.6935  1.7836
 6749SOL    HW226766   7.848   3.413   0.605  1.7094  1.5093 -0.5432
 6750SOL     OW26767   6.327   7.560   2.955 -0.3563 -0.0067  0.0726
 6750SOL    HW126768   6.279   7.634   3.002 -1.4390 -1.1637  0.8241
 6750SOL    HW226769   6.286   7.545   2.865  0.8815  1.3384 -0.7413
 6751SOL     OW26770   9.578   7.871   1.789 -0.3473  0.3452  0.3068
 6751SOL    HW126771   9.601   7.780   1.754 -0.2233  0.4512  0.1123
 6751SOL    HW226772   9.659   7.913   1.830 -0.3706  0.4201  0.2785
 6752SOL     OW26773   8.645   9.340   0.942  0.4843  0.3914  0.0930
 6752SOL    HW126774   8.574   9.410   0.954 -0.4986 -0.7708  1.2202
 6752SOL    HW226775   8.716   9.352   1.010 -0.6512 -0.8548  1.5180
 6753SOL     OW26776   3.091   2.992   2.098  0.3614 -0.4209 -0.8320
 6753SOL    HW126777   3.100   3.049   2.180  2.1279 -1.3685 -0.3364
 6753SOL    HW226778   3.001   2.949   2.096 -0.2480  0.8176 -0.1824
 6754SOL     OW26779   6.116   0.853   2.269  0.2711  0.3777  0.2763
 6754SOL    HW126780   6.215   0.858   2.275  0.2093  2.8885 -0.1196
 6754SOL    HW226781   6.086   0.885   2.179 -0.7666 -3.3110 -0.7855
 6755SOL     OW26782   3.050   4.646   2.891  0.3287  0.4546  0.2042
 6755SOL    HW126783   3.021   4.593   2.812 -0.1194 -0.5865  1.0534
 6755SOL    HW226784   2.989   4.725   2.902  0.4914  0.6927 -0.5770
 6756SOL     OW26785   2.794   3.995   0.238 -0.3306 -0.4382  0.2849
 6756SOL    HW126786   2.711   3.965   0.193 -1.7754  1.2113  1.7569
 6756SOL    HW226787   2.793   3.966   0.334  1.1877 -1.1379  0.1082
 6757SOL     OW26788   4.392   3.101   0.063  0.2776  0.0896  0.3197
 6757SOL    HW126789   4.303   3.132   0.096 -0.2711 -0.4877 -0.5866
 6757SOL    HW226790   4.448   3.072   0.140 -0.9879 -1.2632  0.7559
 6758SOL     OW26791   3.129   4.382   1.833  0.3870  0.5349  0.3862
 6758SOL    HW126792   3.084   4.388   1.923 -1.2879 -2.2127 -0.2089
 6758SOL    HW226793   3.223   4.415   1.841 -0.3590  2.3124  2.6635
 6760SOL     OW26794   2.070   7.104   2.914 -0.3592  0.0098 -0.1741
 6760SOL    HW126795   2.002   7.153   2.860 -1.1539 -1.0876 -0.2046
 6760SOL    HW226796   2.035   7.012   2.935  0.8212 -0.3112  0.4146
 6761SOL     OW26797   8.292   1.582   1.867 -0.4105  0.0991 -0.4266
 6761SOL    HW126798   8.242   1.509   1.820 -0.0243 -1.2355  1.1498
 6761SOL    HW226799   8.335   1.544   1.950 -0.5759  2.2344  0.6640
 6762SOL     OW26800   9.248   7.027   0.723  0.6482 -0.1075  0.2575
 6762SOL    HW126801   9.334   7.077   0.717 -0.3482  1.4758 -1.6252
 6762SOL    HW226802   9.192   7.048   0.643 -0.7777 -2.4705  0.5891
 6763SOL     OW26803   1.157   5.972   1.490  0.3563  1.0652  0.3564
 6763SOL    HW126804   1.222   5.932   1.555  0.5315  0.7622 -0.0058
 6763SOL    HW226805   1.068   5.984   1.536  0.1255 -0.3102  0.2958
 6764SOL     OW26806   8.555   2.796   2.300  0.3272  0.0136  0.5610
 6764SOL    HW126807   8.496   2.754   2.369 -0.1676 -0.5348 -0.1834
 6764SOL    HW226808   8.530   2.762   2.209  0.5769  1.1701  0.0423
 6766SOL     OW26809   4.515   7.242   2.468 -0.8924 -0.2523 -0.2745
 6766SOL    HW126810   4.447   7.209   2.534  0.1226  0.5754  1.1950
 6766SOL    HW226811   4.607   7.230   2.506 -0.2093 -1.0675 -2.1203
 6767SOL     OW26812   7.753   2.153   1.295  0.7005  0.2226  0.6418
 6767SOL    HW126813   7.725   2.076   1.238  1.4692  0.8382 -0.5835
 6767SOL    HW226814   7.757   2.236   1.240  0.4248  1.0411  1.8310
 6768SOL     OW26815   3.094   5.359   2.314  0.1836 -0.8682  0.2753
 6768SOL    HW126816   3.065   5.265   2.297 -0.2849 -0.6073 -0.3978
 6768SOL    HW226817   3.038   5.398   2.388  1.4367 -1.6200  1.6632
 6769SOL     OW26818   7.787   1.107   1.314  0.2447  0.1375 -0.0598
 6769SOL    HW126819   7.734   1.179   1.269  1.5345  0.0359 -1.8404
 6769SOL    HW226820   7.877   1.143   1.339  0.7357 -0.7166 -0.5598
 6770SOL     OW26821   7.146   7.698   2.149  0.1290 -0.4365 -0.3271
 6770SOL    HW126822   7.152   7.679   2.247  0.2800  0.0601 -0.2372
 6770SOL    HW226823   7.195   7.783   2.128  0.5158 -0.7922 -0.9096
 6771SOL     OW26824   9.036   2.772   3.422 -0.4038 -0.2985 -0.0613
 6771SOL    HW126825   9.081   2.771   3.511  0.6600 -0.7146 -0.5979
 6771SOL    HW226826   8.937   2.782   3.435 -0.6167 -3.4984  1.2894
 6772SOL     OW26827   7.672   0.033   0.484  0.5056  0.5041 -0.3578
 6772SOL    HW126828   7.698   0.039   0.581  2.3805  0.0193 -0.7993
 6772SOL    HW226829   7.573   0.044   0.475  0.3262  0.7042  1.5987
 6773SOL     OW26830   8.540   7.697   2.255 -0.7623 -0.5606 -0.5367
 6773SOL    HW126831   8.505   7.728   2.167 -0.5275 -0.5322 -0.6217
 6773SOL    HW226832   8.478   7.725   2.328 -0.8701 -0.4355 -0.6779
 6775SOL     OW26833   1.067   9.008   3.765  0.3813  0.4052 -0.1912
 6775SOL    HW126834   1.114   9.039   3.682  1.2380 -0.5813 -0.0812
 6775SOL    HW226835   0.970   8.995   3.746  0.9658 -2.0476 -1.6578
 6777SOL     OW26836   2.277   4.961   0.579  0.1818 -0.0791 -0.4664
 6777SOL    HW126837   2.367   4.996   0.604  0.0891  0.0565 -0.3202
 6777SOL    HW226838   2.229   4.930   0.661  0.7484 -1.7142 -0.7382
 6778SOL     OW26839   3.727   0.933   3.287  0.0275 -0.0301 -0.2205
 6778SOL    HW126840   3.805   0.878   3.316  1.0954  0.6901 -1.6672
 6778SOL    HW226841   3.661   0.874   3.240  0.1873 -0.4550  0.0873
 6779SOL     OW26842   6.645   9.335   2.520 -0.4372  0.3829  0.3403
 6779SOL    HW126843   6.591   9.380   2.449 -0.1572  1.2249  0.6502
 6779SOL    HW226844   6.695   9.258   2.481 -0.9273  0.3366 -0.1992
 6782SOL     OW26845   9.556   5.602   1.961 -0.0379  0.0068 -0.0100
 6782SOL    HW126846   9.584   5.638   2.050 -1.2153  0.7464  0.0641
 6782SOL    HW226847   9.459   5.579   1.963 -0.6913  2.4229 -1.8605
 6784SOL     OW26848   3.320   6.005   2.473 -0.2094 -0.4085 -0.0712
 6784SOL    HW126849   3.246   6.019   2.539 -0.5605  0.7831 -0.6991
 6784SOL    HW226850   3.375   6.089   2.466  0.5806 -0.9458 -0.3697
 6785SOL     OW26851   0.169   8.468   2.446 -0.3215  0.1749 -0.5807
 6785SOL    HW126852   0.178   8.566   2.465  0.6934 -0.3315  1.5880
 6785SOL    HW226853   0.184   8.452   2.348  0.4800  2.0671 -0.7894
 6786SOL     OW26854   3.907   7.023   0.366  0.4509 -0.1484  0.6586
 6786SOL    HW126855   3.919   7.122   0.365  3.2407 -0.4632 -0.4333
 6786SOL    HW226856   3.852   6.996   0.286 -0.4493  0.5114  1.0424
 6787SOL     OW26857   1.597   8.388   2.496 -0.5483 -0.0637 -0.5713
 6787SOL    HW126858   1.613   8.463   2.561 -0.9136 -1.1025  0.7546
 6787SOL    HW226859   1.507   8.399   2.454 -0.0149  1.0122 -1.4730
 6788SOL     OW26860   1.843   3.075   0.309  0.5469 -0.5793  0.3619
 6788SOL    HW126861   1.933   3.038   0.285  0.8448 -1.5834  2.9232
 6788SOL    HW226862   1.825   3.059   0.406 -1.8864  0.7105  0.1539
 6789SOL     OW26863   2.304   7.941   0.959 -0.0755  0.2859  0.3642
 6789SOL    HW126864   2.312   8.038   0.982  0.2265  0.3686 -0.0894
 6789SOL    HW226865   2.208   7.912   0.967 -0.1806  0.6465  0.3879
 6790SOL     OW26866   9.226   2.098   3.397  0.0743 -0.1968 -0.3668
 6790SOL    HW126867   9.323   2.106   3.419  0.1666  1.4736 -1.3045
 6790SOL    HW226868   9.203   2.164   3.325 -2.2366  0.9330  1.3755
 6791SOL     OW26869   5.000   1.819   2.599 -0.5264 -0.0779 -0.1264
 6791SOL    HW126870   4.996   1.898   2.661  1.1130 -1.3117  1.6148
 6791SOL    HW226871   4.963   1.845   2.510 -0.6727  2.4465  0.6219
 6792SOL     OW26872   0.965   7.436   1.611 -0.1763  0.0412  0.1267
 6792SOL    HW126873   0.999   7.354   1.566  0.9618  0.8441 -0.4895
 6792SOL    HW226874   0.875   7.460   1.574  0.3811  0.2236 -1.1081
 6793SOL     OW26875   2.178   2.475   1.479  1.1066  0.1778 -0.2339
 6793SOL    HW126876   2.108   2.494   1.547  1.6851  0.8167  0.1921
 6793SOL    HW226877   2.218   2.561   1.447  0.5632 -0.0944 -1.6828
 6794SOL     OW26878   3.485   5.716   3.139  0.2560  0.1092  0.3042
 6794SOL    HW126879   3.583   5.705   3.130  0.4540  1.2619  0.9177
 6794SOL    HW226880   3.448   5.761   3.057  0.3770  0.4480  0.4327
 6796SOL     OW26881   8.378   2.020   2.900 -0.2735 -0.1621 -0.4438
 6796SOL    HW126882   8.461   2.076   2.902 -1.1830  1.2171 -0.4776
 6796SOL    HW226883   8.386   1.946   2.967  0.5587  0.5851  0.3039
 6797SOL     OW26884   2.127   7.813   3.291  0.4031 -0.0667 -0.0996
 6797SOL    HW126885   2.203   7.784   3.233  0.6127  0.1760  0.0524
 6797SOL    HW226886   2.064   7.737   3.304  0.2443 -0.0565 -0.8273
 6798SOL     OW26887   3.621   7.621   1.515  0.7372 -0.8714 -0.4402
 6798SOL    HW126888   3.715   7.608   1.484  1.0851  1.5062 -0.4550
 6798SOL    HW226889   3.615   7.704   1.570 -1.4130 -0.8525 -0.6474
 6799SOL     OW26890   7.729   3.097   0.792 -0.0151  0.1014  0.2498
 6799SOL    HW126891   7.706   3.000   0.788  0.2965  0.0468 -0.2756
 6799SOL    HW226892   7.646   3.152   0.777 -0.1300 -0.0859  0.1989
 6800SOL     OW26893   9.005   6.582   1.845  0.5603  0.0188  1.1944
 6800SOL    HW126894   9.067   6.633   1.785  0.5702  0.1562  1.3226
 6800SOL    HW226895   9.044   6.492   1.864  1.2076  0.4881  2.1016
 6801SOL     OW26896   0.426   1.358   2.670 -0.2749  0.1213  0.0012
 6801SOL    HW126897   0.396   1.419   2.743  0.9635  0.0498  0.5703
 6801SOL    HW226898   0.431   1.409   2.584  0.0555  0.6487  0.3315
 6802SOL     OW26899   4.910   3.100   0.382  0.3884 -0.0499  0.0106
 6802SOL    HW126900   4.848   3.077   0.457 -0.9568 -0.9703 -1.3583
 6802SOL    HW226901   4.905   3.199   0.365 -0.3578 -0.0413  0.2270
 6803SOL     OW26902   3.264   6.846   2.372 -0.5157 -0.3643 -0.8473
 6803SOL    HW126903   3.348   6.818   2.418  0.5145  1.1994 -1.7314
 6803SOL    HW226904   3.192   6.859   2.440  0.3623 -0.2791  0.0777
 6804SOL     OW26905   2.414   8.035   2.915  0.0317  0.2703  0.5249
 6804SOL    HW126906   2.318   8.053   2.893 -0.3322 -0.5602  1.4049
 6804SOL    HW226907   2.467   8.031   2.830 -1.0942 -1.4870 -0.1193
 6805SOL     OW26908   8.022   9.240   1.025 -0.2877  0.6913  0.5021
 6805SOL    HW126909   7.953   9.168   1.033 -1.0261  1.4895  1.3275
 6805SOL    HW226910   8.058   9.241   0.931 -1.5677  0.4359 -0.0065
 6806SOL     OW26911   3.472   7.695   1.280 -0.2195 -0.0060 -0.1582
 6806SOL    HW126912   3.518   7.662   1.362 -0.0220 -1.3955 -0.8206
 6806SOL    HW226913   3.539   7.711   1.208 -0.3320  1.7055  0.0992
 6807SOL     OW26914   3.497   2.510   1.663 -0.0570  0.5006  0.6283
 6807SOL    HW126915   3.569   2.517   1.731 -0.0933  0.2906  0.6909
 6807SOL    HW226916   3.460   2.417   1.664  1.1810 -0.0286 -0.9413
 6809SOL     OW26917   3.429   3.477   2.495 -0.1205  0.2260 -0.7231
 6809SOL    HW126918   3.466   3.481   2.587 -0.7438  2.3072 -0.5390
 6809SOL    HW226919   3.498   3.505   2.429  0.3472 -1.3280 -0.9142
 6811SOL     OW26920   5.201   7.758   2.007  0.2692 -0.3045  0.6869
 6811SOL    HW126921   5.140   7.831   2.037  1.5827  0.6229  1.1642
 6811SOL    HW226922   5.155   7.703   1.937 -0.0921  2.1644 -1.1242
 6812SOL     OW26923   2.807   4.242   0.125  0.1469  0.3719  0.0389
 6812SOL    HW126924   2.805   4.151   0.167 -0.8890  0.9093  1.1735
 6812SOL    HW226925   2.729   4.295   0.157  2.3521  2.7224  1.7838
 6815SOL     OW26926   9.024   9.001   3.511 -0.4487 -0.3494  0.1958
 6815SOL    HW126927   9.046   8.948   3.593  2.1903 -1.9793 -1.4983
 6815SOL    HW226928   9.106   9.048   3.478 -1.6207  0.7708 -1.1995
 6816SOL     OW26929   9.211   7.644   1.940 -0.0327  0.2518 -0.0066
 6816SOL    HW126930   9.179   7.566   1.886  0.9284  0.2393 -0.5751
 6816SOL    HW226931   9.133   7.700   1.967 -0.5326  0.3093 -1.5052
 6817SOL     OW26932   7.797   9.630   2.269 -0.0821 -0.4728  0.0046
 6817SOL    HW126933   7.731   9.602   2.199 -0.9965  1.5763  0.0048
 6817SOL    HW226934   7.761   9.610   2.360 -0.6443  0.4685 -0.0018
 6819SOL     OW26935   0.024   0.223   1.355 -0.5249 -0.3054  0.2326
 6819SOL    HW126936  -0.038   0.188   1.426 -1.3560  0.9438  0.1345
 6819SOL    HW226937  -0.024   0.223   1.267 -0.1485  0.0075  0.0313
 6820SOL     OW26938   0.003   6.048   1.090 -0.4086 -0.2538 -0.0119
 6820SOL    HW126939  -0.049   6.009   1.166  0.6296  0.7909  1.2618
 6820SOL    HW226940   0.024   5.976   1.023 -0.2212 -1.4591  1.3326
 6821SOL     OW26941   8.286   1.132   3.359  0.1114  0.5739  0.1123
 6821SOL    HW126942   8.309   1.070   3.285  1.5995 -0.1494  1.1501
 6821SOL    HW226943   8.329   1.101   3.444 -1.6914  1.2859  1.3395
 6824SOL     OW26944   1.317   8.399   3.131  0.0871  0.0914 -0.2563
 6824SOL    HW126945   1.387   8.466   3.155 -0.3485 -0.1101  1.6908
 6824SOL    HW226946   1.351   8.307   3.149 -0.9220  0.0295  1.4529
 6825SOL     OW26947   9.588   9.648   1.128 -0.5093 -1.2382 -0.1781
 6825SOL    HW126948   9.622   9.630   1.036  0.6742  0.5740 -0.1153
 6825SOL    HW226949   9.652   9.611   1.195 -0.8885 -1.7060 -0.0685
 6827SOL     OW26950   2.292   6.644   2.082 -0.2261  0.2060 -0.3835
 6827SOL    HW126951   2.281   6.620   1.986 -0.8775 -0.9576 -0.0342
 6827SOL    HW226952   2.244   6.729   2.101 -0.4040  0.2468 -1.0138
 6828SOL     OW26953   3.909   5.051   2.651  0.2090 -0.1506  0.1854
 6828SOL    HW126954   3.863   5.092   2.729  0.4995 -1.8541  1.2761
 6828SOL    HW226955   3.843   5.003   2.593  0.3544 -1.1982  0.8680
 6831SOL     OW26956   3.051   0.561   2.179  0.4208 -0.6293  0.1017
 6831SOL    HW126957   3.046   0.462   2.170  1.7999 -0.7700  0.8936
 6831SOL    HW226958   2.971   0.602   2.134  0.0375 -2.0639 -0.5517
 6832SOL     OW26959   9.373   3.190   2.835 -0.4067  0.1513 -0.5917
 6832SOL    HW126960   9.314   3.257   2.791 -0.1297  1.8088  1.4678
 6832SOL    HW226961   9.456   3.177   2.781 -0.6264  1.2116 -1.1899
 6833SOL     OW26962   3.734   5.307   3.078  0.2985 -0.0593 -0.7375
 6833SOL    HW126963   3.810   5.257   3.036  0.3509 -0.5909 -0.0151
 6833SOL    HW226964   3.658   5.244   3.095  0.5783 -0.0239  0.7052
 6834SOL     OW26965   2.110   0.830   3.117  0.5704 -0.0899 -0.6654
 6834SOL    HW126966   2.026   0.881   3.099  1.0331  1.0481  0.2905
 6834SOL    HW226967   2.168   0.831   3.036  0.0332 -0.1283 -1.0463
 6835SOL     OW26968   9.146   0.757   3.152 -0.3105  0.5062  0.2689
 6835SOL    HW126969   9.151   0.847   3.196 -2.8225  1.9330 -2.2153
 6835SOL    HW226970   9.185   0.762   3.060 -1.1407 -0.7550 -0.1744
 6836SOL     OW26971   4.740   8.458   2.556 -0.6779  0.3456  0.5668
 6836SOL    HW126972   4.706   8.368   2.582  1.8997 -0.0874  2.5385
 6836SOL    HW226973   4.675   8.500   2.491 -2.1990 -2.6359  0.0606
 6837SOL     OW26974   1.118   2.509   0.855  0.2673 -0.3055  0.6442
 6837SOL    HW126975   1.128   2.601   0.892 -1.1152  0.3182 -0.4880
 6837SOL    HW226976   1.026   2.475   0.874  0.1515 -0.7060 -0.5829
 6838SOL     OW26977   8.919   9.354   3.277  0.1408  0.5702  0.0933
 6838SOL    HW126978   8.836   9.302   3.257  1.6274 -1.7382 -0.3429
 6838SOL    HW226979   8.957   9.391   3.191  0.3382  0.3868  0.1004
 6839SOL     OW26980   4.480   9.429   2.066 -0.1180 -0.0276  0.1219
 6839SOL    HW126981   4.545   9.497   2.030 -1.2015  1.1432  0.3156
 6839SOL    HW226982   4.387   9.459   2.045 -0.6893 -0.4082  2.0521
 6840SOL     OW26983   2.738   6.877   2.462 -0.3290  0.0269  0.0188
 6840SOL    HW126984   2.728   6.806   2.392 -2.3941 -0.1231  0.4316
 6840SOL    HW226985   2.812   6.851   2.525 -0.6629 -1.4629 -0.1843
 6842SOL     OW26986   6.864   8.962   3.292  0.5064 -0.5329  0.1962
 6842SOL    HW126987   6.801   9.019   3.238 -0.3813 -1.4544  0.2302
 6842SOL    HW226988   6.840   8.968   3.389  0.8522 -0.4093  0.2729
 6843SOL     OW26989   5.039   0.210   3.159 -0.6030 -0.1329 -0.1381
 6843SOL    HW126990   5.136   0.208   3.134 -0.5289 -2.0622  0.2141
 6843SOL    HW226991   4.990   0.141   3.107 -1.1912 -1.3554  1.9530
 6844SOL     OW26992   8.445   3.600   3.255 -0.1313 -0.1448 -0.3208
 6844SOL    HW126993   8.354   3.618   3.293  0.2427 -3.3202  2.2863
 6844SOL    HW226994   8.438   3.576   3.159 -1.9738  0.1380 -0.2611
 6845SOL     OW26995   9.127   0.913   1.433  0.0098 -0.1589 -0.0439
 6845SOL    HW126996   9.060   0.927   1.360 -1.5537 -0.1028  1.3829
 6845SOL    HW226997   9.088   0.942   1.520  1.5777 -0.9758  0.9485
 6847SOL     OW26998   9.584   0.521   3.420 -0.2632  0.1991 -0.3702
 6847SOL    HW126999   9.642   0.588   3.465 -0.9449 -0.0327  0.8704
 6847SOL    HW227000   9.606   0.518   3.323  1.4994  0.4320 -0.0009
 6848SOL     OW27001   0.226   9.382   1.861 -0.6739 -0.0745 -0.1287
 6848SOL    HW127002   0.321   9.403   1.882 -1.1989  0.4299  1.8568
 6848SOL    HW227003   0.185   9.458   1.809 -0.7755  0.9760  1.4672
 6849SOL     OW27004   7.902   2.031   0.294  0.1332 -0.1106  0.4569
 6849SOL    HW127005   7.864   2.044   0.203 -1.3958 -0.1808  1.0569
 6849SOL    HW227006   8.001   2.032   0.290  0.0734  0.2667 -1.1484
 6850SOL     OW27007   8.066   5.043   0.133 -0.4793 -0.1279 -0.0682
 6850SOL    HW127008   8.065   5.140   0.105 -0.0885 -0.3021 -0.6927
 6850SOL    HW227009   8.010   4.990   0.069  1.2331 -0.6904 -1.1398
 6851SOL     OW27010   8.235   1.692   2.808  0.3175 -0.0591 -0.1223
 6851SOL    HW127011   8.264   1.621   2.743  0.1997  0.5731 -0.8679
 6851SOL    HW227012   8.165   1.750   2.765 -0.2551 -0.0571  0.8057
 6852SOL     OW27013   6.676   0.539   3.220 -0.2885 -0.6417  0.0630
 6852SOL    HW127014   6.619   0.457   3.220 -1.1854 -0.0704  2.7955
 6852SOL    HW227015   6.767   0.517   3.257 -0.3773 -0.5228  0.3559
 6854SOL     OW27016   3.054   3.568   3.060 -0.1225 -0.5591  0.3669
 6854SOL    HW127017   3.092   3.644   3.112 -2.0888 -0.3375  1.5364
 6854SOL    HW227018   3.000   3.604   2.984 -1.4872 -0.7369  1.2278
 6856SOL     OW27019   8.529   6.869   3.296  0.3502  0.0992  0.9300
 6856SOL    HW127020   8.433   6.878   3.322 -0.1964  2.6393 -1.7233
 6856SOL    HW227021   8.538   6.810   3.216  1.0609 -0.4268  1.3829
 6857SOL     OW27022   2.568   6.823   1.021 -0.4051 -0.0891  0.0098
 6857SOL    HW127023   2.481   6.817   0.972  0.0191  0.6735 -0.8742
 6857SOL    HW227024   2.608   6.914   1.005 -0.1633  0.1037  1.6325
 6858SOL     OW27025   0.731   1.547   3.533 -0.3059 -0.2747  0.3058
 6858SOL    HW127026   0.795   1.501   3.472  0.0202 -0.5731  0.8684
 6858SOL    HW227027   0.668   1.604   3.480  0.2345 -0.2168 -0.2715
 6860SOL     OW27028   0.033   8.797   0.671  0.6120  0.0961  0.1105
 6860SOL    HW127029  -0.006   8.748   0.749  1.9335 -0.6961  0.2971
 6860SOL    HW227030   0.001   8.755   0.586  1.1334 -0.6202  0.2630
 6861SOL     OW27031   8.418   0.946   1.742 -0.1353  0.0095  0.2979
 6861SOL    HW127032   8.425   0.923   1.839 -0.7710  0.3361  0.4202
 6861SOL    HW227033   8.421   1.046   1.731  2.9796 -0.0782 -0.2460
 6862SOL     OW27034   4.181   2.223   1.058  0.0235 -0.1873  0.1702
 6862SOL    HW127035   4.178   2.183   1.150  0.4212 -0.7242 -0.0471
 6862SOL    HW227036   4.100   2.194   1.007  0.5544 -1.1257 -0.1503
 6864SOL     OW27037   8.847   7.125   0.904 -0.6975  0.3416  0.6634
 6864SOL    HW127038   8.823   7.218   0.879 -0.7139  0.4081  0.9281
 6864SOL    HW227039   8.820   7.062   0.831 -0.4100  0.5802  0.3531
 6865SOL     OW27040   8.452   8.615   2.510 -0.0356  0.2153 -0.6439
 6865SOL    HW127041   8.500   8.696   2.475  0.4635  0.1815 -0.0406
 6865SOL    HW227042   8.516   8.558   2.561 -0.3795 -0.5925 -1.1069
 6866SOL     OW27043   9.656   3.038   2.435  0.3700 -0.2597 -0.3759
 6866SOL    HW127044   9.723   2.987   2.489  0.4934  0.3567  0.0672
 6866SOL    HW227045   9.581   3.067   2.495 -1.4259 -2.8242 -1.2834
 6867SOL     OW27046   4.486   4.278   1.608 -0.4130  0.0577 -0.3125
 6867SOL    HW127047   4.414   4.268   1.539 -0.9489 -0.5547  0.3146
 6867SOL    HW227048   4.562   4.330   1.571 -0.0001 -1.6247 -1.9037
 6868SOL     OW27049   1.943   0.614   2.248 -0.0331  0.3408 -0.6595
 6868SOL    HW127050   1.994   0.575   2.324  0.4300  1.7585 -0.2242
 6868SOL    HW227051   2.006   0.636   2.173 -0.0537  1.6158 -0.3209
 6869SOL     OW27052   3.888   6.753   1.984  0.1369 -0.1846  0.3775
 6869SOL    HW127053   3.897   6.835   1.927 -0.1808 -1.4110 -1.4546
 6869SOL    HW227054   3.794   6.746   2.018  0.1544  0.1822  0.5064
 6870SOL     OW27055   7.325   3.326   0.391 -0.6413 -0.0831 -0.4225
 6870SOL    HW127056   7.400   3.372   0.343 -0.0355 -0.7712 -0.1467
 6870SOL    HW227057   7.271   3.272   0.325 -0.4427 -0.1827 -0.5046
 6871SOL     OW27058   4.719   2.620   0.883  0.7753 -0.1247 -0.1100
 6871SOL    HW127059   4.806   2.611   0.836  0.9558 -0.9123  0.3834
 6871SOL    HW227060   4.647   2.575   0.829  0.7679  0.0356 -0.2358
 6872SOL     OW27061   1.989   6.339   3.324  0.3767 -0.1601 -0.5237
 6872SOL    HW127062   1.966   6.429   3.287 -1.3490 -0.6175 -0.6279
 6872SOL    HW227063   1.941   6.269   3.272  1.1907 -1.0908 -0.0279
 6873SOL     OW27064   5.989   8.753   1.863  0.3051 -0.0333  0.3576
 6873SOL    HW127065   5.997   8.705   1.775 -1.6700 -2.1029  1.2714
 6873SOL    HW227066   6.010   8.850   1.849  0.1543 -0.3327 -2.3775
 6874SOL     OW27067   4.105   7.378   2.393  0.2754 -0.0876 -0.1901
 6874SOL    HW127068   4.041   7.436   2.343  0.3150 -0.3991 -0.6030
 6874SOL    HW227069   4.111   7.410   2.488  0.4236  0.6842 -0.4531
 6875SOL     OW27070   5.369   3.425   1.040  0.2527  0.0012  0.5318
 6875SOL    HW127071   5.345   3.519   1.016 -1.2545 -0.8047 -1.2100
 6875SOL    HW227072   5.325   3.400   1.127 -1.4516  0.0745 -0.2935
 6876SOL     OW27073   3.400   5.528   1.382  0.1029  0.5389 -0.7758
 6876SOL    HW127074   3.401   5.628   1.378  0.6102  0.6450  1.3675
 6876SOL    HW227075   3.490   5.495   1.410 -0.1892 -0.4991 -1.0467
 6877SOL     OW27076   9.299   1.077   2.055  0.7371  0.2458 -0.0103
 6877SOL    HW127077   9.305   1.020   1.973  0.3644  0.4752 -0.2013
 6877SOL    HW227078   9.277   1.020   2.134  0.1325  0.1494 -0.2415
 6878SOL     OW27079   9.262   1.816   3.417  0.5441 -0.2995  0.4668
 6878SOL    HW127080   9.292   1.821   3.512 -0.5435  2.3102  0.7150
 6878SOL    HW227081   9.234   1.907   3.386 -2.6027 -1.7694 -1.2183
 6879SOL     OW27082   0.702   2.581   1.771  0.1565  0.5427 -0.4478
 6879SOL    HW127083   0.658   2.540   1.691 -0.3228  0.6361 -0.2379
 6879SOL    HW227084   0.663   2.540   1.854 -0.1385  1.2414 -0.2411
 6880SOL     OW27085   0.951   5.643   1.591  0.2208  0.3801 -0.0890
 6880SOL    HW127086   0.961   5.544   1.600  3.1715  0.5165 -1.1969
 6880SOL    HW227087   0.891   5.678   1.663 -1.1984 -2.2319  0.0647
 6881SOL     OW27088   2.166   3.738   0.176 -0.5130  0.1548  0.7699
 6881SOL    HW127089   2.123   3.652   0.205 -2.6980  1.3889  1.2737
 6881SOL    HW227090   2.195   3.789   0.257 -1.7050  1.1262  0.5941
 6882SOL     OW27091   0.190   0.163   2.888 -0.3112  0.3537  0.1713
 6882SOL    HW127092   0.172   0.071   2.855  0.4943  0.3854 -0.3836
 6882SOL    HW227093   0.197   0.162   2.988  3.0176 -0.8087 -0.0211
 6883SOL     OW27094   0.828   6.616   1.651  0.3216  0.2110 -0.4064
 6883SOL    HW127095   0.750   6.656   1.700  2.4298  0.8827  2.5290
 6883SOL    HW227096   0.826   6.517   1.662 -0.1676  0.2110 -0.4503
 6884SOL     OW27097   0.987   0.029   1.108  0.4293  0.2499 -0.0955
 6884SOL    HW127098   0.983   0.015   1.009  0.8973  3.8236 -0.6878
 6884SOL    HW227099   0.943   0.115   1.131  0.2354 -0.5997  2.8564
 6885SOL     OW27100   3.062   1.765   0.517  0.1242 -0.0012  0.4812
 6885SOL    HW127101   3.134   1.733   0.456  0.4620  0.9374  0.3849
 6885SOL    HW227102   3.083   1.857   0.549 -1.3363  0.5251 -0.0218
 6886SOL     OW27103   7.770   5.236   0.057 -0.0204  0.4367  0.6610
 6886SOL    HW127104   7.708   5.296   0.005 -1.3887 -1.3689  0.1346
 6886SOL    HW227105   7.716   5.169   0.107  1.5129 -0.9542  0.4776
 6887SOL     OW27106   3.506   0.007   1.334  0.3072 -0.1651 -0.2319
 6887SOL    HW127107   3.453  -0.057   1.278 -0.6874  1.6317 -1.4063
 6887SOL    HW227108   3.586  -0.039   1.371 -0.2612 -2.0135 -1.2473
 6888SOL     OW27109   0.951   7.962   2.681 -0.0564  0.6659 -0.9232
 6888SOL    HW127110   1.029   7.979   2.742  0.1026 -2.2143 -0.2791
 6888SOL    HW227111   0.867   7.992   2.725  0.2042 -0.2431  0.2338
 6889SOL     OW27112   0.268   8.078   2.758  0.4947 -0.3383  0.0694
 6889SOL    HW127113   0.320   8.026   2.691  0.3076  0.4842 -0.7237
 6889SOL    HW227114   0.307   8.064   2.849  0.6184 -1.6214 -0.1771
 6890SOL     OW27115   2.277   3.296   3.394  0.0858  0.4299  0.1418
 6890SOL    HW127116   2.183   3.329   3.386  0.9108  2.3244 -2.1179
 6890SOL    HW227117   2.276   3.200   3.425 -2.5272  0.6836  0.9775
 6891SOL     OW27118   1.857   3.987   0.733  0.2733  0.1841 -0.1460
 6891SOL    HW127119   1.898   4.037   0.809 -0.8197  1.2629 -0.2475
 6891SOL    HW227120   1.905   3.900   0.720  0.9925  0.3655  1.2387
 6892SOL     OW27121   1.490   3.366   3.618  0.2918  0.2882 -0.3844
 6892SOL    HW127122   1.538   3.341   3.702  0.1400 -0.5720 -0.5508
 6892SOL    HW227123   1.545   3.342   3.539  0.0864  0.3684 -0.5536
 6893SOL     OW27124   8.059   3.379   0.563 -0.6604 -0.3629 -0.1654
 6893SOL    HW127125   8.154   3.368   0.534 -0.6078 -0.3843  0.0104
 6893SOL    HW227126   8.005   3.301   0.531 -0.3719 -0.9433  0.7286
 6894SOL     OW27127   0.936   2.263   0.234 -0.6312  0.7961  0.0333
 6894SOL    HW127128   0.928   2.269   0.135 -1.6866  0.6267  0.1071
 6894SOL    HW227129   0.988   2.181   0.259  0.3856  1.2989 -0.4057
 6895SOL     OW27130   5.643   0.390   3.745 -0.2821 -0.0634 -0.5022
 6895SOL    HW127131   5.602   0.433   3.826 -0.2479 -0.3218 -0.3457
 6895SOL    HW227132   5.684   0.302   3.772  1.4700  0.7561 -0.4036
 6896SOL     OW27133   3.846   0.184   0.457  0.0208 -0.4792  0.2093
 6896SOL    HW127134   3.797   0.267   0.485  0.4109 -0.7047  1.5931
 6896SOL    HW227135   3.806   0.105   0.502 -1.9605 -1.4105 -3.0126
 6897SOL     OW27136   8.460   3.146   2.108 -0.1496  0.2426  0.1076
 6897SOL    HW127137   8.443   3.050   2.131  0.7360  0.0895  0.1467
 6897SOL    HW227138   8.406   3.172   2.028 -0.8483 -0.1167  0.4612
 6898SOL     OW27139   7.142   8.578   2.639 -0.2645 -0.2349 -0.1837
 6898SOL    HW127140   7.065   8.519   2.663 -0.3633  0.4679  1.2433
 6898SOL    HW227141   7.166   8.636   2.717  1.9822 -0.7340 -0.4482
 6899SOL     OW27142   8.583   1.888   2.051  0.1576 -0.5447  0.2449
 6899SOL    HW127143   8.657   1.902   1.986  0.9519 -1.1078  1.0244
 6899SOL    HW227144   8.574   1.791   2.073  0.1745 -0.3228  1.2984
 6900SOL     OW27145   2.631   6.272   0.468  0.4545  0.6482  0.2889
 6900SOL    HW127146   2.619   6.174   0.455  1.4833  0.4793  0.5790
 6900SOL    HW227147   2.637   6.292   0.566 -0.6810  1.1192  0.2755
 6901SOL     OW27148   3.244   1.086   0.129 -0.3634  0.6413  0.3813
 6901SOL    HW127149   3.233   0.998   0.082 -1.5019  1.4860 -0.9853
 6901SOL    HW227150   3.294   1.149   0.070  0.6797  0.8359  1.4661
 6902SOL     OW27151   4.591   1.542   3.350  0.1952  0.1173 -0.3674
 6902SOL    HW127152   4.635   1.457   3.377  0.0513  0.3591  0.6323
 6902SOL    HW227153   4.513   1.560   3.409  0.1263  0.8654 -0.6770
 6903SOL     OW27154   7.596   5.604   3.403 -0.3229  0.3922 -0.0940
 6903SOL    HW127155   7.617   5.507   3.417 -1.3283  0.0237 -1.0731
 6903SOL    HW227156   7.680   5.658   3.413  0.3632 -0.6434 -0.1538
 6904SOL     OW27157   3.655   8.808   2.379 -0.3122  0.1930 -0.0716
 6904SOL    HW127158   3.627   8.718   2.414  1.2841  0.3417  1.6920
 6904SOL    HW227159   3.628   8.878   2.445  0.8477  0.7186 -0.1623
 6905SOL     OW27160   1.330   3.188   1.071  0.0252 -0.0914 -0.5387
 6905SOL    HW127161   1.385   3.214   0.991 -0.0300  0.2384 -0.4700
 6905SOL    HW227162   1.306   3.270   1.123 -0.2204 -0.2728 -0.3658
 6906SOL     OW27163   2.872   9.800   0.229 -0.7216 -0.2514 -0.1977
 6906SOL    HW127164   2.821   9.864   0.286  0.5071 -0.3782  1.0552
 6906SOL    HW227165   2.970   9.820   0.235 -0.3415 -2.1117  0.0492
 6907SOL     OW27166   0.131   0.510   0.842 -0.3470  0.0268 -0.0606
 6907SOL    HW127167   0.094   0.601   0.857 -1.1614 -0.6322  2.1272
 6907SOL    HW227168   0.087   0.468   0.763  0.3565  1.6698 -1.3549
 6909SOL     OW27169   9.314   1.219   3.342  0.2161 -0.6783 -0.7368
 6909SOL    HW127170   9.400   1.267   3.323 -0.2539  0.1029 -0.9486
 6909SOL    HW227171   9.311   1.194   3.439  0.4865 -0.2900 -0.6230
 6910SOL     OW27172   3.824   3.321   2.124 -0.1527  0.5247 -0.8633
 6910SOL    HW127173   3.805   3.372   2.208 -0.5341  0.1717 -0.7360
 6910SOL    HW227174   3.765   3.240   2.120  0.2786  0.2242 -1.1833
 6911SOL     OW27175   8.469   7.820   2.969 -0.2527  0.3799  0.0302
 6911SOL    HW127176   8.425   7.741   2.926  1.0025  0.3937 -1.3182
 6911SOL    HW227177   8.406   7.897   2.969  0.1612  0.7625 -3.0002
 6912SOL     OW27178   1.857   4.821   0.811 -0.1815 -0.1402 -0.3202
 6912SOL    HW127179   1.871   4.724   0.830 -0.2604  0.0164  0.5416
 6912SOL    HW227180   1.839   4.833   0.713  1.2426 -0.8384 -0.6927
 6914SOL     OW27181   7.658   0.779   3.081  0.1501  0.5536  0.4170
 6914SOL    HW127182   7.644   0.722   3.000  0.9486 -0.9934  1.3546
 6914SOL    HW227183   7.750   0.817   3.081 -0.6097  2.5195 -0.5863
 6915SOL     OW27184   3.022   2.074   1.338  0.0190 -0.1052  0.1982
 6915SOL    HW127185   3.096   2.141   1.336 -0.7137  0.6944 -2.5204
 6915SOL    HW227186   2.937   2.116   1.304 -1.2637 -1.5011  1.5694
 6916SOL     OW27187   5.915   0.048   1.457  0.2725 -0.1693  0.1254
 6916SOL    HW127188   5.977   0.105   1.403  0.1263  1.1203  1.2805
 6916SOL    HW227189   5.883   0.100   1.536 -1.2572 -1.2677  0.2507
 6918SOL     OW27190   0.218   7.489   0.800  0.1094  0.0488  0.4834
 6918SOL    HW127191   0.187   7.436   0.879  0.0370  0.1498  0.5221
 6918SOL    HW227192   0.304   7.450   0.767 -0.5349 -0.8123 -0.1998
 6920SOL     OW27193   2.402   4.411   1.016 -0.2153  0.3600 -0.1288
 6920SOL    HW127194   2.421   4.503   1.049 -3.5991  0.6342  1.3006
 6920SOL    HW227195   2.328   4.371   1.071 -0.4911 -2.2831 -2.3175
 6921SOL     OW27196   4.878   1.886   2.379 -0.3334 -0.0651  0.1097
 6921SOL    HW127197   4.895   1.893   2.281 -0.2421  2.4066  0.2727
 6921SOL    HW227198   4.789   1.927   2.401 -0.1751 -0.2254  1.1175
 6922SOL     OW27199   9.857   2.973   3.628  0.4924  0.5475 -0.2235
 6922SOL    HW127200   9.792   3.043   3.599  0.7072  1.3250  1.1144
 6922SOL    HW227201   9.809   2.899   3.675  0.4220  0.4723 -0.4137
 6923SOL     OW27202   3.576   0.798   1.406  0.1295  0.4825  0.6918
 6923SOL    HW127203   3.609   0.836   1.492  0.7491  0.9586  0.2454
 6923SOL    HW227204   3.609   0.704   1.396 -1.5242 -0.2499  1.8646
 6924SOL     OW27205   9.209   2.651   1.974 -0.3314  0.3400  0.5514
 6924SOL    HW127206   9.187   2.714   2.048  1.3896  0.5973  0.8445
 6924SOL    HW227207   9.293   2.601   1.995  0.3260  0.6087 -1.3444
 6925SOL     OW27208   0.269   9.043   2.468 -0.3908 -0.4378  0.7580
 6925SOL    HW127209   0.180   8.999   2.473 -0.5006 -0.3644 -0.3970
 6925SOL    HW227210   0.297   9.050   2.372 -0.0686  1.4012  0.9778
 6926SOL     OW27211   1.017   3.182   0.914  0.1075  0.2841 -0.1560
 6926SOL    HW127212   1.090   3.136   0.864  0.0827 -0.4624  0.4727
 6926SOL    HW227213   1.054   3.223   0.998  0.1243  1.3968 -0.6985
 6929SOL     OW27214   0.117   0.749   0.541  0.1347  0.1897  0.0469
 6929SOL    HW127215   0.161   0.798   0.616  0.2354 -0.7315  0.5927
 6929SOL    HW227216   0.019   0.745   0.557 -0.1737  2.2020 -1.1463
 6931SOL     OW27217   2.033   5.374   1.225  0.3136 -0.2454  1.0444
 6931SOL    HW127218   1.940   5.408   1.241  0.3478  0.3980 -0.0660
 6931SOL    HW227219   2.052   5.375   1.127  1.5154 -0.3158  1.2742
 6932SOL     OW27220   8.690   8.956   0.955  0.1147  0.4680 -0.1551
 6932SOL    HW127221   8.763   9.001   0.903  0.6855 -0.2020  0.0473
 6932SOL    HW227222   8.717   8.951   1.052 -0.1873  0.2037 -0.0838
 6933SOL     OW27223   9.599   2.568   1.639  0.3785  0.1756  0.3929
 6933SOL    HW127224   9.618   2.634   1.567 -1.6005  3.3182  2.6448
 6933SOL    HW227225   9.516   2.517   1.616 -0.3733  1.3284  0.5171
 6934SOL     OW27226   7.740   4.142   0.412 -0.3421  0.2558  0.0286
 6934SOL    HW127227   7.739   4.124   0.314  0.5800  1.4295 -0.2018
 6934SOL    HW227228   7.696   4.230   0.430  0.7495  0.6960  0.5344
 6935SOL     OW27229   3.784   9.476   0.269  0.3902  0.2097  0.2106
 6935SOL    HW127230   3.828   9.424   0.342 -1.2474 -1.6060 -0.0234
 6935SOL    HW227231   3.839   9.469   0.186  0.8186 -0.1239  0.5176
 6936SOL     OW27232   5.567   0.736   2.551  0.1000  0.3495 -0.1529
 6936SOL    HW127233   5.630   0.691   2.615 -0.9310 -0.5021  0.2827
 6936SOL    HW227234   5.617   0.761   2.468  1.6241  2.1138  1.2422
 6937SOL     OW27235   4.953   2.123   1.105 -0.0983 -0.4251 -0.0724
 6937SOL    HW127236   4.962   2.168   1.016  1.7211 -1.7874 -0.6202
 6937SOL    HW227237   5.020   2.162   1.168 -0.4678 -0.4002  0.3039
 6938SOL     OW27238   7.325   3.084   0.142  0.2475 -0.1385  0.1727
 6938SOL    HW127239   7.243   3.096   0.197 -0.2754 -0.3560 -0.5512
 6938SOL    HW227240   7.405   3.083   0.201 -0.2915 -0.1359  0.9027
 6940SOL     OW27241   2.558   6.983   2.828 -0.3415 -0.4104 -0.2241
 6940SOL    HW127242   2.551   6.894   2.783  0.8391 -0.8314  0.3897
 6940SOL    HW227243   2.478   7.039   2.806 -0.5182 -1.1754 -1.5913
 6942SOL     OW27244   2.943   2.455   1.530  0.2060  0.0260  0.0093
 6942SOL    HW127245   2.885   2.464   1.449 -0.8707  0.9181  0.8575
 6942SOL    HW227246   3.011   2.528   1.531 -0.1840  0.3931  0.2140
 6943SOL     OW27247   0.241   4.258   3.260  0.2125  0.2428 -0.6632
 6943SOL    HW127248   0.332   4.287   3.289  0.6025  0.3400 -1.9456
 6943SOL    HW227249   0.247   4.167   3.217 -0.7843 -1.1711  2.0759
 6945SOL     OW27250   2.933   4.030   1.139  0.1792  0.0586 -0.1328
 6945SOL    HW127251   2.842   4.002   1.110 -0.0547 -0.1027  0.7354
 6945SOL    HW227252   2.986   3.949   1.164  0.0137  0.2673  0.9206
 6947SOL     OW27253   0.781   3.210   0.016  0.2705 -0.2090  0.1871
 6947SOL    HW127254   0.764   3.266   0.098  0.5822  0.6288 -0.3075
 6947SOL    HW227255   0.803   3.270  -0.060  1.6581 -1.0676 -0.1065
 6948SOL     OW27256   1.984   4.847   3.442  0.1136 -0.2886  0.2500
 6948SOL    HW127257   1.913   4.850   3.372 -0.8192  0.1186  1.2128
 6948SOL    HW227258   2.066   4.804   3.404 -0.3838 -0.0626 -1.0934
 6949SOL     OW27259   7.279   9.257   1.247 -0.5581 -0.3564 -0.1016
 6949SOL    HW127260   7.187   9.219   1.241  0.0871 -1.7986 -1.2295
 6949SOL    HW227261   7.295   9.294   1.339 -2.3053  0.0808  0.0396
 6950SOL     OW27262   9.676   1.160   1.173 -0.3006  0.1295 -0.4410
 6950SOL    HW127263   9.630   1.182   1.259  0.4861 -2.1346  0.6113
 6950SOL    HW227264   9.697   1.062   1.171  1.9643  0.6082 -2.0993
 6951SOL     OW27265   2.802   2.917   2.477  0.0561 -0.1431  0.1472
 6951SOL    HW127266   2.784   2.866   2.561  0.3826 -0.6499 -0.0879
 6951SOL    HW227267   2.796   3.015   2.496 -0.7460 -0.2653  0.5637
 6952SOL     OW27268   4.144   1.565   2.998  0.2089  0.2336  0.2434
 6952SOL    HW127269   4.089   1.525   2.925  1.3394 -0.4687 -0.2368
 6952SOL    HW227270   4.097   1.645   3.035 -0.9385 -0.1185 -0.4316
 6953SOL     OW27271   3.051   8.376   2.410  0.0018  0.1326  0.2251
 6953SOL    HW127272   3.004   8.463   2.427  1.6160  1.3614 -1.4295
 6953SOL    HW227273   3.010   8.332   2.330 -0.3195 -0.2750  0.6113
 6955SOL     OW27274   9.333   6.822   1.592  0.6241 -0.0100  0.1224
 6955SOL    HW127275   9.385   6.861   1.667  1.0727  0.0842 -0.2343
 6955SOL    HW227276   9.373   6.850   1.505  0.1673 -0.1957 -0.1529
 6956SOL     OW27277   1.005   6.603   1.316 -0.5645  0.1915 -0.3826
 6956SOL    HW127278   0.983   6.675   1.382  0.9392  0.7758 -0.5076
 6956SOL    HW227279   0.982   6.514   1.355 -4.9599  0.8308 -1.2200
 6958SOL     OW27280   9.467   4.310   1.525 -0.0989  0.5727 -0.0024
 6958SOL    HW127281   9.484   4.239   1.594  0.6441  0.4481 -0.3047
 6958SOL    HW227282   9.480   4.271   1.434  0.1766  1.0584 -0.1732
 6959SOL     OW27283   9.354   8.144   3.064 -0.3171  0.0135  0.1930
 6959SOL    HW127284   9.269   8.193   3.044 -0.4101 -0.8958 -1.8320
 6959SOL    HW227285   9.405   8.130   2.979  0.4560 -2.0168  0.9562
 6961SOL     OW27286   2.558   8.409   1.563  0.4595 -0.8615 -0.1994
 6961SOL    HW127287   2.615   8.360   1.629  0.1188 -0.8379  0.1141
 6961SOL    HW227288   2.479   8.352   1.540  0.1673 -0.5381  0.0144
 6963SOL     OW27289   2.519   5.016   0.691  0.0984 -0.4363 -0.0068
 6963SOL    HW127290   2.604   5.063   0.668 -0.2646  1.4270  2.2026
 6963SOL    HW227291   2.532   4.963   0.775 -0.3145 -2.0251 -0.9125
 6964SOL     OW27292   2.389   1.240   3.076 -0.0085 -0.0751  0.0053
 6964SOL    HW127293   2.363   1.185   3.155 -1.6529  2.0665  1.0087
 6964SOL    HW227294   2.342   1.205   2.995  1.4502 -2.0876 -0.0185
 6965SOL     OW27295   1.862   9.291   2.628 -0.0432  0.3530 -0.3828
 6965SOL    HW127296   1.794   9.217   2.629 -0.0932  0.3935  1.2335
 6965SOL    HW227297   1.823   9.371   2.582 -0.7890  0.0992 -0.2060
 6966SOL     OW27298   0.772   1.286   1.078  0.5865 -0.2431 -0.1419
 6966SOL    HW127299   0.699   1.307   1.143  0.1165 -1.4767 -0.2560
 6966SOL    HW227300   0.846   1.237   1.125 -0.5811 -2.7901 -0.8791
 6968SOL     OW27301   4.545   0.304   0.927  0.3724  0.1062 -0.1477
 6968SOL    HW127302   4.532   0.207   0.947 -2.4029  0.4595 -0.1125
 6968SOL    HW227303   4.631   0.335   0.968  1.3159 -2.3233 -0.1950
 6969SOL     OW27304   1.422   1.030   1.327 -0.3156 -0.3360  0.0487
 6969SOL    HW127305   1.443   1.086   1.408  2.3794  1.3277 -1.7115
 6969SOL    HW227306   1.373   1.086   1.260 -2.0762 -1.5607  0.2723
 6970SOL     OW27307   9.632   5.276   2.146 -0.3323 -0.0370 -0.4494
 6970SOL    HW127308   9.594   5.205   2.087 -2.0191  2.1085 -2.0506
 6970SOL    HW227309   9.731   5.280   2.134 -0.3058 -1.6485 -0.8495
 6971SOL     OW27310   5.021   8.165   2.506  0.0205 -0.2393 -0.1119
 6971SOL    HW127311   5.106   8.212   2.482 -0.4082  0.8668  0.4572
 6971SOL    HW227312   5.040   8.069   2.525  0.7282 -0.6183 -2.5580
 6972SOL     OW27313   4.251   3.535   0.888  0.3892  0.0023  0.0274
 6972SOL    HW127314   4.242   3.535   0.988  2.8608 -1.4310  0.2863
 6972SOL    HW227315   4.347   3.534   0.864 -0.2025 -0.4036 -2.3948
 6973SOL     OW27316   2.927   2.330   1.963 -0.0589 -0.6611 -0.4545
 6973SOL    HW127317   2.948   2.246   2.013  0.7148 -0.0427  0.2665
 6973SOL    HW227318   2.908   2.308   1.867  0.5520 -1.6110 -0.3638
 6974SOL     OW27319   3.575   0.337   2.220  0.3331 -0.0761  0.2340
 6974SOL    HW127320   3.492   0.391   2.210  1.2919  0.9808 -2.5888
 6974SOL    HW227321   3.616   0.354   2.310 -0.5747  2.1674  0.2490
 6975SOL     OW27322   1.496   6.894   2.519 -0.1506  0.3980 -0.4111
 6975SOL    HW127323   1.512   6.800   2.548 -0.9965  0.4512  0.2586
 6975SOL    HW227324   1.435   6.894   2.440  1.0753  0.3169 -1.3675
 6978SOL     OW27325   0.897   3.812   0.322 -0.1532  0.1065  0.3551
 6978SOL    HW127326   0.939   3.751   0.255 -2.2621  0.1215 -1.0207
 6978SOL    HW227327   0.801   3.787   0.333 -0.4045  1.6154  1.6249
 6980SOL     OW27328   3.262   2.234   1.362 -0.7291 -0.2180  0.2737
 6980SOL    HW127329   3.280   2.308   1.298  0.1941 -1.7682 -1.2925
 6980SOL    HW227330   3.339   2.170   1.362 -1.1879 -0.8034  2.1452
 6981SOL     OW27331   9.048   3.670   1.245  0.7456  0.0819 -0.0086
 6981SOL    HW127332   9.031   3.760   1.285  0.7963 -0.4066  1.1193
 6981SOL    HW227333   9.065   3.603   1.317 -0.5844 -1.1246 -0.7696
 6982SOL     OW27334   2.775   2.299   1.706  0.5220  0.2913  0.7954
 6982SOL    HW127335   2.838   2.361   1.660 -1.9243  1.1227 -1.5533
 6982SOL    HW227336   2.754   2.222   1.645 -0.8856  0.1341  1.4565
 6983SOL     OW27337   3.619   5.154   3.714  0.4763 -0.0256  0.1308
 6983SOL    HW127338   3.708   5.117   3.743 -0.7163 -0.6128  3.2152
 6983SOL    HW227339   3.563   5.080   3.677  0.6302  0.0178 -0.1906
 6984SOL     OW27340   0.553   0.134   1.066 -0.3147 -0.2754 -0.2838
 6984SOL    HW127341   0.465   0.142   1.112 -0.7720 -0.0012 -1.1920
 6984SOL    HW227342   0.613   0.208   1.095 -1.5451  1.5000 -2.1807
 6985SOL     OW27343   0.507   4.255   1.306  0.3396 -0.0956 -0.1049
 6985SOL    HW127344   0.579   4.238   1.238 -0.1144 -2.0173 -0.1186
 6985SOL    HW227345   0.457   4.171   1.323  0.4478  0.3702  2.6505
 6986SOL     OW27346   0.503   6.794   2.455 -0.4050  0.3546 -0.0508
 6986SOL    HW127347   0.528   6.737   2.377 -0.4027  0.9438 -0.4931
 6986SOL    HW227348   0.581   6.804   2.516 -0.5054 -0.3806  0.2000
 6987SOL     OW27349   3.922   9.335   2.853  0.3158 -0.2185  0.0227
 6987SOL    HW127350   3.943   9.248   2.807  0.2996 -1.0640  1.5798
 6987SOL    HW227351   3.998   9.361   2.912 -0.0454  0.3721  0.2310
 6988SOL     OW27352   3.718   0.470   3.004  0.3386 -0.3713 -0.1949
 6988SOL    HW127353   3.663   0.395   2.968 -1.2125  0.8833 -0.5107
 6988SOL    HW227354   3.718   0.466   3.104  1.5172 -1.6494 -0.2310
 6989SOL     OW27355   8.565   5.495   0.773 -0.7102 -0.0192 -0.0504
 6989SOL    HW127356   8.648   5.487   0.830 -0.2538 -0.9087 -0.8311
 6989SOL    HW227357   8.489   5.525   0.831  0.3550  1.7774  0.4953
 6992SOL     OW27358   9.596   3.790   0.763 -0.0357  0.2944 -0.3237
 6992SOL    HW127359   9.562   3.846   0.839  1.3517 -0.7979  1.1600
 6992SOL    HW227360   9.686   3.824   0.735  0.0734 -0.1561 -0.5281
 6994SOL     OW27361   8.742   0.976   3.299 -0.7848 -0.0750  0.4111
 6994SOL    HW127362   8.779   0.917   3.227 -0.2398 -0.1560  0.7585
 6994SOL    HW227363   8.708   0.920   3.374  2.6522  0.0922  2.1963
 6995SOL     OW27364   7.376   1.622   2.383  0.1613  1.0175 -0.0281
 6995SOL    HW127365   7.317   1.543   2.369 -0.4288  1.3134  0.7611
 6995SOL    HW227366   7.469   1.601   2.351  0.2719 -0.3663  1.1408
 6996SOL     OW27367   1.532   2.965   0.521 -0.1720  0.2898 -0.1209
 6996SOL    HW127368   1.494   2.881   0.560  0.8298  0.8892  2.2861
 6996SOL    HW227369   1.630   2.968   0.537 -0.4553  2.7532  1.5395
 6997SOL     OW27370   8.348   0.528   2.682  0.0137  0.2421 -0.6190
 6997SOL    HW127371   8.289   0.595   2.727 -0.4992  0.4378 -1.5641
 6997SOL    HW227372   8.385   0.465   2.750 -2.8931 -1.1192 -0.2046
 6999SOL     OW27373   4.288   8.801   1.321 -1.3370 -0.7075 -0.4284
 6999SOL    HW127374   4.357   8.807   1.393 -0.4039  0.1078 -1.3873
 6999SOL    HW227375   4.207   8.852   1.349 -1.4326 -1.3619  0.5395
 7000SOL     OW27376   5.255   2.191   0.782 -0.5955 -0.1424  0.3560
 7000SOL    HW127377   5.317   2.116   0.808 -0.5977 -0.1398  0.3686
 7000SOL    HW227378   5.174   2.153   0.737 -1.0759 -0.2239  1.2798
 7001SOL     OW27379   8.821   4.554   1.463 -0.1134 -0.3265 -0.1431
 7001SOL    HW127380   8.769   4.508   1.390 -0.4886 -0.8058  0.4195
 7001SOL    HW227381   8.757   4.597   1.527  0.2177  0.1363 -0.1195
 7002SOL     OW27382   0.766   3.136   3.264 -0.1941 -0.6619  0.2484
 7002SOL    HW127383   0.698   3.148   3.192 -1.3365  0.1000  1.4090
 7002SOL    HW227384   0.858   3.139   3.225 -0.7471  1.4162 -0.9576
 7004SOL     OW27385   8.566   1.685   2.713  0.2510 -0.3862 -0.1289
 7004SOL    HW127386   8.561   1.783   2.693 -1.4661 -0.4177  0.0912
 7004SOL    HW227387   8.505   1.636   2.651  2.0522 -1.4641 -1.0864
 7006SOL     OW27388   0.034   8.404   1.269  0.7253 -0.0394 -0.7775
 7006SOL    HW127389   0.046   8.354   1.355 -1.1775 -0.5015 -0.7574
 7006SOL    HW227390   0.061   8.346   1.193  2.3705  0.3549 -0.5020
 7007SOL     OW27391   9.022   5.240   2.639  0.5047 -0.0163  0.0754
 7007SOL    HW127392   8.986   5.321   2.592  1.5367  0.4501  0.0816
 7007SOL    HW227393   8.952   5.203   2.700 -0.1613  0.5480 -0.3435
 7008SOL     OW27394   4.235   4.168   2.116  0.6167 -0.0979 -0.5358
 7008SOL    HW127395   4.293   4.165   2.034  0.9783  0.8502 -0.3291
 7008SOL    HW227396   4.193   4.259   2.123 -2.0649 -1.2174 -1.4674
 7009SOL     OW27397   4.642   2.305   0.889  0.2923 -0.6840 -0.3818
 7009SOL    HW127398   4.704   2.339   0.960  0.3720 -2.4120  0.4073
 7009SOL    HW227399   4.567   2.255   0.932  0.4207 -1.8885 -1.5210
 7010SOL     OW27400   8.805   7.376   1.910 -0.9966  0.8414  0.0545
 7010SOL    HW127401   8.815   7.287   1.867  1.3614  0.3832  1.4534
 7010SOL    HW227402   8.760   7.366   1.999 -0.7907  1.0316  0.1835
 7013SOL     OW27403   2.826   8.715   0.699 -0.0587 -0.0852  0.1932
 7013SOL    HW127404   2.822   8.619   0.671  0.7174  0.0866 -0.5063
 7013SOL    HW227405   2.781   8.725   0.788  1.5232 -1.4151  1.1619
 7014SOL     OW27406   3.801   8.340   2.622 -0.0100 -0.1788  0.0098
 7014SOL    HW127407   3.874   8.346   2.691 -0.7340 -0.9540  0.8658
 7014SOL    HW227408   3.836   8.294   2.540  0.6086 -0.0853  0.2197
 7015SOL     OW27409   9.082   2.973   1.090 -0.0203  0.0859  0.7191
 7015SOL    HW127410   9.141   2.922   1.028 -1.5419 -0.1383 -0.5752
 7015SOL    HW227411   9.001   2.918   1.111  0.0715  0.5122  2.2265
 7016SOL     OW27412   2.880   4.026   3.591  0.2369 -0.0809 -0.0724
 7016SOL    HW127413   2.919   3.936   3.571  1.7639  0.2001  1.4789
 7016SOL    HW227414   2.874   4.037   3.690 -1.1175  1.0464 -0.2732
 7018SOL     OW27415   9.762   7.406   0.593  0.5037  0.1432 -0.1055
 7018SOL    HW127416   9.770   7.313   0.556 -0.3781  1.2199 -3.1768
 7018SOL    HW227417   9.853   7.447   0.601  0.8972 -0.9716  1.2969
 7019SOL     OW27418   8.198   4.083   0.238  0.0397  0.1697 -0.0856
 7019SOL    HW127419   8.267   4.017   0.267 -1.5510 -1.5963 -0.2524
 7019SOL    HW227420   8.141   4.109   0.316  0.4911  1.1606 -0.0739
 7020SOL     OW27421   7.452   8.773   3.356  0.0280 -0.5537  0.9248
 7020SOL    HW127422   7.538   8.759   3.405  0.2614  0.2291  0.7467
 7020SOL    HW227423   7.404   8.852   3.395  0.8916  0.9797 -1.0194
 7023SOL     OW27424   8.610   5.581   1.186 -0.0781  0.7389  0.4247
 7023SOL    HW127425   8.517   5.620   1.186 -0.0704  0.7641 -0.0374
 7023SOL    HW227426   8.676   5.654   1.206 -0.0563  0.9957 -0.5533
 7024SOL     OW27427   2.912   2.241   1.002 -0.2295 -0.2772  0.0519
 7024SOL    HW127428   2.816   2.233   0.976  0.3906  1.5954 -3.1685
 7024SOL    HW227429   2.970   2.220   0.923  2.0247 -1.1498  1.8740
 7025SOL     OW27430   9.463   2.629   2.673 -0.0038 -0.0091  0.0912
 7025SOL    HW127431   9.532   2.701   2.687  0.4348 -0.2993 -0.5255
 7025SOL    HW227432   9.417   2.645   2.586  1.8918 -1.9164 -1.3141
 7026SOL     OW27433   3.646   9.289   2.302 -0.2640  0.3552 -0.2845
 7026SOL    HW127434   3.621   9.306   2.207 -0.6114  2.0997  0.1034
 7026SOL    HW227435   3.568   9.247   2.350 -0.3371  0.1407 -0.5927
 7027SOL     OW27436   5.600   7.929   2.343  0.4920 -0.0230  0.0752
 7027SOL    HW127437   5.682   7.891   2.301 -0.4117 -0.7536 -1.0439
 7027SOL    HW227438   5.623   7.966   2.433  2.4704  1.6979 -1.1115
 7028SOL     OW27439   8.644   5.273   3.529  0.0040  0.1346  0.1556
 7028SOL    HW127440   8.676   5.208   3.597  1.1199  0.8546  0.3369
 7028SOL    HW227441   8.610   5.224   3.449  0.2270 -0.6746  0.5507
 7029SOL     OW27442   9.544   7.659   3.017 -0.7796 -0.1323  0.3321
 7029SOL    HW127443   9.533   7.560   3.008 -0.8799 -0.0934  0.0180
 7029SOL    HW227444   9.458   7.704   2.991 -0.1930  0.1285 -1.2115
 7031SOL     OW27445   8.177   9.954   0.266  0.0672 -0.0095 -0.0096
 7031SOL    HW127446   8.137   9.959   0.357 -1.3930 -1.3336 -0.5562
 7031SOL    HW227447   8.153  10.036   0.214  2.7042  1.7780  1.4663
 7032SOL     OW27448   8.590   2.623   0.186  0.0720 -0.0109  0.7104
 7032SOL    HW127449   8.620   2.648   0.278  1.2704  0.8181  0.1072
 7032SOL    HW227450   8.610   2.698   0.123 -1.1535 -0.3965 -0.1392
 7033SOL     OW27451   1.174   5.914   2.836 -0.4271 -0.3461  0.0958
 7033SOL    HW127452   1.237   5.908   2.758 -2.0652  0.8712 -1.3772
 7033SOL    HW227453   1.172   6.008   2.869 -0.2077 -0.7361  1.2373
 7034SOL     OW27454   3.658   8.744   0.356  0.0472  0.4465  0.2445
 7034SOL    HW127455   3.621   8.812   0.292  1.2849  1.2395  0.3566
 7034SOL    HW227456   3.749   8.715   0.325  0.7202  0.9339  1.6894
 7035SOL     OW27457   3.911   4.781   3.243 -0.0590  0.3856 -0.3883
 7035SOL    HW127458   3.812   4.770   3.257 -0.0602  0.0497 -0.6439
 7035SOL    HW227459   3.927   4.835   3.160 -0.0292  0.4115 -0.3654
 7038SOL     OW27460   1.085   1.943   3.444 -0.6840  0.4640  0.8742
 7038SOL    HW127461   1.156   1.876   3.465 -1.9876 -2.0222 -2.1694
 7038SOL    HW227462   0.997   1.908   3.475 -1.1456  1.4903  0.7123
 7039SOL     OW27463   1.755   1.797   0.534  0.1812 -0.9861 -0.2301
 7039SOL    HW127464   1.728   1.734   0.606  0.8774  0.2535  1.1269
 7039SOL    HW227465   1.732   1.891   0.560 -0.8303 -0.6383 -2.2116
 7040SOL     OW27466   1.621   3.320   3.390 -0.8243 -0.2350 -0.0096
 7040SOL    HW127467   1.669   3.251   3.335 -3.6769 -1.2417 -1.3960
 7040SOL    HW227468   1.607   3.402   3.335 -1.5847 -0.3472  0.0069
 7041SOL     OW27469   1.698   7.165   3.431  0.1874 -0.7425 -0.2479
 7041SOL    HW127470   1.600   7.143   3.428  0.1394 -0.8626  1.5624
 7041SOL    HW227471   1.718   7.236   3.363 -1.3009 -0.2212 -0.1740
 7042SOL     OW27472   1.851   4.860   3.146 -0.5238  0.2328  0.6550
 7042SOL    HW127473   1.913   4.782   3.138 -0.1487  0.5192  0.7849
 7042SOL    HW227474   1.773   4.847   3.084 -0.2009  0.0026  0.2952
 7045SOL     OW27475   3.489   6.688   1.454  0.2890 -0.2869 -0.2672
 7045SOL    HW127476   3.543   6.752   1.401 -0.4266  0.2214 -0.3935
 7045SOL    HW227477   3.398   6.680   1.414 -1.1450  2.0558  2.2832
 7046SOL     OW27478   8.461   9.941   0.238 -0.0670 -0.2527 -0.2161
 7046SOL    HW127479   8.365   9.926   0.262 -0.0256 -1.0700 -0.5307
 7046SOL    HW227480   8.491  10.030   0.272 -0.7461 -0.2799  0.4781
 7047SOL     OW27481   1.000   6.784   1.528  0.0757 -0.1276 -0.1253
 7047SOL    HW127482   0.953   6.870   1.509  1.7241  0.6835 -0.7136
 7047SOL    HW227483   0.946   6.728   1.590 -1.3043  1.0674 -0.2359
 7048SOL     OW27484   0.668   0.448   0.237 -0.1524  0.1784 -0.1383
 7048SOL    HW127485   0.687   0.480   0.330 -2.2793  0.7810  0.1121
 7048SOL    HW227486   0.658   0.349   0.238  1.2070  0.0295  0.0134
 7049SOL     OW27487   2.869   3.532   3.273 -0.1739  0.0817  0.1782
 7049SOL    HW127488   2.779   3.546   3.233 -1.3348  0.5993  2.8846
 7049SOL    HW227489   2.937   3.526   3.200 -2.2243  0.8421 -1.8521
 7051SOL     OW27490   7.407   9.995   1.071  0.0763 -0.0631 -0.6443
 7051SOL    HW127491   7.489   9.962   1.024  0.6281  0.3604  0.0132
 7051SOL    HW227492   7.334   9.926   1.064  0.5666 -0.5426 -1.0294
 7052SOL     OW27493   5.287   7.122   3.716 -0.2970 -0.2251 -0.4729
 7052SOL    HW127494   5.289   7.123   3.816 -0.6920 -0.7322 -0.4609
 7052SOL    HW227495   5.194   7.106   3.685 -0.3378  0.8614 -0.9322
 7053SOL     OW27496   3.007   8.054   0.012 -0.0397 -0.1318 -0.5294
 7053SOL    HW127497   3.075   8.121  -0.017  0.9801 -1.0804 -0.3712
 7053SOL    HW227498   2.917   8.083  -0.018  0.2245  1.8932  0.5075
 7054SOL     OW27499   1.439   2.704   0.601 -0.4237 -0.2201 -0.3862
 7054SOL    HW127500   1.357   2.650   0.623 -0.7804 -0.0781 -1.3626
 7054SOL    HW227501   1.485   2.730   0.686 -1.7974  0.3206  0.2177
 7055SOL     OW27502   3.089   0.521   3.138 -0.3067  0.0097 -0.1876
 7055SOL    HW127503   3.131   0.446   3.088 -1.2932 -0.3580 -0.4725
 7055SOL    HW227504   3.101   0.507   3.237 -0.7532 -0.6781 -0.2295
 7056SOL     OW27505   0.318   9.758   0.956  0.1431 -0.7667  0.2252
 7056SOL    HW127506   0.354   9.709   1.036 -0.0409 -0.8633  0.2486
 7056SOL    HW227507   0.244   9.819   0.985 -0.5711 -1.5101 -0.0119
 7057SOL     OW27508   2.640   5.700   0.377 -0.0915 -0.8345  0.2644
 7057SOL    HW127509   2.670   5.775   0.318 -0.5094 -0.8408  0.0423
 7057SOL    HW227510   2.591   5.632   0.322  1.9740 -2.2306  0.0978
 7058SOL     OW27511   2.728   0.796   3.770  0.1902 -0.2092  0.5936
 7058SOL    HW127512   2.786   0.877   3.762  0.2458 -0.3341 -0.3902
 7058SOL    HW227513   2.634   0.820   3.746  0.9470 -1.3147 -4.1739
 7059SOL     OW27514   9.892   1.525   1.142 -0.0759  0.6108  0.4554
 7059SOL    HW127515   9.947   1.573   1.211 -2.0692  0.8882  1.9108
 7059SOL    HW227516   9.798   1.516   1.176 -0.5769 -1.1427 -1.3501
 7061SOL     OW27517   9.378   1.037   1.449  0.0999 -0.3426 -0.1924
 7061SOL    HW127518   9.438   0.995   1.517  0.5332  0.0213 -0.3448
 7061SOL    HW227519   9.284   1.010   1.466  0.2497 -0.5221  0.3496
 7062SOL     OW27520   1.508   5.969   0.209 -0.0612 -0.4181  0.4525
 7062SOL    HW127521   1.575   5.898   0.185 -0.0587  0.3502 -1.8707
 7062SOL    HW227522   1.499   6.034   0.134 -1.8816  0.6822  1.5816
 7063SOL     OW27523   2.287   4.254   1.189  0.2184 -0.0477 -0.4554
 7063SOL    HW127524   2.207   4.216   1.236  0.7329 -0.4861  0.0780
 7063SOL    HW227525   2.367   4.245   1.248  0.4109  1.6108 -0.4470
 7064SOL     OW27526   9.981   4.139   1.206 -0.0495  0.4516  0.1554
 7064SOL    HW127527   9.948   4.176   1.120  0.1593  0.7979  0.2250
 7064SOL    HW227528   9.928   4.179   1.282 -1.0798 -0.7869  0.1092
 7065SOL     OW27529   9.338   3.231   0.475 -1.2104  0.0012 -0.1613
 7065SOL    HW127530   9.287   3.178   0.407  2.8852 -3.2658 -0.9144
 7065SOL    HW227531   9.392   3.301   0.429 -1.6699  0.5871  0.1867
 7066SOL     OW27532   3.758   3.478   3.611  0.0294  0.0056  0.6805
 7066SOL    HW127533   3.692   3.411   3.646 -2.7030  2.0114 -0.4852
 7066SOL    HW227534   3.742   3.567   3.655  1.7622  0.6158  0.1226
 7067SOL     OW27535   0.855   9.738   2.715  0.3038 -0.0487  0.2806
 7067SOL    HW127536   0.798   9.718   2.795  0.5287  0.5608  0.5928
 7067SOL    HW227537   0.829   9.827   2.677 -0.0255 -0.4832 -0.5229
 7069SOL     OW27538   8.365   5.605   2.749  0.2896  0.4759  0.8084
 7069SOL    HW127539   8.334   5.679   2.690 -0.3369 -0.0678  0.4461
 7069SOL    HW227540   8.294   5.583   2.816  0.3728  0.0429  0.7564
 7070SOL     OW27541   8.650   3.799   3.244 -0.3816  0.4757 -0.8189
 7070SOL    HW127542   8.582   3.727   3.259  0.9108 -0.8592 -1.2584
 7070SOL    HW227543   8.637   3.872   3.311 -2.1965  0.2119 -0.8493
 7071SOL     OW27544   1.181   5.161   2.695  0.5204 -0.0858 -0.1092
 7071SOL    HW127545   1.209   5.065   2.693 -0.2445 -0.3029 -0.8434
 7071SOL    HW227546   1.132   5.183   2.610  0.0562  0.7563  0.3743
 7072SOL     OW27547   9.476   9.247   2.470  0.2653  0.2479 -0.5604
 7072SOL    HW127548   9.414   9.241   2.549 -0.1388  1.6841 -0.7645
 7072SOL    HW227549   9.426   9.222   2.387  0.6054 -0.9535 -0.4097
 7073SOL     OW27550   2.850   6.468   0.820  0.2571 -0.1698 -0.2018
 7073SOL    HW127551   2.881   6.375   0.842 -0.2945 -0.5726 -1.1093
 7073SOL    HW227552   2.888   6.496   0.732 -2.4912 -0.9678 -1.7196
 7077SOL     OW27553   3.587   0.635   1.069  0.1647  0.1402 -0.3658
 7077SOL    HW127554   3.543   0.709   1.120 -1.2928  0.4985 -2.0947
 7077SOL    HW227555   3.665   0.671   1.019  1.2440 -0.0962  1.1179
 7078SOL     OW27556   8.524   8.315   2.646  0.0042 -0.6060 -0.3365
 7078SOL    HW127557   8.480   8.374   2.713 -1.1062 -0.7192 -0.9567
 7078SOL    HW227558   8.521   8.221   2.678  2.2699 -0.2869  0.9136
 7079SOL     OW27559   9.946   3.805   0.983  0.1036 -0.2423  0.0809
 7079SOL    HW127560   9.890   3.775   1.061 -1.2132 -0.7664 -1.0363
 7079SOL    HW227561   9.891   3.864   0.924  0.8850 -0.3519 -0.7674
 7080SOL     OW27562   1.607   0.318   2.504  0.0485 -0.0136  0.1336
 7080SOL    HW127563   1.629   0.224   2.531  0.7750  0.5382  1.5182
 7080SOL    HW227564   1.566   0.367   2.581 -0.3464  0.8014 -0.5830
 7082SOL     OW27565   4.250   2.376   0.134  0.0700 -0.4845 -0.4957
 7082SOL    HW127566   4.345   2.353   0.156  0.1423 -0.3761 -0.6940
 7082SOL    HW227567   4.214   2.311   0.067 -0.1265 -0.7708 -0.1136
 7083SOL     OW27568   2.294   1.765   2.340 -0.3891  0.0843  0.3223
 7083SOL    HW127569   2.380   1.715   2.351  0.4237  0.7588 -2.4468
 7083SOL    HW227570   2.288   1.836   2.410  0.3330 -1.2737  1.7976
 7084SOL     OW27571   1.016   3.299   0.531 -0.2310  0.5132  0.1572
 7084SOL    HW127572   0.971   3.211   0.546 -0.8855  0.9591  0.8707
 7084SOL    HW227573   1.014   3.352   0.616 -0.1302  1.3458 -0.3572
 7085SOL     OW27574   9.656   9.819   0.506  0.2451  0.3069  0.2634
 7085SOL    HW127575   9.639   9.721   0.517 -1.0179  0.6689  1.7474
 7085SOL    HW227576   9.716   9.834   0.428 -0.2153 -1.5933 -0.4762
 7086SOL     OW27577   1.151   8.444   1.059  0.5266  0.2006  0.7318
 7086SOL    HW127578   1.230   8.463   1.118 -0.1775  1.3233  1.3264
 7086SOL    HW227579   1.067   8.474   1.105 -0.1025  0.4022 -0.5342
 7087SOL     OW27580   8.455   7.168   2.992  0.0113 -0.1307 -0.1798
 7087SOL    HW127581   8.356   7.181   2.988  0.3436  2.9076  0.5003
 7087SOL    HW227582   8.485   7.166   3.087  0.8706  1.2500 -0.4137
 7089SOL     OW27583   4.035   8.583   3.090 -0.1258  0.3713  0.8362
 7089SOL    HW127584   4.117   8.539   3.125  1.5608  1.6600 -1.3654
 7089SOL    HW227585   3.988   8.520   3.027  0.1257  0.2746  0.7441
 7091SOL     OW27586   7.555   9.047   0.142  0.2843  0.1292 -0.1857
 7091SOL    HW127587   7.545   9.095   0.229 -1.2215 -0.5509  0.0237
 7091SOL    HW227588   7.575   8.951   0.159  1.5540  0.3107 -0.6029
 7092SOL     OW27589   7.960   0.591   2.820  0.1954 -0.5066 -0.4930
 7092SOL    HW127590   7.964   0.671   2.761  2.7587 -0.0612  0.1949
 7092SOL    HW227591   7.953   0.508   2.764  0.6518  0.0238 -1.3476
 7093SOL     OW27592   6.707   8.941   2.699 -0.1230  0.4430  0.4075
 7093SOL    HW127593   6.643   9.012   2.669 -0.4031 -0.6419 -1.6893
 7093SOL    HW227594   6.774   8.981   2.761 -0.4903  2.4757 -0.4433
 7094SOL     OW27595   6.984   8.103   1.803 -0.1558  0.6611  0.6942
 7094SOL    HW127596   6.994   8.143   1.712 -2.4456 -1.7821 -0.7043
 7094SOL    HW227597   7.074   8.082   1.840  0.8387  2.4417 -0.6446
 7095SOL     OW27598   5.619   9.752   2.219  0.0400 -0.2694 -0.1058
 7095SOL    HW127599   5.714   9.767   2.192 -0.0735  1.9514  0.6259
 7095SOL    HW227600   5.609   9.658   2.251  1.8411 -0.7260 -0.7696
 7096SOL     OW27601   2.553   2.147   2.845 -0.6667  0.3751  0.4924
 7096SOL    HW127602   2.589   2.128   2.937  0.6609  1.4256  0.2014
 7096SOL    HW227603   2.538   2.061   2.797 -0.3601 -0.1411  1.3068
 7098SOL     OW27604   0.774   6.948   1.881  0.4314 -0.0175  0.7535
 7098SOL    HW127605   0.775   7.032   1.934  2.1492 -1.2354  2.7027
 7098SOL    HW227606   0.830   6.960   1.798  0.4635  0.8288  0.8941
 7099SOL     OW27607   8.078   1.815   2.596 -0.4199 -0.3842  0.4059
 7099SOL    HW127608   8.088   1.725   2.553  0.0877 -0.2614  0.2612
 7099SOL    HW227609   7.991   1.819   2.644 -0.1815 -1.1709  0.9138
 7100SOL     OW27610   1.791   9.512   2.436  0.4425  0.0481  0.2185
 7100SOL    HW127611   1.883   9.547   2.422  0.3935  0.2734  0.4498
 7100SOL    HW227612   1.739   9.577   2.491 -0.4230  0.8143 -1.4499
 7101SOL     OW27613   1.824   5.107   0.961 -1.1868  0.2979  0.5477
 7101SOL    HW127614   1.740   5.152   0.992 -1.8797 -1.3051  1.0672
 7101SOL    HW227615   1.829   5.015   1.001 -0.3586 -0.5129 -1.3696
 7103SOL     OW27616   0.881   6.314   2.626 -0.0905 -0.7334  0.4055
 7103SOL    HW127617   0.878   6.239   2.561  0.4297 -0.8881  0.5534
 7103SOL    HW227618   0.899   6.400   2.578 -1.6134 -0.5594  0.1290
 7104SOL     OW27619   1.994   9.390   0.409 -0.2723  0.0061 -0.2233
 7104SOL    HW127620   1.942   9.383   0.323  1.1562 -1.9050 -0.9650
 7104SOL    HW227621   2.067   9.457   0.398  0.3962 -0.7966 -0.7843
 7105SOL     OW27622   9.725   6.303   0.882  0.2816  0.3343 -0.5301
 7105SOL    HW127623   9.813   6.312   0.928  0.0570  1.6312 -0.3149
 7105SOL    HW227624   9.736   6.253   0.797  1.3498  1.0914 -0.8357
 7106SOL     OW27625   9.972   0.569   3.113  0.1581  0.4078 -0.0784
 7106SOL    HW127626   9.957   0.494   3.049 -0.8333  0.9866 -0.5327
 7106SOL    HW227627  10.044   0.629   3.078 -1.5579  1.6749 -1.5216
 7109SOL     OW27628   1.657   0.675   2.696  0.2592  0.1655  0.1902
 7109SOL    HW127629   1.662   0.716   2.605 -0.2578  1.8648  0.9021
 7109SOL    HW227630   1.744   0.631   2.717  1.1389  1.6356 -0.2872
 7110SOL     OW27631   5.285   9.496   3.429  0.6530 -0.2563 -0.5228
 7110SOL    HW127632   5.258   9.511   3.524  2.6896 -3.2050  0.6043
 7110SOL    HW227633   5.368   9.547   3.410  2.1013 -2.2108  0.3450
 7112SOL     OW27634   9.012   0.414   0.171  0.0116 -0.4788 -0.0908
 7112SOL    HW127635   8.971   0.397   0.082  1.2419 -0.0622 -0.7554
 7112SOL    HW227636   9.040   0.328   0.212 -1.8182 -0.7963  0.5242
 7114SOL     OW27637   3.986   1.545   2.484  0.0709  0.0383  0.0167
 7114SOL    HW127638   3.985   1.482   2.406  0.4050  0.4961 -0.3626
 7114SOL    HW227639   4.080   1.558   2.516 -0.2526 -1.6112  1.7098
 7116SOL     OW27640   1.933   7.455   0.322 -0.3956  0.4371 -0.4815
 7116SOL    HW127641   1.854   7.508   0.288  0.2203  0.4492 -1.9213
 7116SOL    HW227642   2.014   7.514   0.322 -0.4925  0.5783  1.5155
 7117SOL     OW27643   1.201   5.910   0.850  0.5374  0.3754  0.2163
 7117SOL    HW127644   1.127   5.873   0.907  0.6334  0.5453  0.4506
 7117SOL    HW227645   1.178   6.003   0.821  1.4415  1.0813  1.7279
 7118SOL     OW27646   8.272   7.049   3.668  0.2917  0.1588  0.5183
 7118SOL    HW127647   8.342   7.004   3.724 -0.1105 -0.4370  0.5504
 7118SOL    HW227648   8.296   7.043   3.572  1.3630  1.8387  0.6623
 7119SOL     OW27649   1.011   3.050   0.263 -0.0026 -0.6962  0.3727
 7119SOL    HW127650   1.102   3.085   0.286 -0.7417  0.2574  1.9159
 7119SOL    HW227651   1.000   3.050   0.164  0.3227  2.8518  0.2543
 7120SOL     OW27652   9.421   8.547   3.391  0.1674 -0.3713 -0.0482
 7120SOL    HW127653   9.466   8.516   3.307 -1.0419  0.9020 -1.2027
 7120SOL    HW227654   9.346   8.609   3.367  0.4804  0.8438  2.0286
 7121SOL     OW27655   2.807   8.802   2.752 -0.4999  0.5612 -0.5904
 7121SOL    HW127656   2.742   8.827   2.824 -0.7480 -1.1681 -0.1781
 7121SOL    HW227657   2.900   8.817   2.784 -0.6196  0.0905 -0.0129
 7122SOL     OW27658   4.640   2.069   2.474 -0.2761 -0.2281  0.1792
 7122SOL    HW127659   4.650   2.129   2.395  1.0820 -0.4337  0.1743
 7122SOL    HW227660   4.689   2.108   2.552  0.2557 -1.1079  0.2975
 7123SOL     OW27661   0.963   6.531   0.745  0.0204  0.1371  0.4851
 7123SOL    HW127662   1.045   6.580   0.716 -0.4723  0.3582 -0.5518
 7123SOL    HW227663   0.925   6.479   0.668 -0.6163 -0.2322  1.0396
 7125SOL     OW27664   9.367   8.694   2.023  0.1190  0.6237 -0.0583
 7125SOL    HW127665   9.273   8.717   2.048 -0.9092 -1.4451 -1.8645
 7125SOL    HW227666   9.410   8.773   1.979 -2.5172  0.0417 -3.9024
 7126SOL     OW27667   2.985   1.300   0.499 -0.6881  0.1195 -0.2622
 7126SOL    HW127668   2.931   1.384   0.491 -1.7545 -0.6479 -1.2582
 7126SOL    HW227669   3.000   1.260   0.409  1.3313  0.1545  0.0231
 7128SOL     OW27670   2.194   1.833   2.109 -0.1441 -0.3583 -0.4620
 7128SOL    HW127671   2.169   1.929   2.119  1.1593 -0.1985  1.4803
 7128SOL    HW227672   2.238   1.801   2.193  0.7983 -2.2389 -1.6364
 7129SOL     OW27673   0.265   9.457   3.475  0.2165  0.9319 -0.6913
 7129SOL    HW127674   0.171   9.473   3.505 -0.0400 -0.2582 -0.8462
 7129SOL    HW227675   0.270   9.372   3.424  1.5416  0.5196  0.0924
 7130SOL     OW27676   5.849   0.195   1.659 -0.0012  0.4394 -0.0330
 7130SOL    HW127677   5.909   0.198   1.739  0.6238  0.2307 -0.4917
 7130SOL    HW227678   5.766   0.247   1.678  0.2719  0.6327  0.6488
 7132SOL     OW27679   0.134   5.393   2.737  0.6152 -1.1534 -0.0814
 7132SOL    HW127680   0.197   5.456   2.693 -1.8631  1.1152 -0.5605
 7132SOL    HW227681   0.149   5.394   2.836 -1.6826  3.0370  0.3435
 7133SOL     OW27682   4.287   2.803   2.837 -0.2417 -0.2463 -0.1677
 7133SOL    HW127683   4.349   2.842   2.905  0.9422 -0.0759 -1.3224
 7133SOL    HW227684   4.200   2.852   2.839 -0.4337 -0.6376  1.6276
 7134SOL     OW27685   0.909   7.098   1.676 -0.0547 -0.1234  0.6674
 7134SOL    HW127686   0.867   7.182   1.711  0.1387 -1.1273  3.4731
 7134SOL    HW227687   0.839   7.040   1.634 -0.7753  0.0037  1.6765
 7135SOL     OW27688   8.715   2.404   1.609  0.4585 -0.4720  0.2641
 7135SOL    HW127689   8.745   2.496   1.583 -3.5322  0.2462 -2.3332
 7135SOL    HW227690   8.730   2.341   1.533 -0.9006 -0.9100  0.3334
 7136SOL     OW27691   8.009   1.113   2.453 -0.4106 -0.5014 -0.3278
 7136SOL    HW127692   7.962   1.195   2.485 -0.5867 -0.6048 -0.3234
 7136SOL    HW227693   8.036   1.057   2.532 -1.0432 -0.8664 -0.3740
 7138SOL     OW27694   1.526   4.185   1.142  0.0936 -0.5275 -0.5696
 7138SOL    HW127695   1.527   4.151   1.236  0.8178 -1.2597 -0.8355
 7138SOL    HW227696   1.577   4.123   1.083 -0.1420  0.0555 -1.4092
 7139SOL     OW27697   0.947   8.457   0.663  0.0749  0.4455 -0.6481
 7139SOL    HW127698   1.000   8.413   0.590 -0.3603 -0.4085 -0.4619
 7139SOL    HW227699   0.937   8.393   0.739 -1.4031  0.5081 -0.7764
 7140SOL     OW27700   2.124   9.660   2.159  0.0716 -0.1698  0.1296
 7140SOL    HW127701   2.035   9.683   2.120  0.4298 -0.0261 -0.5945
 7140SOL    HW227702   2.178   9.608   2.092  0.4561 -0.4323  0.6363
 7142SOL     OW27703   9.131   7.323   2.614  0.3646 -0.2447  0.2294
 7142SOL    HW127704   9.156   7.352   2.522 -0.1194 -1.3535 -0.2556
 7142SOL    HW227705   9.079   7.238   2.610 -2.4211  1.3081  1.2541
 7143SOL     OW27706   1.344   8.187   2.256  0.5743 -0.0178  0.1833
 7143SOL    HW127707   1.377   8.169   2.163  0.4450  0.1370  0.1070
 7143SOL    HW227708   1.247   8.211   2.253  0.2978 -1.0488  0.4671
 7144SOL     OW27709   5.549   8.083   2.018  0.1395  0.2224  0.0715
 7144SOL    HW127710   5.641   8.076   2.056 -1.2585 -0.8969  3.5532
 7144SOL    HW227711   5.501   7.996   2.033 -1.3334  0.6471 -2.0784
 7146SOL     OW27712   1.471   7.854   1.551 -0.5302  0.3597 -0.4365
 7146SOL    HW127713   1.526   7.911   1.612  0.0749 -3.0422  2.3680
 7146SOL    HW227714   1.512   7.853   1.460  0.9716  2.1079  0.1898
 7148SOL     OW27715   2.016   3.595   2.401 -0.0925 -0.0472  0.5663
 7148SOL    HW127716   2.052   3.546   2.480 -1.6068 -1.8384  0.1771
 7148SOL    HW227717   1.945   3.660   2.430 -0.6041 -0.6591  0.6909
 7149SOL     OW27718   3.728   5.611   2.264 -0.0743 -1.1381 -0.8644
 7149SOL    HW127719   3.714   5.670   2.343 -0.0731  0.6970 -2.1808
 7149SOL    HW227720   3.663   5.535   2.266 -2.1703  0.5970 -0.6841
 7150SOL     OW27721   3.469   8.746   2.729  0.0702  0.5871  0.2988
 7150SOL    HW127722   3.372   8.755   2.705  0.4451 -0.9362 -1.8685
 7150SOL    HW227723   3.498   8.651   2.718  2.4797  1.4883 -1.6714
 7151SOL     OW27724   6.801   9.184   2.331  0.2698 -0.5626  0.2293
 7151SOL    HW127725   6.793   9.095   2.286  1.1182 -1.0890  1.1014
 7151SOL    HW227726   6.892   9.221   2.315 -0.0101  0.0480  0.0522
 7152SOL     OW27727   8.345   3.958   1.109 -0.1595  0.3928 -0.4313
 7152SOL    HW127728   8.329   3.870   1.066  0.8493 -0.4798  0.9353
 7152SOL    HW227729   8.302   3.960   1.199 -0.1108  1.2631 -0.4183
 7154SOL     OW27730   9.272   3.222   3.338  0.5211 -0.5839 -0.0264
 7154SOL    HW127731   9.256   3.123   3.332  0.3173 -0.4577 -2.0244
 7154SOL    HW227732   9.363   3.243   3.301  0.7132 -0.0657  0.7406
 7155SOL     OW27733   3.740   0.173   2.054 -0.0722  0.3867 -0.6169
 7155SOL    HW127734   3.685   0.133   1.980 -0.7671 -0.3580  0.2807
 7155SOL    HW227735   3.679   0.210   2.124  0.5507 -0.6892  0.5160
 7156SOL     OW27736   0.110   4.729   3.098  0.6809 -0.0690 -0.4960
 7156SOL    HW127737   0.087   4.695   3.189  0.1418  0.1914 -0.5351
 7156SOL    HW227738   0.077   4.664   3.029 -1.4579  1.1087 -0.6279
 7157SOL     OW27739   3.325   4.073   0.643 -0.4405  0.1450 -0.5556
 7157SOL    HW127740   3.396   4.109   0.703  2.0609 -0.0260 -3.3132
 7157SOL    HW227741   3.265   4.148   0.613 -0.6565  0.5063  0.7792
 7159SOL     OW27742   0.772   9.919   2.218  0.6632  0.2351 -0.1041
 7159SOL    HW127743   0.776   9.819   2.220  2.2929  0.3066  1.2513
 7159SOL    HW227744   0.823   9.953   2.139  0.0227 -0.0016 -0.6234
 7160SOL     OW27745   8.851   5.598   0.279  0.2158 -0.5610  0.2630
 7160SOL    HW127746   8.931   5.626   0.227 -0.2486 -0.1433 -0.2372
 7160SOL    HW227747   8.842   5.499   0.278  1.4049 -0.6948  1.3416
 7161SOL     OW27748   0.021   8.803   2.091 -0.2588  0.1476 -0.1759
 7161SOL    HW127749  -0.044   8.868   2.052 -1.2118  0.0554  1.2306
 7161SOL    HW227750   0.114   8.825   2.060 -0.8771  0.6096 -1.7544
 7164SOL     OW27751   9.294   3.393   2.347 -0.2351  0.2631  0.5180
 7164SOL    HW127752   9.206   3.439   2.333  0.1232  0.8971  0.3446
 7164SOL    HW227753   9.331   3.363   2.259 -0.2758  0.0042  0.5899
 7165SOL     OW27754   4.350   8.620   0.890 -0.1971 -0.3347  0.2339
 7165SOL    HW127755   4.331   8.677   0.970  1.0093 -0.0662  0.3386
 7165SOL    HW227756   4.388   8.532   0.919 -2.2416 -1.2887  0.0824
 7167SOL     OW27757   3.753   1.708   2.990  0.3096  0.0341 -0.0804
 7167SOL    HW127758   3.700   1.791   2.971  0.8067 -0.1779 -2.5658
 7167SOL    HW227759   3.691   1.632   3.006 -0.1421  0.5706  0.7665
 7168SOL     OW27760   1.961   5.101   3.561  0.3136  0.0483 -0.2837
 7168SOL    HW127761   2.028   5.136   3.627  1.9272 -1.8406 -0.8846
 7168SOL    HW227762   1.988   5.010   3.530 -1.9506 -0.2866 -1.4067
 7169SOL     OW27763   2.667   3.171   1.320 -0.2943 -0.5952 -0.1519
 7169SOL    HW127764   2.718   3.255   1.336 -1.0116 -0.4127  1.1921
 7169SOL    HW227765   2.582   3.192   1.273  0.8079 -0.8983 -2.3765
 7170SOL     OW27766   4.569   4.557   1.629  0.0042  0.0426 -0.2732
 7170SOL    HW127767   4.516   4.475   1.605 -0.7489  0.1591  0.9578
 7170SOL    HW227768   4.509   4.623   1.674  0.6007  1.2914 -1.2568
 7171SOL     OW27769   3.453   0.781   3.517 -0.1540 -0.0239 -0.1382
 7171SOL    HW127770   3.464   0.683   3.528 -1.0727 -0.0223  0.8577
 7171SOL    HW227771   3.406   0.800   3.431 -0.2711 -0.4787 -0.1734
 7172SOL     OW27772   4.373   3.179   2.010  0.3659  0.1445 -0.1138
 7172SOL    HW127773   4.339   3.090   2.041 -0.3134  0.4168 -0.0659
 7172SOL    HW227774   4.375   3.242   2.088 -0.3409  0.5267 -0.3959
 7174SOL     OW27775   7.995   8.874   3.739 -0.1763 -0.5509  0.3735
 7174SOL    HW127776   8.013   8.775   3.743 -1.6368 -0.8124  0.7202
 7174SOL    HW227777   8.010   8.906   3.646 -0.5423 -1.2758  0.0575
 7175SOL     OW27778   9.578   6.550   0.243  0.5178  0.8217 -0.1874
 7175SOL    HW127779   9.566   6.647   0.221 -5.4366  0.6770  1.5195
 7175SOL    HW227780   9.555   6.495   0.162  1.9560  0.7501 -0.5600
 7176SOL     OW27781   7.864   7.495   2.942 -0.5585 -0.9616  0.1203
 7176SOL    HW127782   7.882   7.497   3.040  0.7916 -1.4242 -0.1025
 7176SOL    HW227783   7.863   7.588   2.906  0.7338 -0.8669  0.2819
 7177SOL     OW27784   8.454   6.960   1.173  0.2574  0.0042  0.6228
 7177SOL    HW127785   8.363   6.988   1.205  0.2116 -0.5320  0.9799
 7177SOL    HW227786   8.444   6.910   1.086  0.1169 -0.8276  1.1108
 7178SOL     OW27787   1.870   0.588   2.838 -0.3331  0.0288  0.7580
 7178SOL    HW127788   1.852   0.583   2.937  0.2712  2.2294  1.0100
 7178SOL    HW227789   1.887   0.496   2.803 -0.9770 -0.8352  2.6263
 7179SOL     OW27790   2.862   9.930   2.295  0.0364  0.2595  0.5558
 7179SOL    HW127791   2.796  10.006   2.302  0.7883  1.4125 -3.3014
 7179SOL    HW227792   2.941   9.948   2.353 -1.3886  0.6539  2.4120
 7180SOL     OW27793   7.055   7.422   2.149  0.2824  0.2630  0.3290
 7180SOL    HW127794   6.984   7.475   2.196  0.4663  0.7704  0.0446
 7180SOL    HW227795   7.145   7.447   2.186  0.4214  0.6040 -0.2248
 7181SOL     OW27796   0.793   2.674   2.628 -0.3272  0.2695  0.4113
 7181SOL    HW127797   0.881   2.721   2.628 -0.7860  1.1445 -1.3849
 7181SOL    HW227798   0.808   2.575   2.623  0.5502  0.4913 -1.9199
 7182SOL     OW27799   1.218   1.231   2.225 -0.5637 -0.5172  0.0917
 7182SOL    HW127800   1.256   1.269   2.141  1.0996 -1.0036  0.6106
 7182SOL    HW227801   1.221   1.131   2.221 -0.3241 -0.5395  0.8076
 7183SOL     OW27802   9.717   4.389   3.018  0.4591 -0.4014  0.3341
 7183SOL    HW127803   9.808   4.361   2.988  0.0019  1.0102 -2.5710
 7183SOL    HW227804   9.724   4.468   3.079  1.1332  0.2248 -0.5500
 7184SOL     OW27805   2.006   3.990   2.818  0.2270  0.3794  0.4185
 7184SOL    HW127806   1.934   4.011   2.884  0.1582  1.4440  0.0071
 7184SOL    HW227807   2.093   4.028   2.850  0.0338  1.6034 -0.4954
 7185SOL     OW27808   0.294   4.600   2.535 -0.5224 -0.1771  0.2894
 7185SOL    HW127809   0.354   4.559   2.603 -0.7948 -1.8909 -0.4737
 7185SOL    HW227810   0.293   4.699   2.547  1.2097 -0.2554  1.3231
 7186SOL     OW27811   8.558   3.132   1.041 -0.1575  0.2237  0.0830
 7186SOL    HW127812   8.540   3.130   0.943 -0.4412 -0.3983  0.1422
 7186SOL    HW227813   8.635   3.071   1.062 -1.1984 -0.9892  0.4589
 7188SOL     OW27814   0.778   7.724   1.651  0.2490 -0.6124  0.0935
 7188SOL    HW127815   0.758   7.636   1.694  2.2126 -0.4306  1.4204
 7188SOL    HW227816   0.702   7.787   1.667 -0.0256 -1.2587  1.3461
 7189SOL     OW27817   8.570   5.506   3.429  0.4699 -0.6180 -0.4049
 7189SOL    HW127818   8.474   5.504   3.458  0.7995 -0.7190  0.6983
 7189SOL    HW227819   8.616   5.424   3.464  1.2673  0.0657  0.1495
 7190SOL     OW27820   4.910   7.591   1.348  0.1977  0.3556 -0.1938
 7190SOL    HW127821   4.848   7.546   1.283  1.0294 -0.1963 -0.6163
 7190SOL    HW227822   4.936   7.681   1.311 -0.8808  0.8858  0.3070
 7191SOL     OW27823   1.611   1.278   1.493  0.2315  0.2408  0.2948
 7191SOL    HW127824   1.689   1.293   1.432  1.2663  1.0363  1.7866
 7191SOL    HW227825   1.541   1.347   1.473  1.2140  1.4820  1.0268
 7192SOL     OW27826   2.139   0.187   1.122 -0.3303 -0.0659 -0.2997
 7192SOL    HW127827   2.078   0.239   1.062 -1.1140  0.3775  0.8603
 7192SOL    HW227828   2.130   0.089   1.103 -2.1496 -0.0750  0.5173
 7193SOL     OW27829   2.064   3.950   2.543  0.7499  0.3674 -0.6220
 7193SOL    HW127830   2.046   3.982   2.636 -0.6344 -0.7998 -0.4680
 7193SOL    HW227831   2.134   3.879   2.545 -1.9832 -2.4461  0.0556
 7194SOL     OW27832   4.106   0.613   0.956  0.2513  0.2087  0.6036
 7194SOL    HW127833   4.191   0.578   0.997  0.8681 -0.9106 -1.5724
 7194SOL    HW227834   4.028   0.581   1.010  1.0000 -1.9040  0.5115
 7195SOL     OW27835   3.878   4.830   0.308 -0.5202  0.2579  0.1091
 7195SOL    HW127836   3.806   4.819   0.240 -1.4186 -0.2406  1.1288
 7195SOL    HW227837   3.925   4.917   0.293 -1.7884  0.9138 -0.1353
 7197SOL     OW27838   4.664   7.856   2.053  0.3185 -0.2260 -0.2318
 7197SOL    HW127839   4.715   7.931   2.011  0.5201 -0.9239 -1.2591
 7197SOL    HW227840   4.566   7.875   2.048  0.4041  0.2930  0.1264
 7198SOL     OW27841   3.174   2.934   3.395  0.0471  0.4816 -0.0711
 7198SOL    HW127842   3.177   2.852   3.338  2.2052  1.0559 -0.8676
 7198SOL    HW227843   3.198   3.014   3.339 -0.3020  1.4125  1.0854
 7199SOL     OW27844   0.926   6.042   0.661 -0.2015  0.5168  0.0120
 7199SOL    HW127845   0.959   5.953   0.631 -1.1042  0.0533  0.3841
 7199SOL    HW227846   1.002   6.096   0.697  0.1542 -0.5492  0.8779
 7200SOL     OW27847   0.276   2.144   0.618 -0.2958  0.2047 -0.0702
 7200SOL    HW127848   0.363   2.192   0.617 -0.1897  0.0121 -0.6603
 7200SOL    HW227849   0.267   2.090   0.534 -1.4650  1.0870 -0.5202
 7201SOL     OW27850   0.886   5.849   1.887  0.4770  0.1734 -0.5010
 7201SOL    HW127851   0.986   5.849   1.882  0.4376 -0.0912 -1.2368
 7201SOL    HW227852   0.858   5.884   1.976  1.2015  2.1312 -1.0122
 7202SOL     OW27853   0.237   4.382   2.806 -0.3164  0.4348  0.6550
 7202SOL    HW127854   0.239   4.305   2.743 -1.5763  0.2877  0.7951
 7202SOL    HW227855   0.307   4.369   2.877  0.6614  0.2896 -0.3274
 7203SOL     OW27856   4.236   3.456   2.704  0.2386  0.3096  0.4433
 7203SOL    HW127857   4.162   3.411   2.753 -0.1484 -0.5207 -0.8736
 7203SOL    HW227858   4.203   3.488   2.615  1.9575 -1.9377 -1.0632
 7204SOL     OW27859   8.863   6.171   0.650 -0.1053 -0.2466 -0.6611
 7204SOL    HW127860   8.895   6.099   0.712  0.0829 -1.0764 -1.7048
 7204SOL    HW227861   8.789   6.135   0.593 -0.9830  0.8249 -0.2028
 7205SOL     OW27862   8.405   3.779   3.542 -0.5333 -0.1627  0.0925
 7205SOL    HW127863   8.407   3.712   3.616 -0.6539 -0.9788 -0.6355
 7205SOL    HW227864   8.356   3.741   3.464 -0.1882  0.5922 -0.5001
 7206SOL     OW27865   2.179   0.433   1.820  0.0894 -0.0571 -0.1279
 7206SOL    HW127866   2.095   0.463   1.775  1.5422  0.7256 -2.4462
 7206SOL    HW227867   2.192   0.335   1.803 -1.8882 -0.9205  2.8801
 7207SOL     OW27868   2.731   0.178   0.769  0.0710 -0.5193  0.3252
 7207SOL    HW127869   2.664   0.244   0.802 -1.2571 -2.2001  1.1010
 7207SOL    HW227870   2.723   0.168   0.669  1.4759  1.7299 -0.0538
 7208SOL     OW27871   1.807   0.061   3.154 -0.1199  0.0753  0.9088
 7208SOL    HW127872   1.747  -0.015   3.130 -0.5283  0.8135 -0.4792
 7208SOL    HW227873   1.902   0.035   3.140 -0.3315  0.3886 -1.3191
 7210SOL     OW27874   2.433   5.387   1.155  0.3625  0.2274 -0.0361
 7210SOL    HW127875   2.412   5.433   1.069  0.9468  1.0768  0.2679
 7210SOL    HW227876   2.468   5.295   1.136 -1.0207 -0.1844 -0.6368
 7211SOL     OW27877   8.415   9.858   1.660  0.1474  0.2542 -0.1339
 7211SOL    HW127878   8.405   9.925   1.734 -1.6341 -0.6880  0.5192
 7211SOL    HW227879   8.472   9.896   1.588 -0.9158  2.5344  0.1713
 7212SOL     OW27880   7.391   9.382   1.496 -0.1551  0.4157 -0.5186
 7212SOL    HW127881   7.423   9.461   1.549  1.1290  0.2789 -1.0638
 7212SOL    HW227882   7.409   9.298   1.547  0.3914  0.3391 -0.8248
 7213SOL     OW27883   1.595   8.362   1.710 -0.3975 -0.0486  0.1766
 7213SOL    HW127884   1.501   8.397   1.707 -0.0087  1.0024  0.0336
 7213SOL    HW227885   1.622   8.333   1.619 -1.4384 -2.7151  0.6553
 7214SOL     OW27886   7.836   8.299   1.257  0.2158 -0.0929 -0.2781
 7214SOL    HW127887   7.867   8.380   1.308  1.1902  0.4847 -1.7499
 7214SOL    HW227888   7.907   8.228   1.261  0.1061 -0.2111 -0.4548
 7215SOL     OW27889   2.266   2.697   0.580 -0.1678  0.2943  0.2651
 7215SOL    HW127890   2.210   2.616   0.562 -0.4981  0.5169  0.2953
 7215SOL    HW227891   2.208   2.778   0.587 -0.0313  0.2418  2.1720
 7216SOL     OW27892   9.795   7.985   2.145 -0.6755 -0.0251  0.3424
 7216SOL    HW127893   9.779   7.888   2.162  0.9016 -0.5180 -0.9247
 7216SOL    HW227894   9.723   8.021   2.086 -0.6775 -0.6706 -0.0451
 7217SOL     OW27895   3.192   8.129   0.491  0.3104  0.2479  0.1025
 7217SOL    HW127896   3.190   8.047   0.549  1.0389 -0.9551 -1.5238
 7217SOL    HW227897   3.117   8.124   0.425  0.4598  0.8132 -0.1061
 7219SOL     OW27898   0.305   7.695   2.382 -0.0495 -0.1665  0.0147
 7219SOL    HW127899   0.246   7.631   2.331 -2.5580 -1.0470  3.8006
 7219SOL    HW227900   0.254   7.779   2.401  1.2841  0.6537 -0.0045
 7220SOL     OW27901   1.261   6.955   2.993 -0.3589  0.3414  0.2180
 7220SOL    HW127902   1.339   6.928   2.936  0.6838  0.2057  1.6836
 7220SOL    HW227903   1.294   6.987   3.082 -1.8705  2.0230  0.2049
 7221SOL     OW27904   7.913   8.480   1.028 -0.2702 -0.0523 -0.2229
 7221SOL    HW127905   8.004   8.440   1.038  0.1194  0.7398 -0.5888
 7221SOL    HW227906   7.847   8.424   1.078  0.7581  0.6389  1.9691
 7223SOL     OW27907   0.960   0.651   1.494  0.1233  0.3250 -0.0006
 7223SOL    HW127908   1.044   0.703   1.475 -0.1287  1.6895  2.4901
 7223SOL    HW227909   0.982   0.573   1.551 -0.1935  0.2089 -0.0368
 7224SOL     OW27910   7.835   1.748   0.263 -0.0108 -0.0668  0.3713
 7224SOL    HW127911   7.779   1.720   0.340  1.1088 -1.1964  0.7929
 7224SOL    HW227912   7.870   1.841   0.279  1.4813 -0.8780  1.9704
 7226SOL     OW27913   8.866   0.289   2.438 -0.1977  0.3225  0.0284
 7226SOL    HW127914   8.780   0.333   2.411 -0.2564  0.6500  0.7403
 7226SOL    HW227915   8.847   0.209   2.494 -0.1269 -1.2395 -2.1178
 7227SOL     OW27916   2.980   0.251   0.824  0.2366  0.1163  0.3877
 7227SOL    HW127917   2.886   0.229   0.800  0.2788  0.0105  0.3199
 7227SOL    HW227918   3.001   0.345   0.797  0.8639 -0.5889 -1.7191
 7228SOL     OW27919   2.044   9.335   3.319 -0.2510  0.2248  0.0157
 7228SOL    HW127920   2.133   9.337   3.275 -0.7227  1.0606 -0.9153
 7228SOL    HW227921   2.030   9.419   3.371 -0.2373 -0.1829  0.6882
 7229SOL     OW27922   6.970   9.686   1.713  0.7900 -0.9828 -0.2454
 7229SOL    HW127923   7.010   9.666   1.623  0.4669  1.0749 -0.8821
 7229SOL    HW227924   6.919   9.772   1.708  1.2901 -0.5303  2.0742
 7230SOL     OW27925   1.422   1.889   3.004 -0.0067 -0.4939 -0.8091
 7230SOL    HW127926   1.473   1.962   2.959 -2.1637  1.4165 -0.2683
 7230SOL    HW227927   1.474   1.856   3.083  1.8820 -0.9411 -2.2239
 7231SOL     OW27928   4.352   3.781   2.433 -0.0165 -0.4999 -0.2817
 7231SOL    HW127929   4.327   3.785   2.530  0.3281 -1.0843 -0.1634
 7231SOL    HW227930   4.318   3.862   2.386  0.9766  0.4535  0.5982
 7232SOL     OW27931   0.792   0.950   0.975 -0.5353  0.2666  0.4701
 7232SOL    HW127932   0.799   0.856   1.008 -0.8865  0.7938  2.0616
 7232SOL    HW227933   0.802   0.950   0.875 -0.6848 -1.4690  0.4277
 7234SOL     OW27934   1.050   0.609   3.090 -0.1470  0.1586  0.0358
 7234SOL    HW127935   0.974   0.642   3.147  0.0642 -0.0766  0.4589
 7234SOL    HW227936   1.128   0.672   3.100 -0.9652  1.5571 -2.0027
 7236SOL     OW27937   2.522   4.521   2.527  0.0776 -0.0407 -0.7702
 7236SOL    HW127938   2.448   4.587   2.543 -0.8145 -1.0079 -0.9355
 7236SOL    HW227939   2.532   4.462   2.608 -0.2520 -0.8171 -1.2948
 7237SOL     OW27940   1.428   6.592   0.407  0.2007 -0.4144  0.1771
 7237SOL    HW127941   1.442   6.673   0.463 -0.7031 -0.6284  0.7100
 7237SOL    HW227942   1.517   6.561   0.372  0.7110  0.0153  1.0651
 7238SOL     OW27943   1.209   3.678   2.241 -0.3270 -0.1229 -0.1064
 7238SOL    HW127944   1.137   3.727   2.290  0.5270  0.2333  0.7992
 7238SOL    HW227945   1.283   3.655   2.304  0.7571  0.2891 -1.2110
 7239SOL     OW27946   1.542   9.184   1.280  0.0288  0.2165 -0.1923
 7239SOL    HW127947   1.525   9.087   1.299  0.3142  0.1832 -0.1063
 7239SOL    HW227948   1.455   9.230   1.261 -0.3488  0.4028  1.9010
 7240SOL     OW27949   2.769   2.588   3.421 -0.0397  0.2055  0.3169
 7240SOL    HW127950   2.782   2.573   3.519  0.8763 -0.4919  0.0963
 7240SOL    HW227951   2.831   2.528   3.370 -2.1054 -1.1231 -0.7330
 7241SOL     OW27952   3.378   5.787   3.381  0.3345 -0.0643  0.3034
 7241SOL    HW127953   3.409   5.786   3.286 -0.2478 -0.3401  0.1202
 7241SOL    HW227954   3.396   5.877   3.421  1.7696 -0.3524  0.3264
 7243SOL     OW27955   4.267   1.008   1.918 -0.2149 -0.9040 -0.2984
 7243SOL    HW127956   4.198   0.936   1.933 -1.5924  0.2657 -0.9312
 7243SOL    HW227957   4.246   1.086   1.976 -0.1835 -0.0079 -1.4909
 7244SOL     OW27958   9.846   9.102   1.227 -0.4637  0.2446 -0.1550
 7244SOL    HW127959   9.900   9.021   1.204  0.7421  1.4623 -1.7921
 7244SOL    HW227960   9.841   9.111   1.326  0.0369 -1.4100  0.0373
 7245SOL     OW27961   5.242   9.966   1.459  0.4145 -0.5820  0.4693
 7245SOL    HW127962   5.213   9.871   1.465  0.7341 -0.6467  1.0782
 7245SOL    HW227963   5.162  10.025   1.446  0.3280 -1.0251 -1.0980
 7246SOL     OW27964   2.180   8.618   1.924 -0.2636  0.0893  0.0024
 7246SOL    HW127965   2.187   8.593   2.020 -0.8010  0.3604  0.1117
 7246SOL    HW227966   2.252   8.571   1.872  1.0400  1.1939  0.7810
 7247SOL     OW27967   1.702   1.138   2.272  0.0520 -0.3798 -0.0917
 7247SOL    HW127968   1.785   1.096   2.311 -0.0621 -2.3923 -1.9193
 7247SOL    HW227969   1.728   1.199   2.197 -0.0303 -0.1041  0.1060
 7248SOL     OW27970   0.275   5.312   1.532  0.3052 -0.1749 -0.1035
 7248SOL    HW127971   0.344   5.265   1.477 -1.1131 -1.5796 -0.7019
 7248SOL    HW227972   0.260   5.262   1.617 -1.5783 -1.1118 -0.9725
 7249SOL     OW27973   8.125   9.364   1.597 -0.0402 -0.1389  0.2147
 7249SOL    HW127974   8.175   9.440   1.555  0.6997 -1.0831 -0.6327
 7249SOL    HW227975   8.130   9.284   1.538 -3.1853 -0.0607 -0.2436
 7250SOL     OW27976   9.931   3.777   3.286  0.3792 -0.0686 -0.3868
 7250SOL    HW127977   9.984   3.726   3.217 -1.1573 -0.6062 -1.2003
 7250SOL    HW227978   9.844   3.805   3.246 -0.5125 -0.3435  1.3315
 7253SOL     OW27979   8.001   9.136   0.765 -0.7191  0.1477  0.0475
 7253SOL    HW127980   8.018   9.047   0.809 -0.8265  0.1638  0.1214
 7253SOL    HW227981   7.957   9.121   0.677  1.3702  0.0011 -0.9972
 7254SOL     OW27982   1.213   7.678   0.900  0.2399 -0.5859 -0.6204
 7254SOL    HW127983   1.119   7.708   0.887  1.1440  2.2482 -0.9188
 7254SOL    HW227984   1.256   7.661   0.811  0.6645  0.3264 -0.6016
 7256SOL     OW27985   2.151   1.980   1.510  0.1259 -0.0318 -0.2991
 7256SOL    HW127986   2.181   2.074   1.526 -1.7861  0.6877 -0.8273
 7256SOL    HW227987   2.158   1.959   1.412 -1.3472  0.2488 -0.4743
 7257SOL     OW27988   0.456   0.787   3.066 -0.2408  0.6621  0.7076
 7257SOL    HW127989   0.550   0.754   3.074 -0.2293  1.0053  2.1002
 7257SOL    HW227990   0.427   0.825   3.154 -1.6568  0.6207  0.2573
 7258SOL     OW27991   0.461   3.225   2.141 -0.0670  0.3389  0.0759
 7258SOL    HW127992   0.503   3.269   2.062 -1.4896  1.6734  0.0206
 7258SOL    HW227993   0.386   3.166   2.111 -0.6396  0.8811  0.3978
 7259SOL     OW27994   0.593   3.828   3.661  0.3156 -0.0253  0.0249
 7259SOL    HW127995   0.675   3.772   3.654 -0.7722 -1.3994 -2.5434
 7259SOL    HW227996   0.513   3.768   3.671 -0.5023  1.2443  1.2493
 7260SOL     OW27997   7.767   8.974   3.412  0.3163 -0.1182 -0.3310
 7260SOL    HW127998   7.697   9.043   3.430 -2.2993 -2.6971 -0.2204
 7260SOL    HW227999   7.773   8.957   3.314  1.4261  0.7351 -0.4115
 7261SOL     OW28000   1.898   2.241   2.249 -0.2692  0.4312 -0.0201
 7261SOL    HW128001   1.819   2.265   2.192  1.2011  1.7955 -1.5559
 7261SOL    HW228002   1.964   2.317   2.247  1.8735 -1.4032 -0.2225
 7262SOL     OW28003   4.604   0.232   2.855 -0.1665 -0.0224 -0.0559
 7262SOL    HW128004   4.675   0.183   2.805  0.5450  1.2499 -0.3230
 7262SOL    HW228005   4.515   0.216   2.811  0.5908  1.8876 -2.4196
 7263SOL     OW28006   1.562   7.617   1.227 -0.3415 -0.8460 -0.6723
 7263SOL    HW128007   1.475   7.598   1.272 -0.0263  1.6111  1.0846
 7263SOL    HW228008   1.636   7.571   1.277 -0.3088 -0.5767 -0.4766
 7265SOL     OW28009   1.476   9.416   2.163  0.2370 -0.4280  0.1115
 7265SOL    HW128010   1.377   9.405   2.162 -0.0423  1.8843 -1.8263
 7265SOL    HW228011   1.509   9.428   2.069  2.4518 -1.9098  0.6688
 7266SOL     OW28012   3.227   5.677   2.782 -0.2558 -0.3434  0.1498
 7266SOL    HW128013   3.150   5.724   2.824  0.4531  0.7223  0.2929
 7266SOL    HW228014   3.216   5.678   2.682  0.3480  1.2114  0.0845
 7267SOL     OW28015   2.838   7.106   2.360 -0.4713  0.3972  0.1755
 7267SOL    HW128016   2.809   7.016   2.394  2.5883 -0.8946 -0.5088
 7267SOL    HW228017   2.882   7.157   2.433 -1.0927  0.8458  0.2384
 7268SOL     OW28018   8.458   6.143   0.251 -0.3413  0.2357 -0.1223
 7268SOL    HW128019   8.517   6.063   0.246 -0.3289  0.1991  0.5131
 7268SOL    HW228020   8.469   6.187   0.340  0.0400  1.2461 -0.6608
 7269SOL     OW28021   0.564   7.798   0.649  0.6081 -0.1887  0.0039
 7269SOL    HW128022   0.479   7.774   0.697  1.1760 -1.5208  0.3799
 7269SOL    HW228023   0.591   7.721   0.590  1.0039  0.6326 -0.9029
 7270SOL     OW28024   9.158   7.211   3.044  0.4598 -0.3912  0.3785
 7270SOL    HW128025   9.152   7.304   3.008  1.1814 -0.4572  0.0845
 7270SOL    HW228026   9.146   7.145   2.970  1.6680 -0.5277  0.2921
 7271SOL     OW28027   9.607   7.623   0.965 -0.6284 -0.1548  0.3828
 7271SOL    HW128028   9.543   7.619   1.041 -1.4403 -0.0369 -0.2836
 7271SOL    HW228029   9.560   7.657   0.884  0.6394  1.3029  0.2480
 7272SOL     OW28030   4.296   9.298   1.348 -0.2060  0.6065  1.0533
 7272SOL    HW128031   4.323   9.207   1.381  1.8470  1.2646  1.2943
 7272SOL    HW228032   4.371   9.337   1.294 -1.1199  2.1136  0.8395
 7273SOL     OW28033   7.451   8.019   1.701 -0.4682  0.0971  0.0142
 7273SOL    HW128034   7.424   7.931   1.741  0.5382 -0.7282 -1.0981
 7273SOL    HW228035   7.545   8.040   1.727 -0.4206  0.4347 -0.4230
 7274SOL     OW28036   1.981   0.229   2.106 -0.0983 -0.7516  0.0261
 7274SOL    HW128037   1.937   0.253   2.019  1.9612  1.1411 -0.5587
 7274SOL    HW228038   1.917   0.244   2.181 -0.2292  2.8436 -0.7140
 7276SOL     OW28039   0.057   1.717   3.540 -0.3266  0.6255  0.4718
 7276SOL    HW128040   0.025   1.632   3.583 -0.4469  0.6796  0.4900
 7276SOL    HW228041   0.085   1.697   3.446 -0.9720  0.6868  0.2625
 7277SOL     OW28042   9.789   7.092   0.150  0.0151 -0.1652 -0.5923
 7277SOL    HW128043   9.810   7.051   0.062 -2.2910 -0.1152 -1.1969
 7277SOL    HW228044   9.845   7.174   0.164  0.2457 -0.0651 -2.0977
 7278SOL     OW28045   0.114   0.501   1.412 -0.0000 -0.1411  0.4496
 7278SOL    HW128046   0.022   0.525   1.380  0.7711  0.6363 -1.2635
 7278SOL    HW228047   0.132   0.405   1.390  0.4273  0.3177 -1.3046
 7280SOL     OW28048   0.883   7.522   1.075 -0.0307 -0.4999  0.2252
 7280SOL    HW128049   0.860   7.544   0.980 -0.4909 -0.2084  0.4049
 7280SOL    HW228050   0.831   7.581   1.137  0.0949 -0.8474  0.6646
 7281SOL     OW28051   3.519   6.043   2.095 -0.0924 -0.5487  0.0424
 7281SOL    HW128052   3.442   6.095   2.131 -0.6050 -1.5996  0.4861
 7281SOL    HW228053   3.491   5.995   2.012  0.1899 -0.6405  0.0003
 7282SOL     OW28054   8.426   5.781   3.664 -0.1239  0.0539 -0.7795
 7282SOL    HW128055   8.474   5.862   3.631 -1.1638  0.8698 -0.3180
 7282SOL    HW228056   8.492   5.717   3.704  0.9873 -0.4255 -3.3322
 7283SOL     OW28057   1.562   9.862   2.091  0.3663 -0.3333 -0.7904
 7283SOL    HW128058   1.629   9.900   2.028 -0.0607 -0.6367 -1.4402
 7283SOL    HW228059   1.601   9.782   2.137  0.8485  0.1789 -0.3036
 7285SOL     OW28060   4.968   2.377   2.482 -0.0707  0.0132  0.6123
 7285SOL    HW128061   4.970   2.301   2.417 -1.3541 -0.7742  1.4842
 7285SOL    HW228062   4.881   2.426   2.473  0.0978  0.4163  1.1635
 7287SOL     OW28063   8.780   6.612   2.449  0.5246  0.0985 -0.2316
 7287SOL    HW128064   8.878   6.629   2.460  0.4195  0.5904 -0.0574
 7287SOL    HW228065   8.747   6.557   2.525  0.3339  1.3079  0.5749
 7289SOL     OW28066   2.678   1.794   3.075  0.4634  0.2597  0.9140
 7289SOL    HW128067   2.615   1.844   3.135 -0.2229 -1.0505  1.2990
 7289SOL    HW228068   2.635   1.710   3.044  1.8051 -0.3557  0.6976
 7290SOL     OW28069   2.053   8.299   1.784 -0.1775 -0.6807  0.1653
 7290SOL    HW128070   2.150   8.310   1.805 -0.4468 -2.2996  2.4940
 7290SOL    HW228071   2.012   8.390   1.770  1.5005  0.0619 -0.0517
 7291SOL     OW28072   1.237   2.658   3.277 -0.1939 -0.0488  0.3437
 7291SOL    HW128073   1.157   2.716   3.295  0.1920  0.5054  0.2978
 7291SOL    HW228074   1.312   2.685   3.338 -0.2455 -0.9871  0.8210
 7292SOL     OW28075   8.715   5.405   0.987 -0.0959 -0.0047 -0.5550
 7292SOL    HW128076   8.694   5.487   1.041 -2.7019 -1.5451  0.8433
 7292SOL    HW228077   8.734   5.329   1.048  1.1182 -0.7700 -1.8588
 7293SOL     OW28078   1.465   1.494   1.580 -0.0773 -0.1881  0.3870
 7293SOL    HW128079   1.366   1.484   1.589  0.0515 -0.7401  1.2315
 7293SOL    HW228080   1.509   1.478   1.668  0.8224 -0.6962 -0.1369
 7294SOL     OW28081   2.105   1.166   1.131 -0.2379  0.3491 -0.3097
 7294SOL    HW128082   2.041   1.091   1.110 -0.0621 -0.0439  0.5431
 7294SOL    HW228083   2.110   1.228   1.052 -1.8234  0.5036 -0.3132
 7295SOL     OW28084   1.944   2.198   0.938 -0.4763  0.4597  0.5429
 7295SOL    HW128085   2.028   2.249   0.916  0.2047 -0.9962 -0.3131
 7295SOL    HW228086   1.881   2.258   0.986 -0.9313  3.0532 -3.0706
 7296SOL     OW28087   3.975   4.483   1.060 -0.4308 -0.6005 -0.2998
 7296SOL    HW128088   3.964   4.397   1.110  0.6529 -0.5532  0.0495
 7296SOL    HW228089   3.887   4.512   1.023 -0.8948 -1.6144 -0.0165
 7298SOL     OW28090   9.755   9.618   2.994  0.0525  0.0761  0.2386
 7298SOL    HW128091   9.746   9.543   2.928  0.3573 -0.3577  0.6818
 7298SOL    HW228092   9.818   9.591   3.067  0.6157  0.9862  0.0963
 7299SOL     OW28093   0.455   9.792   3.182  0.5500  0.4403  0.5172
 7299SOL    HW128094   0.393   9.801   3.104 -0.7055 -1.4139  1.2451
 7299SOL    HW228095   0.406   9.818   3.266  0.5675 -1.4959  1.1561
 7300SOL     OW28096   7.555   0.646   3.299  0.0751 -0.5336 -0.2551
 7300SOL    HW128097   7.566   0.547   3.293 -0.3243 -0.5026 -1.7018
 7300SOL    HW228098   7.605   0.690   3.224 -0.9235  0.2667 -0.4651
 7302SOL     OW28099   4.498   7.629   2.730 -0.3593 -0.7105  0.4528
 7302SOL    HW128100   4.457   7.590   2.813 -0.4293 -0.5357  0.5010
 7302SOL    HW228101   4.478   7.727   2.726  1.3218 -0.2997  1.2585
 7303SOL     OW28102   7.768   9.355   0.784 -0.1271 -0.4510  0.3224
 7303SOL    HW128103   7.853   9.304   0.795 -0.5282 -1.5737 -1.4403
 7303SOL    HW228104   7.740   9.353   0.687 -0.8530  2.0116  0.4297
 7304SOL     OW28105   7.506   7.971   1.302  0.1129 -0.6355 -0.1788
 7304SOL    HW128106   7.571   8.041   1.270  0.2309 -1.5767 -2.0854
 7304SOL    HW228107   7.557   7.891   1.335 -0.0486 -1.8077 -2.6833
 7305SOL     OW28108   1.697   8.486   1.937  0.2207 -0.1831 -0.0771
 7305SOL    HW128109   1.666   8.438   1.854 -0.1360  3.0238 -1.8622
 7305SOL    HW228110   1.789   8.524   1.921  1.6875 -2.5782  2.3032
 7306SOL     OW28111   3.585   9.619   1.481 -0.0544  0.0968  0.1567
 7306SOL    HW128112   3.517   9.609   1.554  0.1077  0.2282  0.3283
 7306SOL    HW228113   3.627   9.531   1.462 -1.8394 -0.4314 -1.4945
 7308SOL     OW28114   9.389   2.230   3.592 -0.0671 -0.7137  0.2917
 7308SOL    HW128115   9.473   2.205   3.641 -0.4232 -1.0202  0.7491
 7308SOL    HW228116   9.412   2.291   3.516  0.5183 -0.4267  0.6918
 7311SOL     OW28117   0.758   9.381   0.696  0.4861  0.6043  0.3969
 7311SOL    HW128118   0.802   9.411   0.612  0.3376 -0.4532 -0.0667
 7311SOL    HW228119   0.811   9.306   0.736 -0.7838 -0.5763 -0.0879
 7314SOL     OW28120   3.328   1.321   1.528  0.0631  0.0273 -0.4761
 7314SOL    HW128121   3.310   1.279   1.617  1.6791 -0.5888 -0.4292
 7314SOL    HW228122   3.272   1.277   1.458  0.3893 -0.9658 -0.1165
 7315SOL     OW28123   9.286   0.996   1.177  0.2137 -0.1014 -0.0488
 7315SOL    HW128124   9.282   0.907   1.131 -1.3111  0.1667 -0.4712
 7315SOL    HW228125   9.270   0.984   1.275 -2.6466 -0.0541 -0.4580
 7316SOL     OW28126   5.559   9.138   1.707  0.1519 -0.1552  0.8491
 7316SOL    HW128127   5.622   9.207   1.671 -1.6833  1.0189 -0.2574
 7316SOL    HW228128   5.541   9.156   1.804 -1.6394  2.0610  0.1763
 7318SOL     OW28129   7.168   0.407   3.202 -0.0154  0.3919 -0.1772
 7318SOL    HW128130   7.118   0.333   3.247 -1.0598  1.0711 -0.1830
 7318SOL    HW228131   7.259   0.376   3.175 -0.2472 -0.7134  0.3170
 7319SOL     OW28132   3.911   7.949   0.929  0.0452  0.0129  0.3605
 7319SOL    HW128133   3.983   8.017   0.912 -0.1910 -0.0147 -0.7972
 7319SOL    HW228134   3.916   7.918   1.024  1.8383 -0.2997  0.1811
 7320SOL     OW28135   8.613   0.185   1.012  0.2756  0.3350 -0.1691
 7320SOL    HW128136   8.585   0.246   0.938 -1.7885 -1.0501 -0.5824
 7320SOL    HW228137   8.553   0.198   1.091  0.8830  0.0219  0.3465
 7322SOL     OW28138   0.995   0.842   3.470  0.2797  0.0352  0.4796
 7322SOL    HW128139   1.077   0.890   3.437 -0.5130 -0.1549 -1.9126
 7322SOL    HW228140   0.915   0.901   3.459 -0.6344 -1.5606 -2.0117
 7323SOL     OW28141   3.191   6.632   1.262  0.1354  0.4103 -0.4390
 7323SOL    HW128142   3.210   6.570   1.338 -0.0262  0.6323 -0.2146
 7323SOL    HW228143   3.105   6.607   1.219  0.7498 -0.3642 -1.2188
 7324SOL     OW28144   8.149   8.210   3.117 -0.4060 -0.8158 -0.6546
 7324SOL    HW128145   8.118   8.223   3.211 -0.5043 -1.2376 -0.6299
 7324SOL    HW228146   8.077   8.239   3.054  0.6046  1.8880 -0.6247
 7326SOL     OW28147   2.561   7.948   0.392  0.1000 -0.3809  0.5771
 7326SOL    HW128148   2.581   7.859   0.350  0.3784 -0.7571  1.4974
 7326SOL    HW228149   2.504   8.002   0.329 -1.1567 -1.6969  0.5429
 7327SOL     OW28150   0.341   0.872   3.668  0.1324 -0.3859 -0.3386
 7327SOL    HW128151   0.340   0.919   3.580  1.4835  1.5971  0.6552
 7327SOL    HW228152   0.416   0.806   3.670 -0.3837 -0.9943 -0.9465
 7328SOL     OW28153   1.530   5.534   0.002 -0.0259  0.2048 -0.4369
 7328SOL    HW128154   1.468   5.534   0.080 -0.1082 -1.0407 -0.4960
 7328SOL    HW228155   1.576   5.446  -0.004  0.1434  0.3687 -1.6729
 7329SOL     OW28156   7.343   1.878   2.903 -0.5998  0.1134  0.2114
 7329SOL    HW128157   7.385   1.787   2.899  0.0210  0.4098 -0.1057
 7329SOL    HW228158   7.375   1.926   2.985  0.3696  0.6640 -0.4729
 7332SOL     OW28159   1.566   4.147   1.669  0.3182 -0.8225  0.1272
 7332SOL    HW128160   1.583   4.242   1.696 -0.6329 -0.4187 -0.6731
 7332SOL    HW228161   1.594   4.085   1.743 -0.7326  0.1718  1.3766
 7333SOL     OW28162   4.164   3.749   3.636 -0.4655 -0.4532 -0.6658
 7333SOL    HW128163   4.087   3.707   3.684  0.8833 -1.4193  0.6611
 7333SOL    HW228164   4.181   3.840   3.672 -1.4270  0.0542 -1.4557
 7334SOL     OW28165   3.426   1.235   2.759  0.2100  0.3392 -0.4576
 7334SOL    HW128166   3.400   1.202   2.850 -1.8161  1.8218 -0.4924
 7334SOL    HW228167   3.525   1.228   2.749  0.2035 -2.3651  0.8603
 7336SOL     OW28168   9.443   3.451   2.584  0.1860 -0.3278 -0.1049
 7336SOL    HW128169   9.393   3.483   2.665 -0.4822  0.2440 -0.7384
 7336SOL    HW228170   9.382   3.453   2.505  0.8603 -0.8231 -0.6347
 7337SOL     OW28171   3.257   7.256   3.355  0.3472  0.2109 -0.0719
 7337SOL    HW128172   3.329   7.284   3.418  1.0989 -1.5626 -0.0996
 7337SOL    HW228173   3.183   7.212   3.406  1.3994 -2.1157 -0.4614
 7338SOL     OW28174   2.751   4.657   1.281  0.4735 -0.3143  0.7347
 7338SOL    HW128175   2.703   4.569   1.282  0.7988 -0.4848  1.8969
 7338SOL    HW228176   2.842   4.646   1.321  0.9496  0.3161 -0.1571
 7339SOL     OW28177   0.040   8.995   1.701 -0.9015 -0.5466 -0.1548
 7339SOL    HW128178  -0.004   9.042   1.625 -2.5131 -0.4180  0.8293
 7339SOL    HW228179   0.026   8.896   1.692 -0.5171 -0.5832 -0.3717
 7340SOL     OW28180   2.991   7.752   2.288 -0.1356 -0.4381 -0.2323
 7340SOL    HW128181   3.035   7.761   2.199 -1.2770  2.5076 -0.5326
 7340SOL    HW228182   3.022   7.825   2.349  0.4564 -2.2674  1.7559
 7341SOL     OW28183   6.572   8.958   3.722  0.3221  0.3161  0.1291
 7341SOL    HW128184   6.514   9.039   3.724  2.0388  1.5691 -0.0019
 7341SOL    HW228185   6.520   8.881   3.686 -1.1013  1.5418 -0.4716
 7342SOL     OW28186   3.546   0.733   2.268  0.2591 -0.8850 -0.1744
 7342SOL    HW128187   3.464   0.790   2.280 -0.3181 -1.8564  0.6196
 7342SOL    HW228188   3.553   0.669   2.345  2.4012 -0.0499  0.3698
 7343SOL     OW28189   1.943   4.196   0.305  0.3439  0.4307  0.5500
 7343SOL    HW128190   2.016   4.173   0.241 -0.4750 -0.2565 -0.1586
 7343SOL    HW228191   1.855   4.193   0.257 -0.0429  2.3834  1.1103
 7344SOL     OW28192   4.169   9.853   2.399  0.5732 -0.4799  0.0792
 7344SOL    HW128193   4.186   9.940   2.354 -0.1586  0.0187  0.7432
 7344SOL    HW228194   4.243   9.790   2.379  1.3357  0.4419 -0.0399
 7345SOL     OW28195   8.409   7.364   3.536 -0.1894  0.1899 -0.0955
 7345SOL    HW128196   8.425   7.348   3.633 -2.4548  0.0830  0.2895
 7345SOL    HW228197   8.342   7.298   3.502  1.9924 -1.0540 -2.2247
 7346SOL     OW28198   1.726   9.085   2.438 -0.4764 -0.1310 -0.6121
 7346SOL    HW128199   1.656   9.132   2.384 -0.7635  0.5094  0.2969
 7346SOL    HW228200   1.810   9.075   2.384 -0.9441 -0.0135 -1.3612
 7347SOL     OW28201   0.417   0.412   2.225  0.1463  0.2801  0.0335
 7347SOL    HW128202   0.475   0.488   2.198  0.1685  0.8464  1.6051
 7347SOL    HW228203   0.372   0.434   2.312 -0.2715 -1.2702  0.2212
 7348SOL     OW28204   0.978   9.523   2.913  0.3611  0.6208  0.1795
 7348SOL    HW128205   0.990   9.568   3.002 -0.0296  1.5829 -0.2494
 7348SOL    HW228206   1.037   9.566   2.845 -0.0307  0.5047 -0.2398
 7350SOL     OW28207   1.099   4.556   2.340  0.6701 -0.4227  0.5264
 7350SOL    HW128208   1.116   4.459   2.361 -0.8258 -0.5441  1.2368
 7350SOL    HW228209   1.077   4.565   2.242  0.8769 -0.7988  0.4446
 7351SOL     OW28210   1.339   9.058   0.381  0.1237 -0.3471 -0.0401
 7351SOL    HW128211   1.304   9.037   0.289 -0.1270 -1.9845  0.4190
 7351SOL    HW228212   1.410   8.992   0.406 -1.2071 -1.1522  1.7402
 7352SOL     OW28213   4.024   8.219   2.912  0.2607 -0.5953 -0.3363
 7352SOL    HW128214   3.973   8.304   2.909  0.9590  0.0124  2.8758
 7352SOL    HW228215   3.962   8.143   2.934  0.3719 -0.1692  1.5182
 7353SOL     OW28216   0.400   9.806   2.135 -0.0264 -0.3710  0.0886
 7353SOL    HW128217   0.462   9.809   2.213  1.7459 -1.4800 -1.2279
 7353SOL    HW228218   0.342   9.725   2.140  0.0187 -0.3897  0.3042
 7354SOL     OW28219   2.436   0.031   0.802  0.8335  0.0748  0.1216
 7354SOL    HW128220   2.356   0.090   0.791 -1.5266 -2.9197  0.4954
 7354SOL    HW228221   2.483   0.055   0.887 -1.2832  0.1191  1.3190
 7355SOL     OW28222   8.041   5.932   2.150  0.0624  0.1486 -0.2083
 7355SOL    HW128223   8.095   5.916   2.233  0.0585 -0.0152 -0.2371
 7355SOL    HW228224   8.042   5.850   2.093 -1.3870 -0.3683  0.4658
 7356SOL     OW28225   7.657   1.317   1.213  0.4824 -0.1569  0.3520
 7356SOL    HW128226   7.686   1.410   1.234 -0.2045  0.1425  0.0178
 7356SOL    HW228227   7.569   1.320   1.164  0.9863 -0.9283 -0.6155
 7357SOL     OW28228   2.872   1.450   3.006  0.0608 -0.3048 -0.3924
 7357SOL    HW128229   2.803   1.501   3.058  0.4195 -0.2126 -0.0036
 7357SOL    HW228230   2.865   1.353   3.028 -0.9819 -0.5002 -1.5466
 7358SOL     OW28231   0.792   2.489   1.435 -0.2393  0.0431 -0.1637
 7358SOL    HW128232   0.750   2.552   1.370  1.2911  0.2130 -1.0030
 7358SOL    HW228233   0.885   2.518   1.455  0.0045 -1.1703  0.5097
 7359SOL     OW28234   9.389   7.840   1.989 -0.2951  0.2697  0.0718
 7359SOL    HW128235   9.325   7.765   1.974  1.1937 -0.9661 -0.2021
 7359SOL    HW228236   9.466   7.831   1.926  1.0841  0.6510  1.6668
 7360SOL     OW28237   7.614   9.881   0.918  0.9457  0.3634  0.3606
 7360SOL    HW128238   7.672   9.812   0.875 -1.1764 -1.0870 -0.2822
 7360SOL    HW228239   7.533   9.897   0.861  0.5408  2.1081  1.3686
 7361SOL     OW28240   0.407   2.281   2.758  0.1453  0.0125 -0.0127
 7361SOL    HW128241   0.488   2.340   2.758 -1.1687  1.8774 -0.3731
 7361SOL    HW228242   0.386   2.254   2.664  0.3678 -0.4859  0.0820
 7363SOL     OW28243   4.142   0.238   1.900  0.0076  0.5353  0.5051
 7363SOL    HW128244   4.052   0.280   1.911 -0.2878 -0.3632  1.5198
 7363SOL    HW228245   4.135   0.161   1.836  0.4083  1.5378 -0.7769
 7364SOL     OW28246   0.768   1.726   0.894  0.4567 -0.1224  0.1053
 7364SOL    HW128247   0.683   1.689   0.933  1.0325 -0.7601  0.7715
 7364SOL    HW228248   0.795   1.807   0.945 -0.9393  1.3947 -1.5108
 7365SOL     OW28249   3.012   8.023   1.529 -0.9421 -0.0078 -0.2410
 7365SOL    HW128250   2.931   7.965   1.521  1.1665 -3.2006  0.4462
 7365SOL    HW228251   3.071   8.008   1.450  0.2800  0.1362  0.6302
 7366SOL     OW28252   4.182   1.096   0.054 -0.0006  0.6831 -0.1070
 7366SOL    HW128253   4.227   1.142  -0.022  1.0740 -1.0532 -0.5491
 7366SOL    HW228254   4.237   1.018   0.083 -2.8919 -1.7519 -0.9214
 7367SOL     OW28255   2.263   3.184   3.044  0.1843  0.3055  0.1862
 7367SOL    HW128256   2.303   3.265   3.087  0.3916  0.3348 -0.0612
 7367SOL    HW228257   2.336   3.123   3.014  0.0274  0.0224  0.3799
 7369SOL     OW28258   3.012   3.512   0.701  0.3988  0.7299 -0.4959
 7369SOL    HW128259   3.102   3.490   0.740 -0.4633 -2.5413 -0.2100
 7369SOL    HW228260   2.995   3.454   0.621 -2.4972 -0.5460  0.9846
 7370SOL     OW28261   3.724   1.678   1.987 -0.1829 -0.1904 -0.1477
 7370SOL    HW128262   3.663   1.742   1.941  0.5875 -0.3036 -1.3381
 7370SOL    HW228263   3.671   1.615   2.044 -0.9479  1.4956  1.0337
 7371SOL     OW28264   5.005   2.790   2.342 -0.0002 -0.0354 -0.2846
 7371SOL    HW128265   4.912   2.790   2.306 -1.1512  1.0623  2.5295
 7371SOL    HW228266   5.038   2.884   2.349  0.8597 -0.3446 -0.1641
 7372SOL     OW28267   2.662   5.274   2.544  0.1922 -0.2883  0.6071
 7372SOL    HW128268   2.634   5.363   2.508  1.3068 -0.7411 -1.5199
 7372SOL    HW228269   2.584   5.228   2.585 -0.9815  0.6274 -0.5549
 7373SOL     OW28270   5.116   3.004   2.595 -0.2142  0.1770  0.4184
 7373SOL    HW128271   5.134   2.938   2.668  0.9565  1.1258  1.0123
 7373SOL    HW228272   5.037   3.061   2.619 -1.6367 -1.4126 -0.3941
 7374SOL     OW28273   0.384   8.596   3.190  0.5400  0.0476  0.0878
 7374SOL    HW128274   0.457   8.607   3.257 -0.5911  1.1044  1.1618
 7374SOL    HW228275   0.299   8.571   3.236 -0.4699  1.6577 -0.8439
 7376SOL     OW28276   9.821   9.206   3.728 -0.4460 -0.0909 -0.3999
 7376SOL    HW128277   9.818   9.285   3.788  0.9253  0.0387 -0.4773
 7376SOL    HW228278   9.851   9.126   3.780  2.9551  0.4975 -1.3439
 7377SOL     OW28279   3.868   3.142   3.229  0.7611 -0.1921  0.1322
 7377SOL    HW128280   3.779   3.105   3.258  0.7334 -0.6493 -0.5274
 7377SOL    HW228281   3.926   3.156   3.310  0.2662 -0.3457  0.5192
 7378SOL     OW28282   0.361   6.573   1.743  0.3002 -1.0986  0.0704
 7378SOL    HW128283   0.310   6.645   1.791  0.8200 -0.8852  0.3053
 7378SOL    HW228284   0.459   6.588   1.755  0.4437 -0.9798 -1.1497
 7379SOL     OW28285   9.437   0.211   0.895  0.5199  0.5126 -0.2706
 7379SOL    HW128286   9.418   0.242   0.988 -0.5867  1.4405 -0.7995
 7379SOL    HW228287   9.395   0.121   0.880  0.4582  0.4909  0.0369
 7380SOL     OW28288   2.430   6.127   0.817 -0.3702 -0.0197 -0.2726
 7380SOL    HW128289   2.379   6.140   0.903 -1.1010  0.5030 -0.7789
 7380SOL    HW228290   2.446   6.030   0.802  1.2082 -0.0311  1.2936
 7381SOL     OW28291   7.074   9.263   2.328 -0.5768 -0.2554  0.6693
 7381SOL    HW128292   7.097   9.243   2.424 -1.2385  0.8226  1.0698
 7381SOL    HW228293   7.104   9.356   2.306 -0.7574 -0.3695 -0.0685
 7382SOL     OW28294   1.634   0.506   0.398  0.2204 -0.7792 -0.1276
 7382SOL    HW128295   1.602   0.418   0.363 -1.1635  0.2609 -1.6046
 7382SOL    HW228296   1.693   0.549   0.329 -2.4550  1.2549 -1.2345
 7383SOL     OW28297   0.690   8.902   2.606  0.2936  0.0163 -0.2175
 7383SOL    HW128298   0.754   8.884   2.681  1.5100  2.6448 -0.5818
 7383SOL    HW228299   0.726   8.862   2.521  0.2797 -0.5636  0.0491
 7384SOL     OW28300   7.776   3.008   1.188 -0.6783 -0.0723 -0.1864
 7384SOL    HW128301   7.702   2.980   1.249 -1.3947  0.6325 -0.7334
 7384SOL    HW228302   7.807   2.929   1.135 -0.6898 -0.4764  0.3959
 7386SOL     OW28303   0.656   4.957   1.963 -0.5722 -0.2613 -0.5483
 7386SOL    HW128304   0.580   4.991   2.019  0.0125  3.2637 -1.7786
 7386SOL    HW228305   0.621   4.935   1.872 -0.7085 -1.8216 -0.1291
 7387SOL     OW28306   3.097   4.314   3.335 -0.5087  0.0656  0.3481
 7387SOL    HW128307   3.152   4.245   3.289 -0.7183  0.3039 -0.2585
 7387SOL    HW228308   3.105   4.401   3.287 -0.5255  0.3827  0.9077
 7389SOL     OW28309   1.794   4.720   0.535 -0.6053 -0.1292  0.4091
 7389SOL    HW128310   1.790   4.626   0.501  1.6486 -0.1242  0.0587
 7389SOL    HW228311   1.886   4.757   0.519 -0.8566  1.4206  2.4397
 7391SOL     OW28312   0.233   0.182   2.220 -0.1539  0.2023 -0.6831
 7391SOL    HW128313   0.232   0.124   2.302 -0.4074  1.4133  0.1786
 7391SOL    HW228314   0.310   0.246   2.226 -1.0076  1.2445 -0.7171
 7392SOL     OW28315   4.818   7.622   2.002 -0.2020 -1.0686  0.3995
 7392SOL    HW128316   4.773   7.712   2.008 -2.9388 -2.3904  0.3527
 7392SOL    HW228317   4.912   7.634   1.971 -1.0103  1.6606 -1.1363
 7393SOL     OW28318   7.835   7.899   1.288 -0.5234 -0.7009  0.5469
 7393SOL    HW128319   7.800   7.844   1.364 -0.9912  0.5694  1.2721
 7393SOL    HW228320   7.872   7.985   1.323  2.0394 -1.3790 -0.3695
 7394SOL     OW28321   9.621   6.482   3.737  0.1521 -0.2987  0.5577
 7394SOL    HW128322   9.709   6.519   3.764  0.1030 -0.7348  1.3171
 7394SOL    HW228323   9.632   6.388   3.704 -0.0183 -0.3242  0.5702
 7395SOL     OW28324   3.030   0.509   1.234 -0.2139  0.1997  0.7718
 7395SOL    HW128325   3.114   0.520   1.182 -0.1700  1.9803  1.1761
 7395SOL    HW228326   2.980   0.428   1.202  1.5117 -0.7212  0.3695
 7396SOL     OW28327   9.870   7.513   3.494 -0.0981  0.1854  0.2869
 7396SOL    HW128328   9.968   7.498   3.506 -0.0884 -0.7716 -0.9207
 7396SOL    HW228329   9.849   7.529   3.398 -1.1598  0.1703  0.5037
 7398SOL     OW28330   1.187   1.587   1.569 -0.9847  0.2621 -0.3222
 7398SOL    HW128331   1.206   1.681   1.542 -2.9556  0.5129 -0.9060
 7398SOL    HW228332   1.109   1.585   1.632 -0.8516 -0.9705 -0.1782
 7400SOL     OW28333   8.081   7.327   3.564 -0.1268 -1.0139 -0.3477
 7400SOL    HW128334   7.990   7.285   3.568 -0.5920  0.0471  0.4715
 7400SOL    HW228335   8.118   7.334   3.656  1.0356 -1.9371 -0.7283
 7401SOL     OW28336   1.883   4.270   2.758 -0.3549  0.6745 -0.3910
 7401SOL    HW128337   1.873   4.238   2.852  0.5600  1.1790 -0.1196
 7401SOL    HW228338   1.861   4.195   2.695  1.0488 -0.2701  0.2292
 7402SOL     OW28339   1.919   0.777   1.614 -0.0692 -0.4659  0.1990
 7402SOL    HW128340   1.986   0.829   1.667 -2.6481  0.1882  2.9794
 7402SOL    HW228341   1.836   0.832   1.604 -1.9612 -3.0830  1.0557
 7403SOL     OW28342   9.068   4.717   0.417  0.0647  0.6844  0.1178
 7403SOL    HW128343   9.032   4.647   0.480  0.8164  1.2270  1.1682
 7403SOL    HW228344   9.144   4.765   0.461  1.3313  0.3183 -1.6524
 7406SOL     OW28345   3.452   5.023   1.639  0.1761  0.2986  0.0169
 7406SOL    HW128346   3.380   5.023   1.708 -0.8801  0.9241 -1.0815
 7406SOL    HW228347   3.413   5.004   1.549  1.6771 -1.4548 -0.2982
 7407SOL     OW28348   2.732   4.918   1.185 -0.1067 -0.2756 -0.0548
 7407SOL    HW128349   2.751   4.828   1.224  0.4952  0.3829  1.2213
 7407SOL    HW228350   2.819   4.966   1.171 -0.3775 -0.2120 -1.4949
 7408SOL     OW28351   0.785   1.019   3.460 -0.3987  0.3522 -0.1634
 7408SOL    HW128352   0.778   1.051   3.554 -0.5069  0.2864 -0.1491
 7408SOL    HW228353   0.751   1.089   3.398 -0.7211  0.2314 -0.1259
 7409SOL     OW28354   6.534   7.827   2.724  0.2878 -0.6691  0.2748
 7409SOL    HW128355   6.594   7.903   2.698  0.9452 -1.3984 -0.3636
 7409SOL    HW228356   6.443   7.862   2.743 -0.1431 -0.0249 -2.7409
 7410SOL     OW28357   2.048   5.345   1.640 -0.1872 -0.0036  0.1817
 7410SOL    HW128358   2.096   5.431   1.624  1.1499 -0.5506  1.1258
 7410SOL    HW228359   2.017   5.342   1.735  2.1109 -1.6683  0.9198
 7412SOL     OW28360   4.462   1.430   0.632 -0.2807  0.1038 -0.0593
 7412SOL    HW128361   4.381   1.414   0.575 -0.3308  2.6384 -0.7719
 7412SOL    HW228362   4.441   1.503   0.698  1.2876  0.5108  0.0011
 7413SOL     OW28363   2.550   8.951   2.364  0.5995  0.3855 -0.5577
 7413SOL    HW128364   2.608   9.014   2.415  1.2896 -1.2215  0.7019
 7413SOL    HW228365   2.454   8.963   2.391  0.9226 -0.2378  0.9283
 7414SOL     OW28366   2.790   7.134   2.775 -0.0482  0.3714 -0.2784
 7414SOL    HW128367   2.722   7.062   2.791  0.3502  0.1964  0.6842
 7414SOL    HW228368   2.743   7.218   2.746 -0.5443 -0.1626 -1.0521
 7415SOL     OW28369   0.350   0.144   0.362  0.6633  0.1328  0.5046
 7415SOL    HW128370   0.343   0.220   0.298 -0.6596 -1.4537 -1.2977
 7415SOL    HW228371   0.444   0.109   0.362  0.8014  0.5020 -0.1313
 7416SOL     OW28372   9.502   3.957   3.769  0.5450  0.2746  0.0173
 7416SOL    HW128373   9.480   3.918   3.679  1.5087 -0.2204 -0.0123
 7416SOL    HW228374   9.595   3.994   3.767  0.8966 -0.5578  1.0904
 7417SOL     OW28375   9.193   3.146   3.754 -0.4573  0.9572  0.3462
 7417SOL    HW128376   9.251   3.188   3.823 -0.0170  2.0469 -0.6843
 7417SOL    HW228377   9.168   3.214   3.684 -2.3924  0.3396  0.3986
 7418SOL     OW28378   2.387   1.618   1.094  0.1921 -0.0751  0.3753
 7418SOL    HW128379   2.355   1.707   1.125 -2.9608 -1.3078  0.8610
 7418SOL    HW228380   2.477   1.599   1.133  1.6135  3.4948 -0.9373
 7419SOL     OW28381   8.141   7.648   3.094 -0.1643  0.7873 -0.1747
 7419SOL    HW128382   8.204   7.638   3.171 -0.2814 -0.0805 -0.1835
 7419SOL    HW228383   8.053   7.607   3.117  0.6342 -1.9563 -1.7177
 7420SOL     OW28384   4.780   4.780   1.862  0.6150 -0.2616 -0.2995
 7420SOL    HW128385   4.791   4.879   1.851 -1.1115 -0.0639 -0.3555
 7420SOL    HW228386   4.692   4.760   1.904  0.5863 -1.8129 -1.0373
 7421SOL     OW28387   0.253   0.605   3.094  0.4795 -0.6045 -0.0518
 7421SOL    HW128388   0.307   0.674   3.046 -1.1248  1.0677  0.4717
 7421SOL    HW228389   0.301   0.576   3.177  0.6890  0.7109  0.3039
 7422SOL     OW28390   5.169   6.328   2.619 -0.2245  1.0150  0.2866
 7422SOL    HW128391   5.146   6.291   2.529 -0.8935 -2.5256  1.8224
 7422SOL    HW228392   5.268   6.340   2.626  0.0970 -1.1382 -0.0965
 7425SOL     OW28393   8.891   4.376   1.166 -0.5763  0.2230 -0.2766
 7425SOL    HW128394   8.962   4.357   1.233 -0.9434  0.4578  0.1775
 7425SOL    HW228395   8.927   4.360   1.074  0.6275  2.1471 -0.1510
 7426SOL     OW28396   1.603   6.175   0.808  0.0912 -0.0405 -0.3830
 7426SOL    HW128397   1.525   6.238   0.811  0.6918  0.7128 -0.3369
 7426SOL    HW228398   1.571   6.082   0.825 -0.5515  0.5014  1.5900
 7428SOL     OW28399   1.578   5.586   2.411 -0.0449 -0.0028 -0.1719
 7428SOL    HW128400   1.489   5.543   2.429 -0.0461  0.1103  0.0958
 7428SOL    HW228401   1.620   5.543   2.331 -1.0115  0.9217 -1.2001
 7431SOL     OW28402   4.157   8.860   2.125 -0.3752 -0.3496  0.3734
 7431SOL    HW128403   4.062   8.889   2.134 -0.4773 -1.1560  1.9917
 7431SOL    HW228404   4.180   8.797   2.200  1.6392  0.4181  0.4099
 7432SOL     OW28405   3.189   7.400   1.651  0.2608 -0.4292  0.0287
 7432SOL    HW128406   3.150   7.311   1.630  0.9892 -0.4579 -1.2698
 7432SOL    HW228407   3.286   7.402   1.625  0.5162  0.4193  0.9728
 7434SOL     OW28408   9.528   9.792   3.062  0.1157 -0.0794 -0.3009
 7434SOL    HW128409   9.611   9.740   3.082  0.4226  0.6746  0.4175
 7434SOL    HW228410   9.534   9.829   2.969  0.3627 -0.4523 -0.4327
 7435SOL     OW28411   4.757   4.311   0.141 -0.0329 -0.0845 -0.2410
 7435SOL    HW128412   4.741   4.256   0.059  0.4227 -0.3071 -0.1809
 7435SOL    HW228413   4.681   4.374   0.154  0.5990  1.0081 -1.6888
 7436SOL     OW28414   9.688   0.664   2.099 -0.3325  0.3746  0.5280
 7436SOL    HW128415   9.682   0.564   2.094  1.3141  0.2235  1.1050
 7436SOL    HW228416   9.744   0.697   2.023 -1.9989  0.9957 -0.4474
 7437SOL     OW28417   1.761   7.764   0.714 -0.4771 -0.7581  0.3072
 7437SOL    HW128418   1.776   7.753   0.615 -1.9257 -2.0512  0.2232
 7437SOL    HW228419   1.813   7.694   0.763  1.1536  0.5876  0.5476
 7439SOL     OW28420   9.174   5.709   3.735 -0.1953  0.3647  0.2073
 7439SOL    HW128421   9.199   5.617   3.764  3.4190  0.8574 -0.9703
 7439SOL    HW228422   9.101   5.705   3.667 -0.1883 -1.6412  0.3007
 7440SOL     OW28423   9.563   4.095   1.688 -0.3238 -0.3583 -0.0710
 7440SOL    HW128424   9.489   4.037   1.725  0.3765 -1.1311  0.1428
 7440SOL    HW228425   9.610   4.045   1.615 -1.2875  0.9161 -1.5732
 7441SOL     OW28426   2.514   7.594   1.602  0.0536 -0.0322  0.1482
 7441SOL    HW128427   2.462   7.618   1.520 -1.4737  1.4240  1.5060
 7441SOL    HW228428   2.461   7.530   1.657  1.5601 -1.9023 -0.5177
 7442SOL     OW28429   2.790   2.233   3.102  0.1914  0.4967  0.3486
 7442SOL    HW128430   2.762   2.310   3.044 -2.0427 -0.3326  0.2538
 7442SOL    HW228431   2.877   2.197   3.070  1.8102  3.6576  1.0709
 7443SOL     OW28432   2.832   6.028   2.449  0.1056  0.0114  0.2365
 7443SOL    HW128433   2.831   6.099   2.520  0.0066 -1.4844  1.7447
 7443SOL    HW228434   2.878   6.064   2.368 -0.0473  1.8494  0.9254
 7444SOL     OW28435   4.462   7.415   0.123  0.3855 -0.3734  0.2334
 7444SOL    HW128436   4.541   7.469   0.154  0.4453 -0.8266  0.8779
 7444SOL    HW228437   4.412   7.380   0.203 -1.8293  1.8447 -0.1237
 7446SOL     OW28438   0.253   5.115   0.339 -0.0321 -0.0826  0.2474
 7446SOL    HW128439   0.306   5.148   0.417 -1.6002 -0.8125  1.6564
 7446SOL    HW228440   0.186   5.185   0.313  0.5229  0.1812 -0.4985
 7447SOL     OW28441   3.441   3.409   3.579 -0.5051  0.0225  0.8077
 7447SOL    HW128442   3.460   3.315   3.551  0.3915  0.1043  1.1160
 7447SOL    HW228443   3.478   3.472   3.512  0.4818  0.1908  1.5095
 7448SOL     OW28444   0.536   0.798   0.983  0.0257 -0.2005  0.2907
 7448SOL    HW128445   0.609   0.734   1.008  0.0446  0.1014  1.0405
 7448SOL    HW228446   0.513   0.786   0.887  0.9386 -0.4281  0.0885
 7449SOL     OW28447   1.615   5.455   0.821  0.1249  0.7781 -0.1341
 7449SOL    HW128448   1.679   5.402   0.766  0.8458  1.4647  0.0406
 7449SOL    HW228449   1.613   5.549   0.789 -0.4624  0.8677  0.1558
 7450SOL     OW28450   9.127   6.352   1.867  0.0324 -0.1516 -0.3036
 7450SOL    HW128451   9.066   6.273   1.866  0.6071 -0.5827 -2.3215
 7450SOL    HW228452   9.214   6.326   1.908  0.2142 -0.5483 -0.9469
 7451SOL     OW28453   8.132   0.239   1.865 -0.1453 -0.4272 -0.1505
 7451SOL    HW128454   8.113   0.298   1.944 -0.1344 -1.7622  0.8711
 7451SOL    HW228455   8.156   0.295   1.786 -0.9250  0.9655  0.5878
 7452SOL     OW28456   0.492   3.743   1.535 -0.5027 -0.1085 -0.3135
 7452SOL    HW128457   0.487   3.781   1.443  1.1765  0.6751 -0.0920
 7452SOL    HW228458   0.440   3.801   1.598  0.0866  0.5304 -0.4037
 7453SOL     OW28459   4.199   7.936   2.842  0.6464  0.2125 -0.0842
 7453SOL    HW128460   4.142   7.948   2.761 -2.6468 -1.2392  1.9083
 7453SOL    HW228461   4.213   8.024   2.887  2.0328  0.9378 -1.8888
 7454SOL     OW28462   2.064   9.116   0.228  0.0818  0.7035 -0.4790
 7454SOL    HW128463   2.064   9.191   0.162 -0.7008  0.4930 -0.7234
 7454SOL    HW228464   1.979   9.118   0.281 -0.9922 -1.3721 -2.0698
 7455SOL     OW28465   4.746   0.179   3.529 -0.1946  0.0258  0.4711
 7455SOL    HW128466   4.760   0.124   3.611 -1.8242  1.3274  1.6518
 7455SOL    HW228467   4.679   0.135   3.469  0.6287 -0.6797  0.0624
 7456SOL     OW28468   3.160   4.214   3.574  0.0510 -0.1956 -0.5267
 7456SOL    HW128469   3.092   4.234   3.645  0.1000  1.4149 -0.9110
 7456SOL    HW228470   3.119   4.228   3.484  0.0396 -2.0658 -0.8225
 7458SOL     OW28471   6.515   0.216   1.784  0.2254 -0.2424  0.3847
 7458SOL    HW128472   6.456   0.147   1.826 -1.5237  1.0540  0.1061
 7458SOL    HW228473   6.469   0.305   1.786  1.2620  0.3803 -1.7841
 7459SOL     OW28474   4.353   8.113   1.338 -0.7263  0.2035 -0.3226
 7459SOL    HW128475   4.370   8.086   1.433 -0.5828  0.5289 -0.2558
 7459SOL    HW228476   4.396   8.201   1.320  0.8547 -0.7432 -1.2351
 7461SOL     OW28477   9.591   7.677   0.108  0.0021 -0.1065 -0.0963
 7461SOL    HW128478   9.633   7.762   0.139 -0.3890  0.1505 -0.2633
 7461SOL    HW228479   9.504   7.664   0.156  0.3199 -0.6852  0.3213
 7462SOL     OW28480   3.676   6.876   1.357 -0.3516  0.1622 -0.2207
 7462SOL    HW128481   3.638   6.961   1.320 -0.7241 -0.8313 -2.1318
 7462SOL    HW228482   3.775   6.887   1.367 -0.4309  0.9215 -0.1916
 7463SOL     OW28483   2.959   8.067   0.797  0.2899  0.4483 -0.9740
 7463SOL    HW128484   2.959   7.970   0.771  1.2806  0.2256 -0.1809
 7463SOL    HW228485   3.047   8.108   0.774 -0.3487  1.3402 -1.8972
 7464SOL     OW28486   8.641   1.991   1.612  0.6121 -0.1038 -0.1408
 7464SOL    HW128487   8.621   2.079   1.654 -0.2504 -0.5217  0.3327
 7464SOL    HW228488   8.576   1.923   1.645 -0.6663 -0.2433 -2.8380
 7465SOL     OW28489   2.571   7.098   3.085 -0.4179 -0.5878 -0.4752
 7465SOL    HW128490   2.575   7.100   2.985 -1.1975  0.8556 -0.4826
 7465SOL    HW228491   2.487   7.053   3.113 -0.0773 -1.2261 -0.4492
 7467SOL     OW28492   6.953   8.312   1.973 -0.6215  0.0590  0.0821
 7467SOL    HW128493   6.957   8.393   1.914 -1.0059 -0.6241 -0.8923
 7467SOL    HW228494   6.924   8.233   1.920 -0.3618 -0.7085  1.0558
 7468SOL     OW28495   2.120   8.512   1.401  0.8231 -0.4266  0.2676
 7468SOL    HW128496   2.128   8.610   1.389  0.7318 -0.1390  2.2671
 7468SOL    HW228497   2.205   8.476   1.440  0.6258 -1.0326  0.1503
 7469SOL     OW28498   2.102   3.402   2.623 -0.4025  0.1029 -0.6628
 7469SOL    HW128499   2.151   3.399   2.710  2.4162 -1.5540 -2.2304
 7469SOL    HW228500   2.012   3.361   2.634 -0.7096  1.3180  1.8094
 7471SOL     OW28501   9.268   6.579   1.690  0.0003 -0.0393 -0.4214
 7471SOL    HW128502   9.313   6.558   1.777 -1.9597  0.7956  0.8090
 7471SOL    HW228503   9.307   6.663   1.652  1.1419 -0.6255 -0.5741
 7472SOL     OW28504   7.162   9.228   2.595  0.0057  0.1696 -0.0311
 7472SOL    HW128505   7.088   9.168   2.625 -0.0578 -0.3973 -1.3148
 7472SOL    HW228506   7.247   9.176   2.588  0.2667  0.5515  0.2459
 7473SOL     OW28507   2.998   5.017   2.723 -0.1402 -0.4222  0.2797
 7473SOL    HW128508   3.033   4.954   2.654 -1.2297 -0.4578 -0.2530
 7473SOL    HW228509   3.074   5.055   2.776  0.6856 -0.5196 -0.8256
 7474SOL     OW28510   2.687   0.722   0.668  0.0908  0.0819  0.3252
 7474SOL    HW128511   2.620   0.796   0.675 -0.9252 -0.5072 -2.3727
 7474SOL    HW228512   2.777   0.760   0.648 -0.2821  0.6701 -0.2705
 7475SOL     OW28513   7.941   5.268   1.495  0.3557 -0.1123 -0.3270
 7475SOL    HW128514   7.904   5.355   1.461  0.1837 -0.3283 -0.7001
 7475SOL    HW228515   7.905   5.193   1.440 -2.1849 -0.7647  2.0992
 7476SOL     OW28516   9.071   6.401   2.185 -0.1331  0.6571 -0.3745
 7476SOL    HW128517   9.076   6.363   2.092 -0.8250  1.7438 -0.8761
 7476SOL    HW228518   9.014   6.342   2.242  0.7250 -0.2984 -0.4997
 7478SOL     OW28519   4.747   2.548   1.322 -0.0925  0.1576  0.1242
 7478SOL    HW128520   4.828   2.536   1.379  0.0890 -1.6003 -0.4660
 7478SOL    HW228521   4.730   2.645   1.308  2.0576  0.5467  0.0480
 7479SOL     OW28522   0.461   3.551   0.494 -0.2059 -0.1251  0.3868
 7479SOL    HW128523   0.424   3.466   0.530 -2.3406  0.0682 -1.2485
 7479SOL    HW228524   0.561   3.543   0.486 -0.5808 -3.3842 -1.9801
 7480SOL     OW28525   0.275   5.659   2.937  0.1994  0.0249 -0.3790
 7480SOL    HW128526   0.266   5.565   2.969 -3.0216  0.0939 -0.9179
 7480SOL    HW228527   0.312   5.660   2.844 -0.7763 -0.7721 -0.7773
 7481SOL     OW28528   5.190   1.680   2.788 -0.0296 -0.1063 -0.5427
 7481SOL    HW128529   5.283   1.687   2.754  0.2000  0.5444  0.2009
 7481SOL    HW228530   5.126   1.702   2.714  0.4804  1.8673 -0.4202
 7482SOL     OW28531   1.984   2.394   0.111  0.2088 -0.2586  0.1814
 7482SOL    HW128532   1.914   2.336   0.153  0.6033 -2.0293 -1.5173
 7482SOL    HW228533   1.940   2.466   0.057 -0.3403 -1.1108 -0.5379
 7483SOL     OW28534   3.031   4.514   1.609  0.0702  0.5548  0.0659
 7483SOL    HW128535   3.096   4.586   1.632 -0.3321  1.0914 -0.4801
 7483SOL    HW228536   3.030   4.445   1.683 -0.2805  1.6077  1.0574
 7484SOL     OW28537   9.279   9.457   3.504  0.0707 -0.2622 -0.0183
 7484SOL    HW128538   9.197   9.410   3.536 -0.1943 -0.6373 -1.2280
 7484SOL    HW228539   9.263   9.556   3.507 -0.7834 -0.3558 -1.1708
 7485SOL     OW28540   3.676   4.804   0.056  0.6185  0.2004 -0.6620
 7485SOL    HW128541   3.708   4.783  -0.037 -0.4876  0.2726 -1.0601
 7485SOL    HW228542   3.613   4.734   0.086 -0.3911  1.1018 -0.6481
 7486SOL     OW28543   0.234   9.158   2.962  0.4641 -0.4447 -0.6848
 7486SOL    HW128544   0.260   9.100   2.886  0.1727 -2.2308  0.5503
 7486SOL    HW228545   0.214   9.102   3.042 -0.7156  1.2955  0.2840
 7487SOL     OW28546   3.049   1.824   1.456  0.2167  0.1900  0.8181
 7487SOL    HW128547   3.021   1.843   1.550 -1.1368  1.0054  0.2586
 7487SOL    HW228548   3.040   1.907   1.401 -0.5190 -0.6882 -0.4035
 7488SOL     OW28549   1.730   1.219   0.542 -0.4033  0.1852  0.5405
 7488SOL    HW128550   1.731   1.190   0.638  0.4419 -1.1682  0.1430
 7488SOL    HW228551   1.808   1.177   0.494 -1.0594  0.5088 -0.8250
 7489SOL     OW28552   9.007   5.280   0.515 -0.3143  0.4183  0.1655
 7489SOL    HW128553   8.946   5.282   0.595  1.0771 -0.3753  1.2640
 7489SOL    HW228554   8.952   5.280   0.432 -1.7978  0.8645  1.1169
 7490SOL     OW28555   8.315   4.116   2.293 -0.1355  0.1761 -0.0115
 7490SOL    HW128556   8.293   4.072   2.206  1.1489  0.8519 -0.6934
 7490SOL    HW228557   8.320   4.047   2.366 -1.1664 -0.3944 -0.4757
 7491SOL     OW28558   8.542   5.278   2.676 -0.2150  0.1125  0.4172
 7491SOL    HW128559   8.573   5.370   2.697 -0.6930  0.4513 -0.3620
 7491SOL    HW228560   8.454   5.282   2.629  0.4727 -0.6806 -0.9723
 7492SOL     OW28561   2.104   7.188   2.195 -0.8335  0.1225 -0.3094
 7492SOL    HW128562   2.102   7.235   2.107 -0.6181 -0.4456 -0.6259
 7492SOL    HW228563   2.015   7.148   2.214 -0.4089 -1.2281 -1.0947
 7493SOL     OW28564   8.390   2.114   3.205  0.4199 -0.1927 -0.4255
 7493SOL    HW128565   8.445   2.165   3.139 -0.7928  0.3077 -1.0673
 7493SOL    HW228566   8.303   2.162   3.220  0.4041 -0.6484  1.0249
 7494SOL     OW28567   8.601   9.724   0.361  0.1756  0.5896 -0.2777
 7494SOL    HW128568   8.536   9.653   0.337  1.3591 -0.2922 -0.9199
 7494SOL    HW228569   8.555   9.813   0.359 -0.6602  0.1515 -2.1779
 7495SOL     OW28570   9.089   5.237   3.329 -0.1148  0.5695  0.3117
 7495SOL    HW128571   9.159   5.304   3.307  0.7558 -0.5101 -0.2405
 7495SOL    HW228572   9.130   5.158   3.373 -1.2042  0.6060  1.4233
 7496SOL     OW28573   3.929   9.528   2.600 -0.1020 -0.1550 -0.1197
 7496SOL    HW128574   3.934   9.583   2.517  0.2490 -1.2604 -0.8413
 7496SOL    HW228575   3.870   9.573   2.667 -1.4035  0.1198 -1.4436
 7497SOL     OW28576   9.126   2.636   1.019 -0.2532 -0.1293 -0.6856
 7497SOL    HW128577   9.190   2.708   0.991  0.9736 -1.3824 -1.1691
 7497SOL    HW228578   9.037   2.677   1.038  0.1733  1.4032 -1.8250
 7498SOL     OW28579   3.879   0.392   1.958 -0.0425 -0.0636  1.0815
 7498SOL    HW128580   3.822   0.325   2.006 -1.2382  1.2304  1.5243
 7498SOL    HW228581   3.830   0.425   1.877  0.4330  0.4292  0.9928
 7499SOL     OW28582   2.975   4.989   1.788 -0.1145 -0.2937  0.1405
 7499SOL    HW128583   2.960   4.910   1.846  1.2286 -1.5572 -1.1839
 7499SOL    HW228584   2.969   4.962   1.692  0.1896  1.2383 -0.3322
 7500SOL     OW28585   9.225   5.914   0.348  0.2383  0.0902  0.3394
 7500SOL    HW128586   9.207   5.849   0.422 -4.7124  1.7746  0.7691
 7500SOL    HW228587   9.254   6.002   0.386 -0.4658  0.3944  0.1741
 7501SOL     OW28588   0.621   0.116   2.354  0.1494 -0.6708 -0.0788
 7501SOL    HW128589   0.656   0.027   2.325 -2.2325 -1.7284  0.0806
 7501SOL    HW228590   0.613   0.177   2.276 -0.0293 -1.2632 -0.5227
 7502SOL     OW28591   1.114   4.820   2.582 -0.0515  0.0099 -0.0745
 7502SOL    HW128592   1.137   4.771   2.497  0.3111  0.6571 -0.3511
 7502SOL    HW228593   1.198   4.852   2.626 -0.3810  1.9240 -0.8123
 7503SOL     OW28594   2.319   2.710   1.375 -0.2190  0.0948  0.5645
 7503SOL    HW128595   2.315   2.806   1.404 -1.8317 -0.2292  1.4447
 7503SOL    HW228596   2.408   2.692   1.333 -0.3353  2.2762 -0.6611
 7507SOL     OW28597   3.852   2.912   2.993  0.1496  0.4729 -0.0609
 7507SOL    HW128598   3.873   2.952   2.904 -1.9846  1.0543 -0.3225
 7507SOL    HW228599   3.775   2.960   3.035 -0.9468 -1.8342  0.6816
 7508SOL     OW28600   2.708   3.599   0.084 -0.0964  0.0273  0.3570
 7508SOL    HW128601   2.693   3.697   0.070  1.6214  0.3215  0.3939
 7508SOL    HW228602   2.625   3.548   0.060 -0.0924  1.2354 -2.4527
 7509SOL     OW28603   0.876   1.446   3.339  0.2934 -0.4102  0.0960
 7509SOL    HW128604   0.887   1.501   3.256 -0.3605  0.6029  0.6690
 7509SOL    HW228605   0.965   1.430   3.381  0.3409  1.7134  0.8708
 7510SOL     OW28606   6.391   9.486   2.965  0.1585 -0.2171 -0.4534
 7510SOL    HW128607   6.455   9.409   2.965  0.9247  0.4117 -0.6466
 7510SOL    HW228608   6.352   9.496   2.873 -1.8382 -1.9225  0.1983
 7511SOL     OW28609   3.214   8.631   2.638 -0.1938  0.5320 -0.2620
 7511SOL    HW128610   3.174   8.640   2.547 -0.0872  0.3418 -0.3277
 7511SOL    HW228611   3.250   8.538   2.650  2.1679  1.3415 -0.9916
 7512SOL     OW28612   0.499   6.065   0.959  0.1265  0.3402 -0.1007
 7512SOL    HW128613   0.489   6.124   0.879 -0.9879  2.2068  1.3729
 7512SOL    HW228614   0.595   6.040   0.970  0.4321  0.8845 -1.4364
 7514SOL     OW28615   5.464   8.525   2.061 -0.0253 -0.2216 -0.1552
 7514SOL    HW128616   5.442   8.439   2.108 -0.6686  0.2989  0.5034
 7514SOL    HW228617   5.379   8.570   2.032  0.3089  0.1863 -0.4987
 7515SOL     OW28618   6.822   9.682   0.655 -0.2636  0.2993  0.1935
 7515SOL    HW128619   6.898   9.647   0.600 -0.7146 -0.3089 -0.0440
 7515SOL    HW228620   6.826   9.641   0.746  0.1251  0.8360  0.4199
 7516SOL     OW28621   1.439   7.780   1.011 -0.0992  0.1672 -0.2424
 7516SOL    HW128622   1.473   7.729   1.090 -0.1490  0.4930 -0.0126
 7516SOL    HW228623   1.342   7.761   0.998 -0.3111  0.8639  0.3463
 7518SOL     OW28624   9.902   2.724   2.616 -0.0227 -0.3025 -0.0635
 7518SOL    HW128625   9.956   2.713   2.700  0.8536  1.9105 -0.3094
 7518SOL    HW228626   9.933   2.657   2.548  0.4578 -0.9493  0.7752
 7519SOL     OW28627   5.277   3.901   0.103 -0.2817  0.5354 -0.4596
 7519SOL    HW128628   5.223   3.822   0.132  1.5083 -0.3226  0.6094
 7519SOL    HW228629   5.224   3.985   0.118 -0.8466 -0.1854  1.8188
 7520SOL     OW28630   2.662   5.023   3.000  0.3297 -0.5664  0.2219
 7520SOL    HW128631   2.581   5.046   2.947  1.2999 -0.0121 -1.0476
 7520SOL    HW228632   2.640   5.026   3.098 -0.9341  0.5181 -0.0791
 7521SOL     OW28633   3.108   3.924   2.185 -0.7754  0.2457 -0.0798
 7521SOL    HW128634   3.111   3.997   2.253  1.3741 -1.2989  1.5621
 7521SOL    HW228635   3.165   3.949   2.106  0.0455  0.3284  0.5285
 7522SOL     OW28636   7.530   0.130   2.585  0.2317 -0.2649  0.0530
 7522SOL    HW128637   7.506   0.188   2.663 -0.1655 -1.6679  0.9925
 7522SOL    HW228638   7.461   0.058   2.575  0.8775 -0.7583 -0.9025
 7523SOL     OW28639   1.814   6.283   0.393 -0.4767 -0.0262  0.4010
 7523SOL    HW128640   1.878   6.329   0.453 -0.8909  1.5880 -0.3683
 7523SOL    HW228641   1.762   6.215   0.445 -1.4923  1.9999  2.0747
 7524SOL     OW28642   1.598   0.715   1.318 -0.0746 -0.3977 -0.0628
 7524SOL    HW128643   1.679   0.667   1.284  2.1908  2.4621  1.0753
 7524SOL    HW228644   1.578   0.793   1.258 -2.2563 -1.2973 -0.5469
 7525SOL     OW28645   3.664   9.943   1.727  0.0242 -0.0934  0.0638
 7525SOL    HW128646   3.585  10.001   1.747 -0.4521 -0.2639 -1.3144
 7525SOL    HW228647   3.637   9.847   1.730  0.4312 -0.1917  0.6780
 7528SOL     OW28648   0.126   8.292   3.307  0.3503 -0.0252 -0.0793
 7528SOL    HW128649   0.070   8.253   3.235  0.8413 -1.0637  0.0897
 7528SOL    HW228650   0.077   8.287   3.394 -0.9689  2.8270 -0.5979
 7529SOL     OW28651   4.208   7.437   1.261  0.8161  0.1621  0.1238
 7529SOL    HW128652   4.292   7.419   1.313 -0.3869 -1.3641  1.6001
 7529SOL    HW228653   4.179   7.531   1.278  2.7588  1.0342 -1.2050
 7530SOL     OW28654   0.833   1.129   1.386  0.5683  0.1040  0.1238
 7530SOL    HW128655   0.884   1.045   1.368  1.1523  0.3781  0.5012
 7530SOL    HW228656   0.742   1.106   1.422  0.5350 -0.3745 -0.2614
 7531SOL     OW28657   1.959   8.921   3.718  0.3092  0.4422  0.1700
 7531SOL    HW128658   2.006   8.854   3.776  1.1359  0.2407 -0.7295
 7531SOL    HW228659   1.866   8.934   3.752  0.4651 -0.4096  0.9539
 7534SOL     OW28660   8.781   7.985   3.307  0.4720  0.0209 -0.3717
 7534SOL    HW128661   8.758   7.931   3.226 -2.0877 -0.2514  0.5130
 7534SOL    HW228662   8.844   7.934   3.365  0.7392 -0.5967 -1.2025
 7535SOL     OW28663   3.335   1.156   2.385  0.3661  0.1646 -0.5683
 7535SOL    HW128664   3.420   1.179   2.338  0.8805 -1.4529 -0.4793
 7535SOL    HW228665   3.349   1.073   2.441  0.1653  2.7089  3.4950
 7536SOL     OW28666   7.848   3.635   0.909  0.6089 -0.2542  0.0154
 7536SOL    HW128667   7.818   3.666   0.819  0.7516  1.1226  0.4335
 7536SOL    HW228668   7.773   3.591   0.957 -0.0841  1.0025  0.0964
 7537SOL     OW28669   1.833   8.147   3.093 -0.6078  0.4166 -0.7128
 7537SOL    HW128670   1.888   8.130   3.012  0.7941 -1.6271  0.6239
 7537SOL    HW228671   1.886   8.126   3.175 -2.5972  0.6689  0.6870
 7538SOL     OW28672   1.189   8.299   3.596 -0.9115 -0.1019  0.9764
 7538SOL    HW128673   1.131   8.221   3.620 -0.5671 -0.3742  0.9350
 7538SOL    HW228674   1.281   8.266   3.575 -0.5833  0.3925  1.6331
 7539SOL     OW28675   3.308   4.131   2.018 -0.3206 -0.1342 -0.2585
 7539SOL    HW128676   3.368   4.092   2.088  0.1499 -0.9726 -1.1023
 7539SOL    HW228677   3.298   4.229   2.033  0.6093 -0.1275  0.3753
 7540SOL     OW28678   0.833   4.173   1.299 -0.4109 -0.2056 -0.6455
 7540SOL    HW128679   0.925   4.172   1.261 -0.6496  1.9859 -1.3410
 7540SOL    HW228680   0.836   4.140   1.394  1.2509  0.8592 -0.3062
 7542SOL     OW28681   2.058   3.685   1.316 -0.1558  0.2329 -0.4374
 7542SOL    HW128682   2.150   3.724   1.314  0.4712 -1.2346 -0.5057
 7542SOL    HW228683   2.061   3.593   1.355 -1.4165 -0.2994 -1.5276
 7543SOL     OW28684   1.164   1.546   2.753 -0.5326  0.3825 -0.2362
 7543SOL    HW128685   1.114   1.460   2.738  0.3198  0.1972 -2.1463
 7543SOL    HW228686   1.123   1.595   2.830 -1.2100 -1.5989  0.6933
 7544SOL     OW28687   4.145   0.136   2.335  1.0999  0.0413  0.1822
 7544SOL    HW128688   4.146   0.236   2.333  1.8423  0.0270 -0.7140
 7544SOL    HW228689   4.164   0.101   2.243 -0.9988 -0.9321  0.0910
 7546SOL     OW28690   1.147   8.108   2.837 -0.6502 -0.1422  0.0212
 7546SOL    HW128691   1.165   8.204   2.818 -1.5531 -0.0779 -0.4952
 7546SOL    HW228692   1.135   8.095   2.935  0.7115  0.0608  0.2276
 7547SOL     OW28693   4.895   7.928   3.019 -0.1325  0.0458 -0.2255
 7547SOL    HW128694   4.990   7.927   3.049  0.0920  1.0977 -0.8673
 7547SOL    HW228695   4.842   7.985   3.082 -0.4648 -1.0656  0.5009
 7549SOL     OW28696   7.386   8.914   2.421 -0.0743 -0.0069 -0.3627
 7549SOL    HW128697   7.411   8.822   2.389 -1.9647 -0.8697  0.5434
 7549SOL    HW228698   7.398   8.979   2.346  1.4384 -0.9481 -0.9800
 7550SOL     OW28699   5.751   7.167   3.323 -0.1380 -0.1586  0.6603
 7550SOL    HW128700   5.750   7.245   3.260  0.0662 -0.2456  0.5481
 7550SOL    HW228701   5.812   7.187   3.399 -0.2425 -0.1285  0.7368
 7551SOL     OW28702   8.445   0.082   1.832 -0.0990  0.0106 -0.2866
 7551SOL    HW128703   8.544   0.087   1.829 -0.0231 -1.6316 -0.6402
 7551SOL    HW228704   8.406   0.155   1.775  0.8820  1.0621  0.3692
 7553SOL     OW28705   2.875   8.331   2.667 -0.2390 -0.1282 -0.1020
 7553SOL    HW128706   2.852   8.292   2.757 -0.0204  1.0442  0.4770
 7553SOL    HW228707   2.810   8.403   2.645  1.5724  1.7563  0.5692
 7554SOL     OW28708   1.452   8.916   1.295  0.0242  0.7573 -0.2559
 7554SOL    HW128709   1.388   8.928   1.218 -2.1374  1.1380  1.5412
 7554SOL    HW228710   1.405   8.937   1.381  2.5495  0.8469  1.1538
 7556SOL     OW28711   2.825   2.264   3.399  0.6934  0.1255 -0.8453
 7556SOL    HW128712   2.803   2.262   3.301  1.5177 -0.3696 -1.0293
 7556SOL    HW228713   2.924   2.268   3.411  0.6521 -0.9143 -0.0345
 7557SOL     OW28714   0.345   7.150   1.347 -0.7787  0.1467  0.1067
 7557SOL    HW128715   0.409   7.078   1.374 -1.5838  0.1306  1.9790
 7557SOL    HW228716   0.286   7.116   1.274  0.0549 -0.4764 -0.2884
 7559SOL     OW28717   2.383   8.366   2.505 -0.6874 -0.2206 -0.2057
 7559SOL    HW128718   2.313   8.307   2.544 -1.2234  0.3544 -0.3053
 7559SOL    HW228719   2.371   8.371   2.406 -0.3933 -0.2607 -0.2458
 7560SOL     OW28720   0.885   4.439   0.916 -0.2869 -0.2712 -0.4384
 7560SOL    HW128721   0.961   4.377   0.897 -1.6012 -1.6322 -1.3384
 7560SOL    HW228722   0.857   4.485   0.832  0.3052  1.1524  0.1185
 7561SOL     OW28723   1.684   3.807   2.770  0.1838 -0.7158 -0.1784
 7561SOL    HW128724   1.607   3.869   2.785  0.3695 -0.5267 -0.0164
 7561SOL    HW228725   1.656   3.713   2.791  0.0413 -0.6277  0.0264
 7562SOL     OW28726   4.163   3.293   0.812 -0.4912  0.4897  0.4426
 7562SOL    HW128727   4.219   3.216   0.843 -2.1276 -0.1192  1.9667
 7562SOL    HW228728   4.203   3.379   0.845  0.0642  0.1322  0.7041
 7563SOL     OW28729   8.072   7.760   1.139 -0.6541  0.2179  0.6364
 7563SOL    HW128730   8.141   7.833   1.142 -0.1188 -0.3036  1.2649
 7563SOL    HW228731   7.981   7.801   1.130 -0.5704  1.0979  3.4066
 7565SOL     OW28732   6.517   9.913   1.415 -0.0356  0.1435 -0.0160
 7565SOL    HW128733   6.451   9.988   1.410  0.3163  0.4829  0.4765
 7565SOL    HW228734   6.609   9.949   1.407  0.0952 -0.3435 -0.8170
 7566SOL     OW28735   4.498   1.671   1.095 -0.1343 -0.1534  0.1468
 7566SOL    HW128736   4.405   1.703   1.112 -0.2566 -1.1119  1.3215
 7566SOL    HW228737   4.497   1.574   1.071  0.6229 -0.3536  0.8949
 7567SOL     OW28738   9.111   8.873   1.837  0.2015  0.0394 -0.5455
 7567SOL    HW128739   9.120   8.972   1.825 -0.0512  0.0593 -0.5760
 7567SOL    HW228740   9.060   8.834   1.760  1.2613 -0.2743 -1.1120
 7568SOL     OW28741   7.418   8.880   3.110 -0.2075 -0.2287 -0.7049
 7568SOL    HW128742   7.455   8.860   3.201 -0.2271  0.8579 -0.4527
 7568SOL    HW228743   7.361   8.804   3.080 -2.4057  0.5358  1.3594
 7569SOL     OW28744   3.066   4.135   1.571 -0.0070 -0.1144 -0.6853
 7569SOL    HW128745   3.062   4.182   1.659  2.8976  0.9763 -1.0960
 7569SOL    HW228746   3.050   4.037   1.584  1.7697 -0.1608  1.2541
 7570SOL     OW28747   2.282   0.791   2.909 -0.9552 -0.7199  0.3004
 7570SOL    HW128748   2.336   0.842   2.842 -1.6784 -0.0260  0.2444
 7570SOL    HW228749   2.343   0.730   2.961 -0.4065 -1.3439 -1.0437
 7571SOL     OW28750   1.355   4.985   1.604  0.1407 -0.5442  0.0996
 7571SOL    HW128751   1.316   5.036   1.681  0.4068  0.6086 -0.5149
 7571SOL    HW228752   1.433   5.036   1.566  0.1749 -1.2260 -0.7689
 7573SOL     OW28753   3.898   8.249   3.757 -0.1949 -0.1850  0.1552
 7573SOL    HW128754   3.891   8.251   3.657  0.0409 -2.4241  0.0826
 7573SOL    HW228755   3.855   8.167   3.792 -0.6697  0.8102  1.9572
 7574SOL     OW28756   6.864   8.702   3.465 -0.1762 -0.1172  0.0286
 7574SOL    HW128757   6.783   8.651   3.493 -1.2739  1.6591  0.1078
 7574SOL    HW228758   6.898   8.665   3.379 -1.9503  0.0708 -0.7729
 7575SOL     OW28759   3.891   0.998   2.266 -0.0287 -0.1643 -0.3263
 7575SOL    HW128760   3.894   1.076   2.204 -1.2081  0.5556  0.5009
 7575SOL    HW228761   3.870   1.029   2.358 -0.0775 -1.4151  0.1004
 7578SOL     OW28762   0.390   5.256   2.297 -0.3902 -0.1299 -0.0773
 7578SOL    HW128763   0.402   5.229   2.393 -2.4110  0.0861  0.2584
 7578SOL    HW228764   0.422   5.350   2.285  0.5918 -0.4190  0.1961
 7579SOL     OW28765   2.896   9.609   3.163  0.2099 -0.2616  0.1886
 7579SOL    HW128766   2.987   9.569   3.158  0.5842  0.5975  0.1199
 7579SOL    HW228767   2.857   9.593   3.254  0.8327  0.2513  0.5463
 7580SOL     OW28768   9.614   0.871   1.796  0.4693 -0.1143 -0.1645
 7580SOL    HW128769   9.676   0.864   1.874 -1.0339  1.4460  1.2262
 7580SOL    HW228770   9.655   0.930   1.726  0.4814  1.1283  0.8616
 7581SOL     OW28771   4.860   2.079   1.707 -0.3733 -0.6349  0.4849
 7581SOL    HW128772   4.922   2.148   1.745  0.2375 -0.1033 -1.4097
 7581SOL    HW228773   4.767   2.099   1.737  0.2417 -1.0811  2.8493
 7582SOL     OW28774   4.490   0.275   1.806 -0.3771  0.2114  0.1772
 7582SOL    HW128775   4.473   0.298   1.902 -0.8315  0.8383 -0.0496
 7582SOL    HW228776   4.462   0.181   1.789  1.2105 -0.4371  1.0470
 7583SOL     OW28777   6.146   7.724   1.999  0.3012 -0.6132 -0.0231
 7583SOL    HW128778   6.065   7.765   1.957  1.1696  1.1728  0.0278
 7583SOL    HW228779   6.121   7.684   2.087 -0.1018  1.9402  1.0616
 7585SOL     OW28780   0.495   1.938   1.607  0.1344  0.3768  0.0752
 7585SOL    HW128781   0.449   1.852   1.626  0.3205  0.6412  1.7375
 7585SOL    HW228782   0.435   1.998   1.554 -0.2766 -0.4725 -0.4111
 7587SOL     OW28783   9.172   6.467   0.819  0.0275 -0.5488 -0.2434
 7587SOL    HW128784   9.093   6.523   0.845 -0.7453 -1.8134  0.1966
 7587SOL    HW228785   9.224   6.442   0.901  1.5347  1.1852 -0.6302
 7588SOL     OW28786   2.963   1.525   1.290  0.2922 -0.3049  0.3989
 7588SOL    HW128787   2.964   1.618   1.326  0.4648 -0.5642  1.0724
 7588SOL    HW228788   3.057   1.496   1.269  0.0031  0.6400 -2.3495
 7589SOL     OW28789   4.809   8.646   3.133 -0.4142 -0.1406  0.2067
 7589SOL    HW128790   4.789   8.637   3.036  1.1935  0.0588 -0.1600
 7589SOL    HW228791   4.819   8.743   3.156  1.2987 -0.2643  0.0986
 7590SOL     OW28792   7.607   6.437   2.830 -0.3076 -0.2332 -0.9994
 7590SOL    HW128793   7.533   6.482   2.780 -0.0277 -0.2463 -1.4234
 7590SOL    HW228794   7.569   6.395   2.913 -0.7397 -0.0668 -1.1078
 7591SOL     OW28795   1.672   6.841   3.271 -0.1117  0.1128  0.3981
 7591SOL    HW128796   1.763   6.882   3.270  0.6641 -1.5624 -0.4908
 7591SOL    HW228797   1.679   6.744   3.250 -1.9056 -0.4806  2.3335
 7592SOL     OW28798   3.298   3.158   2.932 -0.1289  0.0970 -0.2234
 7592SOL    HW128799   3.261   3.087   2.872 -0.7448 -2.0646  2.5978
 7592SOL    HW228800   3.243   3.242   2.923 -1.9379 -1.1006 -0.6155
 7593SOL     OW28801   2.123   4.857   0.799 -0.9331  0.0100  0.0865
 7593SOL    HW128802   2.135   4.798   0.878 -3.1937 -0.5722  0.0362
 7593SOL    HW228803   2.034   4.904   0.805 -1.7241 -1.0238 -2.6997
 7595SOL     OW28804   2.284   0.547   0.925 -0.3131 -0.1165  0.0487
 7595SOL    HW128805   2.250   0.620   0.866 -1.0207 -0.7631 -0.3535
 7595SOL    HW228806   2.326   0.587   1.007  0.3335  0.7647 -0.7082
 7598SOL     OW28807   8.576   4.259   0.839 -0.2164  0.1114 -0.3649
 7598SOL    HW128808   8.592   4.199   0.760 -0.6918 -0.7718  0.2094
 7598SOL    HW228809   8.480   4.284   0.843 -0.6003 -1.5400  1.1281
 7600SOL     OW28810   9.930   9.578   0.942  0.4060  0.3494 -0.2987
 7600SOL    HW128811   9.943   9.528   0.856  0.9392  0.7559 -0.4538
 7600SOL    HW228812   9.936   9.515   1.019  0.4073  0.0616 -0.5355
 7601SOL     OW28813   8.346   8.182   0.567  0.4643  0.2751  0.0014
 7601SOL    HW128814   8.267   8.244   0.573  0.0312 -0.3519  0.9764
 7601SOL    HW228815   8.397   8.202   0.484 -1.7852 -0.5702 -1.6413
 7602SOL     OW28816   3.329   6.046   1.559  0.6516 -0.5693  0.7670
 7602SOL    HW128817   3.286   5.994   1.485  1.5607  0.0686 -0.2283
 7602SOL    HW228818   3.427   6.053   1.542  1.0497 -1.3657  2.6258
 7603SOL     OW28819   8.767   4.693   0.244  0.2326  0.2616  0.0461
 7603SOL    HW128820   8.789   4.597   0.227  0.0454 -0.1887  2.1273
 7603SOL    HW228821   8.832   4.751   0.196  0.5997 -0.9167 -0.9054
 7604SOL     OW28822   1.169   1.589   0.684 -0.0438  0.3277 -0.8209
 7604SOL    HW128823   1.096   1.575   0.751  0.3658  0.4080 -0.3579
 7604SOL    HW228824   1.204   1.682   0.692  1.6347 -0.3875  0.4924
 7605SOL     OW28825   6.292   8.569   2.594 -0.1856 -0.7600  0.0732
 7605SOL    HW128826   6.372   8.624   2.618 -0.9772  0.1399  0.6816
 7605SOL    HW228827   6.209   8.611   2.632 -0.9412 -1.7394 -0.4472
 7606SOL     OW28828   1.397   4.224   0.565 -0.2276 -0.1710 -0.3723
 7606SOL    HW128829   1.413   4.187   0.657 -1.7211  0.5250  0.1956
 7606SOL    HW228830   1.437   4.163   0.497 -1.2236 -2.0075  0.6333
 7608SOL     OW28831   9.935   7.229   3.176 -0.1984  0.3279  0.2453
 7608SOL    HW128832   9.908   7.325   3.177  1.5633  0.8163  1.4882
 7608SOL    HW228833   9.915   7.187   3.265  1.5093  0.2383  0.5919
 7611SOL     OW28834   9.993   8.018   0.978 -0.0536 -0.0095 -0.4397
 7611SOL    HW128835   9.985   7.934   1.032  1.6717 -0.1387 -0.3571
 7611SOL    HW228836  10.025   7.995   0.886 -0.6974  0.4549 -0.7848
 7612SOL     OW28837   0.838   7.337   2.885  0.5167 -0.9642 -0.1820
 7612SOL    HW128838   0.927   7.383   2.881 -0.0952  0.7486  3.7013
 7612SOL    HW228839   0.765   7.403   2.872 -0.3084 -1.1477  3.0795
 7613SOL     OW28840   4.030   2.860   1.051  0.3571 -0.3646  0.9545
 7613SOL    HW128841   4.017   2.952   1.012 -1.2617 -1.2865 -0.7642
 7613SOL    HW228842   4.126   2.834   1.045  0.3035 -0.0782 -1.5703
 7614SOL     OW28843   0.975   8.160   0.066 -0.6070  0.4352  0.4716
 7614SOL    HW128844   0.913   8.081   0.072 -0.9581  0.7926  1.6481
 7614SOL    HW228845   0.949   8.216  -0.012 -0.7946 -0.2432  0.0361
 7618SOL     OW28846   1.935   6.695   2.560 -0.2073 -0.0815 -0.0848
 7618SOL    HW128847   1.949   6.642   2.477  1.0054  1.1988 -0.7088
 7618SOL    HW228848   2.021   6.698   2.612 -0.8499 -0.5314  1.0195
 7619SOL     OW28849   9.009   6.203   1.424  0.3731  0.5221  0.1131
 7619SOL    HW128850   9.081   6.225   1.489  0.1505  3.7504 -0.6655
 7619SOL    HW228851   9.042   6.220   1.331 -0.4264 -0.8399 -0.4310
 7620SOL     OW28852   8.972   3.197   0.770 -0.3846 -0.4206  0.7253
 7620SOL    HW128853   8.960   3.101   0.744 -0.5770 -0.6183  1.5382
 7620SOL    HW228854   8.964   3.206   0.869  1.0582  0.2229  0.8030
 7622SOL     OW28855   8.337   3.610   1.315  0.4713 -0.0456  0.1929
 7622SOL    HW128856   8.305   3.704   1.306  1.1315  0.0670 -1.1628
 7622SOL    HW228857   8.267   3.548   1.278  0.9987  0.0720 -1.0151
 7623SOL     OW28858   0.361   1.176   1.820 -0.4101 -0.1627 -0.3214
 7623SOL    HW128859   0.425   1.162   1.744 -0.3112 -0.6056 -0.1622
 7623SOL    HW228860   0.405   1.231   1.890  0.0927 -1.1521  0.1497
 7624SOL     OW28861   1.796   6.774   0.039 -0.2266 -0.2831  0.3709
 7624SOL    HW128862   1.853   6.700   0.073 -0.9022 -1.0685 -0.2020
 7624SOL    HW228863   1.752   6.747  -0.047  1.9648  1.8813 -1.5356
 7625SOL     OW28864   6.013   9.833   3.679 -0.3172  0.3287  0.1966
 7625SOL    HW128865   6.083   9.787   3.734  0.1110  1.2185  0.4004
 7625SOL    HW228866   5.925   9.788   3.695  0.0798 -0.3879  0.4359
 7626SOL     OW28867   2.528   7.185   2.317  0.1169  0.6540 -0.1408
 7626SOL    HW128868   2.547   7.096   2.277 -1.5125 -0.1855  0.8779
 7626SOL    HW228869   2.528   7.255   2.245  0.8230 -0.2487 -1.0343
 7627SOL     OW28870   7.770   1.388   0.169  0.0664 -0.0340 -0.2387
 7627SOL    HW128871   7.856   1.433   0.143  0.2195  0.7711  1.6109
 7627SOL    HW228872   7.744   1.416   0.261 -1.8981 -0.7224 -0.5622
 7628SOL     OW28873   1.823   6.054   2.406  0.1532 -0.0841 -0.2934
 7628SOL    HW128874   1.748   6.103   2.361 -1.3658 -0.8056  1.3453
 7628SOL    HW228875   1.799   5.956   2.411  1.8414 -0.5424 -0.9781
 7630SOL     OW28876   1.441   1.647   2.802 -0.3742  0.1654  0.5967
 7630SOL    HW128877   1.425   1.710   2.878 -2.3973  0.5051 -0.0778
 7630SOL    HW228878   1.353   1.618   2.764  0.5548 -1.8647 -0.0931
 7631SOL     OW28879   1.357   6.180   3.525  0.2679 -0.1391 -0.1604
 7631SOL    HW128880   1.375   6.112   3.454  1.9826  0.5471 -0.4080
 7631SOL    HW228881   1.355   6.135   3.614  3.6082 -0.2712 -0.0733
 7632SOL     OW28882   2.542   4.281   3.290  0.5796  0.1236  0.4853
 7632SOL    HW128883   2.590   4.262   3.375  0.7082 -1.0310  0.1650
 7632SOL    HW228884   2.486   4.202   3.265  0.0782  0.6846 -0.1878
 7633SOL     OW28885   9.078   0.467   0.470  0.0508  0.3649 -0.5128
 7633SOL    HW128886   9.066   0.517   0.556 -0.3844 -0.5887 -0.0151
 7633SOL    HW228887   9.057   0.528   0.393 -0.1640  1.0377  0.0715
 7634SOL     OW28888   5.172   0.766   2.173 -0.3807  0.1861 -0.2165
 7634SOL    HW128889   5.107   0.746   2.100 -1.7288  0.5288  0.8868
 7634SOL    HW228890   5.137   0.839   2.231  1.0261  0.4465  0.3447
 7635SOL     OW28891   7.675   9.276   1.888  0.3229  0.2797 -0.2509
 7635SOL    HW128892   7.578   9.257   1.872  0.2043  0.9029 -0.3003
 7635SOL    HW228893   7.702   9.242   1.978  0.3735 -1.0164 -0.7368
 7637SOL     OW28894   7.436   6.268   3.027  0.6415  0.5542  0.1061
 7637SOL    HW128895   7.476   6.345   3.078  1.9465 -1.2811  1.9514
 7637SOL    HW228896   7.337   6.277   3.027  0.7095  1.5810  1.4163
 7638SOL     OW28897   9.088   9.707   1.196 -0.0981  0.2740  0.2142
 7638SOL    HW128898   9.183   9.717   1.165 -0.7476  0.4722 -1.8433
 7638SOL    HW228899   9.086   9.669   1.288  1.9832  0.5770  0.4067
 7639SOL     OW28900   6.018   9.284   3.434 -0.1385  0.0661  0.5017
 7639SOL    HW128901   5.989   9.371   3.394  0.5008  0.4261  0.8243
 7639SOL    HW228902   6.082   9.239   3.372 -2.5605 -1.4645 -0.9505
 7641SOL     OW28903   2.103   5.101   1.836  0.6943 -0.7608  0.7201
 7641SOL    HW128904   2.058   5.019   1.872  2.7808 -0.9275  3.0486
 7641SOL    HW228905   2.061   5.182   1.878 -1.1976 -0.5782 -1.3940
 7642SOL     OW28906   8.827   1.997   3.653  0.8888  0.2163  0.0333
 7642SOL    HW128907   8.813   2.016   3.750  0.1515  2.1929 -0.4288
 7642SOL    HW228908   8.748   2.031   3.601  0.7818 -1.7696 -1.1563
 7643SOL     OW28909   0.418   7.909   2.617 -0.3058  0.1156 -0.7762
 7643SOL    HW128910   0.480   7.846   2.570  2.3905  0.2936  2.4417
 7643SOL    HW228911   0.335   7.859   2.643  1.0175 -1.6746  0.1398
 7645SOL     OW28912   5.182   0.049   3.524 -0.5865 -0.0192 -0.0931
 7645SOL    HW128913   5.206   0.058   3.621 -2.1571 -0.2999  0.3459
 7645SOL    HW228914   5.127   0.128   3.497 -0.2239  0.0112 -0.7352
 7646SOL     OW28915   0.947   6.618   2.561 -0.8343 -0.6204  0.1608
 7646SOL    HW128916   0.860   6.659   2.588 -0.6882 -0.8888  1.0658
 7646SOL    HW228917   1.016   6.639   2.630  0.6393  2.2683 -2.0616
 7648SOL     OW28918   2.761   8.516   3.703  0.3660 -0.3764  0.3261
 7648SOL    HW128919   2.822   8.583   3.662  1.7569 -1.0871  1.2102
 7648SOL    HW228920   2.798   8.424   3.690 -2.3911 -1.1930 -2.4418
 7650SOL     OW28921   1.856   5.671   2.615 -0.3194 -0.1692  0.0134
 7650SOL    HW128922   1.844   5.711   2.705  3.3056 -0.5870  0.7860
 7650SOL    HW228923   1.819   5.579   2.613 -2.8002  0.8017  0.2290
 7651SOL     OW28924   0.614   3.163   3.054 -0.6311  0.2226 -0.2526
 7651SOL    HW128925   0.534   3.103   3.059 -2.0689  2.1606  0.2467
 7651SOL    HW228926   0.610   3.219   2.972  0.9180 -0.5986 -0.9230
 7652SOL     OW28927   3.008   3.965   0.839  0.0932  0.3289  0.4539
 7652SOL    HW128928   2.968   3.882   0.801 -1.5443  1.2141  0.2141
 7652SOL    HW228929   3.080   3.941   0.904  1.2546 -1.2446 -1.3503
 7653SOL     OW28930   0.776   4.117   1.995  0.2185  0.2022 -0.0553
 7653SOL    HW128931   0.856   4.166   1.960  0.8987  0.4469  1.7719
 7653SOL    HW228932   0.725   4.177   2.056 -1.0777 -0.1387 -0.7914
 7654SOL     OW28933   0.594   6.170   1.704 -0.0774 -0.4261 -0.7090
 7654SOL    HW128934   0.562   6.081   1.737  0.5043 -0.9955 -1.7002
 7654SOL    HW228935   0.600   6.170   1.605 -0.6095  0.9048 -0.7581
 7655SOL     OW28936   0.973   8.894   1.806  0.2571 -0.1676  0.5300
 7655SOL    HW128937   0.960   8.839   1.889 -1.7353 -1.2749 -0.4591
 7655SOL    HW228938   0.885   8.901   1.758  1.0452  1.8125 -0.6573
 7656SOL     OW28939   9.410   0.240   1.229  0.5033 -0.5414  0.0428
 7656SOL    HW128940   9.466   0.204   1.303  0.2284 -1.1728 -0.0512
 7656SOL    HW228941   9.365   0.324   1.259  1.8691  0.2338 -0.0405
 7657SOL     OW28942   4.915   1.074   2.728 -0.0372  0.0850  0.0098
 7657SOL    HW128943   4.916   1.160   2.780  0.4936  0.0485  0.0589
 7657SOL    HW228944   4.912   0.997   2.791 -2.9573  0.0817 -0.0330
 7658SOL     OW28945   0.158   2.710   3.679 -0.4065  0.0559 -0.1365
 7658SOL    HW128946   0.205   2.792   3.713  0.4899 -0.7686  0.6410
 7658SOL    HW228947   0.177   2.633   3.740  0.2983 -1.1827 -1.8911
 7661SOL     OW28948   2.091   9.373   2.503  0.1049  0.1704  0.4786
 7661SOL    HW128949   2.071   9.465   2.470 -0.6241 -0.0724  0.2290
 7661SOL    HW228950   2.012   9.338   2.553  0.4463 -0.2487  0.7239
 7662SOL     OW28951   1.285   2.785   0.073  0.0355 -0.0960  0.0230
 7662SOL    HW128952   1.249   2.877   0.088  0.8565  0.2268  0.0592
 7662SOL    HW228953   1.334   2.755   0.155 -0.9143 -0.8875  0.3004
 7663SOL     OW28954   1.410   5.915   2.681 -0.4133 -0.4602 -0.1262
 7663SOL    HW128955   1.492   5.867   2.712 -0.3621  0.6917  1.6047
 7663SOL    HW228956   1.410   5.921   2.581  2.0948  0.3718 -0.1052
 7664SOL     OW28957   2.128   9.564   3.088 -0.7819 -0.1319  0.1464
 7664SOL    HW128958   2.106   9.466   3.084  0.0181 -0.3062 -0.1009
 7664SOL    HW228959   2.198   9.579   3.158  1.6372 -0.2329 -2.1549
 7665SOL     OW28960   2.243   7.412   0.601  0.4493 -0.0077  0.0069
 7665SOL    HW128961   2.259   7.370   0.690  0.9060  0.0153 -0.0619
 7665SOL    HW228962   2.276   7.350   0.529 -1.4261 -0.7626 -0.2323
 7666SOL     OW28963   8.832   1.685   3.392  0.0615  0.2918 -0.0557
 7666SOL    HW128964   8.861   1.757   3.329 -1.0574  1.5450  0.8335
 7666SOL    HW228965   8.867   1.704   3.484 -1.3204  0.4190  0.4576
 7667SOL     OW28966   9.499   0.609   1.733  0.5890  0.1781  0.0579
 7667SOL    HW128967   9.541   0.697   1.759  0.9363 -0.0595  0.3200
 7667SOL    HW228968   9.436   0.580   1.805 -0.4088  0.7812 -0.5716
 7668SOL     OW28969   9.681   8.542   0.759 -0.7583  0.0812 -0.4718
 7668SOL    HW128970   9.623   8.489   0.697 -1.3610 -0.2108  0.3291
 7668SOL    HW228971   9.624   8.589   0.827 -0.0693 -0.1424  0.2730
 7670SOL     OW28972   2.191   7.678   2.718 -0.1313  0.6113 -0.0729
 7670SOL    HW128973   2.098   7.678   2.681 -0.5933  2.8121  0.9575
 7670SOL    HW228974   2.200   7.605   2.785 -1.1769  0.4788 -0.0643
 7671SOL     OW28975   1.334   7.497   1.368  0.3845 -0.5930  0.5975
 7671SOL    HW128976   1.270   7.521   1.295  1.0331  0.2543  0.2872
 7671SOL    HW228977   1.319   7.557   1.447  1.2535  0.0988  0.2535
 7673SOL     OW28978   1.236   3.914   3.769  0.2293  0.3932  0.6204
 7673SOL    HW128979   1.303   3.896   3.841  0.4173  0.5681  0.4924
 7673SOL    HW228980   1.278   3.896   3.680 -0.6892 -1.9592  0.6473
 7675SOL     OW28981   8.751   8.574   2.906  0.1444 -0.1881  0.1892
 7675SOL    HW128982   8.791   8.601   2.994  0.5080 -2.0772  0.6453
 7675SOL    HW228983   8.800   8.620   2.832  0.8277  0.2765  0.9102
 7676SOL     OW28984   1.995   1.843   3.449  0.0759  0.0912 -0.1161
 7676SOL    HW128985   1.975   1.889   3.535  2.3302 -2.1192  1.6605
 7676SOL    HW228986   2.059   1.899   3.396  1.1073  0.0496  1.0553
 7677SOL     OW28987   5.508   9.827   2.503 -0.0083 -0.1924 -0.1393
 7677SOL    HW128988   5.498   9.729   2.488  1.2493 -0.6652  1.9318
 7677SOL    HW228989   5.570   9.865   2.434 -2.1468 -0.4379 -2.2357
 7678SOL     OW28990   2.136   8.756   0.953  0.0969 -0.3992  0.0847
 7678SOL    HW128991   2.114   8.799   1.040  1.5777  0.8884 -0.1620
 7678SOL    HW228992   2.054   8.752   0.896 -0.2268  1.4045  0.4074
 7679SOL     OW28993   0.441   4.733   2.296  0.3016  0.0790 -0.0656
 7679SOL    HW128994   0.420   4.816   2.347 -0.2840  0.1529 -0.4255
 7679SOL    HW228995   0.371   4.663   2.315  0.7463 -0.3026  0.1742
 7680SOL     OW28996   1.660   9.566   3.303 -0.6464  0.0829  0.4141
 7680SOL    HW128997   1.727   9.552   3.231 -0.7388  0.8570  0.1723
 7680SOL    HW228998   1.622   9.478   3.331 -0.4222 -0.2417 -0.2987
 7681SOL     OW28999   4.010   1.106   0.247  0.6553 -0.1288 -0.7377
 7681SOL    HW129000   4.084   1.092   0.181  1.5070  0.8287 -0.0016
 7681SOL    HW229001   4.016   1.198   0.285  0.0845 -0.6237  0.5697
 7682SOL     OW29002   1.029   3.442   3.354 -0.5725 -0.1576 -0.6013
 7682SOL    HW129003   1.058   3.426   3.260 -0.1264 -0.4816 -0.4123
 7682SOL    HW229004   1.101   3.411   3.416 -0.0482  1.7849 -0.2016
 7684SOL     OW29005   0.777   7.068   2.957 -0.5656  0.6926 -0.3609
 7684SOL    HW129006   0.816   7.158   2.940 -0.4274  0.5771 -0.6452
 7684SOL    HW229007   0.827   6.999   2.905 -1.4817  0.6080 -1.1421
 7685SOL     OW29008   1.505   0.467   1.840  0.7048  0.2437  0.4389
 7685SOL    HW129009   1.442   0.453   1.917 -0.5142 -0.5366 -0.6772
 7685SOL    HW229010   1.519   0.566   1.827  1.6294  0.3690  2.2035
 7686SOL     OW29011   9.351   1.986   0.563 -0.2241 -0.0091  0.0058
 7686SOL    HW129012   9.312   1.901   0.529 -1.8925  0.3537  0.9570
 7686SOL    HW229013   9.363   1.981   0.662  0.0569  0.7134  0.0164
 7687SOL     OW29014   3.473   8.248   0.499  0.2986 -0.0905 -0.5350
 7687SOL    HW129015   3.465   8.333   0.448 -0.6540  2.5319  3.7935
 7687SOL    HW229016   3.386   8.198   0.495 -0.2229  0.8005 -0.1995
 7689SOL     OW29017   9.108   8.707   3.611 -0.1172 -0.4070  0.3423
 7689SOL    HW129018   9.079   8.663   3.696  0.5337 -0.2938  0.6248
 7689SOL    HW229019   9.144   8.638   3.548 -0.9978 -0.5477 -0.0122
 7690SOL     OW29020   3.946   3.395   2.521  0.7047  0.3329 -0.3184
 7690SOL    HW129021   4.012   3.464   2.490  1.1149  0.4518  0.7795
 7690SOL    HW229022   3.994   3.310   2.539  0.4938  0.2986  0.0890
 7691SOL     OW29023   0.543   7.067   1.075 -0.2863  0.1572  0.0591
 7691SOL    HW129024   0.539   6.968   1.059 -0.7869  0.2624 -0.5178
 7691SOL    HW229025   0.493   7.089   1.159 -0.4007 -0.0586  0.0485
 7692SOL     OW29026   8.379   9.584   0.024 -0.3008  0.6584  0.2619
 7692SOL    HW129027   8.342   9.572   0.116 -0.4840  0.1302  0.1197
 7692SOL    HW229028   8.333   9.522  -0.039 -0.5157  1.3630 -0.2822
 7693SOL     OW29029   8.242   9.304   1.877  0.2813 -0.2938 -0.2594
 7693SOL    HW129030   8.226   9.207   1.859  2.4750 -0.3220 -2.3473
 7693SOL    HW229031   8.203   9.358   1.802 -1.4949  0.5097  1.2083
 7696SOL     OW29032   8.017   5.110   2.247 -0.5282  0.1786 -0.2895
 7696SOL    HW129033   7.966   5.085   2.329 -0.3741  0.3290 -0.1472
 7696SOL    HW229034   8.115   5.096   2.264 -0.5852 -0.9170 -0.8431
 7698SOL     OW29035   8.394   0.393   1.986 -0.2033 -0.1402  0.7933
 7698SOL    HW129036   8.466   0.330   2.015 -1.2139 -0.9213  1.6405
 7698SOL    HW229037   8.308   0.369   2.032 -0.4909  2.1561  1.5210
 7699SOL     OW29038   2.348   6.365   0.217  0.4944  0.1039  0.3646
 7699SOL    HW129039   2.310   6.300   0.152 -0.2590  1.2787 -0.3924
 7699SOL    HW229040   2.353   6.323   0.308  2.9796 -2.0795 -0.7140
 7700SOL     OW29041   1.594   3.098   1.725 -0.4377  0.1516 -0.0874
 7700SOL    HW129042   1.533   3.159   1.775  0.6647  1.9464 -0.9215
 7700SOL    HW229043   1.638   3.035   1.789  0.5753  2.0948  1.1666
 7701SOL     OW29044   9.214   3.364   0.103  0.1630  0.1851 -0.3649
 7701SOL    HW129045   9.273   3.442   0.082 -0.6572  0.1997 -2.7286
 7701SOL    HW229046   9.124   3.397   0.132  0.5568  0.1248  0.9714
 7702SOL     OW29047   2.167   4.329   1.617 -0.3094 -0.3929 -0.0061
 7702SOL    HW129048   2.235   4.265   1.654  0.1547  0.3645  0.4644
 7702SOL    HW229049   2.207   4.380   1.540 -0.4469 -0.1765  0.0647
 7703SOL     OW29050   4.375   9.286   0.219 -0.6164  0.8067 -0.9162
 7703SOL    HW129051   4.446   9.316   0.283 -1.2847  1.3962 -0.4518
 7703SOL    HW229052   4.328   9.366   0.180 -2.1747  0.3869  0.0733
 7704SOL     OW29053   3.450   5.100   1.168 -0.0594  0.2126 -0.0446
 7704SOL    HW129054   3.474   5.128   1.075 -1.0710 -0.7154 -0.5976
 7704SOL    HW229055   3.413   5.179   1.217 -1.4571  0.2492 -1.1000
 7705SOL     OW29056   0.565   5.888   3.556  0.3754  0.4287  0.2415
 7705SOL    HW129057   0.519   5.887   3.645  0.5645  1.7152  0.3678
 7705SOL    HW229058   0.635   5.959   3.556  1.1441 -0.3315 -0.5588
 7706SOL     OW29059   2.785   4.409   1.505  0.2918 -0.7309 -0.4056
 7706SOL    HW129060   2.784   4.346   1.428 -1.4197 -0.8461 -0.3015
 7706SOL    HW229061   2.879   4.441   1.521  0.6466 -0.6771 -2.5342
 7707SOL     OW29062   0.956   2.845   1.044 -0.3771 -0.1048 -0.1070
 7707SOL    HW129063   0.874   2.815   0.995 -0.6885 -0.6255  0.7306
 7707SOL    HW229064   0.930   2.880   1.134  0.2723  0.1643 -0.0232
 7708SOL     OW29065   9.786   7.783   3.072  0.5543 -0.3972 -0.1445
 7708SOL    HW129066   9.696   7.744   3.054  0.6061 -0.5824 -0.0028
 7708SOL    HW229067   9.776   7.867   3.125  0.4159  0.0051 -0.7988
 7710SOL     OW29068   4.161   1.241   2.015  0.6157  0.0945 -0.2492
 7710SOL    HW129069   4.065   1.228   1.992  0.8641  0.5315 -1.6024
 7710SOL    HW229070   4.203   1.304   1.950  2.3059 -1.6424 -0.9103
 7711SOL     OW29071   0.715   1.277   1.967  0.2106 -0.2013  0.4585
 7711SOL    HW129072   0.712   1.180   1.942  1.4534 -0.6498  1.9368
 7711SOL    HW229073   0.808   1.302   1.993  0.1367  1.7079 -1.0553
 7712SOL     OW29074   3.496   8.292   0.766  0.2731 -0.4837 -0.0032
 7712SOL    HW129075   3.498   8.282   0.666 -2.0623  0.2668 -0.1632
 7712SOL    HW229076   3.454   8.210   0.806  1.0291 -0.6982  0.3552
 7713SOL     OW29077   3.356   3.281   1.020 -0.5168  0.1934 -0.4606
 7713SOL    HW129078   3.453   3.304   1.013 -0.4330 -0.3621 -1.2483
 7713SOL    HW229079   3.339   3.197   0.968 -0.9460 -1.0986  1.7153
 7714SOL     OW29080   3.504   9.228   3.316 -0.8727 -0.3362  0.5710
 7714SOL    HW129081   3.443   9.149   3.311  0.3829 -1.2902  0.2235
 7714SOL    HW229082   3.539   9.238   3.409  0.4335 -1.3279  0.2085
 7715SOL     OW29083   1.747   4.571   2.773  0.1334 -0.3232  0.0710
 7715SOL    HW129084   1.798   4.505   2.828  0.1145  1.3574  2.1232
 7715SOL    HW229085   1.673   4.523   2.724  1.1069 -2.0754  0.2831
 7716SOL     OW29086   9.424   3.482   3.535  0.0184 -0.2268  0.4827
 7716SOL    HW129087   9.373   3.504   3.452  1.3315  0.1405 -0.2369
 7716SOL    HW229088   9.518   3.516   3.527 -0.9075  3.5910  3.7905
 7717SOL     OW29089   4.141   6.423   2.194  0.1863 -0.4453  0.2775
 7717SOL    HW129090   4.111   6.518   2.192 -0.5266 -0.6880 -3.1104
 7717SOL    HW229091   4.225   6.415   2.247  0.4723  2.1224  0.2519
 7719SOL     OW29092   0.931   1.206   2.485  0.2223 -0.0477 -0.0812
 7719SOL    HW129093   0.876   1.261   2.423 -0.1465  0.0981  0.3700
 7719SOL    HW229094   1.009   1.260   2.518 -0.3371  0.3333  0.6407
 7721SOL     OW29095   4.074   1.322   3.332  0.0972 -0.6940 -0.7878
 7721SOL    HW129096   4.056   1.225   3.321  0.2376 -0.6804 -1.1384
 7721SOL    HW229097   4.171   1.340   3.313  0.1786 -0.5618 -0.2516
 7722SOL     OW29098   9.039   4.625   1.930  0.0583  0.5442  0.2144
 7722SOL    HW129099   9.095   4.543   1.929  0.6228  0.9170  0.7989
 7722SOL    HW229100   8.994   4.637   1.841  2.4022  1.2829 -0.8992
 7723SOL     OW29101   6.810   9.932   3.604 -0.1945  0.3157  0.2595
 7723SOL    HW129102   6.908   9.913   3.614  0.0246  1.0225 -0.4802
 7723SOL    HW229103   6.757   9.859   3.647  0.6453 -0.7833 -0.5481
 7724SOL     OW29104   2.639   5.764   2.022 -0.1711  0.3686 -0.2378
 7724SOL    HW129105   2.678   5.695   1.962  0.4057  1.2124 -0.8581
 7724SOL    HW229106   2.590   5.720   2.097 -0.6980 -0.6920 -1.1937
 7726SOL     OW29107   1.454   6.894   0.873  0.0103 -0.3694  0.2448
 7726SOL    HW129108   1.396   6.833   0.927  0.0606 -0.3024  0.3756
 7726SOL    HW229109   1.455   6.985   0.915 -1.0188  0.0493 -0.6168
 7727SOL     OW29110   0.606   2.134   2.168  0.9324  0.7671 -0.0258
 7727SOL    HW129111   0.551   2.080   2.232 -1.3395 -0.0299 -2.5376
 7727SOL    HW229112   0.559   2.220   2.149  2.5549  1.8644  0.8572
 7728SOL     OW29113   3.781   2.221   3.185  0.2737  0.4905 -0.7598
 7728SOL    HW129114   3.684   2.224   3.211  0.5060  1.7733  0.0433
 7728SOL    HW229115   3.825   2.144   3.231 -0.1360  0.5529 -0.2481
 7729SOL     OW29116   3.853   3.388   3.106  0.4424 -0.2055 -0.0888
 7729SOL    HW129117   3.868   3.441   3.189 -0.6253 -0.0854  0.0341
 7729SOL    HW229118   3.852   3.290   3.128  1.6395 -0.2535 -0.1984
 7731SOL     OW29119   3.008   2.755   1.880 -0.2705 -0.1228  0.1428
 7731SOL    HW129120   2.954   2.787   1.958 -0.6959 -0.2268 -0.1070
 7731SOL    HW229121   3.013   2.655   1.882  0.9139 -0.0606  0.8287
 7732SOL     OW29122   0.862   7.525   1.855  0.7037  0.4815  0.3258
 7732SOL    HW129123   0.935   7.554   1.916  2.3629 -2.8233  0.0433
 7732SOL    HW229124   0.902   7.481   1.774 -1.5753 -0.8214 -0.1378
 7733SOL     OW29125   5.768   9.119   3.077  0.1109 -0.3206  0.5131
 7733SOL    HW129126   5.690   9.179   3.059 -0.5046 -1.1362  0.4720
 7733SOL    HW229127   5.781   9.057   3.000  0.1941 -0.8445  0.9495
 7734SOL     OW29128   1.278   9.620   3.121  0.1624 -0.1770 -0.2507
 7734SOL    HW129129   1.274   9.595   3.025 -2.0707 -1.8393  0.2608
 7734SOL    HW229130   1.194   9.667   3.148  0.9025  0.5808  0.8239
 7735SOL     OW29131   1.288   1.040   2.936 -0.0952 -0.3232 -0.3517
 7735SOL    HW129132   1.286   1.049   2.837  0.9874 -0.5244 -0.3969
 7735SOL    HW229133   1.379   1.067   2.970  0.7784 -3.7379  0.2235
 7736SOL     OW29134   3.181   9.256   3.489 -0.1223 -0.7450  0.2881
 7736SOL    HW129135   3.236   9.337   3.473  0.2044 -0.6882  1.6489
 7736SOL    HW229136   3.090   9.269   3.450 -0.3464  0.6107  1.2446
 7737SOL     OW29137   7.123   0.690   1.977 -0.3293 -0.2341  0.4621
 7737SOL    HW129138   7.109   0.788   1.966 -0.9297 -0.4191 -0.4331
 7737SOL    HW229139   7.172   0.673   2.063 -0.1679  0.8455  0.5898
 7738SOL     OW29140   5.766   8.238   1.813 -0.0263 -0.1671  0.0150
 7738SOL    HW129141   5.819   8.270   1.734  0.3402 -0.2904  0.2126
 7738SOL    HW229142   5.713   8.157   1.786  0.0901 -0.2033 -0.1061
 7739SOL     OW29143   9.344   6.826   2.149 -0.2349  0.0134 -0.2265
 7739SOL    HW129144   9.337   6.915   2.195 -1.2730 -0.5968  0.8451
 7739SOL    HW229145   9.264   6.771   2.173  0.5347 -1.3097 -0.6739
 7740SOL     OW29146   9.936   6.330   2.983 -0.6204 -0.3759 -0.0575
 7740SOL    HW129147   9.838   6.346   2.979 -0.3746  1.0256 -0.6472
 7740SOL    HW229148   9.964   6.277   2.902 -0.5002  1.4525 -1.2406
 7741SOL     OW29149   0.353   4.455   0.248 -0.4639 -0.5162  0.2065
 7741SOL    HW129150   0.348   4.463   0.348  2.6726 -1.4595  0.5177
 7741SOL    HW229151   0.289   4.518   0.206 -0.5322  1.2319  2.8221
 7742SOL     OW29152   1.416   3.553   0.490  0.0193 -0.6543 -0.5577
 7742SOL    HW129153   1.505   3.596   0.506 -0.3432 -0.1590  0.1209
 7742SOL    HW229154   1.370   3.599   0.414  1.0538 -1.9876 -2.0395
 7743SOL     OW29155   8.394   7.632   1.634 -0.1990 -0.0152 -0.5616
 7743SOL    HW129156   8.418   7.629   1.537 -1.1550  0.1593 -0.8083
 7743SOL    HW229157   8.426   7.718   1.673  2.6851 -1.2875 -0.0412
 7745SOL     OW29158   0.097   1.170   3.001 -0.1194  0.3166  0.1634
 7745SOL    HW129159   0.065   1.241   2.939  1.2155 -0.0003 -0.9354
 7745SOL    HW229160   0.026   1.148   3.068 -1.0976  1.5859 -0.4518
 7746SOL     OW29161   1.421   1.348   0.139 -0.3214 -0.3838 -0.1249
 7746SOL    HW129162   1.504   1.292   0.138 -0.2491 -0.2691 -0.5767
 7746SOL    HW229163   1.446   1.445   0.137 -0.4705 -0.3524 -0.4036
 7748SOL     OW29164   8.753   5.684   3.050 -0.3592 -0.3012  0.1109
 7748SOL    HW129165   8.745   5.704   3.148 -0.9113 -1.8528  0.3912
 7748SOL    HW229166   8.685   5.616   3.024  1.0300 -1.3127 -0.9583
 7749SOL     OW29167   0.316   6.095   3.165  0.1147  0.0538 -0.2294
 7749SOL    HW129168   0.358   6.011   3.132 -0.1634 -0.0116 -0.4191
 7749SOL    HW229169   0.332   6.103   3.264 -0.4547 -0.5806 -0.0756
 7751SOL     OW29170   3.003   2.519   0.124 -0.2264  0.2703 -0.3148
 7751SOL    HW129171   3.060   2.439   0.104 -2.0097 -0.6261 -1.9095
 7751SOL    HW229172   2.982   2.567   0.039 -2.1194  0.4121  0.2216
 7752SOL     OW29173   0.185   5.740   0.533 -0.1117 -0.0283  0.0556
 7752SOL    HW129174   0.183   5.660   0.474 -0.1669 -0.1749  0.2538
 7752SOL    HW229175   0.232   5.718   0.618  0.9598  0.5007 -0.3882
 7753SOL     OW29176   4.587   3.267   2.875  0.0363  0.3644  0.2132
 7753SOL    HW129177   4.627   3.334   2.938 -2.0073  0.4891  1.4068
 7753SOL    HW229178   4.620   3.285   2.783  0.4146  2.3008  0.7002
 7754SOL     OW29179   8.527   9.851   0.624 -0.1518 -0.5719 -0.1152
 7754SOL    HW129180   8.605   9.912   0.635 -0.0487 -0.4929 -1.2159
 7754SOL    HW229181   8.542   9.768   0.677  0.5049 -0.3891 -0.0088
 7755SOL     OW29182   4.328   2.832   1.047  0.4460  0.3587 -0.8331
 7755SOL    HW129183   4.300   2.824   0.952  1.4150 -0.5111 -1.0536
 7755SOL    HW229184   4.345   2.928   1.069 -1.4295  0.7678 -1.0457
 7756SOL     OW29185   3.290   3.552   2.066 -0.3377  0.0064 -0.0309
 7756SOL    HW129186   3.329   3.626   2.012 -0.2253 -1.0091 -1.3708
 7756SOL    HW229187   3.361   3.512   2.124 -0.0447 -0.0013 -0.3918
 7757SOL     OW29188   7.529   0.505   1.546  0.4785  0.8610  0.2741
 7757SOL    HW129189   7.468   0.497   1.625  0.9825  2.3990  0.8335
 7757SOL    HW229190   7.604   0.440   1.555  0.5209  1.0153  1.0504
 7758SOL     OW29191   1.254   6.997   0.388  0.5622  0.1896  0.0164
 7758SOL    HW129192   1.328   6.948   0.433  1.1669  0.3042 -0.8640
 7758SOL    HW229193   1.287   7.039   0.304 -0.8683 -1.0352 -1.1811
 7759SOL     OW29194   4.351   1.474   1.538 -0.2856 -0.1035  0.7553
 7759SOL    HW129195   4.297   1.458   1.456  2.7858  0.6870 -1.5042
 7759SOL    HW229196   4.391   1.388   1.570  0.9088  0.0429 -0.3252
 7762SOL     OW29197   5.832   8.916   2.905  0.0310 -0.3751 -0.1997
 7762SOL    HW129198   5.798   8.834   2.860 -1.6461  1.1109 -1.7047
 7762SOL    HW229199   5.910   8.892   2.963  0.4582 -2.7899 -1.6888
 7764SOL     OW29200   7.761   1.055   3.678  0.6724  0.2930 -0.2390
 7764SOL    HW129201   7.810   1.138   3.702  1.7970 -0.4167 -0.0163
 7764SOL    HW229202   7.823   0.993   3.628 -0.0880 -0.4853 -0.2379
 7765SOL     OW29203   1.732   3.078   3.314 -0.3062 -0.7102 -0.2854
 7765SOL    HW129204   1.680   3.054   3.231  2.1521 -0.0079 -2.0942
 7765SOL    HW229205   1.811   3.017   3.321  1.2867  1.3385 -0.2485
 7766SOL     OW29206   2.083   2.241   2.959 -0.2092  0.0745 -0.6567
 7766SOL    HW129207   2.078   2.208   2.865  1.3272 -1.0960 -0.3491
 7766SOL    HW229208   2.053   2.168   3.022  0.2503  0.3120 -0.1541
 7767SOL     OW29209   1.733   5.844   3.387 -0.1591  0.3182 -0.0199
 7767SOL    HW129210   1.724   5.786   3.468  0.8457  1.8679  1.2385
 7767SOL    HW229211   1.737   5.787   3.305  1.1751 -1.4051  1.2160
 7768SOL     OW29212   8.334   6.574   2.901  0.1928  0.2761 -0.3545
 7768SOL    HW129213   8.358   6.640   2.830  1.1423 -0.4757 -0.7415
 7768SOL    HW229214   8.375   6.485   2.880  0.1491 -0.0581  0.9280
 7769SOL     OW29215   2.155   5.923   1.131  0.5895 -0.3610  0.9055
 7769SOL    HW129216   2.238   5.868   1.139  2.9760  2.7218 -1.3240
 7769SOL    HW229217   2.167   6.009   1.180  0.8018  2.3014 -3.5213
 7770SOL     OW29218   8.895   8.591   3.373  0.4785  0.0103 -0.8654
 7770SOL    HW129219   8.953   8.538   3.435  1.4665  0.4535 -1.3911
 7770SOL    HW229220   8.808   8.544   3.361 -0.1766  0.5067  1.7434
 7771SOL     OW29221   1.884   0.240   1.860  0.1069 -0.3939  0.6238
 7771SOL    HW129222   1.882   0.176   1.783 -2.8109 -0.9526  1.0893
 7771SOL    HW229223   1.895   0.333   1.825 -0.0538 -0.7469 -0.3994
 7772SOL     OW29224   2.518   3.827   2.648 -0.0505  0.3379  0.0138
 7772SOL    HW129225   2.570   3.750   2.610 -0.1541  0.5320 -0.5350
 7772SOL    HW229226   2.474   3.878   2.573  0.5001  1.2793  0.3148
 7773SOL     OW29227   1.834   7.340   3.217 -0.4832 -0.3896  0.6492
 7773SOL    HW129228   1.889   7.375   3.141 -2.6324 -1.2758 -1.4089
 7773SOL    HW229229   1.893   7.316   3.294  1.7188  0.8728 -0.6117
 7775SOL     OW29230   3.583   6.532   3.081  0.2598  0.1711 -0.0813
 7775SOL    HW129231   3.646   6.489   3.016 -1.8769 -2.5276 -0.4686
 7775SOL    HW229232   3.533   6.605   3.035 -0.0454 -0.6128 -1.0231
 7776SOL     OW29233   1.246   8.991   0.142  0.0683 -0.5290  0.1596
 7776SOL    HW129234   1.180   8.935   0.192 -0.4793 -0.9216 -0.9798
 7776SOL    HW229235   1.242   8.969   0.045  0.1010  1.2174 -0.2643
 7777SOL     OW29236   1.657   8.082   1.161  0.1892  0.6519  0.6680
 7777SOL    HW129237   1.573   8.134   1.174 -0.5152  0.3780 -2.4913
 7777SOL    HW229238   1.672   8.066   1.064  0.1838 -5.3140  1.4780
 7778SOL     OW29239   0.878   0.124   0.226 -1.2163 -0.3164  0.0802
 7778SOL    HW129240   0.882   0.180   0.143  1.7696  1.8772  1.6071
 7778SOL    HW229241   0.893   0.028   0.202  0.1960  0.3605 -1.8909
 7779SOL     OW29242   7.452   7.971   3.412 -0.0409 -0.9220  0.4414
 7779SOL    HW129243   7.374   8.033   3.419  1.0694  0.4201  0.9858
 7779SOL    HW229244   7.474   7.956   3.316 -2.1700 -2.8739  0.1843
 7781SOL     OW29245   8.272   8.882   2.000 -0.7753 -0.1574 -0.2828
 7781SOL    HW129246   8.257   8.785   2.017 -3.3227  0.2186 -0.1454
 7781SOL    HW229247   8.196   8.918   1.946  1.1558  1.3277 -2.0888
 7782SOL     OW29248   2.226   5.395   0.321 -0.4902  0.1572 -0.1525
 7782SOL    HW129249   2.133   5.390   0.359  0.4127 -0.4376  2.0426
 7782SOL    HW229250   2.288   5.343   0.379  0.9563 -0.7409 -2.4725
 7783SOL     OW29251   1.218   0.347   3.060  0.1572  0.1237 -0.1215
 7783SOL    HW129252   1.203   0.428   3.004  0.6791  1.4047  1.5511
 7783SOL    HW229253   1.317   0.330   3.068  0.0248 -1.2035 -1.1942
 7784SOL     OW29254   8.049   1.205   1.329 -0.1169 -0.3338  0.0885
 7784SOL    HW129255   8.082   1.160   1.412  0.0373  0.6170  0.5530
 7784SOL    HW229256   8.092   1.164   1.249  0.0113 -1.0137  0.5019
 7785SOL     OW29257   4.574   0.103   3.336  0.2267 -0.7727 -0.2322
 7785SOL    HW129258   4.492   0.159   3.348  1.0063  0.1879  0.7686
 7785SOL    HW229259   4.633   0.144   3.266  0.7763 -0.3366  0.4698
 7786SOL     OW29260   2.100   2.939   0.328  0.4990 -0.5697 -0.1227
 7786SOL    HW129261   2.115   2.927   0.427  0.2792 -1.7786 -0.2283
 7786SOL    HW229262   2.173   2.994   0.290  0.1343  0.6231  0.8759
 7787SOL     OW29263   8.763   9.609   1.202 -0.6126 -0.1967  0.5454
 7787SOL    HW129264   8.808   9.521   1.188 -1.5726 -0.4934 -0.8714
 7787SOL    HW229265   8.801   9.676   1.138  0.0497  0.4009  1.5528
 7788SOL     OW29266   3.554   1.070   3.487 -0.7784 -0.0552 -0.2649
 7788SOL    HW129267   3.588   1.062   3.393  1.0536  0.2411  0.3362
 7788SOL    HW229268   3.537   0.979   3.525 -0.4213 -0.2281 -0.5149
 7789SOL     OW29269   8.059   6.423   1.493 -0.3005 -0.3371  0.3203
 7789SOL    HW129270   8.116   6.481   1.551 -0.2837 -1.2351  1.2273
 7789SOL    HW229271   8.029   6.343   1.546  1.3851 -2.2142 -1.4545
 7790SOL     OW29272   9.177   2.720   1.700  0.4203 -0.4939 -0.0798
 7790SOL    HW129273   9.199   2.690   1.793 -0.5534  1.5138  0.8290
 7790SOL    HW229274   9.161   2.818   1.700  0.1706 -0.5166 -2.3479
 7792SOL     OW29275   1.001   7.986   1.553 -0.0066 -0.1717  0.3409
 7792SOL    HW129276   1.098   8.001   1.574  0.2578  1.4159 -1.8634
 7792SOL    HW229277   0.964   8.068   1.509 -2.0249 -1.2571  0.0054
 7793SOL     OW29278   8.545   6.944   2.828  0.2459 -0.1359  0.3450
 7793SOL    HW129279   8.643   6.959   2.820  0.0528  0.9389 -0.1204
 7793SOL    HW229280   8.503   7.023   2.873 -0.2320 -1.1657  1.7597
 7794SOL     OW29281   0.143   2.508   2.607  0.0086  0.0161  0.2891
 7794SOL    HW129282   0.102   2.435   2.553  0.6007 -0.3455  0.3235
 7794SOL    HW229283   0.098   2.514   2.696  0.3253 -0.6733  0.4972
 7795SOL     OW29284   7.002   0.031   0.673 -0.6210 -0.4146  0.6369
 7795SOL    HW129285   7.072   0.061   0.738 -0.9121 -0.0265  0.7752
 7795SOL    HW229286   7.008   0.085   0.589 -0.8117 -0.3159  0.6849
 7796SOL     OW29287   8.737   7.639   0.741 -0.0748 -0.2212 -0.1256
 7796SOL    HW129288   8.837   7.643   0.741  0.0848 -1.9312 -3.7708
 7796SOL    HW229289   8.701   7.702   0.672 -1.4616 -0.5387  0.2953
 7798SOL     OW29290   3.584   2.231   3.546  0.0345  0.6194 -0.1088
 7798SOL    HW129291   3.525   2.248   3.467  0.3492  0.1640 -0.4405
 7798SOL    HW229292   3.612   2.135   3.547  2.1014  1.1747 -0.8811
 7799SOL     OW29293   7.610   9.628   2.037 -0.1960 -0.1258 -0.5330
 7799SOL    HW129294   7.622   9.599   1.942 -0.8349  0.4640 -0.7997
 7799SOL    HW229295   7.551   9.709   2.040 -0.3371 -0.2565  0.3817
 7800SOL     OW29296   4.820   1.091   3.353 -0.1497  0.6330  0.3483
 7800SOL    HW129297   4.809   0.993   3.371 -0.3668  0.4770 -0.5819
 7800SOL    HW229298   4.916   1.111   3.335 -0.2211  0.4285 -0.3064
 7802SOL     OW29299   9.386   9.542   1.542  0.4291  0.0129 -0.3669
 7802SOL    HW129300   9.339   9.459   1.514 -2.0678  1.2504 -0.0326
 7802SOL    HW229301   9.405   9.538   1.640  0.7256 -0.3569 -0.4394
 7803SOL     OW29302   8.256   2.030   2.485  0.0203  0.3228  0.0997
 7803SOL    HW129303   8.219   1.950   2.533  0.4390  0.6567  0.9861
 7803SOL    HW229304   8.305   1.999   2.404 -1.6070 -0.1647 -0.7126
 7804SOL     OW29305   4.806   2.898   1.539  0.0406  0.0165 -0.0689
 7804SOL    HW129306   4.755   2.948   1.609  1.2707 -0.6441  1.3204
 7804SOL    HW229307   4.895   2.870   1.576 -0.1788 -2.2429 -1.1713
 7805SOL     OW29308   9.706   3.673   1.103  0.0907  1.2000  0.1626
 7805SOL    HW129309   9.715   3.627   1.192  0.6821  2.3151  0.6946
 7805SOL    HW229310   9.630   3.633   1.053  0.4319 -0.1912  0.7106
 7806SOL     OW29311   7.491   9.493   3.152  0.4857  0.0673 -0.0655
 7806SOL    HW129312   7.482   9.422   3.082 -1.9320  0.4339 -0.1811
 7806SOL    HW229313   7.428   9.474   3.227  0.0374  1.8806  0.0473
 7807SOL     OW29314   1.217   0.963   3.233  0.1852  0.1117 -0.0362
 7807SOL    HW129315   1.166   1.016   3.165  1.8915  0.0079 -1.4368
 7807SOL    HW229316   1.242   0.875   3.195  1.0367 -0.0039  0.7809
 7808SOL     OW29317   9.479   3.874   3.521 -0.6330 -0.1625 -0.4067
 7808SOL    HW129318   9.503   3.949   3.460  0.6542  0.6824  1.1161
 7808SOL    HW229319   9.379   3.862   3.521 -0.6600 -0.2900 -2.7622
 7809SOL     OW29320   2.024   2.880   3.652  0.2982 -0.1338  0.8806
 7809SOL    HW129321   1.981   2.830   3.577 -0.1421  0.1088  0.9719
 7809SOL    HW229322   1.957   2.941   3.695  1.1816  1.5836 -0.1259
 7810SOL     OW29323   4.979   0.619   2.062  0.0622  0.3115  1.0945
 7810SOL    HW129324   4.885   0.612   2.095  0.3492 -0.1613  1.8276
 7810SOL    HW229325   5.021   0.528   2.059  0.0200  0.3408 -0.6669
 7811SOL     OW29326   4.869   3.082   2.680 -0.2649  0.3461 -0.1420
 7811SOL    HW129327   4.803   3.016   2.644  0.6893  0.1981 -1.7028
 7811SOL    HW229328   4.905   3.051   2.767  0.5222 -1.4491 -1.0862
 7812SOL     OW29329   5.445   9.515   1.544  0.3245 -0.3727 -0.0458
 7812SOL    HW129330   5.380   9.591   1.545  2.0438  1.1479 -0.2987
 7812SOL    HW229331   5.458   9.481   1.637  2.2431  2.0635  0.6417
 7813SOL     OW29332   8.918   6.459   0.457 -0.3832 -0.0166  0.0768
 7813SOL    HW129333   8.982   6.408   0.513  0.8160  0.4323 -0.8697
 7813SOL    HW229334   8.925   6.428   0.362 -2.4062 -0.7887  0.1569
 7814SOL     OW29335   3.371   5.482   2.502  0.3267 -0.0460 -0.2122
 7814SOL    HW129336   3.328   5.559   2.550 -1.6763 -1.0133 -0.4371
 7814SOL    HW229337   3.347   5.486   2.404 -1.4149 -2.0196  0.0949
 7815SOL     OW29338   3.961   0.450   0.780  0.0077 -0.3352  0.0748
 7815SOL    HW129339   3.977   0.470   0.683 -0.6630 -0.3177 -0.0317
 7815SOL    HW229340   4.041   0.478   0.833  0.2577 -0.0734 -0.4331
 7816SOL     OW29341   1.053   0.779   0.229  0.7554 -0.4349 -0.1838
 7816SOL    HW129342   1.124   0.832   0.183 -0.5954 -0.3808 -2.3053
 7816SOL    HW229343   0.986   0.841   0.270  1.4787 -0.4895  1.0917
 7818SOL     OW29344   0.682   8.723   3.749  0.5667  0.0961  0.2989
 7818SOL    HW129345   0.603   8.681   3.703  1.3013 -0.6098 -0.3522
 7818SOL    HW229346   0.710   8.665   3.826  1.8916 -0.9046 -0.9049
 7819SOL     OW29347   0.173   8.457   0.861  0.0677  0.4245  0.2744
 7819SOL    HW129348   0.201   8.405   0.941  0.9691  0.2253 -0.1647
 7819SOL    HW229349   0.196   8.406   0.778 -0.5414  0.7868 -0.1250
 7820SOL     OW29350   0.232   1.079   0.578  0.1609  0.0249 -0.0810
 7820SOL    HW129351   0.303   1.051   0.514  1.0309  1.5667  0.2004
 7820SOL    HW229352   0.267   1.150   0.639 -1.9023  1.5322 -0.6006
 7821SOL     OW29353   9.334   1.822   0.852 -0.4979  0.0196  0.1198
 7821SOL    HW129354   9.397   1.758   0.809  0.8177  1.3508  0.0249
 7821SOL    HW229355   9.329   1.802   0.950  0.7358  0.4380  0.2750
 7822SOL     OW29356   0.030   3.343   1.317  0.5159 -0.1876 -0.4474
 7822SOL    HW129357   0.034   3.243   1.313 -1.8631 -0.3607  0.4549
 7822SOL    HW229358   0.099   3.378   1.380  0.5015 -1.3660  0.2303
 7823SOL     OW29359   6.951   9.159   3.698 -0.6637 -0.3953  0.1011
 7823SOL    HW129360   6.915   9.076   3.654  0.2209 -0.2045 -1.0141
 7823SOL    HW229361   6.958   9.143   3.796 -0.8536 -1.5266 -0.0532
 7824SOL     OW29362   1.207   7.432   0.342 -0.0208 -0.6941  0.2098
 7824SOL    HW129363   1.192   7.384   0.256 -0.8797 -0.4336  0.2033
 7824SOL    HW229364   1.133   7.498   0.356 -0.6832 -1.7446  1.8397
 7825SOL     OW29365   6.647   0.820   3.202  0.0925 -0.3047 -0.6228
 7825SOL    HW129366   6.653   0.722   3.182  0.3286 -0.3344 -0.3920
 7825SOL    HW229367   6.606   0.867   3.123 -1.3349 -0.7814 -0.1885
 7826SOL     OW29368   4.888   3.034   1.313 -0.0223 -0.0619 -0.5046
 7826SOL    HW129369   4.854   3.008   1.403  0.7306 -0.2037 -0.2568
 7826SOL    HW229370   4.885   2.955   1.251 -1.3492  0.2517 -0.8594
 7827SOL     OW29371   2.316   7.991   2.552  0.1710  0.0751 -0.2545
 7827SOL    HW129372   2.264   7.912   2.518 -0.1593  0.4896 -0.7268
 7827SOL    HW229373   2.252   8.062   2.582  0.4694  0.0181  0.5068
 7829SOL     OW29374   8.810   7.391   0.861 -0.6396 -0.3596 -0.1155
 7829SOL    HW129375   8.794   7.489   0.878 -1.2076 -0.4836  0.1032
 7829SOL    HW229376   8.882   7.380   0.792  0.1471  0.1975  0.6031
 7830SOL     OW29377   0.064   2.109   1.849 -0.0259  0.1546  0.3734
 7830SOL    HW129378  -0.036   2.111   1.846 -0.0014  0.4993 -0.3869
 7830SOL    HW229379   0.094   2.099   1.944 -0.7735  0.3338  0.6375
 7831SOL     OW29380   9.218   2.333   0.721 -0.5964  0.0493  0.1245
 7831SOL    HW129381   9.240   2.362   0.628  0.4045 -0.0481  0.3226
 7831SOL    HW229382   9.232   2.234   0.729  4.2406  0.7479  1.6992
 7832SOL     OW29383   8.658   7.479   1.203  0.0263  0.2261  0.2084
 7832SOL    HW129384   8.639   7.510   1.110  0.2154 -0.7045 -0.1386
 7832SOL    HW229385   8.648   7.380   1.209  3.6946 -0.2133  0.2692
 7834SOL     OW29386   1.455   8.176   3.222  0.9003  0.4187 -0.0684
 7834SOL    HW129387   1.454   8.131   3.311  1.3520  0.8782  0.1686
 7834SOL    HW229388   1.524   8.133   3.164 -0.2353 -0.6977 -0.6318
 7837SOL     OW29389   9.949   1.160   2.538  0.5332  0.7944  0.0897
 7837SOL    HW129390  10.013   1.086   2.515  0.7748  0.8024  0.7467
 7837SOL    HW229391   9.855   1.125   2.533  0.5499  0.9007 -1.3248
 7839SOL     OW29392   9.816   5.933   3.058  0.0600 -0.6519 -0.1516
 7839SOL    HW129393   9.801   5.936   3.156 -1.4481 -0.4996 -0.3666
 7839SOL    HW229394   9.914   5.924   3.039  0.8229  3.3120  1.3282
 7840SOL     OW29395   7.801   0.326   3.175 -0.2122 -1.2561  0.2434
 7840SOL    HW129396   7.849   0.289   3.254 -1.1637 -0.2557  1.3144
 7840SOL    HW229397   7.858   0.396   3.131 -0.3987 -0.5368  1.1243
 7841SOL     OW29398   1.100   7.591   0.016 -0.5264 -0.1687 -0.1287
 7841SOL    HW129399   1.163   7.666   0.034 -1.7213  0.8825 -0.2934
 7841SOL    HW229400   1.121   7.514   0.077  0.1547  0.6116  0.6235
 7842SOL     OW29401   9.939   2.421   0.178  0.6196  0.0657  0.0120
 7842SOL    HW129402   9.871   2.348   0.169  1.2573 -0.3223 -1.8865
 7842SOL    HW229403   9.892   2.510   0.176  0.0845 -0.2195 -0.3919
 7843SOL     OW29404   3.614   2.331   1.262  0.9924 -1.0957  0.2809
 7843SOL    HW129405   3.627   2.244   1.311  1.3900  0.8888  3.8890
 7843SOL    HW229406   3.516   2.348   1.252  0.9017 -1.6029  0.2886
 7845SOL     OW29407   3.280   6.312   2.989 -0.7148  0.0029 -0.0034
 7845SOL    HW129408   3.331   6.341   2.908  0.0533  0.8571  0.7765
 7845SOL    HW229409   3.322   6.231   3.028 -1.2347 -0.5588 -0.5991
 7846SOL     OW29410   2.129   5.766   1.403  0.7178  0.1929 -0.0549
 7846SOL    HW129411   2.165   5.860   1.405  1.1484  0.0489 -0.7615
 7846SOL    HW229412   2.165   5.719   1.323  1.1717 -0.8501  0.7564
 7847SOL     OW29413   2.988   0.781   1.399  0.0480  0.0380  0.0082
 7847SOL    HW129414   2.928   0.758   1.476  1.2258  0.8901  1.1914
 7847SOL    HW229415   2.989   0.704   1.335 -2.6853  0.1883 -0.2970
 7848SOL     OW29416   7.057   9.082   1.117 -0.2943 -0.0447 -0.3873
 7848SOL    HW129417   7.023   9.142   1.045 -1.9045 -1.3219 -0.7245
 7848SOL    HW229418   7.108   9.006   1.076  1.6712  1.0064  0.0319
 7849SOL     OW29419   0.241   2.040   1.667  0.2631 -0.1886 -0.1346
 7849SOL    HW129420   0.268   2.128   1.628 -0.1722  0.8756  1.8669
 7849SOL    HW229421   0.179   2.056   1.744  1.3377 -2.1919  1.1727
 7850SOL     OW29422   1.188   8.081   3.113  0.1036 -0.4858 -0.0882
 7850SOL    HW129423   1.278   8.123   3.125  0.2612 -0.8926  0.1788
 7850SOL    HW229424   1.157   8.043   3.200 -1.7428  2.4155  0.5597
 7851SOL     OW29425   7.278   9.733   3.186  0.4599 -0.0585  0.2605
 7851SOL    HW129426   7.186   9.695   3.187 -0.2540  1.5720 -1.1319
 7851SOL    HW229427   7.339   9.673   3.134 -0.1414 -0.4426 -0.0013
 7854SOL     OW29428   3.415   0.912   3.015  0.7243 -0.5093 -0.9563
 7854SOL    HW129429   3.333   0.876   2.972  1.0520 -0.2566 -1.7890
 7854SOL    HW229430   3.446   0.848   3.086  0.5622 -1.2326 -1.5399
 7855SOL     OW29431   3.436   7.429   1.516  0.3947  0.1668  0.1149
 7855SOL    HW129432   3.479   7.340   1.499  2.5721  1.1820  0.1845
 7855SOL    HW229433   3.506   7.501   1.512 -0.8819  1.5951  2.6916
 7856SOL     OW29434   0.247   4.916   1.906  0.7863  0.2815 -0.5564
 7856SOL    HW129435   0.296   4.948   1.986  0.5577  0.1808 -0.3757
 7856SOL    HW229436   0.263   4.818   1.893 -3.0719 -0.8444  2.2222
 7857SOL     OW29437   2.121   2.641   3.237 -0.3161 -0.2375 -0.1964
 7857SOL    HW129438   2.064   2.559   3.236 -1.4453  0.5318 -3.2050
 7857SOL    HW229439   2.192   2.634   3.167 -1.7625  2.2165 -2.0041
 7859SOL     OW29440   9.439   9.210   1.844  0.0104 -0.1219 -0.1460
 7859SOL    HW129441   9.488   9.144   1.786 -0.1241  0.1734 -0.5985
 7859SOL    HW229442   9.341   9.189   1.842 -0.1307  0.5591 -0.9166
 7860SOL     OW29443   3.157   6.816   0.531  0.2438 -0.2906  0.0405
 7860SOL    HW129444   3.196   6.841   0.620 -0.2010  0.3842  0.0410
 7860SOL    HW229445   3.221   6.754   0.484  0.8241 -0.0547  0.5054
 7861SOL     OW29446   4.418   1.913   1.334 -0.1143 -0.0108  0.7897
 7861SOL    HW129447   4.343   1.856   1.302  0.1729 -0.1418  0.3370
 7861SOL    HW229448   4.503   1.883   1.291 -0.2950  2.1552 -1.2205
 7862SOL     OW29449   3.136   9.954   0.298 -0.4437  1.3258  0.6475
 7862SOL    HW129450   3.132  10.027   0.366  0.3440  0.5584  1.5306
 7862SOL    HW229451   3.210   9.890   0.321 -1.0868  0.2711 -0.1412
 7863SOL     OW29452   8.954   6.785   2.029 -0.4898  0.7594 -0.0230
 7863SOL    HW129453   9.002   6.748   2.108 -1.6492 -0.1626  0.2696
 7863SOL    HW229454   8.971   6.727   1.949  0.1717  1.3352 -0.3046
 7864SOL     OW29455   0.473   9.846   0.528 -1.4192 -0.7772 -0.0691
 7864SOL    HW129456   0.525   9.913   0.581  0.3301 -0.9302 -1.5533
 7864SOL    HW229457   0.504   9.754   0.551 -1.6387 -0.9222 -0.3510
 7865SOL     OW29458   4.426   8.038   1.057  0.2679  0.1681 -0.4507
 7865SOL    HW129459   4.427   8.056   1.156  0.7659  0.5724 -0.5263
 7865SOL    HW229460   4.354   7.972   1.036 -1.4502  1.8470 -0.1013
 7866SOL     OW29461   7.717   9.975   1.188 -0.2228 -0.7160 -0.3142
 7866SOL    HW129462   7.701   9.899   1.253 -0.3189  0.3502  0.9307
 7866SOL    HW229463   7.699   9.943   1.095 -1.0470 -2.0157  0.2663
 7867SOL     OW29464   1.415   0.704   0.096  0.0390 -0.2045  0.3310
 7867SOL    HW129465   1.352   0.631   0.121  0.6434 -1.2079 -1.0046
 7867SOL    HW229466   1.367   0.771   0.039  0.2540 -1.1444 -0.9698
 7868SOL     OW29467   6.332   0.165   2.163  0.1043  0.0132 -0.3051
 7868SOL    HW129468   6.340   0.171   2.263 -0.9264 -0.0244 -0.2145
 7868SOL    HW229469   6.236   0.162   2.138  0.3643  0.0239 -1.3094
 7869SOL     OW29470   2.012   6.585   1.323  0.4569 -0.0523 -0.5109
 7869SOL    HW129471   1.926   6.601   1.372 -0.0092 -0.5059 -1.1704
 7869SOL    HW229472   2.043   6.672   1.284  0.5527  0.2082  0.1317
 7870SOL     OW29473   9.029   2.572   0.726 -0.2167 -0.3987 -0.2606
 7870SOL    HW129474   9.073   2.584   0.814 -2.1574 -0.4052  0.7400
 7870SOL    HW229475   9.053   2.648   0.665  2.5490 -1.3152 -0.3643
 7871SOL     OW29476   1.468   9.645   0.542  0.1964  0.0127  0.8631
 7871SOL    HW129477   1.563   9.629   0.567  0.1010 -0.0185  1.2081
 7871SOL    HW229478   1.408   9.609   0.613 -0.0342  1.2625  1.3176
 7872SOL     OW29479   7.036   9.452   1.105 -0.4554 -0.2279 -0.6355
 7872SOL    HW129480   7.013   9.366   1.059  0.9745 -0.8026 -0.2984
 7872SOL    HW229481   6.977   9.464   1.185 -0.9932 -0.6476 -0.9646
 7874SOL     OW29482   3.253   7.542   0.056  0.3164  0.4861  0.2160
 7874SOL    HW129483   3.192   7.472   0.093  1.7020 -0.4077  0.8436
 7874SOL    HW229484   3.261   7.530  -0.043  2.2407 -1.6442  0.5818
 7875SOL     OW29485   5.244   9.252   2.682 -0.0295  0.1575 -0.0708
 7875SOL    HW129486   5.150   9.223   2.665  0.4683 -1.0463 -0.7931
 7875SOL    HW229487   5.273   9.219   2.772 -0.3795  0.7714  0.2755
 7876SOL     OW29488   1.889   9.768   3.405 -0.2527  0.2789  0.8354
 7876SOL    HW129489   1.944   9.689   3.431 -0.5314 -0.9854 -2.1662
 7876SOL    HW229490   1.792   9.741   3.401 -0.3756  0.8189  0.0407
 7878SOL     OW29491   9.235   3.353   0.989 -0.2626  0.5795 -0.6401
 7878SOL    HW129492   9.242   3.427   0.922  0.2048  1.9675  0.9214
 7878SOL    HW229493   9.139   3.342   1.017 -0.3434  0.5154 -0.9334
 7879SOL     OW29494   7.898   8.711   1.193  0.4475  0.3364  0.3589
 7879SOL    HW129495   7.912   8.668   1.282  1.6828 -0.4173 -0.1664
 7879SOL    HW229496   7.880   8.640   1.125  0.9451  0.7830 -0.2454
 7880SOL     OW29497   4.764   1.012   1.137  0.3457  0.5435 -0.0541
 7880SOL    HW129498   4.815   1.079   1.084 -1.0382  1.6072 -0.0765
 7880SOL    HW229499   4.761   1.040   1.233 -1.4595  1.3088 -0.3064
 7881SOL     OW29500   1.014   9.824   0.353 -0.2601  0.4030  0.4519
 7881SOL    HW129501   1.056   9.794   0.268  0.0174 -0.3123  0.8452
 7881SOL    HW229502   0.921   9.787   0.360  0.1299 -0.4803  0.9992
 7882SOL     OW29503   0.034   6.787   2.410 -0.1049  0.0728 -0.1863
 7882SOL    HW129504   0.013   6.840   2.491  0.2205  1.8084 -1.2178
 7882SOL    HW229505   0.092   6.709   2.434 -0.7621  0.0600  1.3658
 7883SOL     OW29506   8.610   4.870   2.432 -0.4862 -0.0752  0.4160
 7883SOL    HW129507   8.658   4.921   2.504  0.4736 -0.5591  0.1230
 7883SOL    HW229508   8.663   4.874   2.347 -1.8204  0.8486 -0.3897
 7885SOL     OW29509   0.939   6.857   2.159  0.0001 -0.7657 -0.0586
 7885SOL    HW129510   0.873   6.881   2.231 -1.3414 -0.7389 -1.2785
 7885SOL    HW229511   0.935   6.925   2.086  1.5388 -0.6562 -0.0497
 7886SOL     OW29512   0.371   2.511   0.759  0.5394 -0.1059 -0.6749
 7886SOL    HW129513   0.376   2.586   0.694  1.1982  1.8065  1.5029
 7886SOL    HW229514   0.275   2.491   0.780  0.3732  0.8642 -0.4814
 7888SOL     OW29515   3.749   9.662   2.756  0.1636 -0.1822 -0.2970
 7888SOL    HW129516   3.735   9.734   2.689  1.1496  0.2389 -0.0648
 7888SOL    HW229517   3.725   9.695   2.847  1.1689  0.0566 -0.1091
 7889SOL     OW29518   8.728   7.111   0.076 -0.0540 -0.2463 -0.1687
 7889SOL    HW129519   8.743   7.013   0.062  0.1380  0.3024 -4.4557
 7889SOL    HW229520   8.630   7.131   0.072  0.0089 -0.0699 -0.9529
 7890SOL     OW29521   8.357   1.130   2.948 -0.0365  0.0527  0.3371
 7890SOL    HW129522   8.412   1.118   2.865  0.5413 -0.0357  0.7254
 7890SOL    HW229523   8.319   1.042   2.977 -1.1313  0.2645 -0.4373
 7892SOL     OW29524   0.645   4.473   1.433 -0.2044 -0.7333  0.0107
 7892SOL    HW129525   0.637   4.547   1.367 -1.3953 -1.1724 -0.3370
 7892SOL    HW229526   0.596   4.392   1.400 -0.7685 -0.9712  1.3939
 7893SOL     OW29527   4.034   3.914   2.650 -0.2678 -0.1705  0.3197
 7893SOL    HW129528   3.967   3.856   2.697 -0.5419  0.8660  1.2060
 7893SOL    HW229529   4.126   3.892   2.683 -0.2205 -1.1548 -0.4446
 7895SOL     OW29530   9.265   2.137   2.830  1.0338 -0.1930 -0.4574
 7895SOL    HW129531   9.301   2.132   2.923 -0.7262 -1.1200  0.1915
 7895SOL    HW229532   9.194   2.068   2.818 -0.5770  1.6289 -1.6731
 7897SOL     OW29533   8.289   0.803   1.119  0.0518 -0.1118 -0.3308
 7897SOL    HW129534   8.346   0.823   1.039 -0.1848  2.2864  0.0582
 7897SOL    HW229535   8.336   0.738   1.179  1.1332 -0.3154 -1.3928
 7898SOL     OW29536   1.787   4.472   0.446 -0.2064  0.2853 -0.7823
 7898SOL    HW129537   1.712   4.481   0.381 -1.2227  0.2284  0.3772
 7898SOL    HW229538   1.784   4.382   0.488  0.0660  0.5546 -0.1804
 7899SOL     OW29539   8.167   2.648   3.636 -0.8935 -0.3817 -0.0833
 7899SOL    HW129540   8.253   2.618   3.678 -1.1530  0.1772  0.8614
 7899SOL    HW229541   8.140   2.582   3.566 -0.4170 -1.2873  0.5711
 7900SOL     OW29542   1.445   7.194   0.931  0.0683 -0.0735 -0.5130
 7900SOL    HW129543   1.392   7.257   0.874 -0.3428  1.9735  2.0706
 7900SOL    HW229544   1.390   7.166   1.010  0.0921 -4.0513 -1.8045
 7901SOL     OW29545   8.181   8.112   2.584 -0.4269  0.3579 -0.4659
 7901SOL    HW129546   8.219   8.204   2.579  3.3068 -1.0563  0.2377
 7901SOL    HW229547   8.193   8.066   2.496 -0.7177 -0.0333 -0.3028
 7902SOL     OW29548   0.357   8.719   0.005 -0.0425 -0.4256  0.0485
 7902SOL    HW129549   0.349   8.669   0.091  1.6843  0.8973  1.0346
 7902SOL    HW229550   0.307   8.806   0.012  0.4207 -0.1420 -0.1252
 7904SOL     OW29551   2.852   9.717   2.902  0.3403  0.4593  0.0140
 7904SOL    HW129552   2.852   9.696   3.000  1.2553  1.6055  0.2605
 7904SOL    HW229553   2.759   9.704   2.866  0.5710 -2.7115  0.4176
 7905SOL     OW29554   1.932   3.910   3.361 -0.0116 -0.1950  0.3915
 7905SOL    HW129555   1.886   3.996   3.381 -0.5318 -0.5591  0.7383
 7905SOL    HW229556   1.963   3.910   3.265 -0.8147  0.0029  0.1340
 7907SOL     OW29557   5.114   1.085   3.350 -0.4200 -0.4410  0.3254
 7907SOL    HW129558   5.196   1.143   3.351 -1.5056  1.1118  0.3180
 7907SOL    HW229559   5.128   1.008   3.413  0.5337  0.5244  1.3263
 7908SOL     OW29560   8.037   1.965   0.702  0.4873  0.7771 -0.4607
 7908SOL    HW129561   7.938   1.967   0.699  0.3792 -1.4515  0.5954
 7908SOL    HW229562   8.071   1.892   0.642  1.3336 -0.1395  1.0869
 7909SOL     OW29563   9.188   7.376   0.868 -0.6066 -0.2091 -0.6897
 7909SOL    HW129564   9.118   7.345   0.805 -0.9442  0.5571 -0.6987
 7909SOL    HW229565   9.172   7.472   0.891  0.8125  0.1646 -1.2163
 7910SOL     OW29566   2.614   0.419   3.123 -0.3188  0.2520  0.3850
 7910SOL    HW129567   2.680   0.349   3.096 -0.4648  1.0494 -2.0913
 7910SOL    HW229568   2.653   0.473   3.198  1.9035  0.7573 -1.0818
 7911SOL     OW29569   1.104   3.408   3.071 -0.1962 -0.4164 -0.0953
 7911SOL    HW129570   1.204   3.402   3.078 -0.2082  0.0933  0.5689
 7911SOL    HW229571   1.077   3.504   3.060 -0.6563 -0.4754  0.4845
 7912SOL     OW29572   3.136   4.954   2.169  0.0255  0.0263 -0.2723
 7912SOL    HW129573   3.177   5.031   2.218 -0.8632  1.1886 -1.3122
 7912SOL    HW229574   3.037   4.952   2.187  0.2835 -1.8815  1.0683
 7913SOL     OW29575   1.169  10.006   0.482  0.1558 -0.2849 -0.2422
 7913SOL    HW129576   1.101   9.936   0.462  0.0927 -0.7664  1.5654
 7913SOL    HW229577   1.260   9.965   0.481  0.3444  0.1550 -1.7086
 7914SOL     OW29578   9.940   4.052   0.559 -0.0140 -0.7674  0.0531
 7914SOL    HW129579   9.935   4.137   0.612 -0.8720 -0.3749 -0.6410
 7914SOL    HW229580  10.015   4.059   0.493  0.2096 -0.7258  0.3116
 7915SOL     OW29581   7.869   7.626   2.558 -0.0476  0.3066  0.4365
 7915SOL    HW129582   7.854   7.564   2.482 -2.0733  0.0391  1.0154
 7915SOL    HW229583   7.907   7.576   2.636  1.9149  0.5591 -0.3284
 7916SOL     OW29584   8.683   5.923   0.202 -0.1361  0.5196 -0.3173
 7916SOL    HW129585   8.671   5.843   0.262 -0.5061  0.5487 -0.3537
 7916SOL    HW229586   8.777   5.923   0.166 -1.2719 -2.1866 -3.5931
 7917SOL     OW29587   1.989   5.259   2.405  0.5226  0.0900 -0.1895
 7917SOL    HW129588   1.940   5.224   2.484  2.7322 -0.7625  0.8596
 7917SOL    HW229589   2.059   5.193   2.377  0.1980  0.6616 -2.4591
 7918SOL     OW29590   3.739   6.888   3.190 -0.3399  0.4553 -0.6717
 7918SOL    HW129591   3.830   6.854   3.169  0.1712  1.5987 -0.3698
 7918SOL    HW229592   3.738   6.923   3.284 -1.5488 -1.1001 -0.0873
 7919SOL     OW29593   9.038   5.367   3.746  0.3616 -0.0478  0.9045
 7919SOL    HW129594   9.063   5.271   3.733  4.0951  1.0442 -0.4349
 7919SOL    HW229595   9.004   5.405   3.660 -1.3217 -0.1702  1.4873
 7920SOL     OW29596   8.779   3.231   1.899 -0.3347 -0.7197 -0.4318
 7920SOL    HW129597   8.785   3.271   1.990 -1.7455 -0.4949 -0.4220
 7920SOL    HW229598   8.870   3.222   1.860  0.0964  1.3429  0.0725
 7921SOL     OW29599   4.551   3.987   1.461  0.3934  0.1024  0.0228
 7921SOL    HW129600   4.514   3.902   1.497 -0.2051 -0.0265 -0.9013
 7921SOL    HW229601   4.559   4.054   1.536  1.1059 -0.8322  0.7967
 7922SOL     OW29602   9.825   8.926   1.972  0.7768 -0.3672  0.1272
 7922SOL    HW129603   9.772   9.010   1.969  2.5204  0.7295 -0.7172
 7922SOL    HW229604   9.789   8.861   1.905  0.4143  0.3084 -0.3334
 7923SOL     OW29605   1.813   4.068   3.010  0.2229 -0.1224  0.3378
 7923SOL    HW129606   1.713   4.079   3.007 -0.2301 -3.2026  1.8775
 7923SOL    HW229607   1.843   4.068   3.105  1.6576  0.3418 -0.1089
 7924SOL     OW29608   7.209   7.961   2.598  0.4748 -0.1299  0.5905
 7924SOL    HW129609   7.299   7.921   2.612  0.3164 -0.6397  0.1759
 7924SOL    HW229610   7.141   7.911   2.653  0.3071 -0.3092  0.2234
 7927SOL     OW29611   7.194   0.040   2.839 -0.2470 -0.1151  0.5683
 7927SOL    HW129612   7.148   0.128   2.850  1.2930  0.5967  1.4451
 7927SOL    HW229613   7.220   0.028   2.743 -2.0342 -0.4275  0.1048
 7928SOL     OW29614   5.161   2.662   0.507 -0.2474 -0.1413 -0.0462
 7928SOL    HW129615   5.221   2.708   0.573 -0.3760  0.9753 -0.7068
 7928SOL    HW229616   5.208   2.652   0.420 -0.5379 -0.4943 -0.1653
 7929SOL     OW29617   0.057   6.552   3.100 -0.1128 -0.1192 -0.0356
 7929SOL    HW129618   0.063   6.475   3.037 -0.4760 -0.5989  0.5061
 7929SOL    HW229619  -0.038   6.562   3.131  0.2347 -0.5346  1.2171
 7930SOL     OW29620   2.016   1.060   1.473  0.0388  0.0622 -0.2630
 7930SOL    HW129621   2.092   1.087   1.533 -1.3607  1.3310  0.9894
 7930SOL    HW229622   2.044   1.069   1.378  1.1273  1.5679  0.1746
 7932SOL     OW29623   7.886   3.176   0.522 -0.5401 -0.1361 -0.7758
 7932SOL    HW129624   7.814   3.184   0.591 -1.1531  2.7876 -1.7019
 7932SOL    HW229625   7.935   3.090   0.536 -1.2591 -0.0698  2.7109
 7934SOL     OW29626   3.955   0.512   2.200 -0.3616  0.4997 -0.6146
 7934SOL    HW129627   3.884   0.579   2.221 -1.8812 -1.2735  0.0501
 7934SOL    HW229628   3.943   0.479   2.107 -2.2232 -1.8900  0.4086
 7935SOL     OW29629   0.295   1.999   0.384 -0.3042 -0.1997  0.1514
 7935SOL    HW129630   0.395   2.006   0.375 -0.3667 -0.1556 -0.5846
 7935SOL    HW229631   0.263   1.918   0.336 -0.7312  0.3526 -0.5142
 7936SOL     OW29632   5.708   8.800   1.896  0.3390  0.2247  0.2463
 7936SOL    HW129633   5.652   8.738   1.951 -1.1673  2.1634  0.9485
 7936SOL    HW229634   5.804   8.786   1.918 -0.1032 -0.6126  1.7181
 7937SOL     OW29635   6.618   8.243   1.990  0.3656  0.6159 -0.4452
 7937SOL    HW129636   6.647   8.149   1.975  0.1620  0.6900 -1.3412
 7937SOL    HW229637   6.691   8.306   1.962  0.6195  0.7289  0.4318
 7939SOL     OW29638   3.622   2.529   2.226 -0.2562 -0.8363 -0.2721
 7939SOL    HW129639   3.714   2.534   2.186 -0.1393 -1.0740 -0.0354
 7939SOL    HW229640   3.602   2.614   2.275 -0.9987  0.0769 -2.1166
 7940SOL     OW29641   9.222   8.303   2.022 -0.0016 -0.1816  0.1426
 7940SOL    HW129642   9.290   8.355   2.074  0.6636 -0.8362 -0.0680
 7940SOL    HW229643   9.133   8.347   2.031  0.3391  0.3713  0.8767
 7941SOL     OW29644   3.281   4.739   3.179  0.4125  1.0394 -1.0443
 7941SOL    HW129645   3.294   4.739   3.080  0.9687 -0.3894 -0.9814
 7941SOL    HW229646   3.193   4.696   3.201  1.3674 -0.8269 -0.8033
 7942SOL     OW29647   8.988   0.665   0.711  0.3100 -0.0709  0.1553
 7942SOL    HW129648   9.066   0.638   0.768  0.1981 -0.2857  0.2096
 7942SOL    HW229649   8.925   0.721   0.764  1.3355  1.6389 -0.4188
 7943SOL     OW29650   1.967   3.405   0.680  0.0103  0.6189  0.5564
 7943SOL    HW129651   1.903   3.365   0.615  0.0765  0.7593  0.4064
 7943SOL    HW229652   2.060   3.377   0.658  0.0755  0.9954  0.3485
 7945SOL     OW29653   0.996   5.447   0.927 -0.1294  0.0086  0.1030
 7945SOL    HW129654   0.961   5.463   1.019 -0.5912 -2.5035  0.4100
 7945SOL    HW229655   0.951   5.509   0.862 -0.6685  0.9781  1.3804
 7946SOL     OW29656   9.321   1.593   2.602 -0.4562  0.3372 -0.2736
 7946SOL    HW129657   9.229   1.628   2.619 -0.8456 -1.2447  1.0204
 7946SOL    HW229658   9.388   1.650   2.649 -1.0808 -0.6368  1.8503
 7948SOL     OW29659   9.906   1.945   0.548 -0.2386  0.2320 -0.0923
 7948SOL    HW129660   9.811   1.917   0.562 -0.9783  0.9337 -3.3872
 7948SOL    HW229661   9.913   2.044   0.556  0.3987  0.1248  0.8705
 7949SOL     OW29662   1.418   6.365   0.761  0.0215 -0.1909  0.1703
 7949SOL    HW129663   1.387   6.406   0.847  0.3197 -0.6065  0.4818
 7949SOL    HW229664   1.500   6.412   0.729 -1.3405  1.3840 -1.0385
 7950SOL     OW29665   4.499   1.980   1.598  0.4088  0.3618  0.0583
 7950SOL    HW129666   4.421   2.031   1.633  0.5617  0.3856  0.3600
 7950SOL    HW229667   4.488   1.966   1.499  0.3740  0.9779 -0.0251
 7951SOL     OW29668   8.889   8.069   2.378  0.0576 -0.0402  0.4216
 7951SOL    HW129669   8.970   8.015   2.358 -0.5090 -1.0524  0.8308
 7951SOL    HW229670   8.808   8.011   2.375 -0.2682  0.1216  3.7084
 7952SOL     OW29671   1.318   2.215   2.720 -0.0494  0.2777 -0.2448
 7952SOL    HW129672   1.289   2.120   2.726  1.2024  0.0618  2.7028
 7952SOL    HW229673   1.266   2.270   2.785  0.3887  1.3408 -0.7774
 7953SOL     OW29674   0.469   5.262   2.546  0.2200 -0.0714 -1.0618
 7953SOL    HW129675   0.422   5.231   2.628 -1.2424  1.1231 -1.4399
 7953SOL    HW229676   0.566   5.275   2.566 -0.6553  3.2615  1.3418
 7956SOL     OW29677   0.874   6.117   3.309 -0.5149 -0.2373  0.4464
 7956SOL    HW129678   0.895   6.196   3.251  1.2166 -0.4091  0.8008
 7956SOL    HW229679   0.893   6.032   3.259  1.6351 -0.3856  1.4245
 7957SOL     OW29680   9.028   1.539   0.715 -0.2605 -0.2485  0.2855
 7957SOL    HW129681   9.031   1.638   0.708 -0.2835 -0.1683  1.3640
 7957SOL    HW229682   8.937   1.510   0.745 -0.2958 -0.6084 -0.1615
 7958SOL     OW29683   4.720   8.094   3.123  0.4477  0.3754 -0.1472
 7958SOL    HW129684   4.627   8.065   3.146  1.1437 -0.3328  1.8393
 7958SOL    HW229685   4.717   8.184   3.079 -1.2212  0.0333 -0.7972
 7959SOL     OW29686   9.967   3.395   2.254 -0.4317 -0.2068  0.0138
 7959SOL    HW129687   9.945   3.314   2.309 -0.2100 -0.4443 -0.2439
 7959SOL    HW229688  10.009   3.366   2.168  0.2774  0.2161  0.2147
 7960SOL     OW29689   2.213   7.340   0.857 -0.0603 -0.5929  0.2463
 7960SOL    HW129690   2.212   7.336   0.957 -2.0412 -0.6981  0.2389
 7960SOL    HW229691   2.125   7.374   0.825  0.3987 -1.0400 -1.4932
 7961SOL     OW29692   8.357   1.615   3.041  0.1131  0.1401  0.4803
 7961SOL    HW129693   8.435   1.677   3.034  0.3162 -0.2648 -0.9019
 7961SOL    HW229694   8.290   1.635   2.970 -0.0303 -0.9343  0.2962
 7962SOL     OW29695   2.842   8.760   3.152 -0.1462  0.3431 -0.0970
 7962SOL    HW129696   2.821   8.851   3.116  0.4142 -0.2540 -2.0198
 7962SOL    HW229697   2.832   8.692   3.079 -1.1585 -1.2339  1.4639
 7964SOL     OW29698   0.219   0.471   0.470 -0.2076  0.8618 -0.2344
 7964SOL    HW129699   0.258   0.459   0.562  1.9777  2.5859 -0.9031
 7964SOL    HW229700   0.171   0.558   0.465  0.5653  1.2511 -1.0164
 7965SOL     OW29701   8.925   7.790   0.120  0.0977 -0.1510  0.0072
 7965SOL    HW129702   8.869   7.861   0.164  0.1334 -0.0897 -0.0443
 7965SOL    HW229703   8.865   7.717   0.087 -0.3033  1.3289 -2.7105
 7966SOL     OW29704   9.241   7.130   1.751  0.1934 -0.3314 -0.4219
 7966SOL    HW129705   9.166   7.082   1.797 -0.0017  1.9160  1.6700
 7966SOL    HW229706   9.325   7.077   1.763 -0.3287 -0.9964  0.4486
 7968SOL     OW29707   9.541   7.133   3.239 -0.1511 -0.0070  0.5645
 7968SOL    HW129708   9.634   7.168   3.240 -0.8090  1.8190  0.0195
 7968SOL    HW229709   9.538   7.045   3.286  1.1730  1.6245  3.8511
 7969SOL     OW29710   0.016   5.359   1.919 -0.5720 -0.1703 -0.9303
 7969SOL    HW129711   0.026   5.275   1.865 -2.2572 -0.9963 -0.0140
 7969SOL    HW229712  -0.036   5.426   1.866 -1.0480 -0.4876 -0.8747
 7972SOL     OW29713   4.866   8.646   2.211 -0.3187  0.7553 -0.5860
 7972SOL    HW129714   4.950   8.700   2.216 -0.0595  0.4331 -1.4534
 7972SOL    HW229715   4.837   8.636   2.116 -0.2241 -0.8493 -0.4619
 7973SOL     OW29716   4.483   3.632   2.013  0.4469 -0.5262  0.1733
 7973SOL    HW129717   4.525   3.706   1.960  0.5574 -0.4649  0.3447
 7973SOL    HW229718   4.528   3.626   2.102  1.8229 -2.1085 -0.5911
 7974SOL     OW29719   4.376   7.543   1.507 -0.1730 -0.0480  0.0089
 7974SOL    HW129720   4.432   7.582   1.579 -0.1842  1.1728 -0.6338
 7974SOL    HW229721   4.377   7.603   1.427  0.0174 -1.4759 -1.0941
 7975SOL     OW29722   9.406   5.491   2.575  0.4477  0.1700  0.1177
 7975SOL    HW129723   9.394   5.411   2.634  0.6455 -1.2946 -1.7860
 7975SOL    HW229724   9.330   5.496   2.510  0.6488  1.3051 -0.0313
 7976SOL     OW29725   1.898   2.707   3.476  0.3311  0.2217  0.5552
 7976SOL    HW129726   1.844   2.674   3.554 -0.8721  2.1902  0.5851
 7976SOL    HW229727   1.949   2.631   3.437 -0.8722 -1.2762  1.8082
 7977SOL     OW29728   4.487   3.446   1.100  0.2589  0.2033  0.1195
 7977SOL    HW129729   4.516   3.381   1.169 -0.5924 -0.6033 -0.2660
 7977SOL    HW229730   4.428   3.515   1.141  2.6194  1.7949  0.8849
 7978SOL     OW29731   1.958   0.932   1.182 -0.0723  0.0145  0.0599
 7978SOL    HW129732   1.898   0.929   1.101 -0.8410 -0.0250  0.6252
 7978SOL    HW229733   1.945   0.849   1.236  0.1305  0.2327  0.4450
 7979SOL     OW29734   6.867   9.434   1.993 -0.6264  0.1687 -0.1535
 7979SOL    HW129735   6.919   9.356   1.958 -0.0784  0.1123  0.7674
 7979SOL    HW229736   6.927   9.514   1.998 -0.6279  0.1221  0.8379
 7982SOL     OW29737   0.304   7.498   0.481  0.0046 -0.0074  0.0388
 7982SOL    HW129738   0.232   7.434   0.452  1.4109 -0.3171 -3.0042
 7982SOL    HW229739   0.342   7.468   0.568 -1.6456 -1.3904  0.3240
 7984SOL     OW29740   3.689   9.708   3.031 -0.4844  0.5784  0.0297
 7984SOL    HW129741   3.668   9.620   3.072  1.3618  0.4327  0.7332
 7984SOL    HW229742   3.684   9.780   3.100  1.7988  0.4507  0.3734
 7985SOL     OW29743   2.080   2.894   1.239 -0.0521  0.1039 -0.4620
 7985SOL    HW129744   2.139   2.919   1.316  0.0951  1.0625 -0.8783
 7985SOL    HW229745   2.012   2.966   1.224  0.3021  0.2165 -1.6041
 7988SOL     OW29746   2.772   3.323   0.131  0.0818  0.1231 -0.1860
 7988SOL    HW129747   2.866   3.292   0.118  0.4164  1.6175 -1.3891
 7988SOL    HW229748   2.768   3.422   0.122 -1.9159 -0.1005 -2.0053
 7989SOL     OW29749   7.792   6.182   2.805  0.4232 -0.4825  0.1006
 7989SOL    HW129750   7.740   6.260   2.840  0.0262 -2.1838  3.5176
 7989SOL    HW229751   7.735   6.129   2.743 -0.7085 -0.3029  0.9735
 7990SOL     OW29752   8.222   2.180   0.675  0.3487  0.4231  0.0103
 7990SOL    HW129753   8.160   2.101   0.675 -0.8154  1.3130  0.3440
 7990SOL    HW229754   8.245   2.204   0.581 -1.3976  1.2769 -0.2210
 7992SOL     OW29755   0.908   8.329   0.894  0.3671 -0.5614  0.4924
 7992SOL    HW129756   0.955   8.349   0.980 -1.0733 -0.3078  1.2382
 7992SOL    HW229757   0.871   8.236   0.897  1.8632 -1.2103 -0.5847
 7993SOL     OW29758   7.764   9.818   0.081 -0.3671 -0.3841  0.7757
 7993SOL    HW129759   7.850   9.771   0.060 -0.3712  0.2655 -0.8043
 7993SOL    HW229760   7.776   9.916   0.064 -1.3805 -0.2770  0.6726
 7994SOL     OW29761   8.859   2.121   2.185  0.5564 -0.3242  0.0260
 7994SOL    HW129762   8.908   2.044   2.144 -0.8962 -0.9167 -0.6293
 7994SOL    HW229763   8.846   2.105   2.282 -1.5491 -1.9123 -0.4784
 7997SOL     OW29764   0.640   4.540   2.294  0.0073 -0.2621  0.3174
 7997SOL    HW129765   0.570   4.469   2.293 -1.5662  1.2257 -1.8784
 7997SOL    HW229766   0.597   4.629   2.308  1.4341  0.6975 -1.1519
 7998SOL     OW29767   9.358   6.347   1.354 -0.0604 -0.5174 -0.4428
 7998SOL    HW129768   9.329   6.335   1.259 -0.7995  0.9301 -0.4085
 7998SOL    HW229769   9.277   6.357   1.412  0.4374  0.1544  0.1337
 7999SOL     OW29770   3.669   4.644   1.553  0.6268 -0.1795  0.4559
 7999SOL    HW129771   3.588   4.643   1.493  1.7951 -0.3324 -1.1577
 7999SOL    HW229772   3.712   4.554   1.552  2.4688  0.6866 -1.0268
 8000SOL     OW29773   5.394   7.213   2.390  0.0136 -0.1253  0.3888
 8000SOL    HW129774   5.327   7.216   2.316  0.0139 -0.1053  0.3897
 8000SOL    HW229775   5.347   7.190   2.476  0.0838 -0.5936  0.2998
 8001SOL     OW29776   9.541   6.241   0.554 -0.1410  0.6941 -0.1213
 8001SOL    HW129777   9.539   6.311   0.626 -0.2129 -1.9220  2.5314
 8001SOL    HW229778   9.447   6.217   0.528 -0.1515  0.0821  0.4868
 8002SOL     OW29779   8.684   9.932   3.065 -0.5642  0.1442  0.2855
 8002SOL    HW129780   8.699  10.029   3.085 -2.0573  0.9861 -2.3944
 8002SOL    HW229781   8.753   9.900   3.001 -0.5226 -0.3635  0.5813
 8003SOL     OW29782   2.788   9.419   0.729  0.1117 -0.9763  0.0684
 8003SOL    HW129783   2.842   9.354   0.675 -0.1705 -0.4090 -0.9127
 8003SOL    HW229784   2.836   9.439   0.814  1.7623 -0.0545 -1.0283
 8004SOL     OW29785   8.312   4.561   1.938 -0.5249  0.5982 -0.4212
 8004SOL    HW129786   8.233   4.608   1.976 -0.9053 -2.2562  2.5372
 8004SOL    HW229787   8.282   4.496   1.868 -1.0795 -1.7155  1.8941
 8005SOL     OW29788   1.914   2.438   3.347 -0.2574  0.4025 -0.2369
 8005SOL    HW129789   1.858   2.357   3.368  0.4231  0.0438  0.2069
 8005SOL    HW229790   1.902   2.463   3.251  0.5062 -1.0026 -0.7148
 8006SOL     OW29791   8.494   6.235   0.497  0.2782 -0.1625  0.3932
 8006SOL    HW129792   8.443   6.250   0.582 -0.3272  2.6662 -0.4151
 8006SOL    HW229793   8.549   6.316   0.477 -0.3807 -0.3909 -2.4586
 8007SOL     OW29794   0.256   9.322   2.527 -0.6220  0.0014  0.0330
 8007SOL    HW129795   0.255   9.231   2.487 -1.4726  0.1249 -0.2238
 8007SOL    HW229796   0.169   9.341   2.572  0.5597 -0.4262  2.6122
 8009SOL     OW29797   8.060   3.009   1.016  0.1633  0.4357  0.1167
 8009SOL    HW129798   8.068   2.976   0.922  1.0558  0.7261  0.0873
 8009SOL    HW229799   8.015   3.098   1.016  0.1397  0.4241 -0.0364
 8010SOL     OW29800   2.551   4.201   0.426  0.1352  0.0555 -0.4495
 8010SOL    HW129801   2.528   4.105   0.445 -1.3434  0.5365  0.2329
 8010SOL    HW229802   2.566   4.249   0.512  1.8046  0.2254 -0.8248
 8011SOL     OW29803   8.669   9.245   2.392  0.1571 -0.4061 -0.4000
 8011SOL    HW129804   8.573   9.224   2.377 -0.3426  2.7878 -2.1994
 8011SOL    HW229805   8.683   9.268   2.489 -0.3197 -3.4223  0.4160
 8012SOL     OW29806   2.768   4.262   2.652 -0.8922 -0.0884 -0.6628
 8012SOL    HW129807   2.850   4.245   2.596 -0.9147 -0.2730 -0.6402
 8012SOL    HW229808   2.795   4.290   2.744 -0.8156  3.3779 -1.6613
 8013SOL     OW29809   7.035   7.267   2.810 -0.0103  0.0312  0.2519
 8013SOL    HW129810   7.107   7.272   2.741  0.4788  0.6243  0.7972
 8013SOL    HW229811   6.948   7.246   2.766 -0.0943  2.4635 -0.8097
 8014SOL     OW29812   3.453   4.061   2.235 -0.0780  0.0261 -0.2237
 8014SOL    HW129813   3.528   4.007   2.196 -0.5967 -0.1483 -0.9890
 8014SOL    HW229814   3.438   4.032   2.329 -0.0503 -0.8570 -0.4828
 8015SOL     OW29815   7.682   1.709   2.971 -0.1443  1.0208  0.0790
 8015SOL    HW129816   7.626   1.630   2.948  0.3065  1.2719 -1.9569
 8015SOL    HW229817   7.667   1.734   3.067 -1.0369 -0.9029  0.4575
 8016SOL     OW29818   3.457   8.113   3.342 -0.0545 -0.3044 -0.2265
 8016SOL    HW129819   3.493   8.098   3.435 -1.1984  1.8274  0.5826
 8016SOL    HW229820   3.534   8.114   3.277  0.8642 -0.6566  0.8270
 8017SOL     OW29821   9.710   9.408   2.842  0.4152 -0.0126 -0.2372
 8017SOL    HW129822   9.748   9.426   2.752 -0.8453  0.9174 -0.5965
 8017SOL    HW229823   9.740   9.317   2.873  0.9772 -0.2768 -1.5175
 8018SOL     OW29824   2.809   3.653   1.960  0.0958  0.0011 -0.9911
 8018SOL    HW129825   2.881   3.653   2.029  0.2236  0.9023 -1.1228
 8018SOL    HW229826   2.817   3.571   1.903  0.9383  0.0389 -0.9325
 8019SOL     OW29827   8.331   8.940   1.071 -0.4682  0.3123  0.7610
 8019SOL    HW129828   8.355   9.036   1.053  0.0758  0.3165  1.5130
 8019SOL    HW229829   8.387   8.881   1.013 -1.8563  0.5002 -0.7995
 8020SOL     OW29830   0.063   6.445   1.366 -0.3655  0.8518 -0.1639
 8020SOL    HW129831   0.129   6.383   1.324  0.5618  1.6355  0.1071
 8020SOL    HW229832  -0.020   6.394   1.388  0.5848 -0.4420  0.5708
 8021SOL     OW29833   4.296   8.307   1.794  0.6294  0.4745  0.1293
 8021SOL    HW129834   4.270   8.323   1.699 -0.7860  0.4901  0.5111
 8021SOL    HW229835   4.272   8.387   1.849  0.2857 -0.0294  0.7201
 8023SOL     OW29836   5.555   7.335   1.925  0.9971  0.1933  0.4607
 8023SOL    HW129837   5.597   7.400   1.862  1.6261 -1.6362 -1.0471
 8023SOL    HW229838   5.616   7.257   1.938 -0.1624 -0.5637  1.4663
 8025SOL     OW29839   9.217   2.143   0.055 -0.4009  0.4510  0.4095
 8025SOL    HW129840   9.205   2.102   0.145  0.5409  0.3298  0.4848
 8025SOL    HW229841   9.238   2.070  -0.011  0.4372  0.7059  0.3858
 8027SOL     OW29842   2.095   3.757   0.849 -1.5135  0.0473 -0.0306
 8027SOL    HW129843   2.187   3.783   0.818 -0.6090 -0.3147  2.2334
 8027SOL    HW229844   2.077   3.799   0.938 -2.7496 -1.5227  0.4832
 8028SOL     OW29845   2.107   4.832   1.962  0.4758 -0.1592  0.3583
 8028SOL    HW129846   2.145   4.825   1.870  0.0668 -0.5637  0.2183
 8028SOL    HW229847   2.174   4.800   2.029  0.4953 -0.5839  0.1356
 8029SOL     OW29848   3.420   8.885   2.202 -0.1762 -0.2051  0.2023
 8029SOL    HW129849   3.494   8.853   2.262  0.5189  0.3560 -0.3385
 8029SOL    HW229850   3.387   8.809   2.147 -0.4975 -0.6192  0.9669
 8030SOL     OW29851   9.061   5.405   0.878  0.2823  0.1796 -0.4748
 8030SOL    HW129852   9.082   5.310   0.852  2.5217  0.4187  0.3417
 8030SOL    HW229853   9.040   5.458   0.795 -0.9726 -1.0186 -0.9337
 8031SOL     OW29854   3.135   3.529   1.196  0.4884 -0.3216 -0.4498
 8031SOL    HW129855   3.234   3.543   1.187  0.5338  0.2525  0.8608
 8031SOL    HW229856   3.111   3.437   1.163  1.4086 -0.3495 -1.0591
 8032SOL     OW29857   9.531   9.296   3.133  0.7562  0.0999 -0.0418
 8032SOL    HW129858   9.583   9.218   3.169 -0.2163 -0.1204  0.9011
 8032SOL    HW229859   9.594   9.371   3.114  1.8662 -1.2810 -2.0221
 8033SOL     OW29860   0.867   5.183   1.006  0.5245 -0.2105  0.0943
 8033SOL    HW129861   0.918   5.099   1.024  2.2164  0.7424 -0.0662
 8033SOL    HW229862   0.932   5.258   0.993 -0.9147  0.8610 -1.0613
 8034SOL     OW29863   4.203   9.289   0.695  0.9620 -0.0425  0.3409
 8034SOL    HW129864   4.128   9.222   0.702  0.0261  0.5770 -2.9021
 8034SOL    HW229865   4.231   9.316   0.787 -0.6727 -2.6304  1.6907
 8035SOL     OW29866   1.668   3.912   1.764  0.3073  0.0507  0.1825
 8035SOL    HW129867   1.653   3.869   1.675  0.0664  0.4800  0.0181
 8035SOL    HW229868   1.766   3.930   1.776  0.4217 -0.6366  0.2949
 8036SOL     OW29869   1.400   0.025   3.441  0.3627  0.1704 -0.6744
 8036SOL    HW129870   1.378   0.015   3.344  1.4187 -0.2140 -0.8775
 8036SOL    HW229871   1.447  -0.058   3.473  1.8253  1.1221 -0.3305
 8037SOL     OW29872   0.477   3.892   1.303  0.2615  0.0596  0.0656
 8037SOL    HW129873   0.467   3.870   1.206 -0.3039 -1.2424  0.4022
 8037SOL    HW229874   0.573   3.909   1.324  0.3392  0.7171 -0.7892
 8038SOL     OW29875   2.462   2.479   1.091 -0.6288  0.0981 -0.3535
 8038SOL    HW129876   2.497   2.541   1.161 -0.3005 -0.1572 -0.2866
 8038SOL    HW229877   2.483   2.514   1.000  0.5088 -0.4483 -0.3078
 8039SOL     OW29878   1.077   5.923   3.432 -0.1546 -0.1724 -1.1465
 8039SOL    HW129879   1.033   6.010   3.410  1.4074  1.6872  2.6451
 8039SOL    HW229880   1.026   5.878   3.506  1.3295 -0.5016 -0.3109
 8040SOL     OW29881   2.957   3.767   3.581  0.6306 -0.1258 -0.1368
 8040SOL    HW129882   2.944   3.670   3.563  2.5670 -0.9444  2.4697
 8040SOL    HW229883   2.983   3.779   3.677 -0.0858  3.0314 -0.2850
 8041SOL     OW29884   3.030   5.986   1.751  0.1267 -0.4295 -0.0453
 8041SOL    HW129885   3.092   5.913   1.781 -1.3556 -1.6313  0.1154
 8041SOL    HW229886   2.964   6.006   1.824  0.0674  0.5706 -0.3673
 8044SOL     OW29887   3.546   9.744   0.079  0.1487  0.1010  0.2715
 8044SOL    HW129888   3.545   9.689   0.163  1.6422 -0.7989 -0.2733
 8044SOL    HW229889   3.532   9.840   0.102 -1.6168 -0.3861  1.3290
 8045SOL     OW29890   1.893   7.333   2.664 -0.6562  0.1831  0.0225
 8045SOL    HW129891   1.809   7.335   2.717 -0.6075 -2.9717  0.3341
 8045SOL    HW229892   1.871   7.311   2.568 -0.3445  1.1808 -0.2802
 8047SOL     OW29893   7.425   9.977   2.302 -0.8720  0.8963  0.5940
 8047SOL    HW129894   7.523   9.989   2.318 -0.7908  0.6714  0.2657
 8047SOL    HW229895   7.411   9.900   2.240 -1.2951  0.4394  1.2581
 8048SOL     OW29896   2.608   6.004   0.489 -0.3794  0.1742 -0.3804
 8048SOL    HW129897   2.605   5.989   0.588  0.8368  1.4344 -0.1368
 8048SOL    HW229898   2.703   6.008   0.459 -0.7412  0.1965 -1.5440
 8051SOL     OW29899   8.703   8.765   2.631  0.0091 -0.0685  0.6596
 8051SOL    HW129900   8.793   8.732   2.661  0.6159  1.6179  0.7986
 8051SOL    HW229901   8.676   8.843   2.687 -1.8661 -0.9687  1.0425
 8052SOL     OW29902   9.428   4.593   3.564 -0.3490  0.0462  0.1058
 8052SOL    HW129903   9.464   4.534   3.492  0.0769 -1.5918  1.6088
 8052SOL    HW229904   9.342   4.635   3.533 -0.0072 -0.3728 -1.4532
 8053SOL     OW29905   7.939   8.354   3.590  0.5142  0.7422 -0.0027
 8053SOL    HW129906   7.958   8.264   3.630  0.8793  0.9776  0.3586
 8053SOL    HW229907   8.025   8.404   3.579  0.1854  1.5420  0.9748
 8054SOL     OW29908   9.441   1.371   1.366 -0.2128  0.1886 -0.0216
 8054SOL    HW129909   9.396   1.458   1.344 -0.2811  0.5808  1.5791
 8054SOL    HW229910   9.399   1.297   1.314 -0.8549  0.9680 -0.6177
 8055SOL     OW29911   0.913   2.222   1.693  0.5602 -0.0108  0.3868
 8055SOL    HW129912   0.832   2.180   1.651  0.7266  0.2150 -0.1713
 8055SOL    HW229913   0.894   2.247   1.788 -0.2357  0.6591  0.0506
 8056SOL     OW29914   0.470   3.435   3.605 -0.0872  0.2425 -0.0549
 8056SOL    HW129915   0.528   3.484   3.669  0.6970 -0.4507 -0.2294
 8056SOL    HW229916   0.507   3.343   3.589 -0.5389  0.2308 -1.1223
 8057SOL     OW29917   2.475   4.822   1.266  0.6243  0.1976  0.3113
 8057SOL    HW129918   2.421   4.811   1.349 -0.7612  0.2679 -0.5723
 8057SOL    HW229919   2.571   4.840   1.291  0.5285 -1.3275  1.8670
 8058SOL     OW29920   4.564   7.228   3.098 -0.3118  0.0921  0.2844
 8058SOL    HW129921   4.614   7.173   3.032 -0.0365  0.2524  0.3590
 8058SOL    HW229922   4.530   7.170   3.172 -2.2416 -0.4044 -0.9533
 8060SOL     OW29923   2.185   5.402   2.127  0.1625  0.4485 -0.0693
 8060SOL    HW129924   2.136   5.464   2.189  0.0281 -1.8116  2.1940
 8060SOL    HW229925   2.118   5.349   2.075  0.2758  1.6394 -1.4603
 8061SOL     OW29926   8.938   4.720   0.822  0.3408  0.0571  0.0029
 8061SOL    HW129927   8.874   4.794   0.805  1.1280  0.4436 -1.4602
 8061SOL    HW229928   8.947   4.704   0.920  0.1122  1.8534  0.3234
 8062SOL     OW29929   3.508   1.741   3.377 -0.2641 -0.0010 -0.4139
 8062SOL    HW129930   3.509   1.760   3.475 -0.8581 -0.5982 -0.2869
 8062SOL    HW229931   3.435   1.795   3.333  0.5344  0.8891 -0.6626
 8063SOL     OW29932   7.516   2.706   0.417 -0.1852  0.3726 -0.0097
 8063SOL    HW129933   7.534   2.800   0.391 -0.1090  0.6691  1.0816
 8063SOL    HW229934   7.480   2.655   0.338 -1.2923  1.5916 -0.3057
 8064SOL     OW29935   1.886   4.763   1.615  0.1066  0.5104  0.6549
 8064SOL    HW129936   1.804   4.803   1.657 -1.3275 -0.8739 -0.7502
 8064SOL    HW229937   1.936   4.710   1.683  1.2083  3.3835  2.1532
 8065SOL     OW29938   1.368   9.268   0.080 -0.1948  0.6178 -0.4222
 8065SOL    HW129939   1.312   9.185   0.082 -0.7852  1.0225  0.0790
 8065SOL    HW229940   1.328   9.334   0.016 -0.4559  1.0218  0.1526
 8066SOL     OW29941   5.074   2.556   2.192 -0.2914  0.4297 -0.3330
 8066SOL    HW129942   5.066   2.612   2.110 -0.0744  0.6996 -0.1717
 8066SOL    HW229943   5.046   2.610   2.272 -0.7846  0.0764 -0.2656
 8067SOL     OW29944   1.015   1.962   2.052 -0.5478  0.5191 -0.0807
 8067SOL    HW129945   0.962   1.882   2.023 -0.5544  0.0433  1.2173
 8067SOL    HW229946   1.112   1.947   2.033 -0.7539  1.0246 -1.6381
 8068SOL     OW29947   1.895   5.743   2.862 -0.1138  0.4696  0.4773
 8068SOL    HW129948   1.916   5.654   2.901 -3.1469  0.5428  2.4592
 8068SOL    HW229949   1.916   5.815   2.928 -0.0815  1.0412 -0.1442
 8070SOL     OW29950   7.962   0.693   0.137 -0.2056  0.2860  0.1502
 8070SOL    HW129951   7.974   0.786   0.103  0.3689  0.4795  0.8807
 8070SOL    HW229952   8.042   0.638   0.112 -0.3731  0.0846  0.0532
 8071SOL     OW29953   4.469   3.294   1.533  0.2087  0.4253  0.3017
 8071SOL    HW129954   4.501   3.244   1.453  2.7055 -0.4420  1.7790
 8071SOL    HW229955   4.391   3.246   1.574  1.4115 -1.2896  0.6316
 8072SOL     OW29956   1.669   1.644   2.416 -0.6879  0.3895  0.5396
 8072SOL    HW129957   1.737   1.717   2.404 -0.0320 -0.4140 -0.7048
 8072SOL    HW229958   1.584   1.669   2.369 -0.6601  0.6082  0.6056
 8073SOL     OW29959   5.245   9.030   2.307  0.5054 -0.0379 -0.2385
 8073SOL    HW129960   5.307   9.040   2.385  0.6260  2.6837 -0.6441
 8073SOL    HW229961   5.297   9.038   2.222 -0.0717  0.0116 -0.5905
 8074SOL     OW29962   2.341   1.941   3.527 -0.2070  0.2059 -0.0728
 8074SOL    HW129963   2.385   1.913   3.612 -0.3143  2.1415  0.6491
 8074SOL    HW229964   2.408   1.936   3.452  0.3944  0.2244  0.4574
 8075SOL     OW29965   8.982   7.077   2.586  0.1610  0.4052  0.1267
 8075SOL    HW129966   9.072   7.034   2.577 -0.5806 -1.0825 -0.2125
 8075SOL    HW229967   8.911   7.015   2.552 -0.8802  2.0784 -0.8202
 8076SOL     OW29968   7.048   0.672   3.165 -0.2660 -0.0090 -0.0262
 8076SOL    HW129969   6.967   0.681   3.107 -0.8197 -0.1280  0.7204
 8076SOL    HW229970   7.074   0.575   3.171  0.5826  0.1354 -1.1324
 8077SOL     OW29971   0.465   1.511   1.270  0.1035 -0.3436 -0.7995
 8077SOL    HW129972   0.555   1.480   1.301  0.4082  0.0812 -1.2533
 8077SOL    HW229973   0.398   1.439   1.286  0.8313 -1.2934 -1.9920
 8078SOL     OW29974   8.902   4.937   3.407  0.1877  0.1145  0.2080
 8078SOL    HW129975   8.915   4.868   3.478 -0.1443  1.5344  1.6823
 8078SOL    HW229976   8.990   4.977   3.382  0.1839  0.3695  0.5990
 8079SOL     OW29977   4.344   1.307   3.589  0.0285  0.6718  0.1438
 8079SOL    HW129978   4.325   1.401   3.559 -0.1987  1.2369  1.9803
 8079SOL    HW229979   4.381   1.255   3.513  0.3364  2.3067 -0.8599
 8081SOL     OW29980   9.539   1.629   1.871 -0.2874 -0.3957 -0.2870
 8081SOL    HW129981   9.534   1.696   1.945 -1.3055 -1.4280  0.5878
 8081SOL    HW229982   9.607   1.659   1.804 -1.8158  2.2971 -0.7187
 8082SOL     OW29983   2.386   7.283   0.412 -0.0438 -0.3192  0.6771
 8082SOL    HW129984   2.431   7.194   0.403  1.1813  0.0790  2.6517
 8082SOL    HW229985   2.434   7.350   0.355 -2.0199 -1.2542 -2.1951
 8083SOL     OW29986   3.762   7.150   3.490 -0.6985  0.5110 -0.2052
 8083SOL    HW129987   3.687   7.092   3.523 -0.8832 -0.3063 -2.0240
 8083SOL    HW229988   3.782   7.219   3.559 -1.8312 -0.4559  1.1399
 8084SOL     OW29989   2.089   7.157   1.408 -0.3178 -0.2960 -0.4487
 8084SOL    HW129990   2.006   7.205   1.436  0.0061  0.8547 -1.4015
 8084SOL    HW229991   2.067   7.090   1.338 -0.7961 -1.6781  0.9866
 8087SOL     OW29992   1.084   1.643   3.466 -0.6657 -0.4146 -0.2861
 8087SOL    HW129993   1.166   1.590   3.489  0.1501  1.5452  1.4415
 8087SOL    HW229994   1.081   1.658   3.367 -0.1841 -2.4741 -0.6351
 8088SOL     OW29995   2.857   8.264   3.643  0.0061 -0.0835 -0.2163
 8088SOL    HW129996   2.936   8.232   3.695 -0.6324  0.8445  1.3582
 8088SOL    HW229997   2.833   8.196   3.573  2.6997  0.0209 -1.2997
 8089SOL     OW29998   0.028   6.174   3.205 -0.1134 -0.4288  0.4273
 8089SOL    HW129999   0.007   6.233   3.128 -0.1746 -0.0097  0.7666
 8089SOL    HW230000   0.120   6.136   3.193 -0.0399 -0.1994  0.2506
 8090SOL     OW30001   2.254   4.480   1.418  0.5246 -0.2303 -0.7783
 8090SOL    HW130002   2.340   4.505   1.463  0.6910 -1.1257 -0.5885
 8090SOL    HW230003   2.249   4.522   1.328  0.4069  1.2007 -0.1228
 8091SOL     OW30004   3.673   4.973   1.819 -0.5737 -0.6500  0.3077
 8091SOL    HW130005   3.722   5.060   1.822 -0.8371 -0.5304  1.2555
 8091SOL    HW230006   3.602   4.977   1.749  1.4190 -1.1803 -1.7969
 8093SOL     OW30007   9.308   3.612   3.337  0.2738  0.0459 -0.6527
 8093SOL    HW130008   9.376   3.639   3.269 -0.1472 -1.8503 -1.8734
 8093SOL    HW230009   9.221   3.657   3.317  0.2058 -0.3553 -1.2742
 8094SOL     OW30010   9.370   1.080   3.002 -0.1297 -0.6201 -0.0178
 8094SOL    HW130011   9.285   1.108   3.046  0.6043  2.1046 -0.2802
 8094SOL    HW230012   9.353   1.064   2.905 -0.2742  0.2365 -0.1365
 8096SOL     OW30013   6.819   0.435   2.819 -0.2176  0.0422 -0.0486
 8096SOL    HW130014   6.789   0.369   2.888 -1.2355  1.2059  0.6382
 8096SOL    HW230015   6.765   0.423   2.736  0.9208 -1.2748 -0.6104
 8097SOL     OW30016   0.368   9.882   3.432 -0.2396  0.1002 -0.2957
 8097SOL    HW130017   0.312   9.831   3.497  1.5386 -1.3968  0.1082
 8097SOL    HW230018   0.433   9.940   3.482 -1.0080  1.3798 -0.7551
 8098SOL     OW30019   1.467   0.580   3.519  0.4535 -0.0205 -0.2259
 8098SOL    HW130020   1.383   0.633   3.534  0.9864  0.4270  1.2750
 8098SOL    HW230021   1.459   0.492   3.566  0.0536 -0.8007 -1.7209
 8099SOL     OW30022   8.682   2.218   1.421  0.0656  0.1529 -0.7939
 8099SOL    HW130023   8.763   2.223   1.364  1.4642 -0.3168  1.0905
 8099SOL    HW230024   8.675   2.127   1.461 -1.2079  0.2968 -0.6666
 8100SOL     OW30025   0.720   5.617   2.357  0.3726  0.2617  0.3891
 8100SOL    HW130026   0.791   5.573   2.301 -0.6378 -0.3439 -0.4226
 8100SOL    HW230027   0.763   5.663   2.434  1.7959  1.1603 -0.9107
 8101SOL     OW30028   2.445   0.857   3.179 -0.3967 -0.3436 -0.2704
 8101SOL    HW130029   2.431   0.809   3.092 -0.2186 -2.5917  0.8975
 8101SOL    HW230030   2.534   0.902   3.178 -1.6392  2.1772 -2.3722
 8102SOL     OW30031   9.706   6.986   0.562 -0.2132  0.1430 -0.3085
 8102SOL    HW130032   9.671   6.925   0.632  0.9215 -0.4072 -0.2111
 8102SOL    HW230033   9.715   6.937   0.476  0.7717  0.1343 -0.2107
 8104SOL     OW30034   9.245   1.735   0.471 -0.2041 -0.3127 -0.1264
 8104SOL    HW130035   9.232   1.747   0.372  0.5358  1.2118 -0.0630
 8104SOL    HW230036   9.272   1.641   0.490 -0.1209 -0.5588 -1.4035
 8105SOL     OW30037   5.129   2.282   2.180 -0.2742  0.1763 -0.1252
 8105SOL    HW130038   5.132   2.381   2.192  0.2098  0.3265 -1.4126
 8105SOL    HW230039   5.211   2.252   2.130 -2.4250 -0.2900 -3.5789
 8108SOL     OW30040   3.726   1.306   2.295 -0.1744 -0.1526  0.2960
 8108SOL    HW130041   3.767   1.397   2.296 -1.2172  0.3116  0.8112
 8108SOL    HW230042   3.680   1.288   2.382 -0.7120 -0.8328 -0.1188
 8109SOL     OW30043   9.095   5.002   1.356  0.3947 -0.0854 -0.6872
 8109SOL    HW130044   9.018   4.941   1.338  1.1795 -1.4220  0.4446
 8109SOL    HW230045   9.076   5.057   1.438  1.1995 -1.3911  0.3974
 8110SOL     OW30046   8.416   2.570   0.592 -0.4412  0.0024 -0.5719
 8110SOL    HW130047   8.321   2.576   0.563 -0.9953  0.5013  1.2678
 8110SOL    HW230048   8.453   2.479   0.569 -1.4951 -0.3626 -0.8386
 8111SOL     OW30049   8.828   7.845   1.333  0.1735 -0.6025  0.2980
 8111SOL    HW130050   8.857   7.749   1.332  1.3151 -0.2763  1.1408
 8111SOL    HW230051   8.907   7.903   1.318 -0.5451  0.2158 -0.3660
 8112SOL     OW30052   8.869   0.842   3.089 -0.1403 -0.6273 -0.6114
 8112SOL    HW130053   8.963   0.814   3.111 -0.0917  0.1303  0.1558
 8112SOL    HW230054   8.870   0.903   3.010  0.2500  1.1751  0.7523
 8113SOL     OW30055   0.426   4.569   3.416  0.1640  0.2560  0.4295
 8113SOL    HW130056   0.393   4.567   3.321 -0.1841 -3.8162  0.5471
 8113SOL    HW230057   0.517   4.528   3.420  1.5562  3.3597  1.4358
 8114SOL     OW30058   9.920   5.137   0.703 -0.7407  0.5213  0.8639
 8114SOL    HW130059   9.958   5.045   0.713 -1.2782  0.4525  2.4669
 8114SOL    HW230060   9.982   5.193   0.649 -0.2227 -0.6726  0.1952
 8116SOL     OW30061   1.396   2.423   2.550  0.2389  0.4191 -0.1057
 8116SOL    HW130062   1.375   2.334   2.591 -0.2052  1.4438  1.9737
 8116SOL    HW230063   1.311   2.476   2.541  0.5409  0.7538 -1.0527
 8117SOL     OW30064   8.529   0.716   1.982 -0.1272 -0.0920 -0.0721
 8117SOL    HW130065   8.472   0.689   2.060  1.4502 -1.7271  0.5676
 8117SOL    HW230066   8.496   0.669   1.900 -0.9953  0.6219 -0.1393
 8118SOL     OW30067   4.423   3.509   3.095  0.2610 -0.4342 -0.1769
 8118SOL    HW130068   4.359   3.433   3.105  1.1736 -1.5369 -2.3676
 8118SOL    HW230069   4.386   3.576   3.030  0.8468 -0.5681 -0.6547
 8119SOL     OW30070   0.631   6.366   2.761 -0.2473 -0.2126 -0.2446
 8119SOL    HW130071   0.594   6.286   2.808 -0.0413 -0.7501 -0.9734
 8119SOL    HW230072   0.702   6.336   2.697  1.3327  0.7841  1.0171
 8120SOL     OW30073   0.533   2.359   3.282 -0.1335  0.1660  0.3267
 8120SOL    HW130074   0.630   2.356   3.259 -1.1701  0.8181 -4.8105
 8120SOL    HW230075   0.506   2.453   3.302 -0.3175  0.5575 -1.6313
 8121SOL     OW30076   3.609   0.190   1.058  0.1236  0.2837  0.2143
 8121SOL    HW130077   3.535   0.172   1.123  0.3142  1.7687  0.8527
 8121SOL    HW230078   3.581   0.264   0.996  0.5256 -0.1145 -0.4511
 8122SOL     OW30079   0.716   6.464   0.160  0.2526  0.3499  0.1036
 8122SOL    HW130080   0.780   6.497   0.090 -0.6592  1.2489 -0.3100
 8122SOL    HW230081   0.691   6.369   0.140  2.6908 -0.5594  1.1606
 8123SOL     OW30082   8.354   5.323   1.480  0.1015  0.2754  0.3495
 8123SOL    HW130083   8.284   5.393   1.465  1.2902  1.2523 -0.7730
 8123SOL    HW230084   8.445   5.363   1.463  0.7328 -1.8093 -1.2716
 8124SOL     OW30085   8.660   3.556   2.203 -0.7477 -0.5215 -0.1879
 8124SOL    HW130086   8.700   3.465   2.194 -0.3045 -0.4151  0.7110
 8124SOL    HW230087   8.611   3.578   2.118  1.2602 -0.5522 -1.4005
 8125SOL     OW30088   7.712   9.634   0.834  0.5092  0.2283 -0.0298
 8125SOL    HW130089   7.625   9.612   0.788  0.1108  1.2012  0.2385
 8125SOL    HW230090   7.720   9.580   0.918 -0.1861  0.6620  0.3243
 8127SOL     OW30091   4.075   1.045   3.338  0.0757  0.0181 -0.1808
 8127SOL    HW130092   4.170   1.025   3.313  0.2386  0.6741 -0.1046
 8127SOL    HW230093   4.060   1.022   3.434  0.6424  1.5474  0.2851
 8128SOL     OW30094   8.579   5.203   3.153  0.6671 -0.4747 -0.2677
 8128SOL    HW130095   8.538   5.286   3.191  1.6253  1.2217 -2.8055
 8128SOL    HW230096   8.609   5.143   3.227 -1.5450  0.6875  1.5940
 8129SOL     OW30097   9.647   5.411   0.038  0.3563  0.0013 -0.5476
 8129SOL    HW130098   9.699   5.376   0.115 -1.3247 -0.7628  0.2834
 8129SOL    HW230099   9.573   5.346   0.016  0.5879  0.3855 -2.5510
 8130SOL     OW30100   1.689   4.941   2.510  0.4521 -1.1670  0.8729
 8130SOL    HW130101   1.732   4.860   2.549 -0.7453 -2.0169  0.4579
 8130SOL    HW230102   1.674   4.927   2.412  2.4964  0.5409  0.2741
 8131SOL     OW30103   3.849   5.028   3.762 -0.1509 -0.1600 -0.4782
 8131SOL    HW130104   3.796   4.958   3.715 -2.2922  1.0035  0.1748
 8131SOL    HW230105   3.881   4.992   3.850  0.2907 -0.8998 -0.9316
 8132SOL     OW30106   9.746   0.305   3.310  0.3476 -0.4813 -0.6573
 8132SOL    HW130107   9.833   0.256   3.302  1.9526  2.1241 -0.1339
 8132SOL    HW230108   9.741   0.349   3.399 -2.1329 -1.6628 -0.1864
 8134SOL     OW30109   3.595   0.020   0.801  0.3741  0.0185  0.0599
 8134SOL    HW130110   3.581   0.088   0.872 -1.4119 -0.3752  0.0951
 8134SOL    HW230111   3.655  -0.053   0.836  1.3765  0.9779  0.3813
 8135SOL     OW30112   2.067   8.388   2.384 -0.1103 -0.3250 -0.4268
 8135SOL    HW130113   1.972   8.392   2.414  0.8428  3.0418  2.4458
 8135SOL    HW230114   2.084   8.457   2.314  0.3324 -0.6575 -0.6565
 8136SOL     OW30115   2.849   1.200   2.153 -0.2293  0.4819 -0.0988
 8136SOL    HW130116   2.781   1.263   2.114  0.3390  1.7673  0.9802
 8136SOL    HW230117   2.843   1.200   2.252 -0.2613 -1.2374 -0.0704
 8137SOL     OW30118   1.930   4.005   1.810  0.1119 -0.6931 -0.2338
 8137SOL    HW130119   1.959   3.957   1.893  1.4629 -0.8856 -0.7883
 8137SOL    HW230120   1.986   3.974   1.733 -0.0505  0.6439 -0.9062
 8139SOL     OW30121   8.333   6.832   0.960  0.1489 -0.1622  0.0463
 8139SOL    HW130122   8.280   6.915   0.947 -1.9589 -1.5468 -0.6140
 8139SOL    HW230123   8.395   6.819   0.882 -1.1093 -0.3239 -0.9440
 8140SOL     OW30124   7.424   1.586   3.037 -0.2481 -0.0848  0.0334
 8140SOL    HW130125   7.403   1.654   3.108 -2.0982 -0.7412  0.1521
 8140SOL    HW230126   7.457   1.502   3.079  1.7202  0.6080 -0.0934
 8142SOL     OW30127   1.431   6.267   2.528 -0.1853 -0.0201 -0.0059
 8142SOL    HW130128   1.368   6.271   2.451 -0.9364  2.6887  0.6932
 8142SOL    HW230129   1.523   6.249   2.495 -0.1025  3.2936 -1.8449
 8143SOL     OW30130   1.108   8.548   0.330  0.0253 -0.0504 -0.5046
 8143SOL    HW130131   1.084   8.641   0.301  0.1393 -0.5733 -2.3643
 8143SOL    HW230132   1.206   8.545   0.353 -0.1107  0.4273  0.1352
 8144SOL     OW30133   0.746   7.881   3.531  0.4457  0.3259 -0.1896
 8144SOL    HW130134   0.703   7.952   3.475  1.2256  2.0494  1.3546
 8144SOL    HW230135   0.839   7.866   3.498  0.8934  1.3156  0.5989
 8145SOL     OW30136   3.208   9.293   0.854  0.1302  0.0694 -0.3109
 8145SOL    HW130137   3.166   9.209   0.820  0.0086 -0.3056  0.7366
 8145SOL    HW230138   3.300   9.303   0.815  0.7496 -1.3449  0.7034
 8147SOL     OW30139   9.309   4.568   0.905 -0.1697 -0.8221 -0.2131
 8147SOL    HW130140   9.290   4.497   0.974  2.4168 -0.7075  0.6736
 8147SOL    HW230141   9.382   4.536   0.844 -0.2317  0.3700 -0.9165
 8148SOL     OW30142   9.707   8.174   2.449  0.1165 -0.5658  0.1444
 8148SOL    HW130143   9.744   8.267   2.448  1.0129 -0.9210 -0.5804
 8148SOL    HW230144   9.651   8.159   2.368  0.2839 -0.7804  0.0675
 8149SOL     OW30145   0.642   4.756   1.753  0.4017 -0.0895 -0.6062
 8149SOL    HW130146   0.704   4.683   1.781 -0.8338 -0.3816  1.4207
 8149SOL    HW230147   0.691   4.819   1.692  2.3327 -0.9565 -0.0016
 8150SOL     OW30148   7.670   2.773   0.024  0.2778 -0.3841  0.2316
 8150SOL    HW130149   7.727   2.855   0.014  0.8385 -1.1023 -2.8970
 8150SOL    HW230150   7.727   2.696   0.052 -0.1094  0.0852  2.3674
 8153SOL     OW30151   1.847   8.288   2.555 -0.1930  0.7674 -0.0325
 8153SOL    HW130152   1.760   8.336   2.554  0.9125  2.8140 -2.2748
 8153SOL    HW230153   1.841   8.206   2.498 -0.0287  2.1089 -2.0120
 8154SOL     OW30154   9.233   7.327   0.167  0.0229  0.1689  0.1538
 8154SOL    HW130155   9.203   7.366   0.080 -0.7027 -3.2281 -1.1724
 8154SOL    HW230156   9.156   7.324   0.231 -0.6757 -1.7235 -0.7425
 8155SOL     OW30157   2.491   7.019   0.688 -0.0898 -0.0681  0.4024
 8155SOL    HW130158   2.543   7.103   0.698 -0.3323  0.3250 -1.5029
 8155SOL    HW230159   2.399   7.031   0.727 -0.1247  0.5455  0.1204
 8156SOL     OW30160   4.514   2.451   1.447 -0.4501 -0.0140 -0.2008
 8156SOL    HW130161   4.598   2.475   1.400  0.0196 -1.4109 -0.0864
 8156SOL    HW230162   4.438   2.453   1.382 -0.5053  2.0842 -0.1300
 8158SOL     OW30163   4.015   1.867   1.661 -0.2343  0.2481  0.4537
 8158SOL    HW130164   4.003   1.825   1.751  2.1953 -0.6652  0.4083
 8158SOL    HW230165   4.090   1.821   1.613  0.2966  2.4991 -0.9586
 8159SOL     OW30166   9.142   1.280   2.886 -0.2293  0.2654  0.0826
 8159SOL    HW130167   9.074   1.351   2.903 -0.4133 -0.0091  0.4987
 8159SOL    HW230168   9.234   1.318   2.899 -0.3368  0.3436  0.6262
 8160SOL     OW30169   3.826   9.994   3.597 -0.2437 -0.6019  0.2903
 8160SOL    HW130170   3.872  10.037   3.520  0.6040 -0.3392  0.9240
 8160SOL    HW230171   3.764   9.923   3.565  0.6817 -1.0164 -0.5820
 8163SOL     OW30172   9.423   5.596   1.241  0.4959  0.8888  0.3896
 8163SOL    HW130173   9.427   5.545   1.155 -2.6455 -1.1661  1.3643
 8163SOL    HW230174   9.476   5.547   1.310 -0.4234  0.2687  0.6683
 8164SOL     OW30175   7.949   0.093   1.054  0.3622  0.2761 -0.4286
 8164SOL    HW130176   7.898   0.173   1.020  1.3890  0.6499 -1.0958
 8164SOL    HW230177   7.895   0.048   1.126 -0.8488  0.7451 -1.0263
 8165SOL     OW30178   1.489   3.378   2.116 -0.3510  0.2063  0.3637
 8165SOL    HW130179   1.450   3.320   2.044 -2.0737  1.5576  0.1581
 8165SOL    HW230180   1.467   3.339   2.205  1.1012 -1.0480  0.1876
 8166SOL     OW30181   9.096   1.315   0.193  0.5974 -0.4324 -0.2707
 8166SOL    HW130182   9.161   1.262   0.139  1.6958 -0.3849  1.0107
 8166SOL    HW230183   9.053   1.256   0.261  1.0041  0.0725  0.4215
 8168SOL     OW30184   2.265   5.342   2.568 -0.1109 -0.3864  0.0352
 8168SOL    HW130185   2.309   5.276   2.629  1.2582 -0.3607 -0.9003
 8168SOL    HW230186   2.193   5.391   2.617  0.2020 -1.1825  1.2934
 8169SOL     OW30187   3.698   1.863   0.181  0.1992 -0.5143 -0.3580
 8169SOL    HW130188   3.733   1.886   0.090 -0.1502  0.5118 -0.2469
 8169SOL    HW230189   3.775   1.842   0.241  0.4686 -0.6268 -0.7385
 8170SOL     OW30190   3.249   3.327   3.762  0.2786 -0.0230  0.4067
 8170SOL    HW130191   3.238   3.413   3.811  1.2415 -0.0873  0.7492
 8170SOL    HW230192   3.316   3.339   3.689  0.4633 -0.4946  0.4934
 8171SOL     OW30193   9.246   7.904   3.202  0.3630 -0.3046  0.1433
 8171SOL    HW130194   9.297   7.949   3.129  0.2202  1.4385  1.0874
 8171SOL    HW230195   9.149   7.900   3.178  0.1509  1.2136  0.6528
 8172SOL     OW30196   1.242   4.884   2.207 -0.0634  0.4611  0.1665
 8172SOL    HW130197   1.151   4.906   2.173  0.1017 -0.0300 -0.6102
 8172SOL    HW230198   1.309   4.898   2.135  0.1322 -1.8947 -0.1757
 8173SOL     OW30199   2.000   4.091   2.296  0.3402  0.2666  0.1072
 8173SOL    HW130200   1.908   4.114   2.329 -1.9182 -2.8745 -3.5255
 8173SOL    HW230201   2.044   4.028   2.360 -1.7304 -1.4328 -0.0860
 8175SOL     OW30202   3.846   1.085   3.590  0.5293  0.3185  0.1428
 8175SOL    HW130203   3.883   1.176   3.571 -1.0060  1.1820  1.1261
 8175SOL    HW230204   3.747   1.091   3.599  0.5620 -1.1451  1.8534
 8176SOL     OW30205   2.496   1.272   1.099 -0.3511  0.0279 -0.0183
 8176SOL    HW130206   2.593   1.291   1.084 -0.1496 -0.5049  0.5749
 8176SOL    HW230207   2.464   1.322   1.179 -0.5530  0.1602 -0.1810
 8177SOL     OW30208   2.464   5.230   3.277  0.0142 -0.0458  0.7187
 8177SOL    HW130209   2.391   5.185   3.327 -0.0884 -0.1017  0.5191
 8177SOL    HW230210   2.503   5.304   3.333  1.0431 -1.1933  1.5566
 8178SOL     OW30211   9.970   3.356   0.001 -0.2297 -0.1604 -0.3855
 8178SOL    HW130212  10.041   3.378   0.068 -0.3170  0.7349 -0.5794
 8178SOL    HW230213   9.881   3.357   0.046 -0.0560 -2.1771  0.0589
 8180SOL     OW30214   7.604   8.481   0.890  0.2203 -0.4945 -0.2830
 8180SOL    HW130215   7.565   8.541   0.960  0.4002 -0.0436 -0.5666
 8180SOL    HW230216   7.617   8.532   0.805  1.2939 -0.6588 -0.2337
 8181SOL     OW30217   2.204   1.866   2.601 -0.2472  0.1177 -0.1669
 8181SOL    HW130218   2.259   1.783   2.615 -0.1765  0.4015  1.3768
 8181SOL    HW230219   2.107   1.844   2.615 -0.1662  0.4326  0.9280
 8182SOL     OW30220   8.636   6.387   1.988 -0.0271  0.4600  0.3549
 8182SOL    HW130221   8.673   6.409   1.897 -0.1916 -0.8340 -0.0358
 8182SOL    HW230222   8.688   6.436   2.057  1.3791 -0.0509 -0.3128
 8183SOL     OW30223   8.193   3.362   3.303  0.1647  0.1831 -1.0850
 8183SOL    HW130224   8.255   3.364   3.382 -0.3657  0.8681 -0.6806
 8183SOL    HW230225   8.126   3.436   3.311 -0.4981 -0.3435 -1.6859
 8185SOL     OW30226   9.422   9.542   0.701  0.0739 -0.0797  0.3267
 8185SOL    HW130227   9.337   9.550   0.752  0.8932 -0.6470  1.8024
 8185SOL    HW230228   9.497   9.578   0.755  0.8924 -0.2744 -0.6646
 8187SOL     OW30229   4.378   6.214   2.546  0.4539 -1.1181 -0.6067
 8187SOL    HW130230   4.401   6.267   2.627 -1.8708  0.4353 -0.9186
 8187SOL    HW230231   4.342   6.124   2.573 -0.5325 -0.5165  0.1016
 8189SOL     OW30232   0.867   8.859   2.798 -0.1430  0.5649  0.1123
 8189SOL    HW130233   0.920   8.938   2.827 -1.2864  1.0149  1.0322
 8189SOL    HW230234   0.926   8.778   2.795  1.1937  1.5683 -1.5148
 8190SOL     OW30235   0.916   4.523   1.472 -0.1274  0.1337 -0.1037
 8190SOL    HW130236   0.820   4.509   1.449  0.3027 -1.9862 -0.7514
 8190SOL    HW230237   0.959   4.435   1.488  1.8084  1.0425 -0.1927
 8191SOL     OW30238   1.464   3.973   2.805 -0.0634 -0.1608  0.1019
 8191SOL    HW130239   1.456   4.021   2.718  2.5642 -0.7284 -0.4941
 8191SOL    HW230240   1.464   4.039   2.880  1.4087  0.6213 -0.5722
 8192SOL     OW30241   1.394   9.524   1.307  0.3451  0.6438  0.4938
 8192SOL    HW130242   1.396   9.620   1.280 -2.0341 -0.0613 -2.4163
 8192SOL    HW230243   1.474   9.477   1.268  0.3815  0.9885  0.1541
 8194SOL     OW30244   1.268   4.333   1.820  0.3381 -0.6191 -0.0859
 8194SOL    HW130245   1.290   4.389   1.900 -0.1292 -0.5093 -0.0298
 8194SOL    HW230246   1.344   4.333   1.756  0.5377 -0.3405  0.1539
 8197SOL     OW30247   0.638   2.463   2.379 -0.0366  0.1111 -0.2336
 8197SOL    HW130248   0.579   2.534   2.341 -0.4247  1.0207  1.9452
 8197SOL    HW230249   0.606   2.373   2.350 -1.1137  0.7158 -0.9341
 8199SOL     OW30250   0.822   2.135   3.620 -0.4403 -0.0772  0.0246
 8199SOL    HW130251   0.834   2.133   3.719  1.4117 -0.7358 -0.2026
 8199SOL    HW230252   0.793   2.045   3.588 -0.0824 -0.1319 -0.1473
 8201SOL     OW30253   5.838   0.132   2.447  0.2090  0.0658 -0.0590
 8201SOL    HW130254   5.826   0.144   2.546  1.4521 -0.9816  0.2363
 8201SOL    HW230255   5.931   0.159   2.422 -0.3761  1.1637 -1.1022
 8202SOL     OW30256   5.058   8.815   1.929  0.5642  0.3429  0.5205
 8202SOL    HW130257   4.994   8.869   1.984 -0.5906 -1.1879  0.6945
 8202SOL    HW230258   5.044   8.835   1.832 -0.5070 -0.3490  0.5328
 8203SOL     OW30259   7.810   7.308   3.621  0.0770  0.7024 -0.4833
 8203SOL    HW130260   7.820   7.336   3.717 -2.4872  2.6256 -0.6996
 8203SOL    HW230261   7.719   7.336   3.588  1.9486  2.6159 -4.2974
 8204SOL     OW30262   0.602   2.947   0.458 -0.2110 -0.3096 -0.1578
 8204SOL    HW130263   0.679   2.921   0.399 -0.9948  0.3786 -1.5129
 8204SOL    HW230264   0.545   3.014   0.410 -0.5722  0.6690  1.6060
 8205SOL     OW30265   0.940   3.566   0.156  0.4693 -0.4618 -0.0491
 8205SOL    HW130266   0.947   3.595   0.060  0.6219 -1.2532 -0.2770
 8205SOL    HW230267   0.867   3.499   0.165 -0.6391  0.8285  0.6830
 8206SOL     OW30268   9.942   6.746   3.579  0.6049  0.0124  0.1640
 8206SOL    HW130269   9.987   6.828   3.614 -0.4448  1.6031 -2.1278
 8206SOL    HW230270   9.871   6.717   3.644  0.9113  0.9607  0.9322
 8207SOL     OW30271   3.447   4.480   3.261 -0.1827  0.1580  0.0082
 8207SOL    HW130272   3.420   4.491   3.356  3.2998  1.1304  0.9709
 8207SOL    HW230273   3.458   4.570   3.219 -1.7773 -0.2606 -1.3952
 8208SOL     OW30274   5.697   7.648   2.823  0.0410  0.0159  0.2436
 8208SOL    HW130275   5.722   7.598   2.740 -0.8382 -0.7656  0.4397
 8208SOL    HW230276   5.760   7.624   2.897  0.2858  0.0394  0.0447
 8209SOL     OW30277   3.193   0.480   3.384 -0.0554  0.0952  0.0266
 8209SOL    HW130278   3.176   0.483   3.483  0.3785  0.9332  0.0817
 8209SOL    HW230279   3.284   0.442   3.367 -1.2595 -2.8417 -0.1979
 8212SOL     OW30280   1.148   9.130   0.565  0.1752  0.2193  0.0618
 8212SOL    HW130281   1.096   9.047   0.587  0.2560 -0.2875 -1.6506
 8212SOL    HW230282   1.224   9.107   0.504  0.4734  1.4929 -0.0595
 8213SOL     OW30283   2.457   1.465   2.244 -0.1616 -0.8648  0.0146
 8213SOL    HW130284   2.549   1.493   2.216 -0.4149 -0.4687 -0.4185
 8213SOL    HW230285   2.398   1.545   2.248 -0.0568 -0.8614  1.9848
 8214SOL     OW30286   2.163   8.365   0.817  0.1250  0.2388 -0.4527
 8214SOL    HW130287   2.251   8.412   0.812  0.1273  0.0280 -3.4103
 8214SOL    HW230288   2.170   8.276   0.771 -0.8042 -1.1754  2.0568
 8215SOL     OW30289   9.381   0.027   1.675  0.7431  0.1537 -0.4833
 8215SOL    HW130290   9.316  -0.048   1.663  0.8575 -0.0678  0.2261
 8215SOL    HW230291   9.416   0.026   1.769  0.1109  1.6003 -0.2248
 8217SOL     OW30292   0.776   4.284   1.755 -0.5701  0.2434  0.5217
 8217SOL    HW130293   0.747   4.379   1.770 -0.2567  0.3105  0.7207
 8217SOL    HW230294   0.869   4.283   1.718 -1.2423  0.0631 -1.1763
 8218SOL     OW30295   8.658   4.527   2.653  0.5479  0.4520 -0.0320
 8218SOL    HW130296   8.561   4.506   2.662  0.3516  1.2829 -0.2270
 8218SOL    HW230297   8.679   4.611   2.703  1.1361  0.3599 -0.1181
 8219SOL     OW30298   3.881   7.337   0.608 -0.2676  1.2706 -0.1409
 8219SOL    HW130299   3.941   7.316   0.532  0.1155  0.4033  0.3995
 8219SOL    HW230300   3.847   7.431   0.599 -0.3339  1.1267 -1.4415
 8220SOL     OW30301   8.353   5.340   1.838  0.1758 -0.6709  0.0635
 8220SOL    HW130302   8.257   5.366   1.828  0.2697 -0.1658  0.4933
 8220SOL    HW230303   8.412   5.419   1.822  0.4406 -0.5243  1.6979
 8222SOL     OW30304   8.899   7.825   2.559  0.2963  0.0937 -0.1467
 8222SOL    HW130305   8.930   7.732   2.542  1.1818  0.3684 -0.0862
 8222SOL    HW230306   8.972   7.889   2.534 -0.8332  0.8533 -1.5577
 8223SOL     OW30307   8.766   7.206   0.573 -0.2647  0.0274 -0.5113
 8223SOL    HW130308   8.726   7.247   0.655  0.2722 -1.3760  0.4713
 8223SOL    HW230309   8.705   7.221   0.495 -1.2230  0.5588  0.3340
 8224SOL     OW30310   2.945   8.458   0.364  0.2820  0.1368  0.4308
 8224SOL    HW130311   2.911   8.547   0.334  0.8889  0.3736  0.4519
 8224SOL    HW230312   3.009   8.422   0.297 -1.3783 -1.1513 -0.5184
 8225SOL     OW30313   3.344   1.505   2.571  0.3956  0.5232  0.1823
 8225SOL    HW130314   3.372   1.595   2.604 -0.6528  0.7837  0.3973
 8225SOL    HW230315   3.370   1.495   2.474  0.5223  1.0484  0.1606
 8226SOL     OW30316   3.082   1.844   2.099 -0.1250  0.2976 -0.6118
 8226SOL    HW130317   3.127   1.809   2.181  0.3786  0.5695 -0.7721
 8226SOL    HW230318   3.085   1.774   2.027  1.4283  0.9000 -1.1330
 8227SOL     OW30319   3.435   2.985   1.741 -0.1169  0.4656 -0.0542
 8227SOL    HW130320   3.434   3.018   1.836 -1.4856  0.1004  0.0690
 8227SOL    HW230321   3.412   3.060   1.680 -1.3453  0.2027  0.0767
 8228SOL     OW30322   1.411   9.056   0.940 -0.1831 -0.5248 -0.4324
 8228SOL    HW130323   1.370   9.140   0.904  0.5166  0.0225  0.0311
 8228SOL    HW230324   1.506   9.074   0.968 -0.4727 -1.0991  0.9977
 8229SOL     OW30325   1.737   3.229   0.094  0.4394  0.5117 -0.1352
 8229SOL    HW130326   1.775   3.170   0.166 -2.2121 -0.9783  0.1243
 8229SOL    HW230327   1.706   3.172   0.018 -0.1709  1.7808 -0.8465
 8230SOL     OW30328   3.943   2.083   3.400 -0.0666 -0.0843  0.4227
 8230SOL    HW130329   4.018   2.037   3.352 -1.4351 -0.5558 -1.3505
 8230SOL    HW230330   3.955   2.182   3.393  0.1243 -0.1551 -0.2999
 8231SOL     OW30331   8.596   9.763   0.070 -0.0471 -0.1565  1.0665
 8231SOL    HW130332   8.515   9.705   0.060 -0.3258  0.6984 -1.7290
 8231SOL    HW230333   8.576   9.837   0.134 -1.2141 -0.3624  0.9489
 8232SOL     OW30334   4.615   8.814   2.909 -0.0527  0.6846  0.4339
 8232SOL    HW130335   4.681   8.881   2.945  2.2299 -0.7038 -1.0652
 8232SOL    HW230336   4.600   8.831   2.812  0.2403 -0.7484  0.1333
 8233SOL     OW30337   0.220   8.989   3.186 -0.5351 -0.2956  0.5774
 8233SOL    HW130338   0.243   8.920   3.117 -0.0329  1.1221 -0.6940
 8233SOL    HW230339   0.121   8.987   3.204 -1.2339  1.5206 -2.6495
 8234SOL     OW30340   2.190   4.914   3.024 -0.1906 -0.0332  0.0301
 8234SOL    HW130341   2.133   4.978   3.076  1.0920  0.8019  0.4104
 8234SOL    HW230342   2.132   4.841   2.986 -1.2584 -0.1833  1.9047
 8235SOL     OW30343   8.963   5.987   0.181  0.0608  0.4795 -0.2495
 8235SOL    HW130344   9.047   5.963   0.230 -0.4514  0.8057  0.8116
 8235SOL    HW230345   8.986   6.034   0.096  1.0043 -1.5870 -1.1534
 8236SOL     OW30346   8.384   3.678   2.331 -0.0996 -0.2540  0.1917
 8236SOL    HW130347   8.404   3.665   2.234  0.2019 -2.7265  0.5431
 8236SOL    HW230348   8.324   3.605   2.363 -0.3442  0.6299  1.8312
 8238SOL     OW30349   2.163   6.909   2.119 -0.4401  0.1402 -0.5743
 8238SOL    HW130350   2.221   6.950   2.049  0.5502 -0.5625 -0.1857
 8238SOL    HW230351   2.158   6.969   2.198 -0.1711  0.1682 -0.5792
 8239SOL     OW30352   1.959   4.403   1.096 -0.3369 -0.1558 -0.0734
 8239SOL    HW130353   1.870   4.401   1.143 -0.5659  1.7385 -0.4093
 8239SOL    HW230354   2.032   4.388   1.163 -0.8146 -0.2957  0.4267
 8240SOL     OW30355   0.472   6.095   2.742  0.1632 -0.4920  0.2742
 8240SOL    HW130356   0.453   6.116   2.646  0.0690  1.6438  0.7201
 8240SOL    HW230357   0.406   6.143   2.800  0.5256 -1.3607  1.4231
 8241SOL     OW30358   3.697   0.448   1.247  0.4068 -0.4791 -0.4083
 8241SOL    HW130359   3.679   0.503   1.165  0.5775 -1.3939 -1.0740
 8241SOL    HW230360   3.623   0.382   1.259  0.6115 -0.6508 -0.0870
 8242SOL     OW30361   9.216   4.275   3.597  0.0190  0.0977 -0.9120
 8242SOL    HW130362   9.314   4.284   3.614 -0.1728  2.2194 -0.7149
 8242SOL    HW230363   9.181   4.194   3.644  1.1206  1.0685  1.6751
 8244SOL     OW30364   2.108   0.661   2.041 -0.2987 -0.2137 -0.1328
 8244SOL    HW130365   2.146   0.573   2.014  0.7693  0.4234 -0.7209
 8244SOL    HW230366   2.096   0.719   1.960 -0.3973  0.4189  0.3269
 8245SOL     OW30367   2.789   1.405   1.960 -0.7193  0.3496 -0.4766
 8245SOL    HW130368   2.718   1.340   1.933  0.8010 -2.1526  1.2311
 8245SOL    HW230369   2.866   1.397   1.897 -0.4606  0.3305 -0.1616
 8246SOL     OW30370   2.460   3.320   1.913  0.3215 -0.2848  0.2624
 8246SOL    HW130371   2.385   3.386   1.917 -0.5973 -1.3095 -0.1332
 8246SOL    HW230372   2.426   3.228   1.931  0.9258 -1.1675 -2.8342
 8247SOL     OW30373   0.746   2.799   3.060 -0.0269  0.3291 -0.0569
 8247SOL    HW130374   0.839   2.834   3.053  0.1328 -0.1356 -0.3015
 8247SOL    HW230375   0.688   2.844   2.993 -0.2444  1.4512  0.8636
 8249SOL     OW30376   9.658   9.653   0.856  0.0589  0.8796 -0.0187
 8249SOL    HW130377   9.672   9.751   0.867  2.8437  0.2068  4.0272
 8249SOL    HW230378   9.744   9.611   0.825 -0.2272 -0.5635  1.0766
 8250SOL     OW30379   7.975   4.869   3.643 -0.0155  0.5153 -0.5883
 8250SOL    HW130380   8.035   4.884   3.722 -0.5474  0.9766 -0.2639
 8250SOL    HW230381   7.919   4.788   3.659 -1.3522  1.5796  0.2888
 8251SOL     OW30382   1.381   6.364   1.542 -0.3979  0.1609  0.9145
 8251SOL    HW130383   1.288   6.333   1.561 -0.8923  0.5585 -0.7147
 8251SOL    HW230384   1.392   6.458   1.575 -0.9874  0.5635 -0.0038
 8252SOL     OW30385   0.716   0.624   3.087  0.0209  0.0827 -0.4985
 8252SOL    HW130386   0.712   0.556   3.160 -0.4609 -0.9623 -1.4891
 8252SOL    HW230387   0.789   0.690   3.107 -0.5003  0.1729  1.2240
 8254SOL     OW30388   0.558   0.358   0.722 -0.5176  0.2980  0.4435
 8254SOL    HW130389   0.522   0.444   0.686 -0.8817  0.0386  0.1861
 8254SOL    HW230390   0.483   0.295   0.741 -0.1975 -0.3208 -0.2942
 8255SOL     OW30391   8.127   0.509   3.732 -0.0855  0.1394  0.6441
 8255SOL    HW130392   8.125   0.516   3.831  0.0770  0.9257  0.5999
 8255SOL    HW230393   8.222   0.516   3.700 -0.1980  0.5386  0.3950
 8257SOL     OW30394   7.785   5.764   3.488  0.6780 -0.0178 -0.0272
 8257SOL    HW130395   7.715   5.752   3.560 -1.0679  1.1467 -1.4831
 8257SOL    HW230396   7.874   5.736   3.524 -0.7927 -3.2721  1.3212
 8258SOL     OW30397   9.795   8.695   0.548  0.2632  0.0111 -0.0285
 8258SOL    HW130398   9.717   8.757   0.546 -0.7269 -1.2457 -1.4272
 8258SOL    HW230399   9.799   8.649   0.637 -0.2268  0.5348  0.2671
 8259SOL     OW30400   8.209   7.720   2.151  0.2759 -0.6781 -0.5501
 8259SOL    HW130401   8.141   7.788   2.121  1.3408 -0.0747 -1.6653
 8259SOL    HW230402   8.295   7.736   2.102  0.9792 -1.9319  0.2634
 8260SOL     OW30403   0.831   9.766   0.671 -0.1064  0.1865 -0.3786
 8260SOL    HW130404   0.780   9.718   0.742  0.4404  0.3303  0.1103
 8260SOL    HW230405   0.777   9.843   0.638 -0.7166 -0.3825 -0.7176
 8261SOL     OW30406   2.100   0.886   1.823 -0.2284 -0.3028 -0.3173
 8261SOL    HW130407   2.049   0.963   1.860  0.4545  0.0071 -0.0181
 8261SOL    HW230408   2.157   0.917   1.746 -0.1977 -0.5707 -0.4045
 8262SOL     OW30409   0.809   8.989   3.703  0.6462  0.6358 -0.0168
 8262SOL    HW130410   0.777   8.895   3.715  0.3125  0.6980 -0.4086
 8262SOL    HW230411   0.807   9.013   3.606  2.5989  0.4035 -0.1190
 8263SOL     OW30412   1.847   7.872   1.485  0.1936  0.5077  0.1428
 8263SOL    HW130413   1.763   7.885   1.433  0.3117  0.3175 -0.1008
 8263SOL    HW230414   1.868   7.955   1.537 -0.3174  0.4363  0.4589
 8264SOL     OW30415   8.670   7.117   1.509 -0.1807 -0.1058 -0.2369
 8264SOL    HW130416   8.757   7.070   1.495  1.0424  1.2663  2.3225
 8264SOL    HW230417   8.658   7.187   1.439  0.5856 -0.5391 -0.8107
 8265SOL     OW30418   2.761   8.147   3.396 -0.0773 -0.1991 -0.4006
 8265SOL    HW130419   2.706   8.071   3.431 -0.3418 -0.2745 -0.9704
 8265SOL    HW230420   2.701   8.215   3.355  0.0821  0.7715  0.9408
 8266SOL     OW30421   0.113   4.805   0.248  0.2059 -0.0522  0.2572
 8266SOL    HW130422   0.055   4.886   0.247 -1.3371 -1.1069  1.8428
 8266SOL    HW230423   0.209   4.833   0.254 -0.2506  1.6682 -0.1925
 8268SOL     OW30424   9.727   2.407   0.831 -0.7066 -0.2201  0.5827
 8268SOL    HW130425   9.752   2.398   0.927  1.0892 -3.3321 -0.1005
 8268SOL    HW230426   9.735   2.503   0.803 -0.4946  0.5917  3.3146
 8269SOL     OW30427   1.123   4.636   0.855 -0.0449 -0.0835  0.2542
 8269SOL    HW130428   1.051   4.591   0.907  0.0500 -0.4034  0.1110
 8269SOL    HW230429   1.144   4.582   0.774 -0.0240  0.2888  0.0096
 8270SOL     OW30430   5.616   7.761   3.239 -0.2738 -0.7285  0.3745
 8270SOL    HW130431   5.591   7.676   3.193  2.0805 -1.4619  0.3649
 8270SOL    HW230432   5.707   7.751   3.279 -0.4023  1.4477  1.2686
 8271SOL     OW30433   2.670   7.526   3.632  0.2205  0.5816  0.1253
 8271SOL    HW130434   2.665   7.530   3.732  1.2577 -0.3635  0.2317
 8271SOL    HW230435   2.619   7.447   3.599  1.5750 -0.3058  0.0851
 8272SOL     OW30436   2.725   1.841   1.312 -0.4234  0.3141  0.4814
 8272SOL    HW130437   2.819   1.857   1.280 -0.6254  0.2283 -0.1696
 8272SOL    HW230438   2.696   1.918   1.368  0.0614  0.3101  0.7441
 8273SOL     OW30439   9.765   2.642   0.203 -0.1438  0.4834  0.1888
 8273SOL    HW130440   9.665   2.640   0.211 -0.1123  2.0131  1.2150
 8273SOL    HW230441   9.805   2.672   0.289  1.1866  0.2292 -0.3276
 8274SOL     OW30442   2.489   6.875   2.570 -0.7038  0.1090  0.0237
 8274SOL    HW130443   2.434   6.957   2.583 -0.1706  0.5269 -0.3622
 8274SOL    HW230444   2.575   6.898   2.524 -0.0321 -0.4869  0.9591
 8275SOL     OW30445   7.864   7.047   3.589  0.1823  0.0017 -0.2608
 8275SOL    HW130446   7.852   7.147   3.588  0.4540  0.0276 -1.5100
 8275SOL    HW230447   7.804   7.007   3.658 -0.2508  0.9973 -0.0544
 8276SOL     OW30448   0.085   7.061   0.038 -0.3333  0.2754 -0.7035
 8276SOL    HW130449  -0.003   7.015   0.052  0.6646 -1.5554 -0.3207
 8276SOL    HW230450   0.094   7.087  -0.058  0.1885 -2.7131 -1.4996
 8278SOL     OW30451   9.344   8.764   2.518 -0.0735 -0.3121  0.4085
 8278SOL    HW130452   9.438   8.775   2.486 -0.0846 -0.5658  0.2901
 8278SOL    HW230453   9.284   8.749   2.439  0.0199 -1.8120  0.6177
 8279SOL     OW30454   1.203   9.368   0.302  0.4842 -0.0226 -0.8465
 8279SOL    HW130455   1.116   9.319   0.301 -0.1711  1.1208 -1.0760
 8279SOL    HW230456   1.278   9.303   0.291 -0.2569 -1.1737  0.6689
 8280SOL     OW30457   3.729   8.559   1.562  0.0527 -0.3983  0.0988
 8280SOL    HW130458   3.669   8.484   1.591 -0.7423 -0.4904 -1.7614
 8280SOL    HW230459   3.696   8.598   1.477  1.7595  0.5980 -0.1353
 8281SOL     OW30460   0.706   7.487   2.540 -0.1254 -0.7810  0.2128
 8281SOL    HW130461   0.673   7.469   2.447 -1.3168 -3.1880  1.0625
 8281SOL    HW230462   0.803   7.510   2.538 -0.2504 -0.3696 -1.6515
 8282SOL     OW30463   1.449   8.802   3.596  0.2396  0.2289 -0.7394
 8282SOL    HW130464   1.390   8.728   3.563 -1.2115  0.6386  0.8426
 8282SOL    HW230465   1.418   8.888   3.557 -1.5604  0.7368  1.6219
 8283SOL     OW30466   4.042   9.055   0.727  0.0465  0.3234  0.0687
 8283SOL    HW130467   3.945   9.066   0.748  0.8102  0.7322  3.6109
 8283SOL    HW230468   4.054   8.974   0.669 -2.1981 -0.8824  1.2258
 8285SOL     OW30469   6.029   1.044   3.029 -0.4924 -0.1589 -0.5113
 8285SOL    HW130470   6.050   1.100   2.949 -1.0801 -1.5822 -1.6905
 8285SOL    HW230471   5.930   1.035   3.038 -0.3905 -1.6163 -0.7663
 8286SOL     OW30472   0.637   1.948   1.983  0.4387  0.0050  0.5988
 8286SOL    HW130473   0.719   1.895   2.005  1.9570  1.2645 -1.7748
 8286SOL    HW230474   0.621   2.016   2.054  3.6239  2.1594 -0.5788
 8287SOL     OW30475   3.928   3.762   2.395  0.3047 -0.0351  0.9166
 8287SOL    HW130476   3.996   3.766   2.322 -0.6721  0.3093  0.0059
 8287SOL    HW230477   3.974   3.763   2.484  1.4771  0.2438  0.3190
 8289SOL     OW30478   0.557   7.943   2.258 -0.2513  0.2683  0.0595
 8289SOL    HW130479   0.483   8.005   2.284 -0.4479 -0.0475  0.2654
 8289SOL    HW230480   0.564   7.870   2.326  0.4282  0.4492  0.1816
 8291SOL     OW30481   5.182   0.313   1.598 -0.4273 -0.2750 -0.3042
 8291SOL    HW130482   5.183   0.338   1.502  0.1247  0.1495 -0.1919
 8291SOL    HW230483   5.241   0.234   1.612 -0.6061 -0.4125 -0.3389
 8292SOL     OW30484   8.975   3.560   3.461  0.4161 -0.8154 -0.6168
 8292SOL    HW130485   9.036   3.524   3.531  1.3034 -1.8468 -1.8887
 8292SOL    HW230486   8.955   3.656   3.479  1.0568 -0.9372  0.7450
 8293SOL     OW30487   1.988   3.897   2.054  0.4917  0.3585 -0.2416
 8293SOL    HW130488   1.910   3.895   2.116  0.5590 -1.2221 -0.1763
 8293SOL    HW230489   2.071   3.874   2.105  0.5775 -0.7456 -0.8493
 8294SOL     OW30490   4.239   9.396   1.595  0.0935 -0.0617  0.0569
 8294SOL    HW130491   4.252   9.495   1.591 -1.1926  0.0920 -0.4675
 8294SOL    HW230492   4.278   9.354   1.513  0.3077  0.0371  0.1058
 8295SOL     OW30493   5.054   3.476   0.855  0.2652 -0.5183  0.3338
 8295SOL    HW130494   5.060   3.377   0.861  1.6621 -0.4500  0.2468
 8295SOL    HW230495   5.136   3.512   0.810 -0.3256  0.6552  0.1658
 8296SOL     OW30496   2.375   2.334   3.149  0.0293 -0.0341 -0.5039
 8296SOL    HW130497   2.321   2.373   3.075 -0.3828  1.2451  0.4562
 8296SOL    HW230498   2.434   2.404   3.188 -0.5097 -0.4249  1.0655
 8297SOL     OW30499   7.785   3.046   0.057 -0.4414 -0.3938 -0.5260
 8297SOL    HW130500   7.736   3.105  -0.007 -2.3484  0.4101  1.6031
 8297SOL    HW230501   7.836   3.103   0.122  0.2178 -1.1472 -0.3820
 8298SOL     OW30502   9.944   7.304   0.132  0.3776  0.5512 -0.0353
 8298SOL    HW130503   9.928   7.375   0.200  1.4421  0.4155  0.3633
 8298SOL    HW230504  10.040   7.279   0.132  0.0939 -0.5514 -0.5192
 8299SOL     OW30505   0.620   2.558   2.841 -0.0696 -0.0280  0.6673
 8299SOL    HW130506   0.662   2.512   2.763 -0.8220 -0.4941  0.5291
 8299SOL    HW230507   0.654   2.652   2.847 -1.4292  0.6033 -1.3274
 8301SOL     OW30508   8.311   6.540   1.053 -0.1563 -0.2822 -0.3827
 8301SOL    HW130509   8.226   6.506   1.094  0.2789 -0.4957  0.3604
 8301SOL    HW230510   8.305   6.639   1.042 -0.8372 -0.4042 -1.1399
 8302SOL     OW30511   1.071   2.037   0.329 -0.7040 -0.1419 -0.3001
 8302SOL    HW130512   1.020   1.952   0.316  0.3611 -0.9323  0.5461
 8302SOL    HW230513   1.087   2.051   0.427 -0.3112  0.7007 -0.4826
 8303SOL     OW30514   8.562   8.170   1.510  0.2509 -0.0461 -0.6134
 8303SOL    HW130515   8.637   8.104   1.509  1.4471  1.2108  1.6087
 8303SOL    HW230516   8.578   8.238   1.582 -1.2140  2.3633 -2.4803
 8305SOL     OW30517   4.177   7.662   2.864 -0.2467  0.2712 -0.1894
 8305SOL    HW130518   4.223   7.620   2.942 -0.4672  1.7586  0.7632
 8305SOL    HW230519   4.191   7.761   2.866 -1.9798  0.5541 -0.8909
 8306SOL     OW30520   1.857   2.272   1.383  0.1661  0.6765 -0.0375
 8306SOL    HW130521   1.946   2.237   1.353  0.3750 -0.2550  1.5963
 8306SOL    HW230522   1.795   2.195   1.401 -0.7267  1.2976 -0.4053
 8307SOL     OW30523   9.900   1.636   0.895 -0.0570  0.3754 -0.1042
 8307SOL    HW130524   9.903   1.601   0.988 -1.8129  1.6962  0.4945
 8307SOL    HW230525   9.887   1.736   0.898  0.3931  0.4939 -1.7495
 8308SOL     OW30526   3.794   8.918   0.577  0.3381 -0.3498  1.3198
 8308SOL    HW130527   3.705   8.919   0.530  0.7311 -0.4054  0.5598
 8308SOL    HW230528   3.813   8.826   0.611  1.2910 -0.9920 -0.8460
 8309SOL     OW30529   4.045   4.003   1.497 -0.5235 -0.4226  0.1765
 8309SOL    HW130530   3.962   4.041   1.537  0.0236  0.0377  0.8777
 8309SOL    HW230531   4.097   4.075   1.452  0.1310 -0.4748  0.8398
 8310SOL     OW30532   8.026   2.685   3.121 -0.5118  0.1870 -0.3619
 8310SOL    HW130533   8.099   2.657   3.059 -0.8988 -1.1159 -0.2363
 8310SOL    HW230534   8.034   2.783   3.139 -0.8694  0.7624 -3.1081
 8311SOL     OW30535   0.520   2.943   0.848 -0.0699 -0.5531  0.1406
 8311SOL    HW130536   0.590   2.879   0.814 -0.0738 -0.9771  0.9303
 8311SOL    HW230537   0.477   2.905   0.929 -0.6187  0.1083  0.1588
 8313SOL     OW30538   7.828   9.832   3.096  0.2193  0.0383 -0.2409
 8313SOL    HW130539   7.835   9.847   3.194 -0.7589  2.7021 -0.5354
 8313SOL    HW230540   7.918   9.813   3.058  0.4564 -1.9844  1.3017
 8315SOL     OW30541   3.283   7.868   3.081 -0.1913 -0.3951  0.1629
 8315SOL    HW130542   3.367   7.887   3.031  0.8496 -2.5929  1.0685
 8315SOL    HW230543   3.208   7.922   3.041  1.5978  1.5679 -0.6488
 8316SOL     OW30544   5.388   0.969   3.085 -0.3228  0.8300  0.6090
 8316SOL    HW130545   5.318   1.035   3.061 -0.8366 -0.1277 -0.5791
 8316SOL    HW230546   5.472   0.990   3.035 -0.2266  1.0994  0.8878
 8317SOL     OW30547   0.252   0.232   3.633 -0.1959 -0.3008 -0.3864
 8317SOL    HW130548   0.191   0.165   3.590 -0.4579  0.8712 -1.8913
 8317SOL    HW230549   0.339   0.235   3.584 -0.4255  0.9176 -0.7400
 8318SOL     OW30550   9.250   8.533   0.138 -0.2651  0.3996  0.4764
 8318SOL    HW130551   9.236   8.582   0.224  2.2455 -2.8685  2.8943
 8318SOL    HW230552   9.346   8.542   0.110 -0.7319  0.2322 -1.2236
 8321SOL     OW30553   7.326   6.848   3.535  0.1426 -0.7464 -0.5899
 8321SOL    HW130554   7.416   6.840   3.491 -0.1829  0.3244 -1.4688
 8321SOL    HW230555   7.325   6.794   3.619  1.8719 -0.1707 -0.1714
 8322SOL     OW30556   3.058   0.511   0.100  0.6511 -0.2759 -0.7428
 8322SOL    HW130557   2.974   0.553   0.066  0.6420 -0.3760 -0.8416
 8322SOL    HW230558   3.111   0.476   0.023  0.5511 -0.6504 -0.6383
 8323SOL     OW30559   1.310   8.177   0.407  0.6307  0.2516  0.1109
 8323SOL    HW130560   1.309   8.231   0.323 -0.2195  1.1215  0.6620
 8323SOL    HW230561   1.283   8.235   0.484 -2.3830 -1.4606  0.4028
 8324SOL     OW30562   9.714   0.214   0.202  0.4261 -0.2684 -0.6440
 8324SOL    HW130563   9.802   0.215   0.154  0.3739  0.2324 -0.7272
 8324SOL    HW230564   9.730   0.223   0.300  0.4822 -0.4075 -0.6405
 8325SOL     OW30565   8.038   0.368   0.539 -0.4203  0.6024  0.0639
 8325SOL    HW130566   8.131   0.373   0.502 -0.1084  1.1488  0.9196
 8325SOL    HW230567   7.981   0.436   0.492 -0.5265 -0.1004 -0.8412
 8326SOL     OW30568   0.797   9.881   3.690 -0.5287 -0.3438  0.1871
 8326SOL    HW130569   0.723   9.943   3.715  1.4261  1.0581  2.7744
 8326SOL    HW230570   0.821   9.824   3.768  0.6569 -1.2627 -0.8238
 8327SOL     OW30571   0.391   2.357   0.401  0.4126  0.4092 -0.1340
 8327SOL    HW130572   0.457   2.351   0.326  0.2421 -0.9974 -0.1832
 8327SOL    HW230573   0.302   2.385   0.366  0.7060  1.2306 -0.2298
 8328SOL     OW30574   2.075   6.638   3.406  0.0254 -0.3825 -0.4401
 8328SOL    HW130575   2.055   6.596   3.494 -1.4330  0.9510 -0.1094
 8328SOL    HW230576   2.148   6.587   3.360  1.1159 -0.8257  1.7230
 8329SOL     OW30577   1.971   1.491   1.991  0.4336 -0.2761 -0.2628
 8329SOL    HW130578   2.020   1.481   2.077 -1.1665 -0.8245  0.6099
 8329SOL    HW230579   1.965   1.588   1.967  0.3844 -0.0794  0.5392
 8330SOL     OW30580   7.783   8.185   2.345 -0.1247 -0.7171 -0.3255
 8330SOL    HW130581   7.834   8.208   2.428  0.1521  0.4417 -0.7916
 8330SOL    HW230582   7.707   8.125   2.367  2.5317 -4.0365  0.1182
 8331SOL     OW30583   9.567   7.150   2.962 -0.5774  0.3322  0.1317
 8331SOL    HW130584   9.599   7.067   2.916 -0.6361 -0.7642  2.0245
 8331SOL    HW230585   9.568   7.136   3.061  1.8364  3.4313  0.6585
 8333SOL     OW30586   7.227   9.997   3.110  0.0324 -0.3364  0.2728
 8333SOL    HW130587   7.227   9.983   3.011 -2.3567  0.2765  0.1528
 8333SOL    HW230588   7.240   9.910   3.156  0.5867 -0.7097 -0.5722
 8334SOL     OW30589   0.594   7.104   0.471 -0.1304  0.2094  0.1479
 8334SOL    HW130590   0.537   7.109   0.390 -0.5763 -3.3205  0.1418
 8334SOL    HW230591   0.541   7.132   0.551 -0.9146 -0.0496 -0.2737
 8335SOL     OW30592   0.577   4.189   0.305 -0.1112 -0.4686 -0.3254
 8335SOL    HW130593   0.486   4.191   0.265 -0.0597 -1.2567 -0.4764
 8335SOL    HW230594   0.646   4.197   0.233 -0.0612  0.5161 -0.1791
 8336SOL     OW30595   3.506   5.502   0.453  0.3854  0.9444  0.5680
 8336SOL    HW130596   3.506   5.411   0.413  1.3953 -0.1121  2.8667
 8336SOL    HW230597   3.502   5.495   0.553 -1.0455  3.4521  0.7304
 8337SOL     OW30598   3.412   2.530   2.076 -0.0516  0.1737  0.0874
 8337SOL    HW130599   3.333   2.582   2.110 -0.0574 -0.6302  1.3537
 8337SOL    HW230600   3.489   2.542   2.139  0.0619 -1.0506  0.2021
 8338SOL     OW30601   8.872   5.710   1.555  0.3755  0.1023  0.2115
 8338SOL    HW130602   8.797   5.758   1.510 -1.1874 -1.2499  1.2827
 8338SOL    HW230603   8.919   5.651   1.489 -0.1368  0.2044 -0.2463
 8339SOL     OW30604   8.043   3.694   3.582  0.3028  0.1384  0.0684
 8339SOL    HW130605   8.002   3.765   3.639 -1.0390  0.0662 -0.7770
 8339SOL    HW230606   8.070   3.616   3.639 -1.2524 -0.0418  0.5691
 8340SOL     OW30607   2.936   9.249   3.297 -0.7455 -0.2261 -0.2272
 8340SOL    HW130608   2.895   9.161   3.322 -2.1458  0.7927  1.1464
 8340SOL    HW230609   2.963   9.247   3.201  0.8126 -2.7438  0.2298
 8341SOL     OW30610   0.359   8.988   2.206  0.4249 -0.0032  0.6997
 8341SOL    HW130611   0.335   8.923   2.134  0.0697  1.8168 -0.8727
 8341SOL    HW230612   0.458   8.985   2.222  0.7103  0.5526 -0.8675
 8342SOL     OW30613   0.175   3.562   1.463  0.2755 -0.3908 -0.6044
 8342SOL    HW130614   0.111   3.518   1.526 -0.1055  0.8013 -0.1455
 8342SOL    HW230615   0.269   3.545   1.492  0.1420 -1.0785 -0.5615
 8343SOL     OW30616   6.184   0.433   3.110 -0.0603  0.0339  0.4283
 8343SOL    HW130617   6.141   0.515   3.146 -0.0072  1.2747 -2.1696
 8343SOL    HW230618   6.119   0.383   3.053  0.2826 -1.0528  0.9815
 8344SOL     OW30619   4.134   9.129   0.175 -0.1740 -1.0857 -0.3839
 8344SOL    HW130620   4.113   9.065   0.249 -1.2763  1.0795  1.2307
 8344SOL    HW230621   4.222   9.173   0.192  0.1857 -1.5335 -1.0534
 8346SOL     OW30622   1.330   9.782   1.964  0.1853  0.2421 -0.1258
 8346SOL    HW130623   1.410   9.823   2.008 -0.0255  0.1423  0.3538
 8346SOL    HW230624   1.267   9.748   2.034 -0.2215  0.2143 -0.5034
 8347SOL     OW30625   2.760   0.358   2.610  0.0290  0.2681 -0.2755
 8347SOL    HW130626   2.675   0.408   2.624  0.4913  0.8228  0.6713
 8347SOL    HW230627   2.802   0.338   2.699  0.9662  0.1425 -0.7357
 8348SOL     OW30628   0.415   7.256   1.962 -0.0647  0.0826 -0.0775
 8348SOL    HW130629   0.466   7.341   1.949  0.9462 -0.3849  0.7719
 8348SOL    HW230630   0.359   7.263   2.044 -1.7734  0.7703 -1.2589
 8349SOL     OW30631   6.504   9.147   2.659  0.2716  0.1812  0.2696
 8349SOL    HW130632   6.478   9.177   2.751  0.5445 -0.2468  0.4887
 8349SOL    HW230633   6.555   9.220   2.613 -2.0878  1.3944 -0.5079
 8350SOL     OW30634   0.243   3.126   3.438 -0.3066  0.7554  1.0057
 8350SOL    HW130635   0.301   3.189   3.386 -0.2742 -1.5460 -1.8736
 8350SOL    HW230636   0.164   3.100   3.383  0.0617 -2.2680  1.8050
 8351SOL     OW30637   2.855   2.853   2.085 -0.1624 -0.1433  0.3756
 8351SOL    HW130638   2.811   2.802   2.159  0.1656 -3.9559 -1.9393
 8351SOL    HW230639   2.796   2.929   2.058 -1.6930 -0.5209  2.5092
 8352SOL     OW30640   9.984   9.320   2.550  1.0710  0.3389  0.3911
 8352SOL    HW130641   9.901   9.370   2.525  1.6302  1.5830  0.9254
 8352SOL    HW230642   9.991   9.314   2.650  0.7615 -1.2697  0.3264
 8353SOL     OW30643   3.194   7.617   1.418  0.3722 -0.0046  0.1854
 8353SOL    HW130644   3.217   7.706   1.381 -0.0166  0.6111  1.4008
 8353SOL    HW230645   3.274   7.579   1.465 -0.1286  0.7260  1.6507
 8354SOL     OW30646   1.310   9.151   2.680 -0.0366 -0.1087 -0.4469
 8354SOL    HW130647   1.238   9.147   2.750 -0.5464 -0.7482 -0.9939
 8354SOL    HW230648   1.324   9.245   2.652 -0.5745  0.0380 -0.2365
 8355SOL     OW30649   9.126   0.690   2.117 -0.3440  0.5719  0.1224
 8355SOL    HW130650   9.218   0.689   2.158  0.0066  0.2681 -0.6556
 8355SOL    HW230651   9.081   0.776   2.139 -0.3640  0.1990  1.5850
 8356SOL     OW30652   0.702   9.182   1.482  0.7936  0.6217  0.1276
 8356SOL    HW130653   0.622   9.209   1.535  1.3507  1.9729  0.3148
 8356SOL    HW230654   0.759   9.120   1.535 -0.8450 -1.5112 -0.5516
 8357SOL     OW30655   3.911   2.866   0.142  0.5095 -0.5316  0.2429
 8357SOL    HW130656   3.832   2.849   0.200  0.5613  0.2752  0.5555
 8357SOL    HW230657   3.885   2.926   0.066  0.7487 -0.5184  0.1710
 8358SOL     OW30658   1.848   8.574   3.005 -0.2385  0.0665  0.8805
 8358SOL    HW130659   1.808   8.657   3.044 -0.4680  0.5966 -0.4444
 8358SOL    HW230660   1.915   8.599   2.934 -0.5310 -0.8788  0.2543
 8359SOL     OW30661   0.963   9.620   2.476  0.2887 -0.3357  0.0153
 8359SOL    HW130662   0.893   9.642   2.408  0.3293 -1.4686 -0.4114
 8359SOL    HW230663   0.927   9.639   2.567 -0.0813  0.3795 -0.2750
 8360SOL     OW30664   3.895   9.293   2.448  0.1150 -0.4004 -0.0140
 8360SOL    HW130665   3.798   9.298   2.424  0.6126  1.2222 -1.8419
 8360SOL    HW230666   3.922   9.376   2.497  1.3386  0.8392 -2.6476
 8361SOL     OW30667   4.985   9.507   2.586  0.0257  0.2106 -0.3063
 8361SOL    HW130668   4.968   9.470   2.678  0.5382 -0.4078 -0.4514
 8361SOL    HW230669   5.083   9.510   2.570 -0.0344  1.3044 -0.4443
 8362SOL     OW30670   6.518   7.575   2.548 -0.4366  0.1539  0.2625
 8362SOL    HW130671   6.542   7.646   2.614 -0.1976 -0.6005  0.9970
 8362SOL    HW230672   6.419   7.572   2.537 -0.4398  0.6874  0.1338
 8363SOL     OW30673   2.171   2.756   0.073 -0.4837 -0.1465 -0.2497
 8363SOL    HW130674   2.099   2.768   0.004 -1.4030  1.3686  0.9230
 8363SOL    HW230675   2.128   2.737   0.161  0.5694  0.5675  0.4177
 8364SOL     OW30676   2.404   8.568   1.758 -0.1898 -0.6093 -0.4633
 8364SOL    HW130677   2.366   8.632   1.691  0.0178  0.7236  0.6699
 8364SOL    HW230678   2.467   8.505   1.712  0.9032  1.0789 -1.3102
 8366SOL     OW30679   1.721   0.641   3.426 -0.1646 -0.1693  0.2287
 8366SOL    HW130680   1.708   0.720   3.365 -0.4480 -0.9948 -0.8000
 8366SOL    HW230681   1.639   0.628   3.481  0.1796  0.7213  0.9485
 8367SOL     OW30682   3.946   9.940   1.359  0.2510 -0.1182  0.0795
 8367SOL    HW130683   3.864   9.898   1.398 -0.5465  0.9681 -0.3768
 8367SOL    HW230684   3.983  10.007   1.424  0.0816  0.2415 -0.1882
 8372SOL     OW30685   7.223   6.922   3.053 -0.2161 -0.4601  0.1749
 8372SOL    HW130686   7.163   7.001   3.067  1.2793  0.8229 -0.5880
 8372SOL    HW230687   7.167   6.840   3.041 -1.7771  0.3857  1.4956
 8373SOL     OW30688   3.423   7.840   2.169 -0.0782 -0.3810  0.2175
 8373SOL    HW130689   3.348   7.907   2.167  0.6449  0.4264 -0.7093
 8373SOL    HW230690   3.436   7.802   2.078 -1.3704 -2.8357  1.0112
 8375SOL     OW30691   1.267   1.194   1.157  0.3895  0.2663 -0.2349
 8375SOL    HW130692   1.257   1.293   1.146  1.4863  0.3829 -0.3084
 8375SOL    HW230693   1.179   1.149   1.145 -0.3369  1.3480  1.0040
 8376SOL     OW30694   1.900   6.157   3.126 -0.2002  0.1503 -0.4202
 8376SOL    HW130695   1.928   6.207   3.044  1.1035  1.3114  0.7169
 8376SOL    HW230696   1.921   6.060   3.114  0.0472  0.3174 -1.4283
 8377SOL     OW30697   4.636   4.521   0.530  0.5470 -0.0764 -0.0012
 8377SOL    HW130698   4.731   4.518   0.497  1.0863  0.4779  1.4532
 8377SOL    HW230699   4.636   4.530   0.630 -1.0468 -0.0493  0.0050
 8378SOL     OW30700   0.483   2.093   3.212 -0.2233 -0.3123 -0.0838
 8378SOL    HW130701   0.481   2.193   3.218 -2.1951 -0.3169 -0.5184
 8378SOL    HW230702   0.480   2.054   3.305 -1.0797  0.0105  0.0256
 8379SOL     OW30703   1.781   4.509   1.875 -0.2206 -0.2660  0.0379
 8379SOL    HW130704   1.838   4.430   1.899 -0.4442 -0.5865 -0.4749
 8379SOL    HW230705   1.821   4.592   1.913 -1.5971 -0.9995  3.1923
 8380SOL     OW30706   4.289   7.159   3.561 -0.0065  0.7869 -0.1286
 8380SOL    HW130707   4.375   7.139   3.608 -0.3951  0.4713  0.4551
 8380SOL    HW230708   4.306   7.167   3.463  0.9304  2.1023  0.1208
 8383SOL     OW30709   2.741   0.134   1.256  0.3782 -0.0301 -0.1789
 8383SOL    HW130710   2.698   0.191   1.325  1.1066  0.4560 -0.1218
 8383SOL    HW230711   2.779   0.052   1.299  0.8937  0.3067  0.0185
 8384SOL     OW30712   4.327   9.299   3.514  0.1162 -0.0453 -0.2531
 8384SOL    HW130713   4.370   9.379   3.554  0.8444  0.3387 -1.7634
 8384SOL    HW230714   4.321   9.226   3.583 -0.1796  1.1553  1.0017
 8385SOL     OW30715   3.425   1.768   2.606 -0.0918  0.3126  0.3517
 8385SOL    HW130716   3.524   1.783   2.600 -0.2172  2.6151  2.8445
 8385SOL    HW230717   3.381   1.810   2.526  0.6902  2.4088  0.9721
 8386SOL     OW30718   1.413   2.320   3.305 -0.1628  0.3926 -0.7880
 8386SOL    HW130719   1.360   2.235   3.310 -0.5052  0.5853 -1.1540
 8386SOL    HW230720   1.361   2.389   3.255 -0.2632  1.1066  0.2897
 8388SOL     OW30721   4.171   9.230   2.407 -0.3533  0.4354  0.0794
 8388SOL    HW130722   4.076   9.261   2.417 -0.5539 -0.2355  0.3546
 8388SOL    HW230723   4.188   9.204   2.312 -0.8915 -0.8109  0.3088
 8389SOL     OW30724   4.596   3.534   0.884 -0.4747  0.0981  0.2421
 8389SOL    HW130725   4.694   3.539   0.898  0.1580 -4.1801 -1.7750
 8389SOL    HW230726   4.553   3.485   0.960 -0.8024  0.3932  0.2517
 8390SOL     OW30727   0.894   5.895   1.200 -0.8698 -0.3530  1.0113
 8390SOL    HW130728   0.871   5.812   1.251 -1.0005 -0.1625  1.2657
 8390SOL    HW230729   0.846   5.895   1.112  1.0097 -1.6963 -0.0422
 8391SOL     OW30730   9.391   1.428   3.000  0.3975  0.4372 -0.2822
 8391SOL    HW130731   9.407   1.526   3.005 -0.3273  0.5806 -0.6969
 8391SOL    HW230732   9.319   1.403   3.065  0.3685  0.2318 -0.3937
 8393SOL     OW30733   0.271   7.248   3.082 -0.0114  0.4535 -0.1940
 8393SOL    HW130734   0.356   7.212   3.044  0.4407 -0.3029  1.4571
 8393SOL    HW230735   0.195   7.228   3.020  0.7455 -0.4458 -0.8470
 8394SOL     OW30736   9.172   5.001   3.404 -0.3540 -0.0690  0.1894
 8394SOL    HW130737   9.162   4.932   3.475 -1.2690 -0.7885 -0.6237
 8394SOL    HW230738   9.265   5.038   3.406 -0.5532  0.3605  2.1458
 8395SOL     OW30739   0.600   5.438   2.888 -0.0840  0.6167 -0.6272
 8395SOL    HW130740   0.650   5.521   2.861  1.1006 -0.0823 -0.6363
 8395SOL    HW230741   0.648   5.394   2.964  0.9977 -1.6662 -2.5571
 8396SOL     OW30742   9.538   6.206   1.502 -0.3662  0.3275  0.2208
 8396SOL    HW130743   9.595   6.281   1.537 -0.1550  0.2910 -0.0497
 8396SOL    HW230744   9.449   6.243   1.473 -0.6811  0.3063  1.1381
 8397SOL     OW30745   7.218   8.364   2.351  0.2023 -0.0627 -0.1850
 8397SOL    HW130746   7.158   8.444   2.358  0.0924 -0.1976  0.4029
 8397SOL    HW230747   7.176   8.287   2.398  0.3909 -0.4175 -0.6017
 8398SOL     OW30748   7.766   1.663   1.942  0.1615  0.2479  0.6017
 8398SOL    HW130749   7.855   1.704   1.960 -0.1349  1.0442  0.2977
 8398SOL    HW230750   7.769   1.565   1.960  1.2145  0.2055  0.1786
 8399SOL     OW30751   9.905   7.144   2.796  0.4517  0.7036  0.7376
 8399SOL    HW130752   9.861   7.083   2.861  0.1053  0.6158  0.4270
 8399SOL    HW230753   9.994   7.172   2.831  1.2922 -1.1991  0.2044
 8400SOL     OW30754   9.116   0.143   1.794 -0.2851 -0.2521 -0.3953
 8400SOL    HW130755   9.194   0.181   1.744 -0.6546 -0.7105 -1.3253
 8400SOL    HW230756   9.108   0.188   1.883  0.4803  0.4480 -0.6810
 8401SOL     OW30757   3.465   5.129   2.834 -0.4107 -0.4276  0.0150
 8401SOL    HW130758   3.450   5.197   2.906  1.9832  1.5410 -1.2449
 8401SOL    HW230759   3.489   5.176   2.749  2.0822 -2.8646 -0.6908
 8402SOL     OW30760   2.754   2.167   2.623  0.3367 -0.8998  0.6421
 8402SOL    HW130761   2.689   2.240   2.647  0.4840 -0.8556  0.9164
 8402SOL    HW230762   2.847   2.199   2.641  0.4385 -0.9290  0.1591
 8403SOL     OW30763   0.749   4.209   0.075 -0.1992 -0.1092 -0.0597
 8403SOL    HW130764   0.670   4.185   0.018 -1.8943  1.8915  1.3347
 8403SOL    HW230765   0.778   4.302   0.052  0.8529 -0.3158  0.4374
 8404SOL     OW30766   1.581   1.072   0.183  0.6278  0.0578 -0.2530
 8404SOL    HW130767   1.493   1.070   0.230  0.6117 -1.1883 -0.3299
 8404SOL    HW230768   1.570   1.041   0.089  1.0816  0.2789 -0.3815
 8405SOL     OW30769   9.237   0.916   0.840  0.0990 -0.1767 -0.1451
 8405SOL    HW130770   9.182   0.995   0.865  2.6027  1.8466 -0.7691
 8405SOL    HW230771   9.263   0.865   0.922 -0.9709  0.0345  0.3225
 8407SOL     OW30772   0.262   7.723   1.120  0.1324  0.6963 -1.0975
 8407SOL    HW130773   0.348   7.672   1.108 -0.2178 -0.0021 -0.6847
 8407SOL    HW230774   0.186   7.658   1.122 -0.4609  1.3553 -1.9758
 8408SOL     OW30775   9.495   2.883   1.738  0.6698 -0.0128  0.7153
 8408SOL    HW130776   9.510   2.800   1.791 -0.2087 -0.5258  0.1956
 8408SOL    HW230777   9.582   2.927   1.719  1.4761 -2.3320 -1.3852
 8409SOL     OW30778   5.306   7.781   2.569 -0.3399 -0.1686  0.1600
 8409SOL    HW130779   5.352   7.699   2.603 -0.7496 -0.7377 -0.6425
 8409SOL    HW230780   5.351   7.862   2.606  0.0590 -0.7528  0.9736
 8410SOL     OW30781   7.694   7.646   3.481 -0.2927 -0.3210  0.4893
 8410SOL    HW130782   7.716   7.685   3.392 -0.5690 -0.3839  0.3906
 8410SOL    HW230783   7.599   7.616   3.480 -0.9638  1.7138  1.5484
 8411SOL     OW30784   0.664   3.069   2.318 -0.0216  0.3228 -0.2213
 8411SOL    HW130785   0.608   3.089   2.238 -0.0412  0.2724 -0.2205
 8411SOL    HW230786   0.606   3.070   2.400  0.7973  5.3084  0.4853
 8412SOL     OW30787   2.048   3.725   2.913  0.7087  0.5216 -0.4536
 8412SOL    HW130788   2.041   3.822   2.891 -0.9780  0.3506 -0.7518
 8412SOL    HW230789   2.101   3.678   2.842 -2.1065  0.5044 -2.6650
 8414SOL     OW30790   2.306   1.365   0.168  0.2476  0.4375  0.0012
 8414SOL    HW130791   2.270   1.300   0.235  2.1751 -0.1657  0.4855
 8414SOL    HW230792   2.241   1.375   0.092 -0.8329 -0.7421  0.7516
 8415SOL     OW30793   2.812   7.889   2.599 -0.6584  0.2730 -0.0030
 8415SOL    HW130794   2.752   7.825   2.551 -0.5512 -0.1516  0.4191
 8415SOL    HW230795   2.844   7.847   2.684  1.5794 -0.1620 -1.0220
 8416SOL     OW30796   8.526   3.335   2.990 -0.6066 -0.2515 -0.6032
 8416SOL    HW130797   8.461   3.391   2.939 -1.7246  0.7590  1.8519
 8416SOL    HW230798   8.476   3.276   3.053  0.8317 -0.1909  0.6028
 8417SOL     OW30799   9.584   1.648   3.058  0.3187  0.3256  0.7324
 8417SOL    HW130800   9.593   1.739   3.099  0.8208 -0.8331  3.2641
 8417SOL    HW230801   9.672   1.602   3.060 -0.3588 -0.9667  1.3169
 8418SOL     OW30802   8.240   3.200   0.148  0.2392 -0.2808  0.5116
 8418SOL    HW130803   8.154   3.171   0.106  0.7717 -0.8057 -0.2172
 8418SOL    HW230804   8.277   3.278   0.097  0.7871 -0.7970  0.1127
 8420SOL     OW30805   1.016   9.288   3.459 -0.4209 -0.6443  0.4686
 8420SOL    HW130806   1.023   9.192   3.486  0.8769 -1.0289 -1.1486
 8420SOL    HW230807   1.100   9.335   3.483 -0.2831 -0.3859 -0.4988
 8424SOL     OW30808   8.643   4.521   0.822 -0.3978  0.4020 -0.3056
 8424SOL    HW130809   8.659   4.543   0.726 -0.9699 -1.4030 -0.8406
 8424SOL    HW230810   8.625   4.423   0.831 -0.3918  0.5591  1.6417
 8426SOL     OW30811   2.170   3.131   2.711  0.3950  0.0155 -0.3005
 8426SOL    HW130812   2.157   3.098   2.617 -0.0384 -0.6269 -0.0178
 8426SOL    HW230813   2.264   3.114   2.739  0.6012  0.4475 -0.7062
 8427SOL     OW30814   2.081   5.010   1.308  0.1284 -0.1538 -0.2288
 8427SOL    HW130815   2.001   4.950   1.304  0.6166 -0.7614 -0.9221
 8427SOL    HW230816   2.050   5.105   1.302 -0.5612 -0.3768 -0.3156
 8428SOL     OW30817   9.171   0.996   0.055 -0.3882  0.4003  0.8151
 8428SOL    HW130818   9.167   1.033   0.148  1.3640 -0.6404  1.3269
 8428SOL    HW230819   9.127   0.907   0.053  0.2100  0.0986  0.8301
 8429SOL     OW30820   5.092   2.525   1.082 -0.0903 -0.1578  0.6004
 8429SOL    HW130821   5.038   2.466   1.021 -1.9346  1.6720  0.3960
 8429SOL    HW230822   5.111   2.612   1.036 -1.4682  1.2335  2.5423
 8432SOL     OW30823   8.362   6.768   2.711 -0.1962 -0.0047  0.4065
 8432SOL    HW130824   8.426   6.839   2.741  0.4664 -0.8718  1.0640
 8432SOL    HW230825   8.406   6.711   2.641 -0.5304 -0.1216  0.2918
 8433SOL     OW30826   4.210   1.735   2.662  0.2254 -0.1947 -0.4865
 8433SOL    HW130827   4.157   1.820   2.655 -0.8137 -0.9211 -1.5839
 8433SOL    HW230828   4.265   1.738   2.745  2.5667  2.8788 -2.0547
 8434SOL     OW30829   1.805   3.914   0.183  0.0977 -0.6773 -0.0628
 8434SOL    HW130830   1.794   4.008   0.213 -0.4034 -1.4840  2.4491
 8434SOL    HW230831   1.817   3.855   0.263  1.1633 -2.6506 -1.6249
 8435SOL     OW30832   1.074   4.613   2.054 -0.5503  0.1474 -1.1335
 8435SOL    HW130833   1.057   4.562   1.970 -4.8887  0.2748 -0.4578
 8435SOL    HW230834   1.050   4.709   2.039  0.1790  0.4810 -0.1796
 8439SOL     OW30835   3.583   0.779   2.708  0.2465  0.2843 -0.3485
 8439SOL    HW130836   3.515   0.741   2.771  1.2100  0.2470  0.6625
 8439SOL    HW230837   3.653   0.828   2.759  1.2215 -0.0239 -1.3663
 8440SOL     OW30838   0.644   5.150   2.208  0.5927  0.0762  0.5798
 8440SOL    HW130839   0.633   5.215   2.133 -0.4519 -1.0287 -0.2614
 8440SOL    HW230840   0.566   5.158   2.270 -0.0255 -1.0013 -0.0392
 8441SOL     OW30841   6.403   9.197   2.904 -0.2771 -0.5676 -0.7783
 8441SOL    HW130842   6.442   9.175   2.993  0.3176  0.7368 -0.7032
 8441SOL    HW230843   6.327   9.135   2.885  1.7339 -3.0944 -0.8862
 8443SOL     OW30844   3.194   5.105   2.957  0.2980  0.0958 -0.3717
 8443SOL    HW130845   3.276   5.145   2.916 -0.1333  1.3323 -0.0648
 8443SOL    HW230846   3.146   5.175   3.010  0.3002 -1.2033  1.4190
 8446SOL     OW30847   4.435   0.437   1.258 -0.3454  0.0159 -0.4021
 8446SOL    HW130848   4.503   0.374   1.298 -0.7371  0.5493  1.1300
 8446SOL    HW230849   4.481   0.519   1.226 -0.3843  0.9313  1.7860
 8448SOL     OW30850   0.257   8.618   1.844 -0.0696 -0.4968 -0.0722
 8448SOL    HW130851   0.171   8.643   1.801 -0.6358 -1.0084  0.7460
 8448SOL    HW230852   0.330   8.618   1.776 -0.8848 -0.9460 -0.9498
 8449SOL     OW30853   2.000   0.358   0.972 -0.2632 -0.2872  0.4244
 8449SOL    HW130854   1.905   0.349   0.943 -0.8050 -0.4288  2.1426
 8449SOL    HW230855   2.014   0.449   1.012  0.1106 -0.5547  0.9048
 8450SOL     OW30856   0.836   3.576   2.704 -0.1354 -0.5086  0.4465
 8450SOL    HW130857   0.862   3.557   2.609  1.3842  1.6910  0.4045
 8450SOL    HW230858   0.847   3.492   2.758  1.6254 -1.0956 -0.7591
 8451SOL     OW30859   9.459   7.389   0.320 -0.0487 -0.2657  0.3053
 8451SOL    HW130860   9.383   7.392   0.256 -1.0013 -1.0932  1.3815
 8451SOL    HW230861   9.530   7.327   0.286 -0.7100 -0.9809  0.2230
 8452SOL     OW30862   1.530   1.288   1.779 -0.7106 -0.3956 -0.1084
 8452SOL    HW130863   1.567   1.304   1.687 -2.5291 -0.5770 -0.9000
 8452SOL    HW230864   1.499   1.193   1.787  1.8092 -1.1033  1.5771
 8453SOL     OW30865   9.352   1.319   0.856 -0.3547  0.6073  0.0943
 8453SOL    HW130866   9.443   1.352   0.880 -0.2698  0.2804  0.2287
 8453SOL    HW230867   9.360   1.242   0.792 -0.4671 -0.4639  1.3321
 8454SOL     OW30868   3.653   5.736   2.486  0.7034  0.0853  0.0657
 8454SOL    HW130869   3.684   5.800   2.557 -1.2762  2.3188 -0.9990
 8454SOL    HW230870   3.578   5.681   2.522  0.2854  0.5965 -0.0280
 8455SOL     OW30871   8.390   7.032   1.595  0.5806 -0.4783 -0.2467
 8455SOL    HW130872   8.363   7.016   1.499 -0.2996  1.0824 -0.2808
 8455SOL    HW230873   8.436   7.120   1.602 -0.2308 -0.1381  0.9270
 8456SOL     OW30874   5.300   8.066   3.282  0.3547  0.4105  0.1941
 8456SOL    HW130875   5.214   8.117   3.287 -0.4719 -0.9846  0.4482
 8456SOL    HW230876   5.351   8.078   3.367  0.1511  0.7853  0.2645
 8457SOL     OW30877   8.329   9.242   2.935  0.2114  0.3356 -0.2095
 8457SOL    HW130878   8.388   9.190   2.997  0.5510  1.0586  0.0765
 8457SOL    HW230879   8.354   9.339   2.938 -0.4620  0.5286 -0.6900
 8458SOL     OW30880   1.478   0.307   3.063  0.1267  0.2602  0.0582
 8458SOL    HW130881   1.548   0.272   3.000  0.3406 -3.3227  2.1532
 8458SOL    HW230882   1.522   0.363   3.133  0.6322 -0.1654  0.0870
 8459SOL     OW30883   9.247   9.482   1.991 -0.1949  0.5842 -0.7397
 8459SOL    HW130884   9.293   9.448   2.073 -1.3697 -0.1965 -0.3888
 8459SOL    HW230885   9.311   9.481   1.915  0.3069 -0.7291 -0.3215
 8460SOL     OW30886   5.140   6.427   2.307  0.6758  0.3447 -0.1021
 8460SOL    HW130887   5.115   6.330   2.314  1.1230  0.3669  2.0112
 8460SOL    HW230888   5.078   6.473   2.243 -1.4480 -0.6788  1.1719
 8461SOL     OW30889   5.407   8.300   2.211  0.0097  0.6185 -0.3215
 8461SOL    HW130890   5.390   8.249   2.296 -1.4030  0.1983 -0.8403
 8461SOL    HW230891   5.439   8.237   2.140 -1.5285  0.4426 -0.8989
 8463SOL     OW30892   1.109   8.037   3.664  0.9811 -0.4501 -0.1584
 8463SOL    HW130893   1.023   7.995   3.695  0.3082  1.6357  0.8820
 8463SOL    HW230894   1.185   7.975   3.682 -0.0968 -1.6215  0.4352
 8464SOL     OW30895   9.351   3.812   2.502  0.1883 -0.0966  0.3629
 8464SOL    HW130896   9.412   3.868   2.447  0.4668  0.3805  1.1509
 8464SOL    HW230897   9.257   3.825   2.471  0.2601  0.7264  0.4708
 8465SOL     OW30898   8.563   7.407   1.715  0.3889 -1.2154  0.3746
 8465SOL    HW130899   8.652   7.388   1.673 -0.1022 -2.1819 -0.2395
 8465SOL    HW230900   8.515   7.475   1.661  0.6596 -0.8609  0.5793
 8466SOL     OW30901   4.967   0.882   1.773 -0.4174  0.4143 -0.1675
 8466SOL    HW130902   4.943   0.786   1.758 -0.0172 -0.0617  2.0155
 8466SOL    HW230903   4.910   0.919   1.847  1.7182  0.8626  1.2970
 8467SOL     OW30904   2.846   1.298   0.188 -0.1263 -0.2850 -0.2046
 8467SOL    HW130905   2.756   1.313   0.227  0.1479  2.4068 -0.4992
 8467SOL    HW230906   2.849   1.337   0.096  1.7158  0.7978  0.3000
 8468SOL     OW30907   7.788   1.352   0.674  0.4956  0.2344 -0.3117
 8468SOL    HW130908   7.820   1.258   0.682  1.7048  0.6949  0.4387
 8468SOL    HW230909   7.753   1.383   0.763 -1.4738 -0.0410 -0.9598
 8469SOL     OW30910   0.794   1.705   2.468  0.0322  0.4672 -0.1227
 8469SOL    HW130911   0.777   1.668   2.559  1.5464  1.0874  0.4261
 8469SOL    HW230912   0.868   1.654   2.424  1.8560  2.5345  0.4779
 8470SOL     OW30913   3.403   1.014   1.958  0.1197  0.0630 -0.6492
 8470SOL    HW130914   3.454   1.040   2.040  0.3109 -1.7099 -0.2010
 8470SOL    HW230915   3.312   0.982   1.983 -0.0757  0.1854 -1.1900
 8471SOL     OW30916   9.582   8.984   0.937 -0.4612  0.3404  0.1230
 8471SOL    HW130917   9.611   9.068   0.891  0.8133 -1.7603 -3.0737
 8471SOL    HW230918   9.639   8.970   1.019  1.2805  1.0909 -0.9288
 8472SOL     OW30919   0.451   3.487   1.466  0.0201  0.3359 -0.4433
 8472SOL    HW130920   0.468   3.583   1.487  3.7360 -0.6975  1.9590
 8472SOL    HW230921   0.496   3.463   1.380  1.7435  0.1203  0.4818
 8473SOL     OW30922   0.360   7.515   2.989 -0.1304 -0.1942 -0.1656
 8473SOL    HW130923   0.329   7.420   2.981  1.8961 -0.9439  0.5735
 8473SOL    HW230924   0.351   7.560   2.900 -0.6872 -1.2206 -0.6417
 8474SOL     OW30925   7.037   8.590   2.368 -0.2478  0.0622  0.1002
 8474SOL    HW130926   6.952   8.643   2.370 -0.3994 -0.1707 -0.1071
 8474SOL    HW230927   7.079   8.591   2.459 -0.3691  0.3430  0.1548
 8475SOL     OW30928   0.829   6.924   0.372 -0.0194 -0.3315 -0.4189
 8475SOL    HW130929   0.834   6.832   0.410  0.4419 -0.0991  0.1025
 8475SOL    HW230930   0.754   6.974   0.415  1.0910  0.2432  0.9124
 8476SOL     OW30931   2.135   4.103   0.139 -0.7006  0.2456 -0.3685
 8476SOL    HW130932   2.136   4.161   0.057 -3.0560  1.0467  0.1454
 8476SOL    HW230933   2.099   4.013   0.115  1.0426 -0.3848 -0.7281
 8477SOL     OW30934   2.526   5.863   0.741  0.6051  1.1652  0.1881
 8477SOL    HW130935   2.545   5.824   0.831  1.7257  2.4245  0.5143
 8477SOL    HW230936   2.505   5.789   0.676  0.5883  0.1968  1.2837
 8479SOL     OW30937   9.397   2.928   1.487  0.5094 -0.1497  0.3580
 8479SOL    HW130938   9.406   2.885   1.577 -0.5256  0.3075  0.6900
 8479SOL    HW230939   9.485   2.925   1.440  1.5747  1.3221  2.1585
 8481SOL     OW30940   2.549   6.335   1.187 -0.2909  0.7201  0.0381
 8481SOL    HW130941   2.534   6.344   1.286  0.8400 -2.6127  0.5809
 8481SOL    HW230942   2.464   6.305   1.143  0.7358 -3.8235  0.9620
 8482SOL     OW30943   3.653   4.586   2.584  0.4946 -0.3936 -0.2246
 8482SOL    HW130944   3.602   4.501   2.599 -2.2538  1.2965  0.3630
 8482SOL    HW230945   3.709   4.606   2.664 -1.5963  0.1501  1.1359
 8483SOL     OW30946   7.701   7.112   1.886  0.7935  0.0566  0.0036
 8483SOL    HW130947   7.793   7.086   1.858  1.7957  2.4307  0.9912
 8483SOL    HW230948   7.681   7.206   1.856 -0.9550 -0.0918  0.5983
 8484SOL     OW30949   9.056   1.933   2.890  0.1583  0.0901  0.0447
 8484SOL    HW130950   9.014   1.849   2.925 -0.2798 -0.2883 -1.3244
 8484SOL    HW230951   9.004   1.966   2.812 -0.0725  2.0534  1.0099
 8485SOL     OW30952   0.504   5.935   2.161 -0.2296 -0.0449  1.0718
 8485SOL    HW130953   0.446   5.878   2.219 -1.9085 -1.0741 -1.5235
 8485SOL    HW230954   0.448   5.981   2.092  1.3873  3.0498  1.6952
 8487SOL     OW30955   8.772   0.495   0.819 -0.7995  0.1688 -0.2723
 8487SOL    HW130956   8.724   0.549   0.749 -0.6402 -0.4214 -0.8384
 8487SOL    HW230957   8.851   0.450   0.778 -0.2743  0.4056  0.4588
 8488SOL     OW30958   9.235   9.742   1.757 -0.3350 -0.4443  0.2728
 8488SOL    HW130959   9.244   9.773   1.662 -0.0723 -0.0571  0.4271
 8488SOL    HW230960   9.324   9.744   1.802 -0.9401  2.3834  1.4789
 8489SOL     OW30961   0.509   2.301   0.650  0.2545  0.1277  0.6458
 8489SOL    HW130962   0.494   2.301   0.551 -0.9865 -0.7095  0.8183
 8489SOL    HW230963   0.449   2.369   0.693 -0.0817 -0.3386  0.9284
 8490SOL     OW30964   9.900   3.014   0.975 -0.0031 -0.4360  0.1834
 8490SOL    HW130965   9.892   2.915   0.963 -0.6940 -0.6733  2.4686
 8490SOL    HW230966   9.847   3.061   0.905 -1.8140 -1.7168  0.6832
 8491SOL     OW30967   3.909   3.729   0.235 -0.2871 -0.0568  0.1178
 8491SOL    HW130968   3.963   3.763   0.312 -0.0434  0.8762 -0.4479
 8491SOL    HW230969   3.868   3.641   0.258 -1.3563  0.8608  1.8191
 8492SOL     OW30970   8.563   2.364   3.439 -0.4872  0.0034 -0.1706
 8492SOL    HW130971   8.568   2.398   3.345  0.1526  1.1643  0.2827
 8492SOL    HW230972   8.477   2.394   3.480 -0.3854  0.2164 -0.1112
 8493SOL     OW30973   1.041   0.647   0.698 -0.4475  0.3825  0.1919
 8493SOL    HW130974   0.951   0.615   0.668 -1.0218  0.6795  1.5440
 8493SOL    HW230975   1.042   0.747   0.702 -0.3153  0.3536  0.9484
 8495SOL     OW30976   5.260   2.844   0.752  0.3663  0.0243 -0.0187
 8495SOL    HW130977   5.252   2.944   0.750  2.3581  0.1830 -3.2959
 8495SOL    HW230978   5.354   2.819   0.778  0.3401 -0.9577 -0.8487
 8496SOL     OW30979   8.063   8.087   2.250 -0.0793 -0.1118 -0.1011
 8496SOL    HW130980   7.994   8.033   2.298 -2.4073  1.5794 -1.4306
 8496SOL    HW230981   8.044   8.184   2.263  1.9245  0.3729 -0.7031
 8497SOL     OW30982   2.203   5.770   2.361  0.0938  0.2479  0.2093
 8497SOL    HW130983   2.283   5.748   2.305 -0.3777  0.8502 -0.7213
 8497SOL    HW230984   2.133   5.700   2.347 -0.2669  0.7339 -0.4565
 8498SOL     OW30985   7.855   2.415   0.762 -0.4584  0.0674  0.1234
 8498SOL    HW130986   7.808   2.499   0.734 -0.6374 -0.9227 -2.6837
 8498SOL    HW230987   7.808   2.336   0.723  1.9002 -1.0971 -0.4521
 8499SOL     OW30988   2.783   0.550   0.445 -0.3116  0.2262 -0.0641
 8499SOL    HW130989   2.718   0.494   0.394 -1.7146  3.0594 -1.4999
 8499SOL    HW230990   2.757   0.551   0.542 -1.3291 -0.1952 -0.3227
 8500SOL     OW30991   9.261   7.151   3.279 -0.3252  0.0717 -0.3667
 8500SOL    HW130992   9.359   7.144   3.258 -0.5433 -2.3611 -0.7014
 8500SOL    HW230993   9.210   7.167   3.195 -0.4275 -1.3595 -0.6019
 8501SOL     OW30994   8.606   0.150   2.648 -0.4534  0.1908  0.0977
 8501SOL    HW130995   8.531   0.115   2.592  0.3707 -1.4470  0.0008
 8501SOL    HW230996   8.568   0.189   2.732 -1.7412  3.0776 -1.7230
 8502SOL     OW30997   0.171   8.941   0.968 -0.6931 -0.1906 -0.1221
 8502SOL    HW130998   0.236   8.966   0.896 -0.4180  1.0212  0.5232
 8502SOL    HW230999   0.200   8.983   1.054 -0.9427 -1.7250  0.7345
 8504SOL     OW31000   0.625   2.096   1.122 -0.4770  0.0396 -0.1427
 8504SOL    HW131001   0.544   2.155   1.127  0.0391  0.6913  0.7720
 8504SOL    HW231002   0.703   2.145   1.160  0.3079 -0.6526 -0.8634
 8506SOL     OW31003   6.466   9.134   3.156  0.4667  0.0235 -0.0878
 8506SOL    HW131004   6.475   9.207   3.224  1.3449 -1.1759  1.0994
 8506SOL    HW231005   6.437   9.050   3.201  0.7287 -0.6964 -1.2466
 8507SOL     OW31006   1.675   4.191   0.201  0.7732  0.2862  0.1144
 8507SOL    HW131007   1.660   4.289   0.195 -0.2195  0.1692  0.5258
 8507SOL    HW231008   1.603   4.150   0.257  0.0227 -0.9546 -1.7298
 8508SOL     OW31009   1.997   1.750   0.980  0.5716  0.0811  0.6774
 8508SOL    HW131010   2.019   1.746   1.078  0.9915  2.0745  0.6877
 8508SOL    HW231011   2.080   1.771   0.929  0.2154 -0.2866 -0.0515
 8509SOL     OW31012   2.129   4.483   3.345  0.0440 -0.2144 -0.6586
 8509SOL    HW131013   2.144   4.467   3.442  0.8389  0.1129 -0.7230
 8509SOL    HW231014   2.158   4.402   3.293  1.4396  0.3358 -0.7663
 8510SOL     OW31015   3.556   4.652   2.895 -0.4902 -0.5492 -0.3390
 8510SOL    HW131016   3.457   4.656   2.879 -0.3384 -0.1006 -1.2131
 8510SOL    HW231017   3.576   4.583   2.964 -1.3887 -0.8620 -0.3868
 8512SOL     OW31018   9.797   1.479   2.734  0.0070  0.0840  0.3803
 8512SOL    HW131019   9.816   1.570   2.770 -0.0986 -0.2107  1.2019
 8512SOL    HW231020   9.724   1.437   2.788 -0.8768  0.0320 -0.8299
 8513SOL     OW31021   1.977   8.450   0.992  0.2534 -0.3499  0.1651
 8513SOL    HW131022   2.036   8.433   0.913  1.9383  0.7566  1.1433
 8513SOL    HW231023   2.007   8.394   1.069 -2.1614 -2.3654 -0.2962
 8516SOL     OW31024   7.875   2.584   0.119 -0.9117 -0.5080  0.3811
 8516SOL    HW131025   7.953   2.630   0.077 -1.4123  0.7246  0.7749
 8516SOL    HW231026   7.901   2.491   0.144  0.8121  0.2802  1.6130
 8517SOL     OW31027   8.328   2.790   2.507 -0.1611 -0.5146 -0.0891
 8517SOL    HW131028   8.273   2.737   2.443  0.4668 -0.3535 -0.7714
 8517SOL    HW231029   8.288   2.881   2.516  0.2361 -0.2451 -0.9357
 8518SOL     OW31030   1.238   2.271   0.871 -0.4139  0.0253 -0.6468
 8518SOL    HW131031   1.153   2.218   0.865 -1.2288  1.2996 -0.5236
 8518SOL    HW231032   1.221   2.365   0.843  0.5655  0.7441  1.0814
 8519SOL     OW31033   3.218   1.753   3.717 -0.0719  0.2829  0.5256
 8519SOL    HW131034   3.240   1.667   3.671 -0.7918 -0.2324  1.1356
 8519SOL    HW231035   3.168   1.734   3.801 -1.8341  1.3839 -0.2569
 8520SOL     OW31036   0.966   7.464   3.350 -0.2069 -0.3280 -0.7538
 8520SOL    HW131037   0.904   7.411   3.291 -0.8676  0.5027 -0.8135
 8520SOL    HW231038   1.053   7.416   3.358 -0.8524 -1.5010 -0.6848
 8521SOL     OW31039   4.263   8.659   2.275 -0.2861  0.4749 -0.2207
 8521SOL    HW131040   4.302   8.573   2.308 -0.4287  0.0239 -1.1797
 8521SOL    HW231041   4.267   8.728   2.347  0.7656 -0.0407  0.2332
 8522SOL     OW31042   8.529   0.198   0.329  0.2974  0.3685 -0.0783
 8522SOL    HW131043   8.598   0.208   0.400 -1.8170  1.6475  1.8903
 8522SOL    HW231044   8.545   0.265   0.257  0.9109  0.8757  0.5233
 8523SOL     OW31045   2.810   2.316   3.746  0.0246 -0.0166  0.2103
 8523SOL    HW131046   2.792   2.415   3.747  0.6334  0.0942  0.2100
 8523SOL    HW231047   2.905   2.300   3.719 -0.6598 -0.6874 -1.8741
 8525SOL     OW31048   7.760   9.369   0.179  0.3814  0.7682  0.5044
 8525SOL    HW131049   7.837   9.418   0.138 -0.5131  1.1519 -0.7497
 8525SOL    HW231050   7.715   9.429   0.245  0.5442  0.9063  0.4911
 8526SOL     OW31051   7.655   1.888   1.655  0.0841 -0.1955  0.1020
 8526SOL    HW131052   7.659   1.788   1.653  0.8863 -0.1438 -1.6575
 8526SOL    HW231053   7.744   1.924   1.684 -0.2423  0.0132  0.8547
 8528SOL     OW31054   0.018   5.941   1.902 -0.1679 -0.4802 -0.1389
 8528SOL    HW131055   0.082   5.956   1.827 -0.2839  0.5293 -0.0361
 8528SOL    HW231056  -0.073   5.922   1.865 -0.4661  1.1007 -0.2487
 8529SOL     OW31057   0.253   0.985   1.249 -0.4031  0.4359  0.0120
 8529SOL    HW131058   0.229   0.978   1.152 -0.8275 -1.1662  0.2175
 8529SOL    HW231059   0.314   0.910   1.274 -0.1723  0.9248  0.9600
 8531SOL     OW31060   1.648   4.577   3.616 -0.0453  0.6831  0.1242
 8531SOL    HW131061   1.634   4.605   3.521  2.8048  0.0025 -0.5521
 8531SOL    HW231062   1.717   4.636   3.658  0.1595 -0.2717  1.1384
 8532SOL     OW31063   2.209   2.449   1.887 -0.1884  0.2550 -0.1298
 8532SOL    HW131064   2.212   2.353   1.915 -1.6740  0.6557  1.4543
 8532SOL    HW231065   2.302   2.485   1.880  0.4207 -1.5100 -1.5599
 8534SOL     OW31066   9.988   1.050   1.753 -0.3725 -0.4531  0.3836
 8534SOL    HW131067  10.007   1.092   1.842  0.3448  0.9506 -0.4084
 8534SOL    HW231068  10.074   1.020   1.712 -0.4268  1.0242 -0.8522
 8535SOL     OW31069   3.698   1.785   2.528 -0.0857 -0.0963  0.1195
 8535SOL    HW131070   3.684   1.872   2.481  0.5001  0.1644  0.4219
 8535SOL    HW231071   3.750   1.801   2.613  0.2139 -0.7662  0.0625
 8537SOL     OW31072   8.830   4.450   0.151 -0.6864 -0.0575  0.7854
 8537SOL    HW131073   8.777   4.471   0.069  0.0090  1.3953  0.6870
 8537SOL    HW231074   8.887   4.370   0.133 -0.7868  0.0460 -0.0421
 8538SOL     OW31075   2.556   4.944   1.809  0.1737 -0.5145 -0.4364
 8538SOL    HW131076   2.479   4.883   1.789 -0.2176  0.2038 -1.1538
 8538SOL    HW231077   2.545   4.984   1.900 -1.7111  1.6627 -1.5646
 8539SOL     OW31078   3.435   2.233   3.259 -0.4656 -0.1485  0.3036
 8539SOL    HW131079   3.406   2.309   3.201  0.4754  0.3222  0.4454
 8539SOL    HW231080   3.356   2.199   3.310 -1.1107  0.0259 -0.5680
 8542SOL     OW31081   8.328   4.422   0.773 -0.4503  0.3400  0.1277
 8542SOL    HW131082   8.259   4.351   0.779  0.7202 -0.6430  2.3667
 8542SOL    HW231083   8.375   4.416   0.685 -1.6298 -0.4464 -0.4535
 8543SOL     OW31084   8.712   4.569   0.500  0.1917 -0.4571 -0.0454
 8543SOL    HW131085   8.636   4.507   0.517 -0.9336  0.5429 -1.2769
 8543SOL    HW231086   8.718   4.589   0.402  2.2769 -0.8000 -0.0124
 8544SOL     OW31087   5.423   9.769   1.096  0.1563 -0.0934 -0.3017
 8544SOL    HW131088   5.444   9.845   1.157 -0.4172  0.3055 -0.6005
 8544SOL    HW231089   5.508   9.729   1.063  0.4701 -0.2783  0.7172
 8545SOL     OW31090   1.189   7.304   3.344  0.2404  0.3748  0.1930
 8545SOL    HW131091   1.149   7.250   3.270  1.3982 -1.1638  0.6488
 8545SOL    HW231092   1.256   7.368   3.306  3.0372 -2.4633  0.0959
 8546SOL     OW31093   4.133   8.085   1.822 -0.2289  0.0337  0.2679
 8546SOL    HW131094   4.213   8.143   1.807 -0.4991  0.7751  1.6630
 8546SOL    HW231095   4.058   8.116   1.765 -0.3231  0.9549  0.8965
 8547SOL     OW31096   3.920   0.766   2.563 -0.6721 -0.1294  0.2492
 8547SOL    HW131097   3.906   0.720   2.650 -2.1991  1.5531  0.9164
 8547SOL    HW231098   3.889   0.707   2.488  1.0168 -1.7407  0.7828
 8548SOL     OW31099   3.507   4.242   3.109 -0.5972 -0.4635 -0.0389
 8548SOL    HW131100   3.481   4.321   3.164 -0.5742  0.9895 -2.0472
 8548SOL    HW231101   3.598   4.257   3.070 -1.4363 -0.5640 -2.0890
 8549SOL     OW31102   9.199   0.474   0.809  0.6107  0.2695 -0.0959
 8549SOL    HW131103   9.273   0.512   0.754  0.2222  0.1421 -0.7026
 8549SOL    HW231104   9.216   0.377   0.825  1.4460  0.6118  1.1994
 8550SOL     OW31105   0.896   1.402   0.137  0.1466  0.0244  0.2601
 8550SOL    HW131106   0.832   1.347   0.083 -0.1921 -0.1834  0.8767
 8550SOL    HW231107   0.875   1.392   0.234  1.0205  0.0757  0.4536
 8552SOL     OW31108   3.674   9.063   2.858  0.4586  0.7721 -0.4797
 8552SOL    HW131109   3.666   9.021   2.948 -2.0517 -1.4210 -1.6849
 8552SOL    HW231110   3.771   9.074   2.835  1.1225  2.0881  2.7761
 8553SOL     OW31111   8.429   6.940   2.314  0.1041 -0.3872  0.4407
 8553SOL    HW131112   8.332   6.963   2.305  0.1777  0.4473  1.7261
 8553SOL    HW231113   8.480   7.019   2.348  1.0860 -1.1189  0.7169
 8554SOL     OW31114   4.220   3.297   3.147 -0.4582 -0.0456  0.4471
 8554SOL    HW131115   4.176   3.208   3.137 -0.3429 -0.2652  1.8429
 8554SOL    HW231116   4.163   3.356   3.205  0.3862  0.1453  1.0933
 8555SOL     OW31117   8.899   7.086   3.707 -0.2867 -0.1930 -0.1645
 8555SOL    HW131118   8.885   7.084   3.608 -0.4896 -1.8909 -0.1164
 8555SOL    HW231119   8.884   6.995   3.744  0.4052  0.3011  1.3564
 8556SOL     OW31120   9.957   0.109   3.285 -0.5063 -0.1721  0.5661
 8556SOL    HW131121   9.886   0.071   3.227 -0.4807 -0.0041  0.4242
 8556SOL    HW231122  10.019   0.036   3.313 -1.0175 -0.4064  1.0969
 8557SOL     OW31123   9.517   2.303   1.246  0.3540  0.0204  0.0021
 8557SOL    HW131124   9.479   2.388   1.209 -0.4394  0.6444  2.1616
 8557SOL    HW231125   9.472   2.225   1.203  1.4743  0.6533 -2.3997
 8558SOL     OW31126   2.839   5.945   1.944  0.1246  0.0093  0.3371
 8558SOL    HW131127   2.871   5.920   2.036 -1.0218  2.0510  1.3124
 8558SOL    HW231128   2.759   5.890   1.921  0.8630 -1.0438  0.2251
 8560SOL     OW31129   8.122   0.633   2.158 -0.3568 -0.6592  0.4284
 8560SOL    HW131130   8.217   0.658   2.138 -1.2632  0.8731 -2.1845
 8560SOL    HW231131   8.071   0.714   2.186 -1.6387 -0.8749 -1.2284
 8562SOL     OW31132   1.504   4.635   0.059 -0.2864 -0.2046 -0.0045
 8562SOL    HW131133   1.433   4.608  -0.006  0.1575 -0.3079 -0.4528
 8562SOL    HW231134   1.464   4.692   0.130 -0.5435  0.9964 -1.0824
 8563SOL     OW31135   3.250   7.878   0.609 -0.1906  0.6156 -0.8954
 8563SOL    HW131136   3.317   7.863   0.681 -1.4163  0.7790  0.3015
 8563SOL    HW231137   3.277   7.828   0.527  1.0264  0.1280 -0.2111
 8564SOL     OW31138   3.699   4.823   3.698 -0.5101 -0.3830  0.3375
 8564SOL    HW131139   3.760   4.745   3.708  0.0373  0.4569  4.4379
 8564SOL    HW231140   3.610   4.801   3.740 -1.2685  0.2289 -0.9396
 8565SOL     OW31141   3.759   6.162   2.749 -0.4828 -0.5226  0.1118
 8565SOL    HW131142   3.856   6.181   2.734 -0.8668  1.1403 -0.3864
 8565SOL    HW231143   3.718   6.129   2.664 -0.7225  0.4437 -0.1570
 8566SOL     OW31144   6.433   7.974   3.497  0.2493 -0.8923  0.3552
 8566SOL    HW131145   6.389   7.983   3.586  0.6229  0.9757  0.3635
 8566SOL    HW231146   6.470   8.062   3.468 -0.9406 -1.1609 -2.2162
 8567SOL     OW31147   1.787   5.489   1.262 -0.5581 -0.0865  0.0915
 8567SOL    HW131148   1.782   5.554   1.337 -1.8453 -1.4203  1.1865
 8567SOL    HW231149   1.798   5.539   1.176 -0.3877  1.5143  1.0225
 8568SOL     OW31150   0.702   8.573   2.853 -0.5128 -0.0079 -0.5950
 8568SOL    HW131151   0.661   8.486   2.824 -0.2626 -0.4467  0.3681
 8568SOL    HW231152   0.638   8.647   2.834 -0.5066 -0.3242 -1.9399
 8569SOL     OW31153   9.106   0.109   2.452 -0.0177 -0.1940  0.3973
 8569SOL    HW131154   9.060   0.023   2.429 -2.0367  0.6990  0.9790
 8569SOL    HW231155   9.055   0.186   2.413  0.9304  0.8344  1.1340
 8570SOL     OW31156   4.238   4.458   0.934  0.7172  0.0065  0.2751
 8570SOL    HW131157   4.160   4.470   0.996  0.8102 -0.3442  0.4685
 8570SOL    HW231158   4.280   4.546   0.915  0.4790  0.1572  0.4432
 8571SOL     OW31159   1.117   8.808   1.461 -0.1134 -0.4871 -0.6515
 8571SOL    HW131160   1.071   8.848   1.382 -3.5924  0.1457  1.5753
 8571SOL    HW231161   1.163   8.881   1.512 -1.8108 -0.1307  0.4065
 8572SOL     OW31162   8.669   5.039   3.340 -0.2759  0.0951  0.5199
 8572SOL    HW131163   8.645   4.962   3.280  1.5476 -0.8147  0.9070
 8572SOL    HW231164   8.761   5.024   3.377 -0.8576  1.2818  2.5132
 8574SOL     OW31165   2.814   1.702   0.152  0.1971 -0.1347  1.2080
 8574SOL    HW131166   2.725   1.656   0.146  1.8844 -3.4018  0.1882
 8574SOL    HW231167   2.858   1.677   0.239 -0.1614  2.0842  2.0617
 8575SOL     OW31168   2.125   7.634   0.353 -0.6587  0.0781  0.8070
 8575SOL    HW131169   2.139   7.666   0.446 -1.4260  1.0144  0.6063
 8575SOL    HW231170   2.203   7.660   0.296 -1.0314  1.1384  0.7682
 8576SOL     OW31171   3.798   0.980   0.110  0.2199  0.2211 -0.3116
 8576SOL    HW131172   3.816   0.883   0.120  0.4046  0.4267  1.7151
 8576SOL    HW231173   3.860   1.032   0.170 -1.0463  1.4665 -0.0381
 8577SOL     OW31174   8.948   1.067   2.913 -0.4120 -0.0665 -0.0598
 8577SOL    HW131175   9.024   1.131   2.907 -0.0297 -0.4299  0.7522
 8577SOL    HW231176   8.867   1.113   2.949 -0.0835 -0.0798  0.7037
 8578SOL     OW31177   9.577   1.910   2.613 -0.3944  0.4701 -0.4053
 8578SOL    HW131178   9.530   1.880   2.530 -1.8625  0.8491  0.2693
 8578SOL    HW231179   9.578   1.836   2.680  0.6807  0.2050 -0.7056
 8579SOL     OW31180   7.948   1.807   1.136 -0.0353  0.4835 -0.1285
 8579SOL    HW131181   8.026   1.836   1.191  1.3734 -3.2175 -0.0835
 8579SOL    HW231182   7.977   1.792   1.042 -1.3051  1.6483 -0.7296
 8580SOL     OW31183   8.836   1.840   1.139  0.0701 -0.4560  0.3896
 8580SOL    HW131184   8.838   1.778   1.061 -0.5563 -2.4060  1.8785
 8580SOL    HW231185   8.742   1.874   1.153  0.0616 -0.5951  0.6717
 8581SOL     OW31186   4.447   8.558   1.718 -0.2018  0.2570 -0.0558
 8581SOL    HW131187   4.376   8.508   1.668 -1.3852 -0.2555  2.0706
 8581SOL    HW231188   4.410   8.593   1.804  2.3174 -0.7096  1.4978
 8584SOL     OW31189   9.113   6.688   2.216 -0.2245 -0.0373 -0.1597
 8584SOL    HW131190   9.118   6.705   2.314 -1.0470  1.1411 -0.3113
 8584SOL    HW231191   9.092   6.592   2.199  0.9047 -0.4604  0.7942
 8587SOL     OW31192   1.601   9.750   1.187  0.1519  0.8346  0.1790
 8587SOL    HW131193   1.610   9.679   1.117 -0.8606 -0.2336  1.1095
 8587SOL    HW231194   1.568   9.834   1.145 -0.1364  0.2954 -0.6888
 8588SOL     OW31195   8.608   9.889   1.026 -0.1854  0.4633  0.4380
 8588SOL    HW131196   8.610   9.988   1.010  2.6356  0.5820  1.2061
 8588SOL    HW231197   8.700   9.852   1.016 -1.3428 -2.2633 -0.6990
 8589SOL     OW31198   0.879   3.473   1.903  0.3130 -0.1175  0.1509
 8589SOL    HW131199   0.970   3.497   1.936 -0.1853  0.4795  1.1203
 8589SOL    HW231200   0.874   3.374   1.890  0.7999 -0.2630  1.0338
 8591SOL     OW31201   3.859   7.688   0.360 -0.2028  0.2924  0.0736
 8591SOL    HW131202   3.948   7.652   0.389  0.8545  3.4719  0.9728
 8591SOL    HW231203   3.787   7.647   0.417  0.9594 -0.2778  1.1692
 8592SOL     OW31204   4.033   6.198   2.805 -0.1977  0.0346 -0.3211
 8592SOL    HW131205   4.068   6.140   2.732 -0.4578  1.0104 -1.2326
 8592SOL    HW231206   4.082   6.178   2.890  0.2572 -0.9499 -0.8083
 8593SOL     OW31207   8.878   8.477   0.774 -0.1468  0.2855 -0.2825
 8593SOL    HW131208   8.853   8.554   0.834  0.0066 -0.8016  1.2020
 8593SOL    HW231209   8.975   8.485   0.749 -0.2820  0.8979 -0.6306
 8594SOL     OW31210   8.450   9.499   2.118 -0.2148  0.4041  0.3180
 8594SOL    HW131211   8.534   9.554   2.113 -1.3132  1.9527 -1.5352
 8594SOL    HW231212   8.376   9.547   2.072 -1.4895 -2.1501 -0.3739
 8596SOL     OW31213   1.153   9.683   2.166  0.2646  0.3106  0.3880
 8596SOL    HW131214   1.115   9.742   2.238  0.7195 -2.5512  3.1175
 8596SOL    HW231215   1.079   9.636   2.119  0.0481  0.6767  0.3638
 8597SOL     OW31216   0.746   3.430   3.342  0.3658 -0.1904  0.3273
 8597SOL    HW131217   0.842   3.456   3.351  0.3889 -0.0772 -0.2301
 8597SOL    HW231218   0.738   3.330   3.335  0.5548 -0.1201 -0.9884
 8598SOL     OW31219   3.059   5.385   0.011  0.0313  0.5618  0.1448
 8598SOL    HW131220   3.158   5.394   0.016 -0.0834  0.8465  2.7671
 8598SOL    HW231221   3.035   5.288  -0.001  0.6424  0.6528 -1.8785
 8599SOL     OW31222   1.844   2.663   0.584  0.0228 -0.1810  0.8111
 8599SOL    HW131223   1.892   2.596   0.642  0.8632  0.1242  0.4795
 8599SOL    HW231224   1.780   2.616   0.524  0.6405 -0.6933  0.5488
 8600SOL     OW31225   9.941   6.184   0.442  0.3176  0.1027  0.5743
 8600SOL    HW131226  10.010   6.217   0.379 -1.1291 -0.3462 -1.2969
 8600SOL    HW231227   9.969   6.094   0.478  0.4579 -0.3191 -0.5766
 8601SOL     OW31228   9.905   0.524   3.763  0.3008 -0.1565 -0.1989
 8601SOL    HW131229   9.961   0.484   3.691 -1.4244 -0.2248 -1.5476
 8601SOL    HW231230   9.916   0.623   3.764  1.8221 -0.3246  0.7551
 8603SOL     OW31231   8.124   1.899   3.266 -0.8517 -0.2363  0.0183
 8603SOL    HW131232   8.220   1.922   3.248 -0.7411 -1.5469 -1.1472
 8603SOL    HW231233   8.110   1.887   3.365  0.6254 -1.9067  0.0425
 8604SOL     OW31234   4.150   2.380   3.095  0.3399 -0.7754  0.4097
 8604SOL    HW131235   4.142   2.467   3.046 -3.0646 -0.5949  1.1430
 8604SOL    HW231236   4.201   2.314   3.039 -1.3794  0.1463 -2.3234
 8605SOL     OW31237   0.327   2.301   3.467 -0.2502  0.4489  0.2050
 8605SOL    HW131238   0.253   2.368   3.460  0.1314  0.8088 -0.4810
 8605SOL    HW231239   0.392   2.315   3.392 -0.6647 -1.3039 -0.4967
 8607SOL     OW31240   4.579   2.745   3.059  0.1331 -0.6939  0.4352
 8607SOL    HW131241   4.617   2.808   2.990 -1.0672 -0.3924  0.0294
 8607SOL    HW231242   4.557   2.797   3.142 -2.9259 -0.1056 -0.6737
 8608SOL     OW31243   5.256   9.865   2.618 -0.7420 -0.5173 -0.0608
 8608SOL    HW131244   5.349   9.841   2.591 -0.5802  1.4419 -1.3972
 8608SOL    HW231245   5.255   9.898   2.712 -0.1373 -0.8664  0.0657
 8609SOL     OW31246   2.622   5.544   1.571 -0.3208  0.1602 -0.4091
 8609SOL    HW131247   2.693   5.594   1.621  0.3604 -1.7513  0.5865
 8609SOL    HW231248   2.541   5.533   1.629 -0.8163  0.8900 -0.9521
 8610SOL     OW31249   1.020   9.511   1.076 -0.0431  0.8501 -0.3797
 8610SOL    HW131250   1.058   9.527   1.167 -0.8446 -0.5039  0.2218
 8610SOL    HW231251   1.053   9.580   1.013  0.6219  1.7393  0.9205
 8611SOL     OW31252   4.220   9.526   2.059  0.3229 -0.0429  0.5749
 8611SOL    HW131253   4.198   9.438   2.017  1.3232  1.5264 -3.4822
 8611SOL    HW231254   4.139   9.585   2.056  0.3736  0.0456  0.9421
 8612SOL     OW31255   9.053   2.997   0.055 -0.0338  0.6418 -0.1664
 8612SOL    HW131256   8.966   3.036   0.088 -0.8320 -0.2531 -1.1613
 8612SOL    HW231257   9.036   2.948  -0.030  1.7290  1.6307 -1.0980
 8613SOL     OW31258   6.892   9.862   1.228 -0.8635  0.3100 -0.4271
 8613SOL    HW131259   6.796   9.857   1.255 -0.5515  0.9358  0.8543
 8613SOL    HW231260   6.899   9.869   1.129 -2.0578 -1.7498 -0.6747
 8614SOL     OW31261   5.358   2.156   2.076  0.5972 -0.3847 -0.2159
 8614SOL    HW131262   5.331   2.061   2.091  1.4987 -0.3961  1.5770
 8614SOL    HW231263   5.402   2.165   1.987  0.1129 -1.5560 -0.5786
 8615SOL     OW31264   0.565   7.475   3.242  0.6759  0.2233 -0.7146
 8615SOL    HW131265   0.509   7.462   3.160 -2.3187  1.0114  1.1420
 8615SOL    HW231266   0.608   7.565   3.239 -0.2295  0.6557 -0.9622
 8616SOL     OW31267   2.934   5.800   2.562  0.2861 -0.2577 -0.6470
 8616SOL    HW131268   2.925   5.818   2.660 -0.6278  0.5657 -0.8759
 8616SOL    HW231269   2.902   5.879   2.510  0.3658 -0.8506 -1.6223
 8618SOL     OW31270   9.589   4.854   1.596 -0.6066  0.5406  0.0440
 8618SOL    HW131271   9.567   4.773   1.650  1.0353  0.1114  0.0874
 8618SOL    HW231272   9.599   4.933   1.657  1.3033  0.0454  0.3922
 8619SOL     OW31273   8.348   6.642   1.865  0.4249  0.1055 -0.6752
 8619SOL    HW131274   8.415   6.699   1.818  1.9952  0.3260  1.7297
 8619SOL    HW231275   8.394   6.587   1.934 -2.0097  1.2451  1.9565
 8620SOL     OW31276   1.745   0.009   1.361 -0.4751 -0.0386  0.4056
 8620SOL    HW131277   1.738  -0.085   1.397 -0.1413 -0.6842 -1.1722
 8620SOL    HW231278   1.656   0.053   1.365 -0.0920  0.6097  3.8282
 8621SOL     OW31279   8.980   3.940   2.708 -0.2635 -0.2610  0.1791
 8621SOL    HW131280   8.969   3.862   2.769 -0.9696 -0.0600  0.3216
 8621SOL    HW231281   8.947   4.023   2.755 -0.4052 -0.0366 -0.3132
 8622SOL     OW31282   8.498   2.643   3.382  0.2489 -0.0314 -0.6967
 8622SOL    HW131283   8.581   2.699   3.379 -1.6545  2.9749  1.5386
 8622SOL    HW231284   8.493   2.596   3.470 -0.9419  0.6106 -0.4198
 8623SOL     OW31285   4.516   4.446   0.059 -0.6945 -0.0297  0.4589
 8623SOL    HW131286   4.516   4.452  -0.041 -3.9131  1.4821  0.5010
 8623SOL    HW231287   4.484   4.355   0.086 -2.3494  0.4505  0.1265
 8625SOL     OW31288   8.290   7.931   1.122 -0.4639  0.1660  0.2597
 8625SOL    HW131289   8.365   7.956   1.184 -0.3637  0.8457 -0.1338
 8625SOL    HW231290   8.255   8.013   1.077 -1.4936 -0.1413  0.4906
 8626SOL     OW31291   6.832   8.911   2.269 -0.1652  0.7169  0.3961
 8626SOL    HW131292   6.844   8.879   2.364  0.6353 -1.8676 -0.5196
 8626SOL    HW231293   6.922   8.926   2.228 -0.5091  1.6606 -0.0209
 8630SOL     OW31294   3.870   5.450   2.517 -0.4932  0.3561  0.0150
 8630SOL    HW131295   3.910   5.358   2.515  0.3388  0.7317 -1.1036
 8630SOL    HW231296   3.773   5.445   2.493 -0.0395 -0.0354 -1.8350
 8631SOL     OW31297   9.661   8.665   3.156 -0.4235  0.3558  0.4180
 8631SOL    HW131298   9.603   8.744   3.174 -0.1370  0.5940  0.3017
 8631SOL    HW231299   9.604   8.589   3.122 -1.2987 -0.7955  4.2621
 8633SOL     OW31300   1.903   9.924   2.222 -0.0538 -0.8341  0.0680
 8633SOL    HW131301   1.848   9.985   2.166 -0.7439 -1.7673 -0.2799
 8633SOL    HW231302   1.955   9.862   2.163 -0.9940 -2.0088  0.4561
 8634SOL     OW31303   2.063   0.591   0.630 -0.3162  0.2837 -0.0688
 8634SOL    HW131304   2.059   0.571   0.532 -0.2064 -0.8684  0.1565
 8634SOL    HW231305   2.089   0.508   0.680 -1.4188  0.5843  1.0259
 8635SOL     OW31306   7.102   8.975   1.417 -1.0119 -0.3258 -0.4191
 8635SOL    HW131307   7.197   8.943   1.421 -0.2579  1.9996  1.2707
 8635SOL    HW231308   7.072   8.975   1.321  0.9156 -0.4708 -1.0628
 8636SOL     OW31309   5.141   0.445   2.863 -0.5811 -0.1017  0.0349
 8636SOL    HW131310   5.145   0.390   2.947 -0.0067  0.5094  0.4050
 8636SOL    HW231311   5.053   0.429   2.818 -0.7533 -0.6978  0.5678
 8638SOL     OW31312   9.997   3.140   3.272 -0.1709  0.3019 -0.4050
 8638SOL    HW131313  10.002   3.111   3.176 -1.3101  0.4718 -0.5235
 8638SOL    HW231314  10.019   3.237   3.279  0.5707  0.1321 -0.4111
 8639SOL     OW31315   0.965   2.526   2.029 -0.1939  0.1347  0.0397
 8639SOL    HW131316   1.020   2.461   2.082  2.0891  1.2394 -0.9060
 8639SOL    HW231317   0.960   2.613   2.078 -1.7556 -0.1996  0.4782
 8640SOL     OW31318   4.541   8.429   3.319 -0.0676 -0.2337  0.3017
 8640SOL    HW131319   4.542   8.501   3.388 -0.2729  0.1219 -0.0603
 8640SOL    HW231320   4.509   8.343   3.359  1.1200 -0.3706  0.9742
 8641SOL     OW31321   9.880   4.009   3.441 -0.6735  0.0474 -0.0738
 8641SOL    HW131322   9.904   3.925   3.391  1.2031  1.3844 -1.4608
 8641SOL    HW231323   9.960   4.040   3.493 -1.4712  0.7782  0.7160
 8642SOL     OW31324   8.728   0.999   2.584  0.1109 -0.8498  0.3737
 8642SOL    HW131325   8.765   0.911   2.613  0.6217 -1.1720 -1.1971
 8642SOL    HW231326   8.799   1.051   2.537 -0.6378 -0.2660 -0.1218
 8644SOL     OW31327   9.412   9.732   1.352  0.1710 -0.1041  0.0488
 8644SOL    HW131328   9.450   9.695   1.267 -0.3219  0.6077 -0.4851
 8644SOL    HW231329   9.415   9.662   1.423 -0.0263 -0.9151 -0.7327
 8645SOL     OW31330   6.656   7.255   2.219  0.1434 -0.3531 -0.2283
 8645SOL    HW131331   6.714   7.316   2.165 -1.6348  0.4845 -1.2348
 8645SOL    HW231332   6.666   7.277   2.316 -0.6609  1.7396 -0.5835
 8646SOL     OW31333   2.104   0.269   1.395  0.1766 -0.3807  0.3171
 8646SOL    HW131334   2.162   0.350   1.394  0.4234 -0.5404  1.1534
 8646SOL    HW231335   2.117   0.218   1.310 -0.5104  0.8237 -0.5111
 8648SOL     OW31336   0.057   1.409   3.208 -0.4067  0.4859  0.0431
 8648SOL    HW131337   0.140   1.369   3.169 -1.3090  0.4003 -1.8410
 8648SOL    HW231338   0.081   1.492   3.259  0.7729  0.7465 -0.9083
 8650SOL     OW31339   0.216   6.714   0.853 -0.4885 -0.4326  0.1342
 8650SOL    HW131340   0.314   6.719   0.874 -0.9073 -0.5107  2.2785
 8650SOL    HW231341   0.165   6.697   0.938 -2.1602 -3.0294 -1.3261
 8651SOL     OW31342   3.574   9.598   0.916  0.4019 -0.1499 -0.6309
 8651SOL    HW131343   3.516   9.595   0.998 -0.0247  0.0168 -0.9219
 8651SOL    HW231344   3.644   9.668   0.926 -0.2633  0.5552 -0.8077
 8652SOL     OW31345   1.162   6.247   3.358 -0.2429  0.0306 -0.5605
 8652SOL    HW131346   1.195   6.309   3.287 -0.6912  0.1262 -0.6875
 8652SOL    HW231347   1.234   6.232   3.425 -0.0281  0.4410 -0.6974
 8653SOL     OW31348   9.270   9.299   1.464  0.2699 -0.5816  0.1766
 8653SOL    HW131349   9.249   9.322   1.369 -1.0515  3.8128  1.4205
 8653SOL    HW231350   9.186   9.275   1.512  0.7307 -1.2612  0.6616
 8654SOL     OW31351   9.956   7.223   2.288 -0.0576  1.1610  0.2408
 8654SOL    HW131352   9.909   7.208   2.375 -1.3831  0.5050 -0.5625
 8654SOL    HW231353  10.036   7.163   2.282 -0.4004  0.6531  0.7019
 8655SOL     OW31354   2.155   8.601   2.650  0.1337  0.4382  0.5023
 8655SOL    HW131355   2.178   8.566   2.740  0.0594  1.3601  0.8827
 8655SOL    HW231356   2.204   8.549   2.580  0.8075  0.2439  1.1199
 8656SOL     OW31357   8.978   7.551   2.549  0.0932 -0.2932 -0.5159
 8656SOL    HW131358   9.029   7.467   2.566 -0.8414 -0.8019 -0.2314
 8656SOL    HW231359   8.885   7.542   2.583  0.1497  1.0712  0.0620
 8657SOL     OW31360   2.552   8.657   2.942 -0.3525  0.6278 -0.0505
 8657SOL    HW131361   2.531   8.563   2.969 -0.0321  0.8254  0.9238
 8657SOL    HW231362   2.496   8.720   2.995 -0.4975  0.9920 -0.6343
 8658SOL     OW31363   4.476   0.571   1.552 -0.2057 -0.2479 -0.1366
 8658SOL    HW131364   4.409   0.501   1.579 -0.4618 -0.5242 -1.4730
 8658SOL    HW231365   4.446   0.615   1.468  0.5903  0.6211  0.0274
 8660SOL     OW31366   4.859   9.675   1.364 -0.4667  0.2421  0.0549
 8660SOL    HW131367   4.903   9.635   1.284 -0.4581 -4.0748  2.0960
 8660SOL    HW231368   4.779   9.727   1.334  0.8978  0.7518 -2.9289
 8661SOL     OW31369   9.497   5.037   1.993  0.1168  0.1519  1.0263
 8661SOL    HW131370   9.536   5.048   1.902 -0.3643  0.7771  0.8888
 8661SOL    HW231371   9.521   4.947   2.029 -0.2380 -0.3620  0.0099
 8663SOL     OW31372   6.132   8.975   2.580 -0.4294 -0.6681  0.1490
 8663SOL    HW131373   6.226   8.942   2.575 -0.2637  0.1259 -2.2890
 8663SOL    HW231374   6.131   9.071   2.606 -0.3853  0.1036 -2.5654
 8665SOL     OW31375   2.063   5.275   2.946  0.1083 -0.4861 -0.1008
 8665SOL    HW131376   2.150   5.284   2.995  0.5192 -0.7026 -0.7779
 8665SOL    HW231377   2.071   5.319   2.856 -0.4965 -0.4632 -0.1435
 8666SOL     OW31378   2.474   4.664   1.031 -0.7570 -0.3873  0.2515
 8666SOL    HW131379   2.498   4.725   0.955 -0.0479 -2.2580 -1.0501
 8666SOL    HW231380   2.505   4.705   1.117  0.4961  0.6841 -0.6883
 8667SOL     OW31381   7.984   0.813   1.410 -0.2281 -0.1496 -0.0750
 8667SOL    HW131382   7.897   0.831   1.455 -0.3981 -1.7920  0.3155
 8667SOL    HW231383   8.059   0.838   1.471 -0.4140  1.0713 -0.3326
 8668SOL     OW31384   8.363   2.324   1.880 -0.2520  0.3816 -0.0360
 8668SOL    HW131385   8.348   2.356   1.974 -1.2015 -0.2086  0.0186
 8668SOL    HW231386   8.385   2.402   1.821 -1.8020  1.0487  0.2464
 8669SOL     OW31387   9.152   2.940   0.310  0.1119 -0.1702 -0.8850
 8669SOL    HW131388   9.093   3.013   0.345  0.7678 -0.1585  0.2355
 8669SOL    HW231389   9.203   2.973   0.231 -0.0687  0.3832 -0.7746
 8670SOL     OW31390   9.531   4.514   2.329  0.0287 -0.5214  0.1673
 8670SOL    HW131391   9.586   4.521   2.412  1.2609  1.2112 -0.7633
 8670SOL    HW231392   9.445   4.563   2.342  0.7925  0.9151  0.0056
 8671SOL     OW31393   5.049   6.502   2.833 -0.1916 -0.5656 -0.7763
 8671SOL    HW131394   5.014   6.426   2.779  0.5809 -0.8634 -0.8598
 8671SOL    HW231395   5.131   6.539   2.790  0.2104 -0.5568 -0.0124
 8672SOL     OW31396   1.516   5.851   1.124 -0.4719  0.2646  0.6351
 8672SOL    HW131397   1.481   5.944   1.127 -0.1154  0.3837  1.2832
 8672SOL    HW231398   1.448   5.788   1.162 -0.9396  0.1874 -0.3279
 8673SOL     OW31399   2.379   3.128   1.151  0.8579  0.4249 -0.1227
 8673SOL    HW131400   2.408   3.036   1.176  1.1452  0.8178  1.0135
 8673SOL    HW231401   2.311   3.123   1.078  0.1187 -0.7280  0.6267
 8674SOL     OW31402   8.136   9.827   3.005 -0.6459  0.6131  0.2144
 8674SOL    HW131403   8.176   9.796   2.918 -2.0461 -0.5005 -0.0370
 8674SOL    HW231404   8.180   9.913   3.032  0.0077  0.8263 -1.4448
 8675SOL     OW31405   3.548   3.539   2.728 -0.4980 -0.4022  0.0966
 8675SOL    HW131406   3.499   3.625   2.714 -0.9848 -0.3045  2.1686
 8675SOL    HW231407   3.578   3.533   2.824 -1.3743 -2.9983  0.2390
 8676SOL     OW31408   9.124   7.075   0.491  0.2112 -0.4771 -0.0276
 8676SOL    HW131409   9.125   7.047   0.394 -0.9014  0.7203 -0.4001
 8676SOL    HW231410   9.172   7.162   0.501  1.2326 -1.1199  0.6773
 8678SOL     OW31411   9.946   4.751   1.992  0.0283 -0.2094 -0.0275
 8678SOL    HW131412   9.875   4.683   2.012  0.7959 -0.5134  1.7677
 8678SOL    HW231413  10.031   4.704   1.969 -0.1564  0.1531 -1.4657
 8679SOL     OW31414   9.537   9.835   2.535 -0.9469  0.4846 -0.4162
 8679SOL    HW131415   9.576   9.867   2.449 -2.9486  2.2689 -0.6992
 8679SOL    HW231416   9.455   9.781   2.516  0.6457 -2.2765  0.2295
 8680SOL     OW31417   7.142   9.752   2.780 -0.3422 -0.0509 -0.7163
 8680SOL    HW131418   7.174   9.774   2.688 -0.1078 -0.7084 -0.7932
 8680SOL    HW231419   7.125   9.836   2.831 -0.0322  0.3068 -1.2099
 8681SOL     OW31420   2.216   1.513   2.880 -0.4440 -0.1564 -0.3913
 8681SOL    HW131421   2.150   1.473   2.817 -0.9867 -0.3469  0.2871
 8681SOL    HW231422   2.287   1.446   2.902  0.1320  0.1406 -1.3402
 8683SOL     OW31423   9.076   0.254   2.043 -0.5447 -0.7279  0.0030
 8683SOL    HW131424   9.148   0.251   2.112  0.6582  0.3085 -1.1776
 8683SOL    HW231425   9.016   0.333   2.060  1.0502  0.8408 -1.3461
 8684SOL     OW31426   5.022   7.477   3.560  0.6427  0.2100 -0.3538
 8684SOL    HW131427   5.099   7.540   3.552  1.5611 -1.0769 -1.9783
 8684SOL    HW231428   4.944   7.513   3.509  0.7119  0.6895 -0.1282
 8685SOL     OW31429   9.332   0.611   3.397  0.2441 -0.0825 -0.4216
 8685SOL    HW131430   9.331   0.670   3.317  0.3335 -1.1644 -1.2314
 8685SOL    HW231431   9.425   0.606   3.434  0.7802 -1.8152 -1.9424
 8687SOL     OW31432   2.431   5.142   2.668 -0.6739  0.2262 -0.0413
 8687SOL    HW131433   2.419   5.094   2.755 -0.3728 -0.0979 -0.1781
 8687SOL    HW231434   2.465   5.078   2.599 -0.7784  0.5145 -0.3627
 8688SOL     OW31435   1.667   3.504   1.062 -0.6207 -0.0584  0.2800
 8688SOL    HW131436   1.631   3.421   1.018  0.2329 -0.4923  0.3936
 8688SOL    HW231437   1.753   3.531   1.018  0.5768 -0.8504  2.0610
 8689SOL     OW31438   1.013   2.403   0.553  0.0771 -0.7692  0.2165
 8689SOL    HW131439   0.980   2.312   0.575 -0.5759 -1.4997 -3.4517
 8689SOL    HW231440   0.935   2.465   0.541  0.4002 -0.3856  0.0699
 8690SOL     OW31441   0.838   2.095   2.659 -0.5248  0.1955 -0.5704
 8690SOL    HW131442   0.898   2.016   2.648  0.0655  0.8642 -2.1959
 8690SOL    HW231443   0.759   2.085   2.598 -1.0125  0.3217  0.0408
 8691SOL     OW31444   3.677   6.755   3.474  0.1499 -0.4340  1.0518
 8691SOL    HW131445   3.640   6.670   3.436  0.0435 -0.0346  0.2776
 8691SOL    HW231446   3.753   6.733   3.535  2.0001 -0.8994 -1.3890
 8692SOL     OW31447   3.972   0.776   1.333 -0.1652 -0.5206 -0.0392
 8692SOL    HW131448   3.913   0.826   1.269  1.0523  1.0221 -0.0072
 8692SOL    HW231449   4.022   0.705   1.283 -1.1958 -1.0842 -0.2806
 8696SOL     OW31450   7.738   9.885   2.215  0.0997 -0.0993  0.3966
 8696SOL    HW131451   7.750   9.948   2.292 -0.2025 -0.4867  0.7612
 8696SOL    HW231452   7.779   9.796   2.238 -1.0228 -0.5764  0.5686
 8697SOL     OW31453   9.519   3.604   1.437  0.2446 -0.1417 -0.3083
 8697SOL    HW131454   9.506   3.703   1.425  0.7196  0.2413  2.1441
 8697SOL    HW231455   9.616   3.582   1.427  0.2660 -0.2202  0.0625
 8698SOL     OW31456   8.186   9.161   1.443  0.9888 -0.1463  0.0210
 8698SOL    HW131457   8.197   9.101   1.364  0.6554 -1.0793  0.6822
 8698SOL    HW231458   8.234   9.122   1.522  2.2712  1.3396  0.0077
 8699SOL     OW31459   2.070   9.541   3.505  0.7245  0.2139 -0.1925
 8699SOL    HW131460   2.044   9.504   3.594 -1.7784  1.9553 -0.1436
 8699SOL    HW231461   2.169   9.554   3.502  1.0828 -1.8079  1.5513
 8700SOL     OW31462   2.082   3.347   0.116 -0.3702 -0.3503 -0.0519
 8700SOL    HW131463   1.999   3.400   0.137 -0.5266  0.2662 -2.1575
 8700SOL    HW231464   2.147   3.405   0.068  0.7558 -1.2111  0.4172
 8701SOL     OW31465   9.561   0.610   1.266 -0.2495  0.4599  0.3226
 8701SOL    HW131466   9.577   0.707   1.283  0.0141  0.9258 -2.3878
 8701SOL    HW231467   9.542   0.564   1.353  2.2963  2.3989  1.9985
 8702SOL     OW31468   9.448   9.565   0.249  0.2562  0.1470 -0.2189
 8702SOL    HW131469   9.488   9.649   0.211  2.1301 -1.2667 -1.4596
 8702SOL    HW231470   9.499   9.537   0.330  0.4838 -0.5215 -0.5887
 8703SOL     OW31471   0.731   8.862   0.871 -0.1174 -0.2082  0.0587
 8703SOL    HW131472   0.759   8.773   0.907  1.0956 -0.1392 -0.6785
 8703SOL    HW231473   0.705   8.852   0.775  0.4468  0.2939 -0.1542
 8704SOL     OW31474   5.334   9.546   1.223  0.2787  0.4265  0.5416
 8704SOL    HW131475   5.418   9.492   1.219  0.1556  0.3522 -1.6777
 8704SOL    HW231476   5.354   9.641   1.201  0.1103  0.8400  2.1245
 8705SOL     OW31477   9.962   0.998   0.586  0.1143 -0.3801  0.4168
 8705SOL    HW131478  10.056   1.031   0.585 -0.5950  1.7670  1.6739
 8705SOL    HW231479   9.925   1.002   0.679 -1.9198  0.9281 -0.3987
 8708SOL     OW31480   3.782   9.879   2.564  0.1901  0.4322 -0.5402
 8708SOL    HW131481   3.690   9.887   2.526 -0.1445 -0.7135  0.0220
 8708SOL    HW231482   3.843   9.838   2.496  0.2958  1.1797 -0.9080
 8710SOL     OW31483   2.827   4.131   0.693 -0.2600  0.6392  0.1990
 8710SOL    HW131484   2.818   4.231   0.696  0.8897  0.7352  1.0419
 8710SOL    HW231485   2.893   4.102   0.762 -0.5231 -0.7026 -0.1062
 8711SOL     OW31486   0.283   3.720   0.334 -0.2027  0.4558  0.2601
 8711SOL    HW131487   0.365   3.677   0.371  0.5355  0.9709 -0.7612
 8711SOL    HW231488   0.308   3.805   0.288 -1.0400 -0.3472 -1.7331
 8712SOL     OW31489   2.695   2.564   3.743  0.3301 -0.0830  0.2589
 8712SOL    HW131490   2.636   2.625   3.690  1.1873  0.8221  0.3295
 8712SOL    HW231491   2.655   2.547   3.833  0.9610  1.8372  0.9183
 8714SOL     OW31492   2.077   6.080   3.420 -0.4765 -0.0993  0.2946
 8714SOL    HW131493   1.988   6.124   3.409  0.0275  0.4086 -2.0374
 8714SOL    HW231494   2.148   6.150   3.420  0.0775 -0.6603 -0.0882
 8715SOL     OW31495   8.042   2.841   2.822  0.1322 -0.1471  0.0679
 8715SOL    HW131496   8.048   2.840   2.922 -0.1897  0.3676  0.0944
 8715SOL    HW231497   8.134   2.837   2.783  0.2589 -0.3833  0.3838
 8716SOL     OW31498   1.516   3.832   3.160 -0.1718 -0.6145  0.1361
 8716SOL    HW131499   1.568   3.823   3.246  0.3197 -0.4067 -0.1342
 8716SOL    HW231500   1.478   3.924   3.154 -1.2639 -1.0253  0.7167
 8717SOL     OW31501   4.822   3.915   1.297 -0.3518  0.4076  0.1173
 8717SOL    HW131502   4.824   3.965   1.210  1.1161  0.5103  0.1908
 8717SOL    HW231503   4.780   3.971   1.368  1.3121  1.5526  0.2070
 8718SOL     OW31504   2.141   6.419   3.083  0.5539 -0.2489  0.7087
 8718SOL    HW131505   2.176   6.375   3.166 -0.2860 -1.6595  0.3391
 8718SOL    HW231506   2.214   6.423   3.014  0.5796 -1.3146  0.6610
 8720SOL     OW31507   0.816   6.102   2.950  0.1673  0.1193  0.3645
 8720SOL    HW131508   0.836   6.051   3.034 -0.0872 -3.5596 -1.7075
 8720SOL    HW231509   0.900   6.116   2.898 -0.0806 -0.0410 -0.0821
 8721SOL     OW31510   7.744   2.242   3.639  0.9279  0.0623  0.1981
 8721SOL    HW131511   7.696   2.190   3.710 -0.2334  1.5395  0.5065
 8721SOL    HW231512   7.794   2.318   3.680  1.2070  0.2308 -0.4339
 8723SOL     OW31513   0.912   8.479   1.230 -0.1252  0.3470  0.3565
 8723SOL    HW131514   0.819   8.445   1.219  0.8121 -1.8635 -1.1700
 8723SOL    HW231515   0.915   8.576   1.205 -1.3184 -0.4879 -3.4847
 8724SOL     OW31516   9.162   6.343   2.515  0.0152 -0.1310  0.0676
 8724SOL    HW131517   9.077   6.362   2.465  1.6264  3.9364 -1.2940
 8724SOL    HW231518   9.228   6.301   2.454 -0.2386 -1.2312  0.5423
 8725SOL     OW31519   9.817   5.838   2.111  0.7836  0.2259  0.0271
 8725SOL    HW131520   9.726   5.808   2.138  0.1871  2.0147  0.1099
 8725SOL    HW231521   9.816   5.871   2.017  1.6930 -1.1550 -0.4786
 8726SOL     OW31522   2.665   7.965   0.884 -0.2328 -0.2737 -0.2972
 8726SOL    HW131523   2.594   7.895   0.878 -1.2775  0.9605 -3.3409
 8726SOL    HW231524   2.739   7.942   0.820  0.0303  0.7000 -0.3490
 8727SOL     OW31525   3.176   2.309   1.616 -0.6290 -0.6967 -0.1342
 8727SOL    HW131526   3.225   2.276   1.535 -0.8126  1.9597 -1.3940
 8727SOL    HW231527   3.085   2.340   1.589 -1.6319 -2.0525  1.5528
 8729SOL     OW31528   9.557   5.479   0.625  0.1966  0.1244  0.6658
 8729SOL    HW131529   9.521   5.388   0.604  2.7736 -0.5784 -0.8889
 8729SOL    HW231530   9.526   5.543   0.555 -2.1019  0.6356  2.0741
 8731SOL     OW31531   2.337   3.397   1.200 -0.5283  0.0850 -0.3606
 8731SOL    HW131532   2.376   3.305   1.195  0.0061  0.1392  2.0598
 8731SOL    HW231533   2.246   3.397   1.158 -1.0765 -1.8833  0.7439
 8732SOL     OW31534   4.024   9.063   1.655 -0.2325 -0.4267  0.6015
 8732SOL    HW131535   4.019   9.042   1.752  1.8753 -1.0191  0.6129
 8732SOL    HW231536   3.983   9.152   1.637 -1.6107 -0.8002  1.8595
 8734SOL     OW31537   8.375   2.047   1.852 -0.1048 -0.3159 -0.1440
 8734SOL    HW131538   8.355   2.142   1.829  0.7636 -0.1069 -0.0594
 8734SOL    HW231539   8.465   2.041   1.894 -0.5250 -1.0677  0.6650
 8736SOL     OW31540   1.165   5.252   0.874 -0.1743 -0.3404  0.0709
 8736SOL    HW131541   1.122   5.169   0.839 -0.5461 -0.0578 -0.1380
 8736SOL    HW231542   1.095   5.318   0.898  0.0974 -0.2974  0.7703
 8737SOL     OW31543   0.380   7.421   1.300 -0.2229 -0.3563 -0.5418
 8737SOL    HW131544   0.413   7.445   1.209 -0.8888 -0.4766 -0.8177
 8737SOL    HW231545   0.368   7.322   1.305 -1.8223 -0.1877 -0.8820
 8738SOL     OW31546   6.578   9.236   1.715  0.3409  0.7718  0.6938
 8738SOL    HW131547   6.658   9.293   1.697  1.2924 -0.3578  1.3205
 8738SOL    HW231548   6.519   9.281   1.782 -0.4197  2.3937 -1.0149
 8739SOL     OW31549   3.920   9.444   0.624 -0.6521 -0.0830 -0.7409
 8739SOL    HW131550   3.902   9.444   0.723 -0.2304  0.0875 -0.6607
 8739SOL    HW231551   3.979   9.521   0.602 -1.1403  0.1582 -1.2055
 8741SOL     OW31552   8.984   8.558   3.111  0.3385  0.0881  0.8222
 8741SOL    HW131553   9.021   8.468   3.088 -0.5047  0.3310 -1.6954
 8741SOL    HW231554   8.962   8.562   3.208  1.5986 -1.9647  1.2245
 8743SOL     OW31555   8.700   0.179   1.685  0.1197  0.0755 -0.1375
 8743SOL    HW131556   8.659   0.267   1.663  1.3495  1.1883  1.9371
 8743SOL    HW231557   8.799   0.185   1.680  0.2173 -1.2630 -0.1842
 8744SOL     OW31558   9.326   6.959   3.626  0.0781  0.3492 -0.6214
 8744SOL    HW131559   9.328   6.976   3.724  0.4902  0.2183 -0.6072
 8744SOL    HW231560   9.417   6.973   3.587 -0.5363  2.4548 -1.3395
 8746SOL     OW31561   9.168   9.181   1.828  0.0467  0.5807 -0.6570
 8746SOL    HW131562   9.126   9.221   1.747 -1.6139 -0.4295 -0.3186
 8746SOL    HW231563   9.120   9.214   1.910  2.0676  2.0511 -0.0099
 8748SOL     OW31564   0.477   0.759   0.366 -0.2603  0.4441 -0.1585
 8748SOL    HW131565   0.466   0.812   0.282  1.9094  0.2579 -0.6006
 8748SOL    HW231566   0.410   0.686   0.369 -2.2807  2.2268 -0.3011
 8749SOL     OW31567   3.217   1.502   1.185 -0.2586 -0.0440  0.5293
 8749SOL    HW131568   3.310   1.540   1.185  0.0260 -0.7103  1.6760
 8749SOL    HW231569   3.220   1.405   1.209 -1.2735 -0.0086  0.8339
 8751SOL     OW31570   9.681   1.867   2.302  0.1984 -0.0675  0.1228
 8751SOL    HW131571   9.594   1.845   2.346 -0.6194  0.0296 -1.3888
 8751SOL    HW231572   9.743   1.789   2.309 -0.2654 -0.3944  0.6104
 8752SOL     OW31573   3.738   1.071   0.739 -0.1131  1.0725  0.6219
 8752SOL    HW131574   3.763   1.006   0.811  0.7167  1.9988  1.1831
 8752SOL    HW231575   3.787   1.047   0.655 -1.4599 -0.3052  0.2024
 8753SOL     OW31576   2.971   8.277   1.600 -0.3579  0.1685  0.3462
 8753SOL    HW131577   3.016   8.303   1.686  0.9703  0.1525 -0.3346
 8753SOL    HW231578   2.982   8.179   1.585  0.6254  0.4047 -0.5297
 8754SOL     OW31579   2.474   6.615   3.667 -0.5231 -0.1143  0.1259
 8754SOL    HW131580   2.532   6.664   3.733 -2.0706 -0.5167  1.8243
 8754SOL    HW231581   2.417   6.681   3.619 -1.4349 -0.0744  1.2443
 8755SOL     OW31582   2.940   4.735   1.053  0.2529 -0.4697  0.2027
 8755SOL    HW131583   2.946   4.713   1.150  0.0229 -0.2316  0.2714
 8755SOL    HW231584   3.004   4.678   1.002 -0.6298 -1.5914  0.3243
 8756SOL     OW31585   7.277   8.224   2.696  0.5678 -0.0135  0.2238
 8756SOL    HW131586   7.191   8.271   2.676  0.0967  0.2133  2.6722
 8756SOL    HW231587   7.260   8.126   2.704  0.8947 -0.1967 -1.1295
 8757SOL     OW31588   9.395   4.796   2.514 -0.2615  0.3632 -0.0531
 8757SOL    HW131589   9.351   4.770   2.428  0.0096 -1.8474  0.4425
 8757SOL    HW231590   9.402   4.895   2.519 -0.9867  0.5549 -2.2298
 8758SOL     OW31591   1.491   6.640   2.223 -0.2786  0.7144  0.0283
 8758SOL    HW131592   1.393   6.633   2.207 -0.2750  1.7170 -0.4244
 8758SOL    HW231593   1.513   6.596   2.310 -0.6512 -2.5257 -1.4262
 8760SOL     OW31594   8.926   0.354   1.662 -0.5887  0.3785 -0.4700
 8760SOL    HW131595   8.973   0.286   1.718 -0.1250  0.8290 -0.3076
 8760SOL    HW231596   8.911   0.437   1.717  0.9183  1.2648 -1.3634
 8761SOL     OW31597   9.359   7.703   2.597  0.3257 -0.2178 -0.6648
 8761SOL    HW131598   9.392   7.699   2.502  0.6331  1.9342 -0.6563
 8761SOL    HW231599   9.391   7.621   2.646  0.0218 -1.4367 -2.4425
 8762SOL     OW31600   2.995   9.042   1.324 -0.3947 -0.0290 -0.0613
 8762SOL    HW131601   2.900   9.039   1.357 -0.5553  2.0839 -0.2928
 8762SOL    HW231602   2.995   9.034   1.225 -0.3796  0.7373 -0.1223
 8763SOL     OW31603   9.105   8.216   3.057  0.6315 -0.3531  0.4136
 8763SOL    HW131604   9.076   8.214   3.152  2.1335  0.2835  0.8838
 8763SOL    HW231605   9.067   8.136   3.009  0.6138 -1.1617  1.7531
 8764SOL     OW31606   5.895   0.884   2.035 -0.2032  0.3300  0.2109
 8764SOL    HW131607   5.797   0.887   2.053 -0.0309  2.6889  0.9292
 8764SOL    HW231608   5.911   0.874   1.937 -1.1683  0.6192  0.0201
 8767SOL     OW31609   3.505   4.045   1.591  0.0592 -0.1863  0.2962
 8767SOL    HW131610   3.449   3.988   1.651  1.1175  0.2425  1.7248
 8767SOL    HW231611   3.450   4.117   1.551 -1.2960 -2.1485 -1.4933
 8768SOL     OW31612   4.019   7.032   3.424 -0.3776  0.1596 -0.1146
 8768SOL    HW131613   3.928   7.074   3.421 -0.3239  0.2729 -0.1476
 8768SOL    HW231614   4.045   7.017   3.519 -1.1670 -1.4815 -0.1419
 8769SOL     OW31615   9.233   9.873   1.501 -0.2348  0.0872  0.5507
 8769SOL    HW131616   9.145   9.833   1.476 -0.5860  1.0634  0.2273
 8769SOL    HW231617   9.304   9.837   1.440 -0.9746  1.9329 -1.4697
 8770SOL     OW31618   7.509   0.402   1.826  0.4152  0.1901  0.1174
 8770SOL    HW131619   7.479   0.306   1.823  1.5085 -0.1290 -0.8234
 8770SOL    HW231620   7.606   0.406   1.847  0.4783  1.0874 -0.3399
 8772SOL     OW31621   9.975   9.340   2.049 -0.0117 -0.1601 -0.4776
 8772SOL    HW131622  10.060   9.347   1.996  0.5460 -2.3045  0.0836
 8772SOL    HW231623   9.900   9.313   1.988  0.4517 -1.7432 -0.3827
 8773SOL     OW31624   9.703   3.524   2.590  0.3164 -0.4749 -0.0704
 8773SOL    HW131625   9.692   3.619   2.618  0.2902 -0.0416 -1.4858
 8773SOL    HW231626   9.613   3.480   2.584  0.2447 -0.2905 -0.3782
 8777SOL     OW31627   5.822   8.228   2.255  0.4154 -0.2616 -0.1234
 8777SOL    HW131628   5.909   8.181   2.240  0.5729 -0.1776  0.5175
 8777SOL    HW231629   5.798   8.279   2.173  0.0753 -1.7261 -0.9554
 8778SOL     OW31630   4.681   0.961   0.284 -0.3472 -0.3842  0.1280
 8778SOL    HW131631   4.726   1.033   0.232  1.0967 -0.8508  0.6849
 8778SOL    HW231632   4.715   0.962   0.378  1.7841 -3.5028 -0.5253
 8779SOL     OW31633   4.320   9.624   2.306  0.1385 -0.0346 -0.6840
 8779SOL    HW131634   4.417   9.647   2.310  0.0728  0.2608 -0.7672
 8779SOL    HW231635   4.297   9.591   2.215  0.2051 -0.3116 -0.6024
 8780SOL     OW31636   2.784   3.423   1.780  0.2894 -0.1682  0.0139
 8780SOL    HW131637   2.807   3.414   1.683  0.7907  0.6674  0.0590
 8780SOL    HW231638   2.804   3.337   1.826 -0.4865 -0.7640 -0.7269
 8781SOL     OW31639   2.529   5.142   1.127  0.2395 -0.4167 -0.2303
 8781SOL    HW131640   2.445   5.089   1.114  1.0785 -1.0095 -3.7842
 8781SOL    HW231641   2.606   5.080   1.144  0.5592 -0.1334 -0.6095
 8782SOL     OW31642   0.275   6.303   2.091  0.6875  0.4137  0.0363
 8782SOL    HW131643   0.195   6.361   2.075 -0.7935 -1.9092 -1.1047
 8782SOL    HW231644   0.286   6.290   2.190 -0.4524  0.5972  0.1995
 8783SOL     OW31645   2.924   3.331   2.674 -0.3339 -0.0673 -0.0799
 8783SOL    HW131646   2.891   3.424   2.693 -1.9344 -0.4642 -0.7859
 8783SOL    HW231647   3.013   3.318   2.716 -0.9252  1.1811  1.6191
 8785SOL     OW31648   9.337   3.963   0.047 -0.3183  0.6081  0.0810
 8785SOL    HW131649   9.425   3.928   0.017 -0.1134  1.6221 -0.5332
 8785SOL    HW231650   9.326   3.945   0.145  0.5097  0.3610  0.1364
 8786SOL     OW31651   2.915   7.246   3.075  0.0861  0.0440  0.0192
 8786SOL    HW131652   2.839   7.199   3.030 -1.0619  0.9668  0.9699
 8786SOL    HW231653   2.989   7.181   3.092 -1.0646 -1.1878  0.3887
 8787SOL     OW31654   1.794   8.205   1.401  0.3865  0.0532  0.5234
 8787SOL    HW131655   1.756   8.145   1.331  1.2142 -0.6792  0.6928
 8787SOL    HW231656   1.750   8.295   1.396 -1.4754 -0.8144  0.8177
 8788SOL     OW31657   5.966   0.250   2.852 -0.2091 -0.3865 -0.1326
 8788SOL    HW131658   5.910   0.213   2.778  1.5612  0.0886 -1.7234
 8788SOL    HW231659   5.946   0.200   2.937 -1.0925 -1.9944 -1.2614
 8790SOL     OW31660   1.588   3.765   0.054  0.2665 -0.1093  0.0456
 8790SOL    HW131661   1.569   3.706   0.132 -0.0026 -0.3977 -0.2355
 8790SOL    HW231662   1.655   3.834   0.080 -0.2243  0.1276  0.6839
 8791SOL     OW31663   0.578   9.296   3.395 -0.4174  0.2029  0.2896
 8791SOL    HW131664   0.580   9.378   3.452  0.9634  0.7312 -0.4938
 8791SOL    HW231665   0.552   9.321   3.302  1.6365  0.0406 -0.3574
 8792SOL     OW31666   0.548   2.481   1.566  0.1491  0.2861 -0.2429
 8792SOL    HW131667   0.533   2.577   1.542  0.2196  0.2341 -0.4929
 8792SOL    HW231668   0.621   2.443   1.509  1.6924  0.7147  1.3661
 8793SOL     OW31669   8.063   0.827   3.617  0.3458 -0.2487 -0.3490
 8793SOL    HW131670   8.059   0.813   3.715 -0.0690  0.7521 -0.2145
 8793SOL    HW231671   8.052   0.924   3.596 -1.4598 -0.6641 -1.4793
 8794SOL     OW31672   8.059   1.443   3.590 -0.0472 -0.3807 -0.1507
 8794SOL    HW131673   7.982   1.424   3.529  0.5262 -0.0423 -0.9845
 8794SOL    HW231674   8.144   1.414   3.547  0.4671  0.7852  0.0615
 8795SOL     OW31675   1.171   6.415   3.133 -0.5957 -0.5147 -0.0512
 8795SOL    HW131676   1.073   6.411   3.115 -0.6969  0.1408  0.3365
 8795SOL    HW231677   1.200   6.511   3.139  0.2183 -0.6984 -0.9732
 8796SOL     OW31678   9.168   1.364   0.508 -0.2377  0.2337 -0.0883
 8796SOL    HW131679   9.100   1.404   0.570 -1.2120  0.0479 -1.0127
 8796SOL    HW231680   9.234   1.310   0.560 -0.5731  0.7461  0.8684
 8797SOL     OW31681   1.124   0.332   2.727  0.5320 -0.1626  0.0983
 8797SOL    HW131682   1.223   0.346   2.723  0.4356  0.7574  0.7366
 8797SOL    HW231683   1.087   0.326   2.635  1.2384 -0.9233 -0.1411
 8798SOL     OW31684   2.935   8.132   1.081  0.1395 -0.1418  0.7319
 8798SOL    HW131685   2.957   8.057   1.143  2.2070  0.9127  1.3320
 8798SOL    HW231686   2.960   8.105   0.988  0.6863 -0.2642  0.9128
 8799SOL     OW31687   1.437   6.640   1.603 -0.0798 -0.3958 -0.4603
 8799SOL    HW131688   1.444   6.673   1.697 -1.8767  0.0925 -0.4867
 8799SOL    HW231689   1.527   6.644   1.559  0.1643  2.2890  0.2425
 8800SOL     OW31690   0.841   5.682   1.338 -0.4309  0.0413  0.1586
 8800SOL    HW131691   0.854   5.595   1.292 -1.9316 -0.3967  0.5321
 8800SOL    HW231692   0.893   5.683   1.424  1.8722  0.6266 -1.2227
 8801SOL     OW31693   8.232   9.154   0.102 -0.2274  0.0242 -0.2255
 8801SOL    HW131694   8.188   9.065   0.096 -0.6558  0.3223 -1.6429
 8801SOL    HW231695   8.309   9.158   0.038 -0.0183  0.5670  0.0520
 8802SOL     OW31696   7.962   6.953   1.941  0.4018 -0.2548 -0.4886
 8802SOL    HW131697   7.961   6.890   1.864 -0.1237  0.0948 -0.7712
 8802SOL    HW231698   8.033   7.023   1.926  0.3465 -0.2276 -0.6212
 8804SOL     OW31699   4.690   3.664   1.255  0.0992 -0.2955  0.2246
 8804SOL    HW131700   4.728   3.580   1.216  0.3163 -0.0920 -0.0036
 8804SOL    HW231701   4.762   3.733   1.260 -0.4784  0.4045 -1.0993
 8805SOL     OW31702   3.889   8.472   2.348  0.1981 -0.2738  0.2007
 8805SOL    HW131703   3.944   8.465   2.431  0.4057 -2.3240 -0.0616
 8805SOL    HW231704   3.941   8.522   2.278  1.4499 -1.4763  0.2280
 8807SOL     OW31705   5.170   8.697   2.544  0.1750  0.1685  0.7532
 8807SOL    HW131706   5.216   8.727   2.627  2.6967  1.3388 -1.0005
 8807SOL    HW231707   5.191   8.601   2.526  0.7511  0.2992  0.7347
 8808SOL     OW31708   3.732   7.060   2.800 -0.5608 -0.0975  0.2430
 8808SOL    HW131709   3.689   7.105   2.722  0.0861  1.0751  0.5559
 8808SOL    HW231710   3.814   7.011   2.770 -0.9052 -0.5308  0.0092
 8809SOL     OW31711   9.840   9.115   1.498 -0.3207 -0.3101  0.5950
 8809SOL    HW131712   9.761   9.094   1.557 -1.8320  0.7178 -0.9966
 8809SOL    HW231713   9.875   9.206   1.522 -1.2727  0.3388 -0.4018
 8810SOL     OW31714   9.256   5.689   2.921  0.3881 -0.1126  0.2960
 8810SOL    HW131715   9.317   5.609   2.917  0.9923  0.2735  1.5555
 8810SOL    HW231716   9.246   5.718   3.016 -1.0816  0.3674  0.0035
 8811SOL     OW31717   4.467   3.587   1.423 -0.6571  0.1761  0.1264
 8811SOL    HW131718   4.474   3.492   1.454 -0.3945  0.7477  1.8899
 8811SOL    HW231719   4.557   3.619   1.396 -0.4331  0.4302  1.1359
 8812SOL     OW31720   9.751   7.699   2.051 -0.7171  0.3522  0.2637
 8812SOL    HW131721   9.768   7.644   2.133  1.1682  1.0465  0.3682
 8812SOL    HW231722   9.775   7.645   1.970 -3.5226 -0.6970  0.0566
 8813SOL     OW31723   8.828   1.831   1.890 -0.0988  0.0979  0.2015
 8813SOL    HW131724   8.904   1.767   1.894 -0.0018  0.1695 -0.4710
 8813SOL    HW231725   8.812   1.858   1.795 -0.0226  1.2102  0.5032
 8814SOL     OW31726   6.805   0.577   2.027 -0.3210 -0.5359 -0.0297
 8814SOL    HW131727   6.838   0.671   2.027 -1.4124 -0.1461 -0.6374
 8814SOL    HW231728   6.810   0.540   2.120 -0.3751  0.2945  0.3021
 8815SOL     OW31729   3.034   3.096   0.461  0.4290 -0.9060 -0.0249
 8815SOL    HW131730   3.090   3.044   0.397  0.3674  0.2676 -1.0617
 8815SOL    HW231731   2.954   3.042   0.487  0.1449 -1.1649 -1.4174
 8816SOL     OW31732   7.745   1.632   1.681  0.6748 -0.0357  0.8512
 8816SOL    HW131733   7.722   1.656   1.775 -0.3446  0.0680  0.5744
 8816SOL    HW231734   7.826   1.573   1.681  1.2630  0.7613  1.7257
 8817SOL     OW31735   4.372   1.042   2.618 -0.1881  0.2569 -0.7232
 8817SOL    HW131736   4.316   1.008   2.542 -1.4879  1.3834 -0.2847
 8817SOL    HW231737   4.440   1.107   2.583 -1.0465  1.0756 -0.8740
 8818SOL     OW31738   8.352   1.426   2.085  0.1475  0.3432  0.4299
 8818SOL    HW131739   8.259   1.389   2.082  0.1785  0.3320 -0.9295
 8818SOL    HW231740   8.417   1.351   2.098  0.1446 -0.0061 -1.3876
 8819SOL     OW31741   9.435   7.911   0.425 -0.3899 -0.2381  0.2769
 8819SOL    HW131742   9.533   7.905   0.404 -0.6843 -1.1824 -0.9176
 8819SOL    HW231743   9.388   7.832   0.385 -1.6508  0.2465  0.7815
 8823SOL     OW31744   7.598   2.220   0.926 -0.1771 -0.2260  0.1883
 8823SOL    HW131745   7.582   2.142   0.865  0.6430 -0.2401 -0.0105
 8823SOL    HW231746   7.544   2.208   1.010 -1.2598 -0.2313 -0.4994
 8824SOL     OW31747   0.886   1.270   0.396  0.4410  0.3652 -0.3596
 8824SOL    HW131748   0.788   1.286   0.411  0.1442 -0.6136 -1.1523
 8824SOL    HW231749   0.936   1.289   0.480 -0.8817 -2.7045  1.2289
 8826SOL     OW31750   4.431   3.282   2.539  0.1723  0.4689  0.1146
 8826SOL    HW131751   4.357   3.309   2.601  1.2169 -0.3576  1.7681
 8826SOL    HW231752   4.519   3.312   2.577  1.0783 -2.4092  0.4575
 8827SOL     OW31753   5.495   9.312   2.682 -0.1657 -0.2378 -0.0330
 8827SOL    HW131754   5.401   9.290   2.657 -0.2324 -0.7916  0.6706
 8827SOL    HW231755   5.549   9.228   2.687 -0.0518 -0.1025  1.2048
 8829SOL     OW31756   1.160   1.885   2.918 -0.2928  0.4511 -0.2998
 8829SOL    HW131757   1.081   1.937   2.951 -0.8737 -0.6607  0.0755
 8829SOL    HW231758   1.244   1.925   2.955 -0.8463  0.0600  1.3811
 8830SOL     OW31759   4.057   8.984   3.514  0.2000 -0.3332 -0.5893
 8830SOL    HW131760   4.046   8.895   3.559  0.8061  0.2472  0.7615
 8830SOL    HW231761   4.026   8.978   3.420  0.4842 -2.0557 -0.5968
 8831SOL     OW31762   8.102   6.813   1.355 -0.2923 -0.2172 -0.1765
 8831SOL    HW131763   8.034   6.761   1.408 -0.3743 -1.5873 -1.6069
 8831SOL    HW231764   8.111   6.772   1.264 -0.4541  2.3603 -1.3788
 8832SOL     OW31765   0.557   6.864   3.691 -0.0299 -0.4017 -0.5912
 8832SOL    HW131766   0.487   6.876   3.620  0.0807  1.1716 -0.4624
 8832SOL    HW231767   0.534   6.785   3.748 -0.9855 -0.7036 -1.3735
 8833SOL     OW31768   1.825   1.724   0.247 -0.1658  0.6203 -0.5574
 8833SOL    HW131769   1.837   1.805   0.189 -0.6478  0.7768 -0.4395
 8833SOL    HW231770   1.776   1.749   0.330 -1.3676 -0.0045 -1.0524
 8834SOL     OW31771   5.850   8.248   2.536 -0.7167  0.0621  0.7478
 8834SOL    HW131772   5.827   8.229   2.441 -0.8024 -0.9196  0.9612
 8834SOL    HW231773   5.881   8.164   2.581  0.7710  0.8078  1.1791
 8835SOL     OW31774   2.544   5.295   3.634  0.7897 -0.3456 -0.2159
 8835SOL    HW131775   2.571   5.356   3.560 -0.2238 -1.0612 -1.1885
 8835SOL    HW231776   2.548   5.201   3.602  0.0202 -0.6352  0.5480
 8836SOL     OW31777   8.832   1.114   0.565  0.4344 -0.4453 -0.6675
 8836SOL    HW131778   8.832   1.024   0.521  2.1686 -0.5891 -0.4267
 8836SOL    HW231779   8.804   1.183   0.499  0.7396 -0.9583 -1.3416
 8837SOL     OW31780   6.154   0.081   1.740  0.3782  0.1058 -0.3064
 8837SOL    HW131781   6.233   0.037   1.784  0.7979 -0.0329 -1.1848
 8837SOL    HW231782   6.134   0.167   1.786  1.8756  0.7893 -0.8906
 8839SOL     OW31783   7.807   0.053   3.620  0.4558 -0.1266 -0.1027
 8839SOL    HW131784   7.835   0.143   3.656  1.3647 -0.4603  0.0365
 8839SOL    HW231785   7.789   0.061   3.522  0.7284  0.1623 -0.1310
 8840SOL     OW31786   8.352   6.009   1.588  0.0947 -0.0135  0.8302
 8840SOL    HW131787   8.344   6.073   1.511  0.3091 -0.0100  0.8111
 8840SOL    HW231788   8.279   6.027   1.653 -0.5252 -0.4939  0.2752
 8841SOL     OW31789   9.036   8.414   3.513  0.5454 -0.2452 -0.0186
 8841SOL    HW131790   9.031   8.336   3.451 -1.4027 -0.7239  0.7223
 8841SOL    HW231791   9.071   8.384   3.602 -1.5164 -0.5718  0.7042
 8842SOL     OW31792   0.082   2.747   1.711 -0.0189  0.4430  0.3141
 8842SOL    HW131793  -0.000   2.696   1.738 -1.8972  2.9941 -0.3538
 8842SOL    HW231794   0.150   2.742   1.784 -0.3925 -2.4432  0.5176
 8844SOL     OW31795   4.019   3.442   0.005 -0.4114  0.0485  0.3405
 8844SOL    HW131796   3.962   3.374   0.050 -2.0431 -0.6103 -2.5804
 8844SOL    HW231797   3.961   3.516  -0.030  0.7869  0.5899 -0.5431
 8845SOL     OW31798   8.922   0.648   0.257  0.0027 -0.2678 -0.2026
 8845SOL    HW131799   8.966   0.560   0.238  0.0061 -1.1307  3.3654
 8845SOL    HW231800   8.826   0.634   0.282  0.1764  0.6250  1.0619
 8846SOL     OW31801   4.195   1.437   1.821 -0.3907 -0.2453 -0.6119
 8846SOL    HW131802   4.118   1.429   1.758  0.2993  1.1915 -1.6790
 8846SOL    HW231803   4.281   1.427   1.770  0.1431 -1.7090  0.5390
 8849SOL     OW31804   6.247   0.599   3.498 -0.5206  0.9003  0.2928
 8849SOL    HW131805   6.196   0.640   3.422 -1.2462  1.6548  1.1714
 8849SOL    HW231806   6.344   0.619   3.487 -0.0173 -2.7499 -2.7971
 8851SOL     OW31807   0.258   6.670   2.515  0.1113 -0.0271  0.1240
 8851SOL    HW131808   0.274   6.658   2.613 -1.9596  2.2663  0.8018
 8851SOL    HW231809   0.322   6.737   2.479  0.7999 -0.7886 -0.0796
 8853SOL     OW31810   4.456   8.001   3.213 -0.3936 -0.1789 -0.0476
 8853SOL    HW131811   4.458   7.903   3.232 -1.9269  0.2025  2.1615
 8853SOL    HW231812   4.403   8.017   3.130 -1.1204 -1.1207  0.2227
 8854SOL     OW31813   3.767   9.808   0.293  0.4720 -0.3125 -0.0194
 8854SOL    HW131814   3.753   9.712   0.268  1.8491 -0.6803  0.5762
 8854SOL    HW231815   3.755   9.818   0.392  1.3755 -0.0741  0.0686
 8855SOL     OW31816   1.157   4.093   0.284  0.3786 -0.2704  0.6562
 8855SOL    HW131817   1.154   4.025   0.357 -0.2819 -0.3183  0.5866
 8855SOL    HW231818   1.180   4.049   0.198 -1.1518 -0.5783  0.4062
 8856SOL     OW31819   3.347   9.777   3.249  0.3046  0.2793 -0.3209
 8856SOL    HW131820   3.403   9.707   3.293 -0.9309 -0.4792  0.0603
 8856SOL    HW231821   3.340   9.758   3.151  1.7452  1.0797 -0.5823
 8857SOL     OW31822   7.629   8.433   2.508 -0.0855 -0.1211  0.0581
 8857SOL    HW131823   7.595   8.442   2.414  1.9754  0.7512 -0.6467
 8857SOL    HW231824   7.722   8.469   2.512  0.2456 -1.1837  2.2069
 8858SOL     OW31825   9.632   3.831   0.277 -0.9418 -0.3466 -0.4750
 8858SOL    HW131826   9.552   3.816   0.334  1.1338 -0.6480  2.4557
 8858SOL    HW231827   9.667   3.923   0.292 -1.0677  0.0057 -2.2126
 8861SOL     OW31828   7.904   6.943   2.566 -0.1017  0.0193 -0.1194
 8861SOL    HW131829   7.996   6.939   2.605 -0.4129  0.5131  0.6710
 8861SOL    HW231830   7.851   6.863   2.596 -0.1152  0.0244 -0.1299
 8862SOL     OW31831   4.834   3.426   1.274  0.3150 -0.0389 -0.0542
 8862SOL    HW131832   4.910   3.455   1.216 -0.4028  3.9036  0.7967
 8862SOL    HW231833   4.864   3.422   1.369 -0.3951  1.1198  0.2318
 8863SOL     OW31834   4.439   3.707   3.696 -0.0822 -0.1832 -0.5138
 8863SOL    HW131835   4.495   3.721   3.614  0.0126 -1.8151 -0.7503
 8863SOL    HW231836   4.345   3.737   3.678 -0.2096 -1.1042 -1.4348
 8864SOL     OW31837   7.578   1.188   2.497 -0.2571 -0.2821 -0.0504
 8864SOL    HW131838   7.512   1.129   2.544 -1.1034  0.0107 -0.8606
 8864SOL    HW231839   7.581   1.277   2.543  0.3896 -0.6647  0.6543
 8865SOL     OW31840   3.095   6.896   1.547 -0.0957 -0.0079 -0.3891
 8865SOL    HW131841   3.159   6.884   1.472  0.6772  0.6220  0.1590
 8865SOL    HW231842   3.005   6.862   1.520  0.1554  0.2821 -1.6171
 8869SOL     OW31843   0.714   3.545   2.394 -0.7460 -0.3053  0.2946
 8869SOL    HW131844   0.639   3.483   2.369  0.6848 -1.4378 -1.2817
 8869SOL    HW231845   0.788   3.536   2.328 -0.4451  3.0354  0.1093
 8870SOL     OW31846   3.338   4.839   0.294  0.1145  0.0647  0.0843
 8870SOL    HW131847   3.295   4.753   0.266 -0.1133  0.3927 -0.5831
 8870SOL    HW231848   3.427   4.819   0.336  0.3794 -0.4539 -0.7024
 8871SOL     OW31849   3.470   7.261   0.599  0.0993  0.1023  0.4313
 8871SOL    HW131850   3.406   7.243   0.525 -0.3768 -0.4793  0.9799
 8871SOL    HW231851   3.531   7.183   0.611 -1.2493 -0.7430  2.0811
 8872SOL     OW31852   2.100   7.064   0.501 -1.0223 -0.2382  0.0935
 8872SOL    HW131853   2.022   7.076   0.562 -1.5681 -0.2893 -0.5784
 8872SOL    HW231854   2.164   7.140   0.512 -1.9938  0.6890 -0.5492
 8873SOL     OW31855   4.318   1.419   2.420 -0.5394 -0.0096 -0.0776
 8873SOL    HW131856   4.257   1.358   2.370  0.5019  0.6555 -2.2250
 8873SOL    HW231857   4.380   1.364   2.476 -2.0867 -0.7461  0.9577
 8874SOL     OW31858   5.606   6.403   2.859  0.3632  0.3077  0.0759
 8874SOL    HW131859   5.651   6.348   2.929  0.1010  0.3285  0.2605
 8874SOL    HW231860   5.675   6.441   2.797  0.4600 -1.6591 -1.0977
 8875SOL     OW31861   8.481   1.093   1.082 -0.1128 -0.1961 -0.4314
 8875SOL    HW131862   8.532   1.172   1.048  0.0967 -0.4063 -0.6059
 8875SOL    HW231863   8.493   1.016   1.020 -1.2466 -0.0343 -0.8728
 8876SOL     OW31864   5.502   0.762   1.836  0.0531 -0.6647 -0.0792
 8876SOL    HW131865   5.436   0.787   1.765 -0.3350 -1.0738  0.1303
 8876SOL    HW231866   5.551   0.680   1.808 -0.9110 -1.4990  0.6211
 8877SOL     OW31867   9.967   4.478   1.727  0.7290  0.4642  0.2498
 8877SOL    HW131868  10.065   4.494   1.714  0.6547  2.0520  1.4861
 8877SOL    HW231869   9.955   4.401   1.790  1.1441 -1.1082 -1.5596
 8878SOL     OW31870   8.455   2.824   1.793 -0.7747 -0.0393 -0.5155
 8878SOL    HW131871   8.485   2.731   1.769 -0.3361  0.1970 -0.8873
 8878SOL    HW231872   8.533   2.877   1.825 -1.5871 -0.7779  2.8408
 8879SOL     OW31873   1.685   1.970   1.730 -0.1652  0.3102 -0.1764
 8879SOL    HW131874   1.607   2.013   1.775 -0.6150 -0.5730 -0.1052
 8879SOL    HW231875   1.657   1.882   1.691  1.1014 -0.6353  0.9823
 8880SOL     OW31876   1.814   3.036   3.734  0.0817  0.3047 -0.2168
 8880SOL    HW131877   1.721   3.043   3.700  0.3893  2.5502 -0.6746
 8880SOL    HW231878   1.815   3.051   3.833  0.0551  1.1067 -0.3387
 8881SOL     OW31879   8.693   8.363   0.350  0.2985 -0.5985  0.1909
 8881SOL    HW131880   8.783   8.391   0.319 -0.9951  0.7906 -2.4946
 8881SOL    HW231881   8.694   8.349   0.449  3.8204 -2.1463  0.0004
 8882SOL     OW31882   1.454   5.144   3.333 -0.4579  0.0198  0.0994
 8882SOL    HW131883   1.484   5.220   3.389 -0.3948  0.9650 -1.1941
 8882SOL    HW231884   1.457   5.170   3.236 -2.2137 -0.9788 -0.2604
 8883SOL     OW31885   2.165   9.547   0.264  0.3104 -0.4477  0.7630
 8883SOL    HW131886   2.156   9.626   0.204 -0.4744 -0.8979  0.2789
 8883SOL    HW231887   2.247   9.557   0.320  2.4523 -1.1947 -2.1330
 8885SOL     OW31888   1.700   8.471   1.353  0.2240  0.2028 -0.4240
 8885SOL    HW131889   1.748   8.481   1.441  1.5528  1.0241 -1.2213
 8885SOL    HW231890   1.617   8.526   1.354  0.8089  1.0963 -0.0661
 8886SOL     OW31891   2.822   9.664   2.382  0.0855  0.6108 -0.4214
 8886SOL    HW131892   2.843   9.751   2.337  2.4495  0.5519  0.5059
 8886SOL    HW231893   2.753   9.679   2.453  0.5043  1.7356 -0.2407
 8887SOL     OW31894   3.052   5.919   3.276 -0.2048  0.0219  0.2094
 8887SOL    HW131895   3.127   5.921   3.342 -1.2947  2.2701  1.4725
 8887SOL    HW231896   2.973   5.872   3.317 -1.3433  2.5934  1.1388
 8888SOL     OW31897   0.980   0.575   2.835 -0.2260 -0.2573  0.1384
 8888SOL    HW131898   0.989   0.597   2.932 -3.6048 -1.4765  0.7769
 8888SOL    HW231899   1.034   0.494   2.814 -0.4056 -0.6802  1.2638
 8890SOL     OW31900   3.544   1.885   1.919 -0.1575 -0.0605  0.2440
 8890SOL    HW131901   3.492   1.958   1.963  0.3936 -0.0290  0.8470
 8890SOL    HW231902   3.552   1.904   1.821  0.9497  1.2611  0.5916
 8891SOL     OW31903   2.462   8.340   2.939  0.2041  0.0459 -0.1110
 8891SOL    HW131904   2.425   8.271   3.001  1.7056  0.0854  0.8516
 8891SOL    HW231905   2.538   8.301   2.887 -0.3803  0.3188 -1.1673
 8894SOL     OW31906   9.535   6.813   0.174  0.3997  0.3114  0.2112
 8894SOL    HW131907   9.566   6.845   0.084  0.1126 -2.0563 -0.7713
 8894SOL    HW231908   9.437   6.829   0.183  0.2085 -0.4797 -0.3762
 8895SOL     OW31909   0.301   7.555   2.609 -0.0192  0.2044 -0.8156
 8895SOL    HW131910   0.286   7.568   2.511  1.2003 -1.0707 -1.1764
 8895SOL    HW231911   0.266   7.635   2.658 -0.2231  1.0664 -2.3168
 8896SOL     OW31912   2.835   5.762   1.639 -0.0854  0.5402 -0.4968
 8896SOL    HW131913   2.830   5.800   1.546  2.5956  1.2932 -0.3868
 8896SOL    HW231914   2.906   5.810   1.690  0.3399 -1.6853  1.0695
 8897SOL     OW31915   8.934   2.273   1.288 -0.0205  0.5087 -0.3051
 8897SOL    HW131916   8.928   2.246   1.191 -0.0989  2.4316 -0.8662
 8897SOL    HW231917   8.902   2.367   1.297 -0.5903  0.1286  1.7098
 8898SOL     OW31918   4.234   9.825   1.244 -0.0559 -0.0524  0.7752
 8898SOL    HW131919   4.166   9.870   1.303 -0.2937 -0.2662  0.6689
 8898SOL    HW231920   4.299   9.892   1.210 -1.3736  0.5027 -0.7052
 8899SOL     OW31921   3.351   2.807   0.429  0.5104 -0.2650  0.3371
 8899SOL    HW131922   3.389   2.863   0.355 -0.8030  0.5982  0.2983
 8899SOL    HW231923   3.260   2.775   0.402  0.9852 -1.8785  0.6340
 8900SOL     OW31924   3.788   8.722   3.579 -0.2513  0.0457  0.2750
 8900SOL    HW131925   3.752   8.677   3.662 -3.2924 -0.9094 -1.4669
 8900SOL    HW231926   3.809   8.653   3.510  2.9469  0.7917  0.4670
 8901SOL     OW31927   4.886   1.703   2.822  0.6907 -0.3451  0.4307
 8901SOL    HW131928   4.912   1.747   2.736 -0.4403  1.9477  1.2190
 8901SOL    HW231929   4.967   1.666   2.866  1.6529  0.7512 -0.3841
 8902SOL     OW31930   5.306   0.996   3.677 -0.2442  0.1284  0.3166
 8902SOL    HW131931   5.380   0.930   3.664  1.5985  2.3105 -0.5681
 8902SOL    HW231932   5.337   1.069   3.738 -1.5140  1.2980 -0.4170
 8903SOL     OW31933   1.017   0.337   3.245 -0.3382 -0.6141  0.3397
 8903SOL    HW131934   0.976   0.428   3.244 -0.9556 -0.8971  0.1423
 8903SOL    HW231935   1.088   0.333   3.174  1.1677  0.3850  1.7517
 8904SOL     OW31936   3.387   6.503   2.170 -0.5929  0.8016  0.1196
 8904SOL    HW131937   3.334   6.586   2.151  0.3943  1.5362  0.5580
 8904SOL    HW231938   3.481   6.528   2.192  0.0266 -0.5106 -0.9613
 8906SOL     OW31939   9.929   9.556   3.732 -0.5401  0.2093  0.3256
 8906SOL    HW131940   9.862   9.508   3.789  0.6748 -1.3845  0.4321
 8906SOL    HW231941  10.019   9.552   3.775  0.1472  0.0682 -1.1010
 8907SOL     OW31942   1.442   6.031   3.309 -0.4834 -0.0626  0.2465
 8907SOL    HW131943   1.537   6.002   3.325 -0.5114 -0.0200  0.5022
 8907SOL    HW231944   1.405   5.983   3.230 -0.0266  0.4145 -0.2676
 8908SOL     OW31945   9.661   9.293   1.268  0.3794  0.3460  0.3639
 8908SOL    HW131946   9.721   9.226   1.224 -0.9200 -0.1523 -0.6937
 8908SOL    HW231947   9.692   9.385   1.244  1.7848  0.1344  1.2998
 8909SOL     OW31948   4.269   2.039   0.690 -0.0256 -0.0868 -0.5323
 8909SOL    HW131949   4.290   2.086   0.604  0.7393  0.1021 -0.2479
 8909SOL    HW231950   4.174   2.007   0.688 -0.2227  0.5102 -1.1742
 8910SOL     OW31951   3.477   3.431   2.207 -0.0379  0.4046 -0.2282
 8910SOL    HW131952   3.576   3.444   2.212  0.0232  0.7166 -1.9525
 8910SOL    HW231953   3.452   3.346   2.253  1.1496 -0.1824 -0.6524
 8913SOL     OW31954   7.549   2.342   1.417  0.0923  0.2887  0.0537
 8913SOL    HW131955   7.556   2.440   1.403 -0.6979  0.2363 -0.7290
 8913SOL    HW231956   7.641   2.302   1.418  0.4236  1.0492  0.5455
 8914SOL     OW31957   2.643   1.970   2.467 -0.3846  0.3422 -0.3269
 8914SOL    HW131958   2.700   1.894   2.437 -1.1637  0.0276 -1.0219
 8914SOL    HW231959   2.701   2.049   2.486  0.7899 -1.2661  3.2696
 8915SOL     OW31960   3.915   1.500   2.203  0.4583 -0.4860  0.0460
 8915SOL    HW131961   3.912   1.463   2.110  1.4123 -0.1010 -0.1378
 8915SOL    HW231962   3.999   1.552   2.216  0.0664 -0.0671  0.9508
 8916SOL     OW31963   9.473   1.584   1.067 -0.1991 -0.2716 -0.3869
 8916SOL    HW131964   9.537   1.626   1.130 -1.2281 -0.1243  0.5797
 8916SOL    HW231965   9.383   1.627   1.077 -0.8935 -1.6804 -0.4519
 8917SOL     OW31966   9.175   6.168   2.732 -0.1236  0.0287  0.0922
 8917SOL    HW131967   9.121   6.085   2.752 -0.6997  0.3509 -0.1127
 8917SOL    HW231968   9.135   6.216   2.654 -1.1998  1.7566  1.6675
 8918SOL     OW31969   1.922   6.738   2.110 -0.7560 -0.1354  0.3920
 8918SOL    HW131970   1.940   6.753   2.013  0.6885 -1.0314  0.5120
 8918SOL    HW231971   1.982   6.797   2.164  0.2315 -1.4409  0.7580
 8919SOL     OW31972   8.087   4.975   1.991  0.0908 -0.0335  0.3012
 8919SOL    HW131973   8.052   5.031   2.066  0.7969 -0.6079  1.0779
 8919SOL    HW231974   8.028   4.985   1.911 -1.2164 -0.1586  1.2373
 8920SOL     OW31975   3.972   0.520   1.176  0.3925 -0.0704 -0.2265
 8920SOL    HW131976   3.884   0.494   1.216  0.0019  1.0109 -0.3552
 8920SOL    HW231977   4.042   0.455   1.203 -0.2638 -0.4223  0.6335
 8921SOL     OW31978   9.147   3.355   3.564 -0.0566 -0.0374 -0.0048
 8921SOL    HW131979   9.224   3.417   3.577 -0.6088  0.9005 -1.0859
 8921SOL    HW231980   9.153   3.312   3.474  0.3818 -1.6527  0.7822
 8922SOL     OW31981   0.104   0.892   2.680 -0.5554  0.5168  0.1758
 8922SOL    HW131982   0.102   0.799   2.643 -0.1308  0.7231 -0.3634
 8922SOL    HW231983   0.198   0.926   2.681 -0.8583  1.3860 -0.7428
 8923SOL     OW31984   7.505   8.292   1.645  0.1427 -0.5412  0.3071
 8923SOL    HW131985   7.481   8.195   1.640  0.7214 -0.7371  1.2628
 8923SOL    HW231986   7.490   8.325   1.738  1.8913 -0.2279  0.4766
 8925SOL     OW31987   9.945   8.574   1.492 -0.0935  0.5704 -0.4827
 8925SOL    HW131988  10.010   8.558   1.418  1.7973 -2.9232  1.7787
 8925SOL    HW231989   9.880   8.498   1.496  0.9389 -0.2386  2.4716
 8926SOL     OW31990   0.123   7.124   1.535 -0.0046 -0.4156 -0.2330
 8926SOL    HW131991   0.186   7.171   1.473 -1.0665  1.0146 -0.2443
 8926SOL    HW231992   0.029   7.141   1.506 -0.7270  3.3582  3.8639
 8927SOL     OW31993   8.840   0.005   2.644  0.1037  0.1413 -0.1038
 8927SOL    HW131994   8.847  -0.063   2.571  0.4663 -0.7210  0.7172
 8927SOL    HW231995   8.753   0.054   2.636 -0.4508 -0.8610 -0.3346
 8928SOL     OW31996   0.023   3.575   1.862  0.0505 -0.0480  0.7387
 8928SOL    HW131997   0.118   3.573   1.892  0.2238  3.3186  0.6310
 8928SOL    HW231998  -0.036   3.545   1.936  0.9912  0.8578  1.8627
 8929SOL     OW31999   8.303   5.385   2.557 -0.2858 -0.3627  0.0711
 8929SOL    HW132000   8.359   5.415   2.480 -0.8442  3.0759  0.9052
 8929SOL    HW232001   8.318   5.446   2.635 -0.3031 -3.3334  2.4506
 8930SOL     OW32002   1.324   4.078   1.537  0.4624 -0.1175 -0.6629
 8930SOL    HW132003   1.297   3.989   1.574 -2.4769  1.3418  0.8917
 8930SOL    HW232004   1.391   4.120   1.598 -0.6147  0.1215  0.3842
 8931SOL     OW32005   6.139   9.411   1.924 -0.0065 -0.2906 -0.3699
 8931SOL    HW132006   6.224   9.392   1.876 -0.3651  0.5749 -1.3782
 8931SOL    HW232007   6.080   9.330   1.922  0.9189 -0.9996  0.6295
 8932SOL     OW32008   9.578   6.619   1.603 -0.0364  0.8432  0.4880
 8932SOL    HW132009   9.644   6.694   1.616 -0.8716  1.6478  0.1599
 8932SOL    HW232010   9.552   6.615   1.506  0.1506  0.0045  0.4743
 8933SOL     OW32011   1.648   9.834   1.756  0.1501  0.5969  0.4601
 8933SOL    HW132012   1.553   9.831   1.724 -0.0446  0.6611  1.0264
 8933SOL    HW232013   1.697   9.753   1.723 -0.1805  0.4181  0.4069
 8934SOL     OW32014   0.568   9.949   0.010  0.3835 -0.1061  0.2659
 8934SOL    HW132015   0.498   9.938   0.081 -0.8250  2.7804 -0.3731
 8934SOL    HW232016   0.523   9.954  -0.080  1.6891 -1.3839 -0.4601
 8935SOL     OW32017   2.395   0.263   3.092 -0.3343  0.5730 -0.0229
 8935SOL    HW132018   2.479   0.316   3.108  0.0507  0.1575 -0.6149
 8935SOL    HW232019   2.321   0.325   3.069  0.5433  0.7729 -2.5023
 8936SOL     OW32020   8.698   2.990   1.785  0.4428 -0.3760 -0.2577
 8936SOL    HW132021   8.714   3.023   1.691  0.3109  0.8542  0.1399
 8936SOL    HW232022   8.726   3.061   1.850 -0.4949 -0.7815  0.6046
 8938SOL     OW32023   2.797   5.081   0.651 -0.2450  0.4298 -0.1473
 8938SOL    HW132024   2.827   5.007   0.712 -1.7934  0.3014  0.4843
 8938SOL    HW232025   2.846   5.165   0.675 -0.7166  0.3473  1.1809
 8939SOL     OW32026   1.452   1.187   0.557  0.5678  0.5975  0.4286
 8939SOL    HW132027   1.548   1.209   0.546  0.8656 -0.6015  0.5464
 8939SOL    HW232028   1.420   1.134   0.478  0.2569  0.1483  0.8551
 8940SOL     OW32029   1.757   3.354   1.365  0.6122  0.7841 -0.3188
 8940SOL    HW132030   1.740   3.446   1.329 -0.3866  1.1938  1.1367
 8940SOL    HW232031   1.748   3.356   1.465  0.7954 -0.8578 -0.2595
 8941SOL     OW32032   2.411   7.720   0.844 -0.5157  0.5660  0.2417
 8941SOL    HW132033   2.433   7.742   0.749 -0.3250  0.1055  0.1761
 8941SOL    HW232034   2.372   7.800   0.889  0.0635  0.9936 -0.0204
 8942SOL     OW32035   5.061   7.602   1.806  0.4640  0.0302 -0.1300
 8942SOL    HW132036   5.112   7.518   1.786  0.7450  0.4707 -1.2789
 8942SOL    HW232037   5.022   7.638   1.722 -0.2881  0.6567  0.4788
 8943SOL     OW32038   7.819   2.846   0.600 -0.3530 -0.4566 -0.0665
 8943SOL    HW132039   7.814   2.772   0.533 -2.3834 -0.5049  0.1078
 8943SOL    HW232040   7.753   2.917   0.577  1.0128  0.9358  0.2347
 8944SOL     OW32041   1.823   0.516   1.256  0.4210 -0.2092  0.5222
 8944SOL    HW132042   1.765   0.530   1.176  1.4937  0.5381 -0.1483
 8944SOL    HW232043   1.794   0.435   1.306 -1.0108  0.0037  0.0404
 8945SOL     OW32044   1.789   3.325   2.686  0.0639  0.2000 -0.1684
 8945SOL    HW132045   1.842   3.357   2.766 -0.3946  1.2666 -0.2811
 8945SOL    HW232046   1.798   3.226   2.678 -0.4526 -0.0083  1.6242
 8946SOL     OW32047   1.445   4.530   0.646  0.0788  0.2277 -0.2602
 8946SOL    HW132048   1.468   4.437   0.618 -1.1819 -0.2086  0.0997
 8946SOL    HW232049   1.346   4.543   0.639  0.2296  1.4911 -0.1560
 8947SOL     OW32050   0.779   9.976   2.616  0.5149  0.3776 -0.0973
 8947SOL    HW132051   0.832  10.025   2.547  3.1874 -0.1365  1.4927
 8947SOL    HW232052   0.734  10.041   2.678  0.1159  0.8246 -0.8579
 8948SOL     OW32053   0.628   3.807   0.300  0.2595  0.6350  0.2590
 8948SOL    HW132054   0.548   3.867   0.305 -1.4572 -1.5761 -0.1879
 8948SOL    HW232055   0.660   3.802   0.205 -0.5702 -0.3915  0.0283
 8949SOL     OW32056   7.546   4.803   0.851 -0.0637 -0.1168  0.4180
 8949SOL    HW132057   7.551   4.797   0.950  1.4238 -0.6695  0.3213
 8949SOL    HW232058   7.638   4.811   0.813 -0.6915  1.5294 -0.8400
 8950SOL     OW32059   8.812   8.602   1.380  0.2473  0.3615 -0.3489
 8950SOL    HW132060   8.886   8.570   1.321  0.2815 -1.0156  0.4243
 8950SOL    HW232061   8.730   8.617   1.325  0.2684 -0.9413 -0.7547
 8951SOL     OW32062   2.406   0.284   2.082  0.2956  0.4830 -0.6744
 8951SOL    HW132063   2.409   0.383   2.070 -1.0960  0.4312 -1.7172
 8951SOL    HW232064   2.465   0.240   2.014 -1.3299  0.5121 -2.1573
 8952SOL     OW32065   0.710   1.721   2.198  0.2452 -0.0912  0.1195
 8952SOL    HW132066   0.739   1.728   2.293  0.5193  1.8384 -0.0978
 8952SOL    HW232067   0.781   1.676   2.145  1.1293  1.0129  0.3652
 8953SOL     OW32068   3.050   1.013   3.204 -0.0837 -0.6211  0.4642
 8953SOL    HW132069   3.066   0.923   3.244 -1.2796 -1.8182 -1.6355
 8953SOL    HW232070   3.124   1.034   3.139 -0.3130 -0.5194  0.2337
 8954SOL     OW32071   9.706   4.065   2.124  0.3442 -0.5992 -0.1201
 8954SOL    HW132072   9.715   4.151   2.173  0.1971  0.2456 -1.5573
 8954SOL    HW232073   9.730   3.989   2.185  0.6722  0.4621  1.0871
 8957SOL     OW32074   3.750   7.662   2.701 -0.3155  0.2597 -0.1134
 8957SOL    HW132075   3.795   7.572   2.707  0.5884  0.7325  0.2613
 8957SOL    HW232076   3.774   7.716   2.781  1.9035  2.1064 -1.9797
 8959SOL     OW32077   3.309   4.744   2.907 -0.3080  0.6474 -0.3021
 8959SOL    HW132078   3.220   4.702   2.892  0.0819  0.2388 -1.5312
 8959SOL    HW232079   3.320   4.824   2.849  0.6351 -0.0786 -1.1530
 8960SOL     OW32080   9.933   6.761   1.843 -0.1632 -0.2405 -0.1677
 8960SOL    HW132081   9.969   6.853   1.858  0.3435 -0.5635  0.6458
 8960SOL    HW232082  10.008   6.701   1.814 -0.3060 -0.6020  0.2065
 8961SOL     OW32083   0.603   1.692   3.351  0.0097 -0.2120  0.2080
 8961SOL    HW132084   0.614   1.791   3.359 -0.8802 -0.1420  0.6489
 8961SOL    HW232085   0.663   1.657   3.280 -0.6460  0.8255 -0.8675
 8962SOL     OW32086   4.096   6.132   2.391 -0.0525  0.6562  0.4809
 8962SOL    HW132087   4.026   6.063   2.372 -0.3144  0.9246  0.4731
 8962SOL    HW232088   4.131   6.168   2.305 -1.3382  1.9730  0.4751
 8963SOL     OW32089   8.985   5.405   3.105 -0.3349  0.1468  0.2838
 8963SOL    HW132090   8.987   5.493   3.153 -1.2388 -0.2400  1.0556
 8963SOL    HW232091   9.040   5.339   3.156 -1.7699 -0.4224  1.1420
 8965SOL     OW32092   8.477   0.191   1.257  0.8223  0.3151  0.5221
 8965SOL    HW132093   8.412   0.120   1.283  1.0605 -0.3235 -0.5988
 8965SOL    HW232094   8.472   0.266   1.322 -1.1891  0.3661  0.3268
 8966SOL     OW32095   8.881   0.076   0.361 -0.8087  0.0566 -0.0075
 8966SOL    HW132096   8.973   0.113   0.353 -0.9805  0.6625  0.7534
 8966SOL    HW232097   8.881  -0.020   0.332  0.1254 -0.0352  0.2739
 8967SOL     OW32098   2.227   6.615   0.714  0.1822 -0.8802 -0.6448
 8967SOL    HW132099   2.148   6.650   0.665  0.2569  0.3293  0.0897
 8967SOL    HW232100   2.309   6.627   0.659 -0.1246 -2.1182 -1.3985
 8969SOL     OW32101   7.747   6.966   3.106 -0.0441  0.3704  1.0511
 8969SOL    HW132102   7.728   7.011   3.194  1.3103  0.8259  1.1279
 8969SOL    HW232103   7.678   6.993   3.039 -1.1391 -0.0481  2.0012
 8970SOL     OW32104   4.047   8.572   2.127  0.6705 -0.1117 -0.5810
 8970SOL    HW132105   4.118   8.621   2.178  1.8083 -2.1040 -0.2095
 8970SOL    HW232106   4.080   8.553   2.034 -0.4222  1.2748 -1.2791
 8971SOL     OW32107   5.049   7.894   2.572  0.1887 -0.1135  0.1948
 8971SOL    HW132108   5.001   7.830   2.511  2.0924 -0.7070 -0.7189
 8971SOL    HW232109   5.147   7.873   2.572  0.7103  2.1916  0.6591
 8972SOL     OW32110   1.170   4.757   1.101 -0.6893 -0.1088 -0.4567
 8972SOL    HW132111   1.157   4.704   1.018 -0.1865 -1.9745  0.6123
 8972SOL    HW232112   1.259   4.734   1.141 -1.4571 -0.1760  1.2520
 8973SOL     OW32113   1.776   1.793   2.108  0.4317 -0.2589  0.3249
 8973SOL    HW132114   1.855   1.789   2.046  0.4458 -1.2228  0.4066
 8973SOL    HW232115   1.708   1.727   2.079 -0.5485  0.8685  0.0026
 8976SOL     OW32116   8.763   0.890   3.696 -0.4425 -0.2536  0.1144
 8976SOL    HW132117   8.729   0.927   3.782  0.4746 -2.9692  1.7278
 8976SOL    HW232118   8.839   0.946   3.664 -0.7379  0.7516  1.1259
 8977SOL     OW32119   1.506   7.658   0.061  0.0447 -0.1597 -0.3794
 8977SOL    HW132120   1.568   7.717   0.009 -0.3797  0.7242  0.1101
 8977SOL    HW232121   1.422   7.708   0.082 -0.5297 -1.1145 -0.4062
 8979SOL     OW32122   1.339   4.559   1.970 -0.4269 -0.0649  0.6240
 8979SOL    HW132123   1.355   4.613   1.888  1.5102  1.1099  1.7404
 8979SOL    HW232124   1.251   4.584   2.010 -0.4697  0.7666  0.0102
 8980SOL     OW32125   1.118   1.422   3.056  0.3660  0.6155 -0.6941
 8980SOL    HW132126   1.042   1.390   3.000 -1.0554  1.2253  0.8668
 8980SOL    HW232127   1.116   1.376   3.145  1.6230  0.9022 -0.5052
 8981SOL     OW32128   9.045   5.103   3.684  0.0930 -0.0480 -0.2622
 8981SOL    HW132129   8.949   5.072   3.682 -0.0937  0.3727  1.4862
 8981SOL    HW232130   9.096   5.050   3.752  1.0302 -0.0518 -0.9646
 8982SOL     OW32131   8.502   1.812   0.882  0.4717  0.0609  0.2648
 8982SOL    HW132132   8.592   1.822   0.840  0.6894  0.9594  0.9252
 8982SOL    HW232133   8.457   1.901   0.887  0.3522 -0.0690  1.7106
 8984SOL     OW32134   9.016   5.867   2.167  0.0038  0.1882  0.0969
 8984SOL    HW132135   9.100   5.885   2.218 -1.2999 -0.9077  2.7230
 8984SOL    HW232136   9.037   5.814   2.085  1.7175 -1.0321  1.3073
 8985SOL     OW32137   8.213   0.363   3.077  0.2199 -0.1014 -0.0912
 8985SOL    HW132138   8.204   0.373   3.176 -0.7451  0.2381 -0.2109
 8985SOL    HW232139   8.146   0.420   3.031  0.3133 -0.6565 -0.9377
 8986SOL     OW32140   4.725   9.566   2.522 -0.0941 -0.0832 -0.0241
 8986SOL    HW132141   4.818   9.532   2.532  0.0568  0.0310 -1.0487
 8986SOL    HW232142   4.662   9.505   2.570  0.3321 -0.9910 -0.6259
 8987SOL     OW32143   2.334   2.227   0.079 -0.3377  0.3410 -0.3642
 8987SOL    HW132144   2.241   2.217   0.044 -0.8940  0.8387  0.9219
 8987SOL    HW232145   2.357   2.324   0.086  1.0836  0.2024 -2.7092
 8988SOL     OW32146   9.562   6.450   1.818 -0.1348  0.3327 -0.0492
 8988SOL    HW132147   9.545   6.490   1.728  0.2382  0.7572  0.0697
 8988SOL    HW232148   9.616   6.513   1.873  0.0296 -0.1211  0.3135
 8989SOL     OW32149   8.931   9.677   2.681 -0.2116  0.0090 -0.1100
 8989SOL    HW132150   8.917   9.581   2.708 -0.5802 -0.0711 -0.5542
 8989SOL    HW232151   8.963   9.680   2.586 -0.1918  0.3242 -0.0931
 8990SOL     OW32152   7.731   7.067   3.363  0.4341  0.5925  0.8602
 8990SOL    HW132153   7.661   7.136   3.383  0.0961  0.6556 -0.5250
 8990SOL    HW232154   7.791   7.057   3.443 -0.1777  1.6919  1.4743
 8991SOL     OW32155   2.569   0.592   1.454  0.0684 -0.0119 -0.1833
 8991SOL    HW132156   2.506   0.589   1.532 -0.2341 -0.4496 -0.4399
 8991SOL    HW232157   2.644   0.655   1.474  0.1864 -0.3974  0.6060
 8993SOL     OW32158   8.490   0.686   0.338 -0.2664 -0.3007  0.2353
 8993SOL    HW132159   8.418   0.715   0.275 -1.1104 -0.9643  0.8675
 8993SOL    HW232160   8.453   0.684   0.431  0.3695 -1.3425  0.4734
 8994SOL     OW32161   2.041   2.614   1.243  0.5654 -0.4365 -0.0407
 8994SOL    HW132162   2.047   2.713   1.255 -1.7211 -0.3082  0.1407
 8994SOL    HW232163   2.091   2.568   1.317 -0.6521  0.5395  1.4055
 8995SOL     OW32164   8.088   2.212   2.404  0.2381  0.3198 -0.6175
 8995SOL    HW132165   8.012   2.199   2.467  1.3801  3.1214  1.4320
 8995SOL    HW232166   8.163   2.150   2.429  0.8018  1.6254  1.0372
 8996SOL     OW32167   3.387   7.936   1.155  0.4294 -0.2666 -0.3669
 8996SOL    HW132168   3.420   7.849   1.190 -0.0290  0.2717  1.4375
 8996SOL    HW232169   3.446   8.010   1.189  0.7867  0.1444 -1.8330
 8997SOL     OW32170   2.801   4.403   0.682 -0.2249  0.0803 -0.6328
 8997SOL    HW132171   2.772   4.435   0.772 -0.9058  1.7557 -1.4170
 8997SOL    HW232172   2.872   4.464   0.646  1.3866 -1.6532 -0.4638
 8998SOL     OW32173   4.391   8.532   0.416 -0.9313  0.1207  0.8328
 8998SOL    HW132174   4.343   8.495   0.337 -1.8479  0.7431  1.0866
 8998SOL    HW232175   4.325   8.575   0.478  0.0055  1.4336  0.9407
 8999SOL     OW32176   0.267   4.064   2.825 -0.3241  0.1656 -0.0074
 8999SOL    HW132177   0.187   4.034   2.877 -0.1337 -2.3334 -1.0607
 8999SOL    HW232178   0.350   4.029   2.869 -0.0344 -0.0844 -0.7391
 9000SOL     OW32179   3.627   0.643   0.451 -0.5818 -0.3654 -0.4712
 9000SOL    HW132180   3.652   0.732   0.412 -0.5140  0.3834  1.2400
 9000SOL    HW232181   3.544   0.653   0.506  0.4965 -0.9323  1.3241
 9002SOL     OW32182   4.391   9.121   0.591 -0.6359  0.6580 -0.0200
 9002SOL    HW132183   4.395   9.084   0.683 -0.9601 -1.5744 -0.8707
 9002SOL    HW232184   4.333   9.202   0.589 -2.7447 -0.7949  1.2400
 9006SOL     OW32185   8.361   5.892   3.354  0.3527 -0.0991  0.2834
 9006SOL    HW132186   8.307   5.972   3.383  1.4299  0.3845  0.9816
 9006SOL    HW232187   8.448   5.890   3.404  0.9729 -0.8998 -0.8025
 9008SOL     OW32188   0.488   8.047   0.904 -0.3522  0.9369 -0.0717
 9008SOL    HW132189   0.469   8.125   0.844 -1.2234  0.2938 -0.6432
 9008SOL    HW232190   0.463   8.070   0.998  1.4019  2.1005  0.1472
 9009SOL     OW32191   1.225   8.902   1.740  0.1423  0.4085  0.3410
 9009SOL    HW132192   1.133   8.917   1.778 -0.2796  2.6097 -1.4654
 9009SOL    HW232193   1.289   8.884   1.815 -1.9691 -2.5165  1.5410
 9010SOL     OW32194   2.519   4.686   0.594  0.6337  0.6230 -0.0327
 9010SOL    HW132195   2.576   4.720   0.669 -0.1395  1.2819  0.2575
 9010SOL    HW232196   2.423   4.707   0.612  0.5284  1.6012 -1.6247
 9011SOL     OW32197   2.469   1.723   0.796  0.0534 -0.5932 -0.0662
 9011SOL    HW132198   2.425   1.641   0.833  1.0403 -0.6892  0.9008
 9011SOL    HW232199   2.516   1.772   0.869 -0.5802  0.8792 -0.6273
 9012SOL     OW32200   9.311   7.077   2.266  0.0529  0.8422 -0.5299
 9012SOL    HW132201   9.226   7.130   2.263 -0.2866  0.3696  0.5497
 9012SOL    HW232202   9.360   7.096   2.351  1.2965  1.5068 -1.3845
 9013SOL     OW32203   0.928   0.082   2.420 -0.2807  0.1584 -0.0114
 9013SOL    HW132204   0.985   0.163   2.425  1.0508 -0.5009 -3.1454
 9013SOL    HW232205   0.845   0.102   2.369 -1.1358  0.1492  1.3394
 9014SOL     OW32206   3.059   7.585   2.513  0.1793  0.4053  0.0099
 9014SOL    HW132207   2.981   7.565   2.573  1.0974 -0.0806  1.0531
 9014SOL    HW232208   3.032   7.655   2.447 -0.7778  1.1476  1.1574
 9015SOL     OW32209   8.445   1.269   2.572  0.1648  0.0820  0.2442
 9015SOL    HW132210   8.486   1.220   2.649  0.1907  0.0652  0.2195
 9015SOL    HW232211   8.366   1.321   2.604 -1.8529 -2.5670 -0.3266
 9016SOL     OW32212   7.639   1.135   1.831  0.2140 -0.4211  0.4919
 9016SOL    HW132213   7.671   1.040   1.826 -1.1911 -0.8922  0.1484
 9016SOL    HW232214   7.611   1.165   1.740  2.7302  1.0882  0.1707
 9017SOL     OW32215   9.900   2.465   0.532  0.1539  0.6691 -0.0385
 9017SOL    HW132216   9.833   2.532   0.501 -1.8039 -0.4818  1.6029
 9017SOL    HW232217   9.918   2.478   0.629  0.2749 -0.7515  0.1360
 9018SOL     OW32218   3.840   1.568   1.473  0.1764 -0.0672 -0.1498
 9018SOL    HW132219   3.806   1.552   1.380 -1.4881 -0.4604  0.5107
 9018SOL    HW232220   3.782   1.635   1.519  0.7990 -0.1125  0.7238
 9019SOL     OW32221   7.803   2.664   0.982 -0.2109  0.6680 -0.2419
 9019SOL    HW132222   7.810   2.565   0.968  1.4179  0.8152 -0.6174
 9019SOL    HW232223   7.865   2.691   1.056  0.1125  1.5385 -0.8235
 9020SOL     OW32224   9.284   3.575   0.805  0.8542  0.0924 -0.1173
 9020SOL    HW132225   9.261   3.518   0.726 -2.8252  1.9212 -0.4914
 9020SOL    HW232226   9.283   3.671   0.777  2.2453  0.6118  1.5608
 9021SOL     OW32227   1.306   5.107   3.585  0.1131  0.3795 -0.4701
 9021SOL    HW132228   1.259   5.193   3.565  0.6030  0.5726 -0.8098
 9021SOL    HW232229   1.366   5.083   3.508  0.9440  0.3890  0.1733
 9024SOL     OW32230   1.294   0.243   1.187  0.1727  0.1544 -0.1275
 9024SOL    HW132231   1.228   0.317   1.203 -0.3032 -0.0402 -1.1642
 9024SOL    HW232232   1.379   0.281   1.151  0.2063  0.2814  0.0869
 9025SOL     OW32233   0.663   7.271   1.705  0.1057  0.5471  0.3053
 9025SOL    HW132234   0.563   7.266   1.692  0.3307 -1.6086 -0.7827
 9025SOL    HW232235   0.685   7.251   1.800 -0.3029 -2.3207 -0.1666
 9026SOL     OW32236   9.117   8.517   2.560  0.3173 -0.3868 -0.5322
 9026SOL    HW132237   9.205   8.519   2.608 -0.7399 -0.1794  1.4452
 9026SOL    HW232238   9.101   8.426   2.523  1.6912 -0.2344 -1.5252
 9027SOL     OW32239   8.287   0.335   0.113  0.2386 -0.6790  0.2235
 9027SOL    HW132240   8.314   0.342   0.017  0.1698  1.9197  0.3463
 9027SOL    HW232241   8.367   0.318   0.170  0.7970  1.2023  0.0213
 9028SOL     OW32242   1.233   0.784   1.647 -0.0050 -0.0719 -0.0122
 9028SOL    HW132243   1.218   0.689   1.672 -1.5426  0.2501  0.3065
 9028SOL    HW232244   1.243   0.792   1.548 -2.5780 -0.2155 -0.2929
 9029SOL     OW32245   8.818   8.854   2.369 -0.3730  0.7676 -0.9750
 9029SOL    HW132246   8.747   8.825   2.434  1.6299 -0.2184  0.8381
 9029SOL    HW232247   8.870   8.929   2.410  2.9239 -1.9299 -0.0664
 9030SOL     OW32248   2.963   1.943   1.703  0.4288 -0.5027 -0.1336
 9030SOL    HW132249   3.044   1.992   1.735  0.0201  1.0016 -1.3774
 9030SOL    HW232250   2.886   1.964   1.763  0.2575  0.3833 -0.6558
 9031SOL     OW32251   9.025   5.205   1.835  0.2238 -0.1732  0.4130
 9031SOL    HW132252   8.975   5.155   1.905  0.3585 -0.2329  0.4674
 9031SOL    HW232253   9.114   5.234   1.872  1.0192 -1.6679 -0.2680
 9032SOL     OW32254   9.624   8.389   1.954  0.1994 -0.2097 -0.2771
 9032SOL    HW132255   9.712   8.434   1.970  0.8798 -1.2185 -1.0546
 9032SOL    HW232256   9.557   8.422   2.020  1.5331 -0.4374  1.2327
 9033SOL     OW32257   3.052   3.251   3.355 -0.1452  0.0444  0.1821
 9033SOL    HW132258   2.963   3.223   3.318 -0.4276  0.2370  0.7003
 9033SOL    HW232259   3.043   3.266   3.453  0.9821 -2.0947  0.6455
 9036SOL     OW32260   3.598   8.206   3.595 -0.2539 -0.1462  0.4626
 9036SOL    HW132261   3.519   8.250   3.639 -0.6203 -1.0719  0.7394
 9036SOL    HW232262   3.656   8.276   3.553 -0.4887  0.6519  1.4534
 9037SOL     OW32263   9.170   8.950   0.941 -0.4855 -0.5878 -0.0281
 9037SOL    HW132264   9.113   9.014   0.889  1.8814  0.5138 -1.3384
 9037SOL    HW232265   9.181   8.984   1.035  1.5683  1.5122 -0.9811
 9038SOL     OW32266   0.459   1.988   2.821  0.4789  0.2976  0.4230
 9038SOL    HW132267   0.466   2.084   2.793 -0.9050 -0.1520 -1.5503
 9038SOL    HW232268   0.368   1.953   2.800  1.6695 -2.1041 -1.0423
 9039SOL     OW32269   1.722   8.855   2.101  0.9953 -0.7208  0.2612
 9039SOL    HW132270   1.660   8.814   2.168  0.9656  0.0086  0.6936
 9039SOL    HW232271   1.816   8.829   2.123  0.8048 -2.2674 -0.7134
 9041SOL     OW32272   2.214   8.865   2.163  0.0394 -0.4771 -0.1216
 9041SOL    HW132273   2.247   8.770   2.170  0.0250 -0.4216  0.7543
 9041SOL    HW232274   2.251   8.907   2.080  0.6337 -1.0215 -0.1387
 9042SOL     OW32275   9.805   0.190   0.854 -0.3824  0.0828  0.0857
 9042SOL    HW132276   9.762   0.101   0.840  0.0955 -0.3334  1.1674
 9042SOL    HW232277   9.900   0.187   0.824 -0.8452  0.7554 -1.5126
 9043SOL     OW32278   0.683   9.495   1.974 -0.4081  0.1691 -0.6879
 9043SOL    HW132279   0.611   9.528   1.913 -1.0424 -0.2075 -0.1538
 9043SOL    HW232280   0.641   9.459   2.058  0.3925 -0.2659 -0.4747
 9044SOL     OW32281   9.489   0.632   0.966  0.1410 -0.1646  0.1866
 9044SOL    HW132282   9.524   0.550   0.922  2.3555  1.1674 -0.6294
 9044SOL    HW232283   9.488   0.619   1.065  0.7338 -1.0916  0.0700
 9045SOL     OW32284   9.836   5.487   0.492 -0.4217  0.2590 -0.5761
 9045SOL    HW132285   9.758   5.467   0.551 -0.5778 -0.7108 -1.0982
 9045SOL    HW232286   9.920   5.457   0.538 -0.6168 -1.2607 -1.1762
 9048SOL     OW32287   3.383   9.617   2.603 -0.0336  0.1719  0.0331
 9048SOL    HW132288   3.291   9.637   2.570 -0.4317 -0.0680  0.9927
 9048SOL    HW232289   3.417   9.535   2.556 -0.8913 -0.6056  0.7367
 9049SOL     OW32290   3.560   9.706   1.803  0.0311 -0.4195 -0.2445
 9049SOL    HW132291   3.565   9.611   1.773  0.4107 -0.3805 -0.3135
 9049SOL    HW232292   3.567   9.710   1.903 -0.4666 -0.4983 -0.2091
 9050SOL     OW32293   0.173   0.916   2.985 -0.0856 -0.0464 -0.1448
 9050SOL    HW132294   0.147   1.011   2.999  0.5052 -0.0850  1.3135
 9050SOL    HW232295   0.125   0.880   2.905 -1.3266  1.0865  0.0658
 9051SOL     OW32296   0.446   2.352   2.216  0.0432 -0.0175 -0.2211
 9051SOL    HW132297   0.387   2.410   2.273  1.7150  2.5374 -0.9810
 9051SOL    HW232298   0.398   2.328   2.132 -0.6147  0.4455  0.0149
 9053SOL     OW32299   7.409   0.280   0.155  0.5648  0.4803 -0.0987
 9053SOL    HW132300   7.374   0.196   0.114  0.9232  0.3044 -0.0492
 9053SOL    HW232301   7.508   0.285   0.141  0.2334  2.0444 -2.1919
 9054SOL     OW32302   1.009   0.736   1.127 -0.1367 -0.0722  0.0773
 9054SOL    HW132303   1.100   0.696   1.141 -0.1026 -0.1932 -0.4727
 9054SOL    HW232304   0.959   0.681   1.060 -0.9467 -0.5285  1.0436
 9055SOL     OW32305   2.739   0.547   0.935 -0.2499 -0.3123  0.1502
 9055SOL    HW132306   2.678   0.476   0.971  1.2233 -1.3537  0.6353
 9055SOL    HW232307   2.698   0.589   0.854 -1.3660 -1.3586  0.1650
 9056SOL     OW32308   2.462   6.478   1.787  0.0844  0.3770 -0.3423
 9056SOL    HW132309   2.438   6.387   1.820  0.0423  0.9017  1.1174
 9056SOL    HW232310   2.518   6.470   1.705 -1.6954 -0.9252 -1.4664
 9058SOL     OW32311   1.096   2.181   2.401 -0.0077 -0.0782 -0.0863
 9058SOL    HW132312   1.187   2.179   2.360  0.9230  0.6837  1.8920
 9058SOL    HW232313   1.055   2.090   2.394  1.3307 -0.6988 -0.0905
 9061SOL     OW32314   8.221   8.471   1.657  0.4361  0.2369  0.9676
 9061SOL    HW132315   8.302   8.510   1.701  0.1652  0.6787  1.0836
 9061SOL    HW232316   8.165   8.425   1.725 -0.3747  1.5878  1.2478
 9063SOL     OW32317   8.380   8.265   1.844 -0.1291  0.2310 -0.1562
 9063SOL    HW132318   8.387   8.292   1.940  0.6907 -2.1901  0.4884
 9063SOL    HW232319   8.456   8.306   1.792  0.4588  0.0697  0.5759
 9064SOL     OW32320   8.719   1.799   1.426 -0.2696 -0.7442  0.3206
 9064SOL    HW132321   8.700   1.875   1.487 -0.2086 -1.2144  0.9333
 9064SOL    HW232322   8.811   1.763   1.445  0.3882  0.1392 -1.1451
 9065SOL     OW32323   4.743   1.476   0.151 -0.7507  0.1402  0.1269
 9065SOL    HW132324   4.776   1.537   0.223  0.7022 -1.1583  0.6038
 9065SOL    HW232325   4.689   1.402   0.192 -1.4783  0.4257 -0.3150
 9066SOL     OW32326   2.261   8.221   0.581  0.0854  0.4075 -0.4741
 9066SOL    HW132327   2.315   8.269   0.512  1.1550 -1.5752 -1.0394
 9066SOL    HW232328   2.319   8.199   0.659 -0.1969 -0.6909 -0.5690
 9069SOL     OW32329   3.501   9.555   0.309 -0.7327 -0.4319  0.0462
 9069SOL    HW132330   3.439   9.484   0.276 -0.7748 -0.8271  0.9689
 9069SOL    HW232331   3.595   9.520   0.309 -0.9984 -1.1881  2.4340
 9071SOL     OW32332   1.564   0.469   3.252 -0.3801  0.3284  0.2450
 9071SOL    HW132333   1.597   0.378   3.277  0.2082  0.8090  1.2667
 9071SOL    HW232334   1.586   0.534   3.325 -0.1762  1.4296 -0.7693
 9072SOL     OW32335   4.720   8.462   1.684  0.6590 -0.3355 -0.2024
 9072SOL    HW132336   4.627   8.494   1.703  1.0624  1.6513 -1.3503
 9072SOL    HW232337   4.779   8.478   1.763  0.0942 -1.3380  0.4238
 9073SOL     OW32338   1.962   0.386   3.667 -0.0004 -0.0120  0.1485
 9073SOL    HW132339   1.957   0.385   3.567  1.4098  0.0445  0.0687
 9073SOL    HW232340   2.015   0.465   3.697 -1.3189  0.5661  0.9950
 9074SOL     OW32341   8.197   6.630   1.616  0.2283  0.2906 -0.2918
 9074SOL    HW132342   8.265   6.605   1.685  0.2837  0.4396 -0.2919
 9074SOL    HW232343   8.244   6.662   1.533  0.1556  1.3470  0.0621
 9075SOL     OW32344   8.260   0.716   3.490 -0.1538 -0.1475 -0.4834
 9075SOL    HW132345   8.281   0.628   3.532 -0.0008  0.3215  0.4283
 9075SOL    HW232346   8.188   0.762   3.543 -0.2530  0.2675 -0.9719
 9076SOL     OW32347   3.693   1.151   1.155  0.2988  0.1597  0.3776
 9076SOL    HW132348   3.743   1.204   1.223  0.2981  0.4704  0.1367
 9076SOL    HW232349   3.697   1.198   1.066  1.1897 -0.7550 -0.0807
 9078SOL     OW32350   3.238   5.226   2.007 -0.1954 -0.2792  0.0641
 9078SOL    HW132351   3.299   5.222   1.928 -1.3508 -0.0548 -0.8661
 9078SOL    HW232352   3.291   5.238   2.090  1.0175 -0.0455 -0.7313
 9079SOL     OW32353   0.527   8.771   1.351  0.0098 -0.5296  0.1895
 9079SOL    HW132354   0.594   8.834   1.312  0.0640 -1.3488 -1.1005
 9079SOL    HW232355   0.472   8.731   1.277 -0.8451 -1.0638  1.0917
 9080SOL     OW32356   8.008   3.102   1.316  0.1278 -0.4553 -0.2233
 9080SOL    HW132357   8.037   3.021   1.367  0.0143 -0.6644 -0.4928
 9080SOL    HW232358   7.909   3.105   1.311  0.1815 -1.7366 -2.5225
 9081SOL     OW32359   0.914   0.570   2.408  0.4147  0.1330 -0.3469
 9081SOL    HW132360   0.928   0.634   2.484  0.6805  0.2190 -0.4701
 9081SOL    HW232361   0.818   0.542   2.406  0.2826  0.5829 -0.3394
 9082SOL     OW32362   2.747   7.619   1.057 -0.4092 -0.2735 -0.2085
 9082SOL    HW132363   2.779   7.527   1.079 -0.6232 -0.1048  0.7978
 9082SOL    HW232364   2.709   7.619   0.964 -0.5508 -1.2296 -0.1587
 9085SOL     OW32365   8.423   9.057   1.629  0.0500 -0.1826  0.3110
 9085SOL    HW132366   8.439   8.960   1.610 -0.0724 -0.3356  0.9788
 9085SOL    HW232367   8.451   9.078   1.722  1.9795  0.8620 -0.4678
 9086SOL     OW32368   0.359   6.438   1.141 -0.3450 -0.4683 -0.4415
 9086SOL    HW132369   0.292   6.512   1.133 -1.3217 -1.2413  0.5997
 9086SOL    HW232370   0.315   6.350   1.122  0.2874 -1.0131  0.5920
 9087SOL     OW32371   9.672   7.327   1.859  0.1442 -0.3623  0.5789
 9087SOL    HW132372   9.573   7.311   1.850 -0.0338  0.6620  0.6859
 9087SOL    HW232373   9.694   7.345   1.955  0.0834  1.7004  0.2264
 9088SOL     OW32374   6.086   0.349   1.852  0.5661 -0.0381 -1.2741
 9088SOL    HW132375   6.036   0.433   1.871  1.8980  0.6750 -0.8909
 9088SOL    HW232376   6.176   0.371   1.815  1.5115 -1.2499  0.2527
 9089SOL     OW32377   1.984   0.705   3.515  0.2572  0.1463  0.5210
 9089SOL    HW132378   1.983   0.804   3.530 -2.0926 -0.0153  1.7242
 9089SOL    HW232379   1.901   0.678   3.465  1.2135 -1.1338 -0.4172
 9090SOL     OW32380   1.185   1.488   0.423  0.6436 -1.0001  0.5292
 9090SOL    HW132381   1.197   1.529   0.513  1.7601  0.7953 -0.4025
 9090SOL    HW232382   1.265   1.507   0.367 -0.4763 -1.2165 -1.1769
 9091SOL     OW32383   7.732   7.055   2.330  0.5568 -0.0310  0.0025
 9091SOL    HW132384   7.765   7.011   2.414 -3.0637 -2.1175  0.3922
 9091SOL    HW232385   7.769   7.148   2.326  0.5719  0.2539  4.0699
 9092SOL     OW32386   4.251   8.243   0.150 -0.1836 -0.3814  0.0223
 9092SOL    HW132387   4.278   8.339   0.146  0.4006 -0.4970  0.8795
 9092SOL    HW232388   4.164   8.234   0.198 -0.9360 -0.1623 -1.2739
 9093SOL     OW32389   1.806   8.513   0.279 -0.9278 -0.0415 -0.7067
 9093SOL    HW132390   1.802   8.609   0.304 -1.6349 -0.6723  1.7451
 9093SOL    HW232391   1.893   8.474   0.308 -1.3450 -0.5364 -0.0759
 9096SOL     OW32392   7.439   8.382   1.904  0.0674 -0.3116  0.1121
 9096SOL    HW132393   7.417   8.479   1.894 -1.7865 -0.9759 -2.9212
 9096SOL    HW232394   7.380   8.341   1.974 -2.1594 -0.1276 -1.6245
 9097SOL     OW32395   4.306   8.232   2.139 -0.2022 -0.5779 -0.2552
 9097SOL    HW132396   4.380   8.228   2.071 -0.1683 -3.0149 -0.0991
 9097SOL    HW232397   4.227   8.279   2.098  1.1641  1.4700 -0.6379
 9099SOL     OW32398   3.033   2.573   2.430 -0.3243  1.1623  0.2844
 9099SOL    HW132399   2.996   2.545   2.342 -0.7459  3.6185 -0.3590
 9099SOL    HW232400   3.128   2.542   2.438 -0.8467 -0.6245 -0.2512
 9100SOL     OW32401   4.619   0.696   1.764  0.0248 -0.3636  0.0336
 9100SOL    HW132402   4.568   0.657   1.688  0.5133 -0.6635 -0.1418
 9100SOL    HW232403   4.712   0.659   1.765  0.0670 -0.2520  0.6851
 9101SOL     OW32404   9.692   7.733   2.617 -0.2255  0.5864  0.3190
 9101SOL    HW132405   9.663   7.782   2.699 -1.9840  0.1484 -0.0183
 9101SOL    HW232406   9.677   7.789   2.536 -0.0189  0.3984  0.1476
 9102SOL     OW32407   9.932   2.309   3.303  0.1132  0.5749 -0.0151
 9102SOL    HW132408   9.929   2.305   3.403 -0.1978  0.4423 -0.0290
 9102SOL    HW232409   9.979   2.227   3.269  2.1508  1.6600  0.1132
 9104SOL     OW32410   7.011   0.722   2.294  0.3052 -0.3563 -0.3633
 9104SOL    HW132411   7.107   0.722   2.267  0.7064  2.4238  0.8908
 9104SOL    HW232412   7.004   0.714   2.393 -0.8605 -2.7589 -0.6105
 9105SOL     OW32413   2.877   1.066   1.920 -0.9065 -0.1268 -0.9017
 9105SOL    HW132414   2.908   1.141   1.863  1.1916 -0.3853 -0.1474
 9105SOL    HW232415   2.857   1.100   2.012 -0.7079 -0.3569 -0.7726
 9107SOL     OW32416   6.801   7.515   2.172  0.6454 -0.5437  0.4601
 9107SOL    HW132417   6.833   7.574   2.099 -2.0253 -2.2779 -2.2132
 9107SOL    HW232418   6.729   7.562   2.224 -0.5422 -0.8861 -0.8342
 9108SOL     OW32419   1.019   4.339   3.650 -0.2232  0.2060 -0.1667
 9108SOL    HW132420   1.113   4.373   3.651 -0.5186  1.0349  0.3160
 9108SOL    HW232421   1.018   4.241   3.667  0.4599  0.4570  1.3510
 9111SOL     OW32422   3.882   4.100   3.182  0.5058 -0.0240  0.0191
 9111SOL    HW132423   3.816   4.169   3.152 -1.1007 -1.6855 -0.3065
 9111SOL    HW232424   3.848   4.056   3.265  2.4125  0.8418  1.3068
 9115SOL     OW32425   3.694   1.626   2.297  0.0207 -0.6504 -0.7590
 9115SOL    HW132426   3.707   1.673   2.384  0.2188  0.3044 -1.3014
 9115SOL    HW232427   3.783   1.594   2.263 -0.1810 -1.9014 -0.1231
 9116SOL     OW32428   5.480   0.988   3.345 -0.5011  0.1303 -0.2853
 9116SOL    HW132429   5.443   0.971   3.253 -2.2902 -0.9960  0.6022
 9116SOL    HW232430   5.451   1.078   3.376 -1.4014 -0.1947 -0.1492
 9118SOL     OW32431   8.834   4.330   2.651  0.1432  0.1318 -0.0561
 9118SOL    HW132432   8.782   4.415   2.642 -0.7541 -0.3857  0.2259
 9118SOL    HW232433   8.826   4.278   2.566 -0.5257 -0.3536  0.3006
 9119SOL     OW32434   1.141   9.679   0.124 -0.5534 -0.2320 -0.0327
 9119SOL    HW132435   1.160   9.631   0.039  0.1642 -0.3163  0.1715
 9119SOL    HW232436   1.221   9.674   0.184 -1.4115 -1.0367  1.0632
 9120SOL     OW32437   1.960   8.105   2.016  0.0685 -0.0849  0.4097
 9120SOL    HW132438   1.993   8.113   2.110  3.9678 -3.7045 -0.4492
 9120SOL    HW232439   1.993   8.183   1.963 -1.1759  1.3879  1.7530
 9122SOL     OW32440   1.093   2.416   1.630  0.4504 -0.3217 -0.0508
 9122SOL    HW132441   1.064   2.486   1.695  1.2169  0.8392 -0.9330
 9122SOL    HW232442   1.046   2.330   1.650  0.8033 -0.0297  2.1258
 9123SOL     OW32443   2.749   2.919   1.405  0.3505 -0.0053  0.0192
 9123SOL    HW132444   2.784   2.911   1.498 -1.9505 -0.0258  0.9090
 9123SOL    HW232445   2.730   3.015   1.384 -2.0368 -0.2931  0.7058
 9126SOL     OW32446   0.306   3.289   1.112  0.4646 -0.2129  0.3050
 9126SOL    HW132447   0.357   3.211   1.148 -0.2195 -0.6888  0.2405
 9126SOL    HW232448   0.225   3.257   1.064  1.3429  0.4292 -1.6354
 9127SOL     OW32449   2.306   2.701   2.771  0.1156 -0.2696 -0.2580
 9127SOL    HW132450   2.312   2.641   2.851 -0.9168  0.7822  0.6240
 9127SOL    HW232451   2.223   2.679   2.720 -0.1390  0.2553 -0.0660
 9128SOL     OW32452   5.097   3.701   0.181 -0.1300  0.1592  0.0675
 9128SOL    HW132453   5.028   3.773   0.183 -0.9526 -0.5626 -1.8221
 9128SOL    HW232454   5.056   3.616   0.150  1.6459 -0.2539 -1.2016
 9129SOL     OW32455   3.514   4.816   2.559 -0.5593  0.3839 -0.0526
 9129SOL    HW132456   3.553   4.725   2.575 -0.8834  0.5579  1.8043
 9129SOL    HW232457   3.485   4.823   2.463 -0.3249 -1.3855 -0.2759
 9131SOL     OW32458   0.671   7.797   0.901  0.1379  0.3270  0.3656
 9131SOL    HW132459   0.616   7.849   0.966  0.7339  0.7066  0.5671
 9131SOL    HW232460   0.634   7.809   0.809 -1.3084 -1.0012  0.7408
 9132SOL     OW32461   4.973   7.223   3.457 -0.0333  0.4454 -0.2203
 9132SOL    HW132462   4.983   7.311   3.502  0.4809 -0.7637  2.1081
 9132SOL    HW232463   5.059   7.197   3.413  0.3202  0.3610  0.5137
 9133SOL     OW32464   4.709   0.166   3.104 -0.5191  0.4559  0.0250
 9133SOL    HW132465   4.682   0.226   3.029  0.6972  0.2744 -0.5794
 9133SOL    HW232466   4.768   0.093   3.069 -0.8632 -0.2949  0.9768
 9135SOL     OW32467   0.578   9.025   0.631  0.1149 -0.0359  0.7831
 9135SOL    HW132468   0.629   9.105   0.602 -0.0599  0.2787  1.3444
 9135SOL    HW232469   0.595   8.949   0.567 -0.2809  0.6527 -0.1541
 9136SOL     OW32470   7.715   4.923   3.747 -0.5175 -0.1364  0.0724
 9136SOL    HW132471   7.669   5.011   3.742  0.6719  0.4644 -0.3575
 9136SOL    HW232472   7.811   4.933   3.722 -0.3762 -1.5610 -0.0313
 9137SOL     OW32473   6.572   7.388   2.777  0.0102  0.2967  0.6451
 9137SOL    HW132474   6.503   7.411   2.846  0.1365 -0.5842  1.0695
 9137SOL    HW232475   6.529   7.389   2.687 -1.3688 -3.3254  1.1701
 9138SOL     OW32476   9.230   8.038   2.105 -0.3449 -0.2956 -0.4137
 9138SOL    HW132477   9.260   8.129   2.077 -0.3467 -0.5894 -1.3877
 9138SOL    HW232478   9.299   7.970   2.078  0.2662 -0.4397  1.4539
 9139SOL     OW32479   1.300   9.821   3.756  0.7103 -0.1191  0.1589
 9139SOL    HW132480   1.243   9.778   3.687  1.6376  0.0212 -0.7119
 9139SOL    HW232481   1.294   9.921   3.747  1.0369 -0.1020  0.1034
 9140SOL     OW32482   2.035   5.040   2.644  0.1956 -0.3361  0.3694
 9140SOL    HW132483   2.118   5.021   2.591  0.6447  1.8091  0.2783
 9140SOL    HW232484   2.012   4.960   2.699  0.0664 -2.3974 -2.5745
 9141SOL     OW32485   5.007   4.329   0.635 -0.2192 -0.2208  0.4437
 9141SOL    HW132486   4.944   4.345   0.559 -0.4079 -0.4321  0.5549
 9141SOL    HW232487   4.966   4.264   0.699  0.6778 -1.4306 -0.1874
 9142SOL     OW32488   8.143   2.644   0.557 -0.8075  0.1907 -0.2242
 9142SOL    HW132489   8.061   2.619   0.506  0.2112  0.0913 -1.8355
 9142SOL    HW232490   8.117   2.676   0.648 -2.6469  0.4253 -0.8138
 9143SOL     OW32491   9.735   4.444   1.555  0.1219 -0.4741  0.1592
 9143SOL    HW132492   9.644   4.431   1.594  0.8825 -1.2017  1.7358
 9143SOL    HW232493   9.802   4.452   1.628  1.8331 -3.7021 -0.9612
 9145SOL     OW32494   0.743   9.780   3.216 -0.1233 -0.1241 -0.2652
 9145SOL    HW132495   0.766   9.859   3.159 -2.4353  2.4662  2.1783
 9145SOL    HW232496   0.648   9.754   3.199  0.0867 -1.2377  0.2545
 9148SOL     OW32497   8.726   4.445   3.631  0.3365 -0.2551  0.3824
 9148SOL    HW132498   8.807   4.386   3.628 -0.6645 -1.5811 -1.4280
 9148SOL    HW232499   8.739   4.523   3.570 -0.0874 -0.9295 -0.5789
 9149SOL     OW32500   3.579   8.221   3.095  0.4685 -0.1858 -0.1204
 9149SOL    HW132501   3.597   8.150   3.027 -0.1405 -0.0257 -0.4519
 9149SOL    HW232502   3.482   8.245   3.094  0.9739  1.9406 -1.2927
 9150SOL     OW32503   3.715   5.139   1.441 -0.1736  0.2253 -0.1897
 9150SOL    HW132504   3.804   5.118   1.401  0.2447  1.2476  0.1890
 9150SOL    HW232505   3.689   5.233   1.417 -0.4325  0.4667  0.9756
 9151SOL     OW32506   1.016   4.035   3.695 -0.1820  0.7511  0.0082
 9151SOL    HW132507   1.103   3.996   3.728  0.6704  2.0749 -0.6386
 9151SOL    HW232508   0.958   4.057   3.773 -0.2691 -0.8478  0.4251
 9154SOL     OW32509   1.347   1.039   0.327  0.0782  0.3602  0.3368
 9154SOL    HW132510   1.270   1.098   0.304  0.0405 -0.4031 -1.6107
 9154SOL    HW232511   1.315   0.960   0.379 -0.1309  1.1206  1.3760
 9156SOL     OW32512   0.205   3.787   0.960  0.0215  0.0245  0.2944
 9156SOL    HW132513   0.107   3.803   0.951  0.4015  1.3975 -1.7124
 9156SOL    HW232514   0.223   3.688   0.963 -1.4573 -0.2294  1.6081
 9157SOL     OW32515   8.426   3.745   1.648  0.7600  0.3672  0.0716
 9157SOL    HW132516   8.405   3.648   1.642 -0.3329  0.6544 -0.9304
 9157SOL    HW232517   8.520   3.757   1.683  0.7807 -1.0179  0.5279
 9158SOL     OW32518   1.045   4.379   2.747 -0.2852 -0.3599  0.3103
 9158SOL    HW132519   0.973   4.447   2.758  0.3225  0.4101 -0.4002
 9158SOL    HW232520   1.004   4.288   2.738 -1.1311 -0.0070  0.5847
 9161SOL     OW32521   1.182   7.601   2.256 -0.0241 -0.0429  0.8722
 9161SOL    HW132522   1.135   7.535   2.315 -2.2167 -0.5226 -1.3258
 9161SOL    HW232523   1.143   7.692   2.269  0.2989  0.0815  0.9963
 9162SOL     OW32524   2.802   5.607   3.235 -0.2024 -0.2602  0.2501
 9162SOL    HW132525   2.826   5.674   3.305  2.0642 -0.0636 -0.6964
 9162SOL    HW232526   2.831   5.516   3.264  1.2923 -0.0906 -0.6965
 9163SOL     OW32527   8.169   3.708   0.711 -0.7792 -0.1447 -0.4714
 9163SOL    HW132528   8.174   3.760   0.797 -2.9238  0.6443 -0.7753
 9163SOL    HW232529   8.130   3.618   0.729 -2.9507  0.6802 -0.8335
 9164SOL     OW32530   9.457   7.159   2.500 -0.1309  0.0561  0.1962
 9164SOL    HW132531   9.470   7.219   2.420 -1.7070  0.4410  0.2132
 9164SOL    HW232532   9.444   7.215   2.582  2.2128 -0.3418  0.8672
 9165SOL     OW32533   1.397   6.219   1.949  0.4715  0.3321  0.3737
 9165SOL    HW132534   1.480   6.249   1.996  0.2307  0.5120  0.6764
 9165SOL    HW232535   1.335   6.177   2.014  0.8063 -0.8364 -0.0402
 9166SOL     OW32536   1.570   0.139   1.798 -0.7908 -0.1377  0.2954
 9166SOL    HW132537   1.586   0.195   1.716 -1.1644  0.2418  0.4826
 9166SOL    HW232538   1.477   0.154   1.830 -1.5676 -2.3810 -0.8198
 9167SOL     OW32539   9.261   4.324   1.086 -0.1995  0.0674  0.1778
 9167SOL    HW132540   9.344   4.273   1.067  0.0215  0.5946 -0.2755
 9167SOL    HW232541   9.254   4.341   1.184  0.7911  0.9761  0.0966
 9168SOL     OW32542   8.712   3.909   2.972 -0.3355  0.2296  0.3536
 9168SOL    HW132543   8.747   4.002   2.958 -2.7397  1.0519 -0.3930
 9168SOL    HW232544   8.680   3.899   3.066  0.0938  0.0699  0.4878
 9169SOL     OW32545   4.727   1.155   1.712 -0.2753 -0.2196 -0.1610
 9169SOL    HW132546   4.768   1.241   1.741  1.0928 -0.6216 -0.8753
 9169SOL    HW232547   4.753   1.082   1.775  1.3031 -0.7511 -1.3735
 9170SOL     OW32548   4.847   7.261   1.598 -0.2550 -0.0430 -0.0055
 9170SOL    HW132549   4.766   7.225   1.553 -0.9423  0.6775  0.6214
 9170SOL    HW232550   4.823   7.346   1.646  1.0845  0.7011 -0.6145
 9171SOL     OW32551   4.892   0.621   1.785 -0.2113  0.7616 -0.6356
 9171SOL    HW132552   4.820   0.553   1.774 -1.0895  1.4577  0.7250
 9171SOL    HW232553   4.934   0.611   1.875 -0.8301  2.4521 -0.1275
 9173SOL     OW32554   9.422   8.012   3.702 -0.1632 -0.1879 -0.2717
 9173SOL    HW132555   9.409   7.931   3.760  0.6782 -0.5274 -0.5537
 9173SOL    HW232556   9.395   7.991   3.608 -0.9134  0.1737 -0.1483
 9174SOL     OW32557   1.390   4.050   2.548  0.3183  0.3450 -0.1126
 9174SOL    HW132558   1.350   3.959   2.561  0.0985  0.6518  1.5670
 9174SOL    HW232559   1.338   4.101   2.480  0.1082 -0.5984 -0.6526
 9176SOL     OW32560   6.576   0.480   3.681  0.3683 -0.1894  0.5690
 9176SOL    HW132561   6.672   0.458   3.665  0.0787 -1.9136  1.1072
 9176SOL    HW232562   6.550   0.559   3.625  2.5377  1.3972  1.6889
 9179SOL     OW32563   8.099   8.671   2.849 -0.0866 -0.8210 -0.3889
 9179SOL    HW132564   8.138   8.690   2.759  0.3019  2.0018  0.3298
 9179SOL    HW232565   8.172   8.655   2.915 -0.3346 -1.5770 -0.2881
 9180SOL     OW32566   9.047   9.001   2.408 -0.0916  0.8093 -0.7189
 9180SOL    HW132567   9.108   8.931   2.371 -1.4796 -1.0468  0.4375
 9180SOL    HW232568   9.099   9.060   2.471  0.9039  0.3804 -1.1242
 9182SOL     OW32569   2.696   7.868   1.160 -0.0194 -0.1667  0.1122
 9182SOL    HW132570   2.683   7.914   1.072  0.8833  2.0321  1.1053
 9182SOL    HW232571   2.679   7.770   1.148 -1.1680  0.2576 -2.2257
 9183SOL     OW32572   3.942   6.986   1.844  0.1028 -0.4840  0.1571
 9183SOL    HW132573   3.924   6.916   1.775 -1.2490  0.2756 -0.2819
 9183SOL    HW232574   3.998   7.058   1.804 -0.3431 -0.2426 -0.0371
 9184SOL     OW32575   2.165   5.209   3.709 -0.0085  0.5835 -0.0329
 9184SOL    HW132576   2.160   5.284   3.774  1.1554  0.0576  0.6868
 9184SOL    HW232577   2.241   5.224   3.646  0.1086  0.1191 -0.0063
 9186SOL     OW32578   2.589   1.432   2.584  0.2498  0.4249  0.1157
 9186SOL    HW132579   2.664   1.441   2.650 -0.1238  1.0552  0.4574
 9186SOL    HW232580   2.624   1.450   2.492  0.9818 -1.3791  0.0046
 9187SOL     OW32581   1.931   6.967   0.832  0.0012 -0.8482 -0.4546
 9187SOL    HW132582   1.914   7.021   0.915 -0.2678 -1.1525 -0.3121
 9187SOL    HW232583   1.865   6.892   0.827 -1.5008  0.5438 -2.1613
 9188SOL     OW32584   9.514   3.717   2.710 -0.3214 -0.2148 -0.3284
 9188SOL    HW132585   9.454   3.674   2.777  0.5101  0.3507  0.7976
 9188SOL    HW232586   9.464   3.732   2.625 -0.3399 -4.4594 -1.1978
 9190SOL     OW32587   2.180   9.768   0.127 -0.2777 -0.0404  1.2158
 9190SOL    HW132588   2.249   9.835   0.155 -0.3493  0.3372  0.4883
 9190SOL    HW232589   2.168   9.771   0.028 -0.8538 -0.5791  1.2647
 9191SOL     OW32590   2.545   4.933   2.100  0.4375  0.5101 -0.5458
 9191SOL    HW132591   2.541   5.031   2.116 -0.3513  0.0807  2.2345
 9191SOL    HW232592   2.572   4.886   2.185 -1.2084 -1.8081 -1.2416
 9192SOL     OW32593   3.896   1.657   0.247  0.0855 -0.2760 -0.3634
 9192SOL    HW132594   3.983   1.693   0.213  0.0970 -1.0627 -1.1787
 9192SOL    HW232595   3.846   1.613   0.172 -1.8561  1.7847 -0.3250
 9193SOL     OW32596   4.966   9.740   2.421 -0.1475 -0.4002 -0.1370
 9193SOL    HW132597   4.934   9.649   2.450 -0.6618 -0.1865 -0.0118
 9193SOL    HW232598   4.915   9.810   2.472 -0.5271 -0.0266 -1.0175
 9194SOL     OW32599   8.346   5.696   1.312  0.2024 -0.2138 -0.2420
 9194SOL    HW132600   8.407   5.729   1.384 -0.4716 -0.0790  0.2746
 9194SOL    HW232601   8.270   5.647   1.353  0.0904 -0.5897 -0.8974
 9195SOL     OW32602   9.688   4.191   2.614 -0.4893 -0.6364 -0.0313
 9195SOL    HW132603   9.706   4.122   2.684 -1.6271 -0.2457  0.6563
 9195SOL    HW232604   9.748   4.270   2.629  0.5216 -1.2876 -0.5759
 9197SOL     OW32605   9.680   1.784   0.427 -0.1265 -0.1318  0.1107
 9197SOL    HW132606   9.642   1.837   0.352  1.8457  0.1069 -0.7719
 9197SOL    HW232607   9.661   1.829   0.514  0.4572  1.3868 -0.5298
 9198SOL     OW32608   9.106   1.575   3.533  0.1330 -0.0229 -0.7984
 9198SOL    HW132609   9.167   1.577   3.453  1.1906  1.3218  0.0264
 9198SOL    HW232610   9.046   1.655   3.531 -1.0428 -0.9113 -1.1661
 9199SOL     OW32611   9.063   1.264   1.982 -0.2219  0.2506 -0.0627
 9199SOL    HW132612   9.008   1.337   1.941 -1.6000  0.1764  1.6054
 9199SOL    HW232613   9.049   1.180   1.930 -0.3138  0.6485 -0.6960
 9200SOL     OW32614   2.646   8.493   3.197 -0.1392  0.1379 -0.6339
 9200SOL    HW132615   2.684   8.519   3.109  0.5019  0.1869 -0.3458
 9200SOL    HW232616   2.613   8.574   3.245  0.2619  0.2062 -0.4780
 9201SOL     OW32617   3.770   2.968   2.207  0.7025  0.4641 -0.1214
 9201SOL    HW132618   3.705   3.043   2.219  0.1025 -0.1007  0.1948
 9201SOL    HW232619   3.751   2.921   2.121 -0.5667 -0.9087  0.8709
 9202SOL     OW32620   8.855   7.089   1.183  0.0229  0.2798 -0.7945
 9202SOL    HW132621   8.913   7.013   1.212 -0.3085  0.3264  0.0069
 9202SOL    HW232622   8.875   7.112   1.088  1.4253  0.3810 -0.4897
 9203SOL     OW32623   4.140   6.272   3.272  0.6956  0.5996 -0.7495
 9203SOL    HW132624   4.094   6.345   3.321 -2.8374 -2.6134  0.9240
 9203SOL    HW232625   4.086   6.247   3.191  1.4538 -0.6907 -0.8697
 9204SOL     OW32626   1.102   6.376   3.767  0.3057 -0.2078  0.4820
 9204SOL    HW132627   1.054   6.331   3.692  1.7781 -1.4370  0.2516
 9204SOL    HW232628   1.071   6.471   3.775 -1.5452 -0.7379 -0.1716
 9207SOL     OW32629   1.816   6.050   0.961 -0.4826  1.0324  0.0368
 9207SOL    HW132630   1.809   6.090   1.052 -1.7245 -0.8010  0.7882
 9207SOL    HW232631   1.740   6.082   0.904 -1.0598  0.3706  0.4125
 9209SOL     OW32632   6.075   8.569   1.662 -0.3207  0.9169 -0.1864
 9209SOL    HW132633   5.977   8.552   1.654  0.2861 -2.3505 -1.1508
 9209SOL    HW232634   6.119   8.554   1.574  1.1942  1.4579  0.4520
 9210SOL     OW32635   9.752   2.318   1.078 -0.2331  0.0657  0.1141
 9210SOL    HW132636   9.666   2.329   1.126 -0.8696 -0.9906 -0.7622
 9210SOL    HW232637   9.807   2.247   1.122  0.5088  1.2074  1.0834
 9211SOL     OW32638   9.899   0.689   1.604  0.4465  0.1855 -0.5062
 9211SOL    HW132639   9.851   0.728   1.526 -0.7136 -0.9346 -0.3816
 9211SOL    HW232640   9.974   0.631   1.571  0.0491 -0.1708 -0.7953
 9212SOL     OW32641   2.116   5.737   2.652 -0.0348 -0.2331 -0.3247
 9212SOL    HW132642   2.154   5.742   2.560  0.3144 -0.0048 -0.1669
 9212SOL    HW232643   2.016   5.743   2.648  0.0403  0.9264 -0.5983
 9213SOL     OW32644   3.572   1.311   2.512  0.6080 -0.2156 -0.5098
 9213SOL    HW132645   3.482   1.349   2.531  1.3726  2.3777 -1.8101
 9213SOL    HW232646   3.621   1.297   2.598 -0.4667 -0.2117  0.1069
 9216SOL     OW32647   2.695   7.689   0.318  0.0675 -0.0647 -0.5362
 9216SOL    HW132648   2.752   7.742   0.255  0.0017 -1.0353 -1.4307
 9216SOL    HW232649   2.752   7.651   0.391  0.1845  0.8609 -0.1378
 9217SOL     OW32650   8.942   9.901   3.520 -0.1394 -0.1924  0.4613
 9217SOL    HW132651   8.998   9.855   3.589  0.4015  0.2544  0.3244
 9217SOL    HW232652   8.890   9.833   3.468 -2.3959 -0.3945  2.8709
 9219SOL     OW32653   8.308   4.397   1.736 -0.5677  0.2393 -0.1914
 9219SOL    HW132654   8.305   4.464   1.661 -1.6000  0.2639 -0.1424
 9219SOL    HW232655   8.340   4.309   1.701  1.4718  0.9218 -0.1173
 9220SOL     OW32656   1.165   1.352   2.537 -0.3742  0.3220  0.3111
 9220SOL    HW132657   1.242   1.403   2.575 -0.6656  0.9880 -0.0003
 9220SOL    HW232658   1.165   1.362   2.437 -1.0754  0.6125  0.3414
 9221SOL     OW32659   6.340   0.548   2.177 -0.2056  0.6087  0.5006
 9221SOL    HW132660   6.403   0.578   2.106 -0.1630  0.5705  0.5216
 9221SOL    HW232661   6.246   0.551   2.142 -0.1890  0.6403  0.4602
 9222SOL     OW32662   1.465   1.731   1.885 -0.1330  0.3419 -0.3038
 9222SOL    HW132663   1.540   1.675   1.920  1.2612  3.1801  1.5174
 9222SOL    HW232664   1.482   1.754   1.789  1.7001  1.4253  0.2364
 9223SOL     OW32665   9.113   2.704   3.673  0.6293 -0.3048 -0.1045
 9223SOL    HW132666   9.126   2.700   3.772  0.2844 -0.5212 -0.0674
 9223SOL    HW232667   9.108   2.612   3.636 -0.9500 -0.2322 -0.0924
 9224SOL     OW32668   2.151   0.630   3.306  0.1660 -0.2117  0.1174
 9224SOL    HW132669   2.132   0.709   3.248  0.6690  0.2863  0.6275
 9224SOL    HW232670   2.103   0.639   3.393  3.5544  1.6306  1.8919
 9225SOL     OW32671   2.142   7.347   1.156  0.2615 -0.0075  0.2313
 9225SOL    HW132672   2.121   7.441   1.182 -0.9422 -0.6804  1.7524
 9225SOL    HW232673   2.177   7.296   1.235 -1.7591 -1.5809  0.1813
 9227SOL     OW32674   4.481   3.114   3.465 -0.3436  0.0331 -0.2338
 9227SOL    HW132675   4.408   3.046   3.459 -0.4649  0.2705 -1.5923
 9227SOL    HW232676   4.543   3.102   3.388  0.6381  0.3137  0.5135
 9228SOL     OW32677   0.277   9.773   2.919  0.3694 -0.8927  0.7867
 9228SOL    HW132678   0.200   9.832   2.941 -0.1932 -1.9121  1.5663
 9228SOL    HW232679   0.323   9.808   2.837 -1.0225 -0.3849  0.2036
 9229SOL     OW32680   6.475   9.622   1.873 -0.1049  0.3823 -0.3715
 9229SOL    HW132681   6.497   9.684   1.948  2.3602 -0.6354 -0.2017
 9229SOL    HW232682   6.490   9.669   1.786  1.7104  0.0789 -0.2417
 9230SOL     OW32683   5.988   9.866   1.775 -0.0481 -0.0777  0.5838
 9230SOL    HW132684   6.041   9.788   1.744 -0.4434 -0.3124  0.4937
 9230SOL    HW232685   6.030   9.951   1.741  1.0972 -0.1686  1.7478
 9231SOL     OW32686   6.267   7.636   2.450  0.1130  0.2023  0.1025
 9231SOL    HW132687   6.201   7.701   2.411 -0.4069 -0.0462  0.5550
 9231SOL    HW232688   6.235   7.542   2.433  0.5690  0.0767 -0.0501
 9232SOL     OW32689   7.885   5.598   3.230  0.0362 -0.0630  0.3596
 9232SOL    HW132690   7.867   5.589   3.328 -0.3570 -1.2025  0.1958
 9232SOL    HW232691   7.981   5.577   3.211 -0.0983 -0.7233  0.3971
 9233SOL     OW32692   8.139   1.770   0.557 -0.1577  0.7747  0.3779
 9233SOL    HW132693   8.219   1.728   0.599  0.0866  0.8576  0.0028
 9233SOL    HW232694   8.085   1.699   0.510  0.1848  0.8494 -0.1420
 9236SOL     OW32695   4.622   1.594   1.343 -0.1274  0.0336 -0.2009
 9236SOL    HW132696   4.682   1.670   1.370  0.5349 -0.6126  0.1661
 9236SOL    HW232697   4.567   1.621   1.264 -0.5440  1.2043  0.4865
 9237SOL     OW32698   9.714   9.195   2.264  0.3560  0.1096  0.0155
 9237SOL    HW132699   9.687   9.291   2.269  0.2085  0.1108 -0.7087
 9237SOL    HW232700   9.776   9.173   2.340  0.3934  0.7788  0.1745
 9239SOL     OW32701   3.737   2.108   1.423 -0.1670 -0.0715 -0.3574
 9239SOL    HW132702   3.801   2.096   1.347 -1.5539  1.1752 -1.7460
 9239SOL    HW232703   3.784   2.153   1.499  0.9908 -0.4851 -0.8142
 9240SOL     OW32704   4.222   2.175   1.938  0.4588  0.1384 -0.6159
 9240SOL    HW132705   4.183   2.267   1.947 -0.9868 -0.3711 -1.5726
 9240SOL    HW232706   4.178   2.115   2.005 -1.1310 -0.6570 -2.3293
 9241SOL     OW32707   1.229   7.013   3.401  0.2893 -0.1060 -0.2021
 9241SOL    HW132708   1.303   6.968   3.351  0.9920 -0.7725  1.3935
 9241SOL    HW232709   1.248   7.111   3.409  0.2773 -0.0338 -1.0499
 9243SOL     OW32710   8.245   2.479   0.230  0.2497  0.0465 -0.8620
 9243SOL    HW132711   8.342   2.456   0.228  0.4981  0.8453  0.8269
 9243SOL    HW232712   8.195   2.405   0.277 -0.0621 -0.6721 -2.3073
 9246SOL     OW32713   1.083   4.201   1.168 -0.1496 -0.0434  0.0108
 9246SOL    HW132714   1.089   4.260   1.087  0.3083 -0.9454 -0.6292
 9246SOL    HW232715   1.134   4.242   1.243 -0.4067  0.7097 -0.2184
 9247SOL     OW32716   3.273   8.677   0.048  0.2773 -0.2939 -0.4224
 9247SOL    HW132717   3.175   8.680   0.068  0.5680 -2.0149  1.3722
 9247SOL    HW232718   3.290   8.719  -0.041 -1.9853  0.7677 -0.3764
 9248SOL     OW32719   8.681   0.333   0.552  0.1165 -0.1178  0.4753
 9248SOL    HW132720   8.761   0.291   0.594 -0.5595 -3.9874 -1.9368
 9248SOL    HW232721   8.600   0.313   0.607  0.4801  2.5054  2.0805
 9249SOL     OW32722   0.227   1.216   0.878 -1.2034 -0.1551 -0.5719
 9249SOL    HW132723   0.164   1.200   0.954 -1.4171  1.9167 -0.2899
 9249SOL    HW232724   0.313   1.169   0.895 -1.5959 -0.4969  0.4872
 9250SOL     OW32725   2.987   9.375   0.313  0.7386 -0.5274 -0.2624
 9250SOL    HW132726   3.025   9.370   0.221 -1.2570 -0.1042 -1.1280
 9250SOL    HW232727   2.906   9.434   0.313 -0.6865 -2.4124  1.2762
 9253SOL     OW32728   2.005   0.637   1.035  0.2600  0.0902  0.0014
 9253SOL    HW132729   2.001   0.631   1.135  0.1650 -1.0965 -0.0729
 9253SOL    HW232730   2.045   0.725   1.010  0.0799  0.4958  1.0818
 9254SOL     OW32731   0.640   6.497   3.544  0.1226 -0.0081 -0.5718
 9254SOL    HW132732   0.629   6.431   3.470  0.1293  0.1112 -0.6807
 9254SOL    HW232733   0.549   6.524   3.579  0.1166 -0.0063 -0.5884
 9255SOL     OW32734   9.056   4.406   2.475  0.4694  0.6702 -0.0096
 9255SOL    HW132735   8.992   4.415   2.399  0.3164  1.9265  0.2565
 9255SOL    HW232736   9.005   4.388   2.559  0.4620  1.4685  0.1666
 9257SOL     OW32737   0.583   3.957   2.144  0.1068 -1.2997 -0.2272
 9257SOL    HW132738   0.510   4.023   2.162  0.4024 -0.6074 -1.5289
 9257SOL    HW232739   0.666   4.005   2.115  0.8282 -2.1370  0.3984
 9258SOL     OW32740   9.382   2.533   1.133 -0.1272  0.4430  0.0641
 9258SOL    HW132741   9.290   2.526   1.171  0.1685  0.1045  0.7257
 9258SOL    HW232742   9.383   2.493   1.041  0.0504 -2.4520  1.2546
 9260SOL     OW32743   9.304   9.594   3.025 -0.3676 -0.0979 -0.5925
 9260SOL    HW132744   9.347   9.515   2.980  0.2298 -1.5839  2.4998
 9260SOL    HW232745   9.374   9.655   3.060 -0.7947 -0.4594  0.9163
 9261SOL     OW32746   1.188   8.304   0.166  0.1657 -0.4032 -0.3797
 9261SOL    HW132747   1.110   8.253   0.130  0.4201  0.2504 -1.8558
 9261SOL    HW232748   1.156   8.390   0.205  0.1023 -0.3340 -0.5840
 9262SOL     OW32749   2.527   7.255   2.636 -0.7142 -0.2094 -0.4492
 9262SOL    HW132750   2.564   7.297   2.553 -1.5351  1.2780 -0.0818
 9262SOL    HW232751   2.430   7.237   2.624 -0.3782 -2.0182 -0.5908
 9263SOL     OW32752   8.212   0.365   2.511 -0.6520  0.5367  0.0635
 9263SOL    HW132753   8.251   0.438   2.567  0.0473  0.1646  0.0680
 9263SOL    HW232754   8.128   0.331   2.555  0.2964 -0.2652  1.2847
 9266SOL     OW32755   7.419   0.439   1.216  0.4242 -0.3859 -0.6090
 9266SOL    HW132756   7.416   0.518   1.155  0.4798 -0.7690 -1.1120
 9266SOL    HW232757   7.411   0.470   1.311  0.0379  0.1855 -0.8238
 9268SOL     OW32758   8.041   1.519   0.494 -0.1017  0.3325  0.3927
 9268SOL    HW132759   7.948   1.482   0.499 -0.5725  1.4814  0.3690
 9268SOL    HW232760   8.101   1.466   0.554 -0.8721 -0.1447  0.7523
 9269SOL     OW32761   0.176   1.748   0.270  0.2851  0.1569  0.4782
 9269SOL    HW132762   0.222   1.660   0.278  0.4327  0.3897  2.4774
 9269SOL    HW232763   0.077   1.735   0.272  0.3038 -0.0327  0.0341
 9271SOL     OW32764   0.137   0.008   0.994 -0.0103 -0.1376 -0.8594
 9271SOL    HW132765   0.173   0.044   1.080 -1.3164  1.1954 -0.8422
 9271SOL    HW232766   0.056  -0.047   1.013  0.3196 -0.7253 -1.1499
 9272SOL     OW32767   0.724   4.325   1.089  0.3402  0.3914  0.1712
 9272SOL    HW132768   0.787   4.375   1.028 -0.6128  2.6744  0.9832
 9272SOL    HW232769   0.776   4.288   1.166  0.7353  2.4734  0.9658
 9273SOL     OW32770   0.465   5.620   2.456 -0.0287 -0.7161  0.2990
 9273SOL    HW132771   0.563   5.618   2.436  0.1318 -0.3277  1.0093
 9273SOL    HW232772   0.414   5.581   2.380  0.7213 -1.5149  0.2023
 9274SOL     OW32773   3.953   6.934   2.706  0.2594 -0.5418  0.0782
 9274SOL    HW132774   3.998   6.947   2.618 -0.3211  1.8143  0.1102
 9274SOL    HW232775   4.023   6.922   2.777  0.7338 -1.5933 -0.5487
 9275SOL     OW32776   1.401   1.816   2.537 -0.2330 -0.1467 -0.1497
 9275SOL    HW132777   1.388   1.821   2.438  2.2859 -0.7788 -0.5686
 9275SOL    HW232778   1.463   1.740   2.558 -1.0223 -0.2441  1.9540
 9276SOL     OW32779   3.691   9.641   0.560 -1.0165  0.0974 -0.1654
 9276SOL    HW132780   3.729   9.556   0.597 -1.8939 -0.4198 -0.4216
 9276SOL    HW232781   3.616   9.672   0.619 -1.5530 -0.0178 -0.7761
 9278SOL     OW32782   8.894   7.246   3.222  0.0135  0.2287  0.3260
 9278SOL    HW132783   8.816   7.225   3.163  0.7435 -2.0538  0.1406
 9278SOL    HW232784   8.978   7.248   3.167  0.5131 -0.5361  1.0525
 9279SOL     OW32785   4.449   6.806   3.367 -0.3423  0.5037 -0.0988
 9279SOL    HW132786   4.539   6.777   3.336 -1.3133 -1.0499 -1.5133
 9279SOL    HW232787   4.436   6.778   3.462  0.6675  0.7795  0.1269
 9280SOL     OW32788   0.436   5.223   0.514  0.4041 -0.2015 -0.3880
 9280SOL    HW132789   0.528   5.183   0.517 -0.3026 -1.8358  0.3676
 9280SOL    HW232790   0.427   5.290   0.587  0.2644 -1.7293  1.0247
 9281SOL     OW32791   0.947   4.434   3.395  0.4250 -0.1513  0.6530
 9281SOL    HW132792   0.888   4.355   3.406 -1.7480  1.4548  0.8431
 9281SOL    HW232793   1.009   4.441   3.473  0.5788 -1.6007  0.6717
 9282SOL     OW32794   1.357   2.142   2.289 -0.2895  0.3140  0.0403
 9282SOL    HW132795   1.412   2.097   2.219  1.1815  2.4137 -0.1980
 9282SOL    HW232796   1.411   2.148   2.374 -1.7500 -1.4489  1.1420
 9283SOL     OW32797   2.923   0.840   0.666  0.3349 -0.1430  0.9215
 9283SOL    HW132798   2.944   0.924   0.717  1.2644 -0.5319  1.1845
 9283SOL    HW232799   2.952   0.851   0.571 -0.4705  0.2022  0.7068
 9284SOL     OW32800   3.179   4.002   2.803  0.8781  0.2620  0.3308
 9284SOL    HW132801   3.258   3.991   2.863  0.4435  1.1289  1.0786
 9284SOL    HW232802   3.145   4.096   2.809 -0.6718 -0.2933  0.6152
 9285SOL     OW32803   2.250   6.775   2.678  0.1465  0.1665 -0.0277
 9285SOL    HW132804   2.334   6.749   2.631 -0.6050 -0.9335 -0.7855
 9285SOL    HW232805   2.254   6.872   2.702  1.3711  0.2632 -0.6055
 9286SOL     OW32806   3.647   4.287   0.243 -0.3216  0.0583  0.2456
 9286SOL    HW132807   3.637   4.366   0.303 -0.8095 -0.1506  0.4396
 9286SOL    HW232808   3.573   4.222   0.260 -0.3698 -0.0828 -0.4548
 9287SOL     OW32809   8.147   5.601   2.941 -0.4802  0.0031  0.4950
 9287SOL    HW132810   8.143   5.645   3.030  0.2305 -0.0874  0.5697
 9287SOL    HW232811   8.057   5.563   2.919 -0.7392  0.2966  1.0304
 9288SOL     OW32812   1.126   7.197   2.996  0.1347 -0.5742 -0.4764
 9288SOL    HW132813   1.081   7.183   3.084  1.2465  0.1689  0.2186
 9288SOL    HW232814   1.175   7.114   2.970 -0.3774 -0.8705 -0.5084
 9291SOL     OW32815   9.858   0.704   0.654 -0.2352  0.7230 -0.3916
 9291SOL    HW132816   9.869   0.629   0.720  0.6713  0.3503 -0.9622
 9291SOL    HW232817   9.797   0.773   0.693 -0.3077  0.1500  0.5353
 9292SOL     OW32818   7.278   1.060   2.784 -0.3791  0.1378 -0.8107
 9292SOL    HW132819   7.221   1.003   2.725  0.3234 -0.1805 -1.1872
 9292SOL    HW232820   7.366   1.016   2.798 -0.7879 -0.1057  1.0452
 9293SOL     OW32821   9.005   2.174   3.580  0.2471  0.4604  0.0731
 9293SOL    HW132822   9.095   2.133   3.562  0.5422  0.0836  2.2560
 9293SOL    HW232823   8.934   2.105   3.564  0.3914  0.5883 -1.1115
 9295SOL     OW32824   1.269   8.271   1.800 -0.0345  0.0818 -0.1386
 9295SOL    HW132825   1.279   8.325   1.716  1.0081 -0.4502 -0.3617
 9295SOL    HW232826   1.240   8.332   1.874  0.1806  0.7745 -0.6129
 9296SOL     OW32827   2.979   8.152   3.225  0.2600 -0.2230  0.1913
 9296SOL    HW132828   2.893   8.148   3.275  0.3452  0.6790  0.4194
 9296SOL    HW232829   3.052   8.112   3.280 -0.1469 -1.6242 -0.2884
 9297SOL     OW32830   9.971   4.916   1.103  0.3295  0.5681  0.2125
 9297SOL    HW132831   9.952   4.820   1.126 -0.4020  0.8560  0.8143
 9297SOL    HW232832   9.979   4.970   1.186  0.2612  1.1277 -0.1364
 9298SOL     OW32833   4.773   9.865   2.851  0.4338 -0.2609  0.6852
 9298SOL    HW132834   4.693   9.815   2.884  1.0164 -0.4331  1.8857
 9298SOL    HW232835   4.834   9.885   2.929  0.7899  1.2502  0.0382
 9299SOL     OW32836   0.427   3.793   0.644 -0.1402  0.3944 -0.4911
 9299SOL    HW132837   0.426   3.701   0.605  0.5071  0.3823 -0.4750
 9299SOL    HW232838   0.519   3.816   0.676 -0.1184  1.3657 -1.2320
 9300SOL     OW32839   1.115   9.939   2.779 -0.2797 -0.0556  0.6177
 9300SOL    HW132840   1.028   9.896   2.758 -1.0672  1.4659  0.7008
 9300SOL    HW232841   1.171   9.945   2.696 -0.6669 -0.1143  0.3535
 9301SOL     OW32842   5.505   0.257   2.916 -0.0627 -0.1494  0.1421
 9301SOL    HW132843   5.602   0.272   2.932  0.1625 -0.3452 -1.0217
 9301SOL    HW232844   5.479   0.295   2.828 -0.7183 -1.4264 -0.2396
 9302SOL     OW32845   4.238   2.964   3.430 -0.4691  0.0948  0.0731
 9302SOL    HW132846   4.238   2.980   3.529  0.9653 -0.6642  0.2028
 9302SOL    HW232847   4.234   2.866   3.412  1.8449  0.1133 -0.5918
 9305SOL     OW32848   8.123   5.668   2.077 -0.1092  0.1496 -0.0794
 9305SOL    HW132849   8.090   5.588   2.128  1.3170  0.2885  1.0851
 9305SOL    HW232850   8.067   5.680   1.995 -3.6161  0.9394  2.2976
 9306SOL     OW32851   8.771   1.078   0.087  0.1236  0.5831 -0.7581
 9306SOL    HW132852   8.693   1.131   0.053 -1.8285 -2.0395 -0.5170
 9306SOL    HW232853   8.812   1.027   0.011  0.9120  1.0773 -0.6693
 9307SOL     OW32854   6.962   8.007   3.255 -0.2166  0.5454 -0.5263
 9307SOL    HW132855   7.047   7.978   3.210  0.0078  1.0181 -0.4020
 9307SOL    HW232856   6.886   7.951   3.220  0.2063 -0.1500 -0.3394
 9309SOL     OW32857   3.917   3.110   1.039  0.2047 -0.0555 -0.2495
 9309SOL    HW132858   3.992   3.151   1.090  1.0040 -1.2249 -0.4560
 9309SOL    HW232859   3.902   3.160   0.954  1.3176 -0.3237 -0.6063
 9310SOL     OW32860   9.233   8.963   1.208 -0.3405 -0.1705  0.1847
 9310SOL    HW132861   9.332   8.959   1.216 -0.2663 -0.5669 -0.8584
 9310SOL    HW232862   9.192   8.891   1.265 -0.0193 -0.2517  0.3163
 9311SOL     OW32863   0.154   2.389   1.950  0.3027  0.1407  0.1913
 9311SOL    HW132864   0.108   2.388   1.862  0.8763  0.0976 -0.1137
 9311SOL    HW232865   0.253   2.377   1.936  0.5034  1.0810  0.7726
 9312SOL     OW32866   1.721   0.269   3.337  0.5654 -0.2490  0.4490
 9312SOL    HW132867   1.759   0.212   3.263  1.9433  0.6537  0.4291
 9312SOL    HW232868   1.699   0.212   3.415 -2.4673 -1.4693 -1.2230
 9313SOL     OW32869   9.614   1.769   1.462 -0.2144  0.7211  0.3234
 9313SOL    HW132870   9.657   1.854   1.493 -2.3284  2.0384 -0.2270
 9313SOL    HW232871   9.525   1.759   1.505 -0.1389 -1.0506  0.1014
 9314SOL     OW32872   3.043   0.899   0.417 -0.3716  0.0369  0.0065
 9314SOL    HW132873   3.104   0.840   0.364  1.2244  1.0422  0.6825
 9314SOL    HW232874   3.036   0.989   0.372 -1.4385 -0.1072 -0.1196
 9315SOL     OW32875   5.079   2.625   2.549  0.4750 -0.2649 -0.3367
 9315SOL    HW132876   5.062   2.536   2.507 -0.0722  0.0732 -0.8311
 9315SOL    HW232877   5.089   2.694   2.478 -1.0335  0.4143  0.0872
 9316SOL     OW32878   7.715   2.559   1.308  0.3298 -0.5470  0.2083
 9316SOL    HW132879   7.808   2.582   1.336  0.2433  1.3685 -0.9581
 9316SOL    HW232880   7.718   2.507   1.222  0.2659  1.1654 -0.8439
 9317SOL     OW32881   3.046   7.282   2.008 -0.0870 -0.0840 -0.1056
 9317SOL    HW132882   2.990   7.351   2.054 -4.3301 -1.8549 -2.3250
 9317SOL    HW232883   3.026   7.192   2.047  3.4312 -0.4912  0.9535
 9319SOL     OW32884   7.945   2.341   0.207 -0.4481  0.0913  0.2521
 9319SOL    HW132885   7.903   2.268   0.154  1.2689 -0.5417 -0.2895
 9319SOL    HW232886   7.952   2.313   0.303 -1.5601  0.3417  0.4058
 9320SOL     OW32887   0.672   9.632   2.918  0.3858 -0.3588 -0.4174
 9320SOL    HW132888   0.765   9.625   2.953 -0.3265 -0.6028  1.4616
 9320SOL    HW232889   0.613   9.569   2.968 -0.9586  0.3999 -1.0346
 9321SOL     OW32890   5.180   9.594   3.092  0.2092  0.0585  0.1742
 9321SOL    HW132891   5.153   9.509   3.137  1.2537  0.6703  2.0313
 9321SOL    HW232892   5.261   9.577   3.035  1.2122  0.0477  1.5680
 9322SOL     OW32893   7.846   0.203   0.302  0.5417 -0.1120 -0.4468
 9322SOL    HW132894   7.811   0.294   0.321  2.3690  0.2140  1.4605
 9322SOL    HW232895   7.794   0.135   0.354 -0.2885 -0.1124 -1.2512
 9323SOL     OW32896   8.324   3.638   2.960  0.5661 -0.7077  0.1993
 9323SOL    HW132897   8.418   3.665   2.937  0.0517  1.5779  0.6470
 9323SOL    HW232898   8.266   3.650   2.879  0.3031 -0.2988  0.4484
 9324SOL     OW32899   0.755   1.578   2.701 -0.2218  0.9434  0.2229
 9324SOL    HW132900   0.705   1.653   2.745 -0.4174  1.1688 -0.3815
 9324SOL    HW232901   0.778   1.509   2.770  1.3676  2.3074  1.0907
 9326SOL     OW32902   1.265   8.033   1.636  0.4887 -0.0723 -0.0157
 9326SOL    HW132903   1.353   7.992   1.611  1.1000  0.8756  0.5594
 9326SOL    HW232904   1.281   8.119   1.685 -0.7602  0.0933  0.1106
 9327SOL     OW32905   0.253   3.888   3.613  0.2817  0.0950  0.0077
 9327SOL    HW132906   0.344   3.849   3.595  0.7736  0.7350  1.0921
 9327SOL    HW232907   0.183   3.825   3.580  1.1301 -0.0270 -1.6075
 9330SOL     OW32908   4.272   3.838   1.051  0.6031  0.3481  0.2957
 9330SOL    HW132909   4.274   3.751   1.099  1.3919  0.9530  1.3957
 9330SOL    HW232910   4.329   3.904   1.100 -2.0536  2.2401  0.9444
 9331SOL     OW32911   0.554   4.559   2.801  0.4502 -0.3815 -0.4934
 9331SOL    HW132912   0.531   4.520   2.712 -0.0527  0.5613 -0.7835
 9331SOL    HW232913   0.534   4.657   2.801  2.6928  0.1077 -0.1331
 9332SOL     OW32914   2.153   8.670   3.492  0.3629  0.1205  0.6155
 9332SOL    HW132915   2.055   8.651   3.489  0.0285  1.1406  3.1964
 9332SOL    HW232916   2.167   8.769   3.500  1.5363 -0.1268  1.8433
 9333SOL     OW32917   4.397   0.050   2.782 -0.0623  0.1099  0.1901
 9333SOL    HW132918   4.337   0.086   2.854 -0.4527 -0.4125  0.1309
 9333SOL    HW232919   4.450  -0.027   2.818 -0.5258 -0.3856 -0.1812
 9334SOL     OW32920   8.472   4.905   3.133 -0.2228 -0.2372 -0.2481
 9334SOL    HW132921   8.509   4.833   3.074 -0.7663 -0.5396 -0.2212
 9334SOL    HW232922   8.470   4.991   3.083  0.0193 -0.3352 -0.4277
 9335SOL     OW32923   2.781   7.582   2.261 -0.2193  0.3938  1.0139
 9335SOL    HW132924   2.846   7.656   2.277  0.8957 -0.4249  0.3906
 9335SOL    HW232925   2.830   7.503   2.223 -1.5883 -0.2249  0.5056
 9336SOL     OW32926   3.573   8.358   1.690 -0.5472 -0.3789 -0.0209
 9336SOL    HW132927   3.495   8.362   1.752  0.1662 -1.5073  0.9619
 9336SOL    HW232928   3.657   8.345   1.743  0.5457  2.6058 -0.9007
 9338SOL     OW32929   7.009   8.989   2.666 -0.1747  0.9728  0.2740
 9338SOL    HW132930   7.096   8.963   2.707 -1.4027  1.0055  3.0653
 9338SOL    HW232931   6.968   8.909   2.621 -1.1728 -0.5417  3.6769
 9339SOL     OW32932   8.212   7.086   1.813 -0.1688 -0.0981  0.0222
 9339SOL    HW132933   8.278   7.132   1.872  0.7069 -0.3128 -0.7827
 9339SOL    HW232934   8.258   7.052   1.731 -1.2359 -0.4411 -0.4456
 9340SOL     OW32935   9.188   5.732   0.553  0.4211  0.0833 -0.0528
 9340SOL    HW132936   9.231   5.781   0.629  1.4821 -0.5176 -0.2615
 9340SOL    HW232937   9.153   5.644   0.586 -0.2834  0.3817  0.0178
 9341SOL     OW32938   0.116   9.068   0.348  0.8721 -0.0381  0.6530
 9341SOL    HW132939   0.214   9.046   0.343  0.9681  0.7481 -1.2727
 9341SOL    HW232940   0.077   9.068   0.256 -1.0347 -0.6814  1.4414
 9342SOL     OW32941   0.721   0.284   3.209  0.4324 -0.0486 -0.0434
 9342SOL    HW132942   0.819   0.279   3.187  0.2568 -0.2554 -0.8174
 9342SOL    HW232943   0.709   0.312   3.304  1.2473 -0.1110  0.0812
 9343SOL     OW32944   3.067   9.811   2.150 -0.5098  0.2019 -0.3800
 9343SOL    HW132945   2.971   9.835   2.168 -0.4443  1.0824 -1.1716
 9343SOL    HW232946   3.081   9.714   2.171 -1.5849  0.0553 -0.2892
 9344SOL     OW32947   0.005   1.002   0.072  0.4610 -0.0958 -0.0574
 9344SOL    HW132948  -0.052   1.050   0.139 -0.7477 -0.8184 -0.5469
 9344SOL    HW232949   0.027   0.911   0.106  1.0971  0.0888  0.0148
 9345SOL     OW32950   1.643   1.638   0.732 -0.2843  0.6022 -0.5219
 9345SOL    HW132951   1.559   1.589   0.711 -1.0955  1.6005  0.3336
 9345SOL    HW232952   1.625   1.708   0.801  1.5740 -0.2378  0.8996
 9347SOL     OW32953   4.054   3.200   3.429  0.0981  0.3534 -0.3212
 9347SOL    HW132954   4.082   3.290   3.463  1.8423  0.6621 -2.4931
 9347SOL    HW232955   4.122   3.131   3.456 -1.2046 -0.3504  1.2932
 9348SOL     OW32956   0.967   0.481   0.276 -0.0917 -0.4036 -0.0170
 9348SOL    HW132957   1.048   0.502   0.222 -0.4539 -0.1867 -0.4856
 9348SOL    HW232958   0.886   0.520   0.231 -0.3049  0.5268  1.1185
 9349SOL     OW32959   7.096   8.917   1.773 -0.7748 -0.0674 -0.4586
 9349SOL    HW132960   7.035   8.992   1.746 -0.6383  0.1982 -0.0313
 9349SOL    HW232961   7.049   8.858   1.839  0.0644  1.1727  1.2763
 9351SOL     OW32962   8.687   4.089   2.038  0.3329  0.0577 -0.1955
 9351SOL    HW132963   8.641   4.155   2.096  0.1345  1.2569 -1.6866
 9351SOL    HW232964   8.730   4.136   1.961 -0.2966 -1.5857 -1.6010
 9352SOL     OW32965   9.000   0.685   3.631  0.0552 -0.1134  0.3004
 9352SOL    HW132966   9.024   0.782   3.628  2.2686 -0.6093  1.0472
 9352SOL    HW232967   8.953   0.659   3.547  0.7986  1.2629 -0.5434
 9353SOL     OW32968   0.131   7.453   2.356 -1.2199  0.8621  1.0546
 9353SOL    HW132969   0.065   7.450   2.281 -1.3230  0.5501  1.1573
 9353SOL    HW232970   0.095   7.401   2.433  0.2503 -1.4518  0.2276
 9354SOL     OW32971   7.541   7.665   2.968 -0.6363  0.1282 -0.5620
 9354SOL    HW132972   7.484   7.626   2.896  1.4661 -1.6500 -1.2928
 9354SOL    HW232973   7.528   7.614   3.053 -2.1423  1.4329  0.0352
 9355SOL     OW32974   0.901   5.370   1.550 -0.7136  0.2019 -0.1637
 9355SOL    HW132975   0.854   5.295   1.596 -0.1751 -0.1708 -0.2161
 9355SOL    HW232976   0.934   5.339   1.461 -0.2185  0.4060 -0.0557
 9356SOL     OW32977   3.119   8.337   0.172  0.0960  0.5480 -0.7577
 9356SOL    HW132978   3.203   8.350   0.225  0.7964  0.5948 -1.8473
 9356SOL    HW232979   3.143   8.312   0.078 -1.0846  1.6546 -1.3758
 9358SOL     OW32980   9.044   0.926   2.223 -0.1828 -0.1037  0.1285
 9358SOL    HW132981   9.100   0.926   2.306  0.2647 -0.2233 -0.1716
 9358SOL    HW232982   9.000   1.015   2.212  1.5168  0.6603 -0.6864
 9359SOL     OW32983   9.069   3.835   0.563  0.9388  0.6872  0.1361
 9359SOL    HW132984   9.092   3.766   0.494 -0.4806 -0.6087  0.9207
 9359SOL    HW232985   8.999   3.897   0.526  0.1692 -0.0152  0.3866
 9360SOL     OW32986   3.750   9.654   1.209  0.3947  0.3641  0.3196
 9360SOL    HW132987   3.723   9.750   1.220 -1.5922 -0.0826 -0.2745
 9360SOL    HW232988   3.718   9.601   1.288  0.3590 -0.0210  0.0495
 9361SOL     OW32989   3.922   8.692   0.251 -0.1077  0.2041 -0.2418
 9361SOL    HW132990   3.983   8.753   0.200 -0.4259  1.5259  0.9394
 9361SOL    HW232991   3.973   8.650   0.326  0.6677 -2.6303 -2.2778
 9362SOL     OW32992   1.766   1.318   0.235 -0.0616  0.0308 -0.7255
 9362SOL    HW132993   1.741   1.325   0.331 -0.2536  2.5247 -0.9044
 9362SOL    HW232994   1.748   1.226   0.201 -1.4962 -0.4144  1.2090
 9363SOL     OW32995   2.406   6.290   1.455  0.2488  0.3981  0.1091
 9363SOL    HW132996   2.339   6.332   1.394 -0.0445  0.9127  0.7822
 9363SOL    HW232997   2.359   6.247   1.531  0.6660  0.5293  0.4413
 9365SOL     OW32998   8.053   2.863   2.124 -0.0809  0.1697  0.2378
 9365SOL    HW132999   8.054   2.823   2.216  0.3905 -0.5785 -0.0891
 9365SOL    HW233000   8.116   2.941   2.120 -0.5967  0.6178  0.7277
 9366SOL     OW33001   9.203   9.016   0.084 -0.2347 -0.2345  0.0084
 9366SOL    HW133002   9.146   9.097   0.069 -0.3273 -0.0566  1.3144
 9366SOL    HW233003   9.161   8.938   0.039  0.0748  0.5194 -1.6357
 9367SOL     OW33004   4.376   4.208   1.864 -0.8483  0.0700  0.2548
 9367SOL    HW133005   4.434   4.204   1.782 -1.5652  0.4522 -0.2786
 9367SOL    HW233006   4.364   4.304   1.891 -1.0107 -0.0263  0.5209
 9368SOL     OW33007   5.003   8.417   2.716 -0.3288  0.0937 -0.0081
 9368SOL    HW133008   4.909   8.403   2.687 -0.5345  1.6700 -0.1308
 9368SOL    HW233009   5.030   8.343   2.777 -1.3129 -0.9055 -0.7675
 9369SOL     OW33010   2.142   8.213   2.581 -0.3276  0.0046 -0.3802
 9369SOL    HW133011   2.122   8.268   2.500 -0.9575  0.3996  0.0371
 9369SOL    HW233012   2.073   8.230   2.651 -0.7561 -1.6085 -0.3756
 9371SOL     OW33013   1.668   6.838   1.535 -0.2811 -0.0814 -0.7214
 9371SOL    HW133014   1.747   6.896   1.555 -1.2795  0.5445  1.6616
 9371SOL    HW233015   1.591   6.896   1.505 -0.7955 -0.3366  0.0930
 9372SOL     OW33016   8.996   5.483   2.238  0.5082 -0.5121  0.4448
 9372SOL    HW133017   8.914   5.500   2.293  0.5250 -0.8198  0.5630
 9372SOL    HW233018   8.972   5.484   2.141  0.8193  1.9971  0.3651
 9373SOL     OW33019   1.431   9.994   0.760 -0.2648  0.6201 -0.4736
 9373SOL    HW133020   1.359   9.929   0.785 -1.4366  1.0075 -2.6706
 9373SOL    HW233021   1.390  10.071   0.711  1.5212  1.4363 -0.7246
 9374SOL     OW33022   9.322   5.271   0.815 -0.2487  0.7700  0.3109
 9374SOL    HW133023   9.393   5.223   0.866  0.3297  0.9980 -0.2688
 9374SOL    HW233024   9.310   5.363   0.854  0.1941  0.9446  0.0415
 9376SOL     OW33025   1.134   8.504   3.301  0.0167 -0.1034 -0.2894
 9376SOL    HW133026   1.200   8.451   3.247 -0.6233  1.2180 -2.4217
 9376SOL    HW233027   1.042   8.490   3.264 -0.3515  1.2543  0.1018
 9378SOL     OW33028   8.796   2.655   1.520 -0.7658  0.2274 -0.4669
 9378SOL    HW133029   8.787   2.686   1.614  1.3197 -3.0927  0.9167
 9378SOL    HW233030   8.852   2.720   1.468  0.3810  0.7162  1.3438
 9379SOL     OW33031   8.019   4.685   0.675 -0.0548  0.4883 -0.0460
 9379SOL    HW133032   7.987   4.598   0.714 -0.7625  0.1626 -1.3176
 9379SOL    HW233033   8.113   4.674   0.644  0.5236  0.7555  1.5419
 9380SOL     OW33034   0.637   0.869   1.760  0.0120 -0.0870 -0.6689
 9380SOL    HW133035   0.654   0.928   1.839 -2.0311  0.1562 -0.3745
 9380SOL    HW233036   0.682   0.781   1.773 -0.9051 -0.3129  1.1391
 9383SOL     OW33037   8.809   5.008   1.724  0.0716 -0.4215  0.0241
 9383SOL    HW133038   8.761   5.011   1.636 -0.2162  0.3472  0.2019
 9383SOL    HW233039   8.871   5.087   1.731 -1.1814  0.4912  1.2145
 9384SOL     OW33040   3.328   5.357   0.096 -1.2929 -0.3791 -0.3604
 9384SOL    HW133041   3.400   5.290   0.114 -0.8338 -0.0134 -0.8370
 9384SOL    HW233042   3.325   5.424   0.171  0.0445  0.6363 -1.1965
 9386SOL     OW33043   3.233   0.279   1.140  0.1001 -1.2155  0.2316
 9386SOL    HW133044   3.264   0.222   1.064 -1.0633 -0.2048 -1.0467
 9386SOL    HW233045   3.135   0.267   1.153 -0.0428 -0.0295  0.3704
 9387SOL     OW33046   6.128   8.359   2.158 -0.1641 -0.1345 -0.0285
 9387SOL    HW133047   6.202   8.348   2.091 -0.0065 -1.8564  0.4118
 9387SOL    HW233048   6.052   8.408   2.115  0.2401 -0.5470 -1.2368
 9388SOL     OW33049   3.624   4.565   1.996  0.0175  0.2509  0.3562
 9388SOL    HW133050   3.637   4.581   2.094  0.3093 -0.0843  0.3735
 9388SOL    HW233051   3.657   4.645   1.945  1.5597 -0.3067  0.4346
 9389SOL     OW33052   8.750   4.771   2.757 -0.2915 -0.0422 -0.3830
 9389SOL    HW133053   8.739   4.749   2.854  0.9286 -2.1864 -0.7009
 9389SOL    HW233054   8.695   4.851   2.734 -0.5669  0.4998  2.0851
 9390SOL     OW33055   4.450   9.055   1.415 -0.4286 -0.2277 -0.6925
 9390SOL    HW133056   4.435   9.034   1.318 -0.5198 -0.3306 -0.6567
 9390SOL    HW233057   4.546   9.076   1.431 -0.8398  2.3530 -1.2997
 9391SOL     OW33058   0.444   9.752   1.383  0.1719 -1.4381 -0.3004
 9391SOL    HW133059   0.411   9.781   1.473 -1.6352 -0.0742 -1.3656
 9391SOL    HW233060   0.507   9.821   1.347 -1.6625 -0.3526 -1.4765
 9392SOL     OW33061   3.547   4.774   2.269 -0.0218 -0.0942 -0.1755
 9392SOL    HW133062   3.644   4.748   2.260  0.4854  2.1031 -1.5026
 9392SOL    HW233063   3.519   4.823   2.186 -2.1282 -0.2199  0.4511
 9393SOL     OW33064   7.966   3.421   0.176 -0.1536  0.0395 -0.1827
 9393SOL    HW133065   8.062   3.426   0.148 -0.7105 -0.1985 -2.2400
 9393SOL    HW233066   7.945   3.500   0.235  1.2693  0.1318  0.2299
 9394SOL     OW33067   1.237   8.181   0.952 -0.1498 -0.1680  0.1958
 9394SOL    HW133068   1.196   8.271   0.968  1.4610  0.1976  2.3564
 9394SOL    HW233069   1.166   8.111   0.960 -1.0054  0.7146  0.5273
 9395SOL     OW33070   4.085   3.421   1.549  0.0984 -0.1648  0.1473
 9395SOL    HW133071   4.158   3.422   1.617  2.0168 -2.9399 -1.7486
 9395SOL    HW233072   4.052   3.327   1.537 -1.4837  0.5622 -1.4390
 9396SOL     OW33073   4.408   7.860   1.731  0.5486  0.9824 -0.5637
 9396SOL    HW133074   4.416   7.873   1.830  1.3923  1.7329 -0.7130
 9396SOL    HW233075   4.466   7.783   1.703  0.1829  0.6678 -0.4497
 9397SOL     OW33076   5.280   9.642   1.932  0.2101  0.3893 -0.1329
 9397SOL    HW133077   5.233   9.598   1.855 -1.5029 -0.6487  1.4706
 9397SOL    HW233078   5.250   9.737   1.940  1.2041  0.8265 -1.3806
 9398SOL     OW33079   0.574   1.969   0.422  0.3543  0.1141 -0.1567
 9398SOL    HW133080   0.617   2.055   0.450  1.0321 -0.7307  1.4455
 9398SOL    HW233081   0.570   1.907   0.500 -0.6838 -1.0887 -1.1529
 9399SOL     OW33082   9.164   5.223   2.958 -0.1049 -0.4209  0.3267
 9399SOL    HW133083   9.150   5.304   3.015 -2.7451  1.3499 -2.6362
 9399SOL    HW233084   9.236   5.241   2.891 -0.2177 -0.7684  0.1123
 9400SOL     OW33085   3.640   2.576   0.374  0.5822  0.1421  0.1819
 9400SOL    HW133086   3.704   2.639   0.330 -0.2666  0.7679 -0.1589
 9400SOL    HW233087   3.676   2.550   0.464  2.1600 -0.8806 -0.7199
 9401SOL     OW33088   7.403   0.075   3.771  0.4864 -0.3955 -0.8967
 9401SOL    HW133089   7.423   0.165   3.731  2.0589 -1.2899 -2.1630
 9401SOL    HW233090   7.479   0.013   3.754 -0.4988 -1.9303  0.1436
 9402SOL     OW33091   9.315   3.138   1.163 -0.6150 -0.1631 -0.2007
 9402SOL    HW133092   9.257   3.059   1.144  0.5868 -0.7690 -1.4391
 9402SOL    HW233093   9.270   3.221   1.129 -2.1882 -0.2002  1.7105
 9403SOL     OW33094   9.861   6.433   2.517 -0.3262  0.6581  0.6375
 9403SOL    HW133095   9.789   6.381   2.563 -0.2365  0.7681  0.9097
 9403SOL    HW233096   9.931   6.458   2.585 -1.9541  3.9151  1.2104
 9404SOL     OW33097   7.759   8.667   3.068  0.0131 -0.1768 -0.1769
 9404SOL    HW133098   7.844   8.617   3.086  0.7516 -0.4881 -4.1452
 9404SOL    HW233099   7.715   8.630   2.986 -3.0633  1.1627  0.8100
 9406SOL     OW33100   1.115   3.496   2.028 -0.2909  0.5561  0.0393
 9406SOL    HW133101   1.102   3.558   2.106 -0.2736 -0.5022  0.9004
 9406SOL    HW233102   1.187   3.531   1.969  0.3225  0.9005  0.9835
 9407SOL     OW33103   4.409   8.011   0.178  0.0011 -0.8307 -0.1339
 9407SOL    HW133104   4.473   8.016   0.255  1.2604 -2.0421 -1.0958
 9407SOL    HW233105   4.357   8.097   0.173  2.8525  0.9363 -0.4821
 9408SOL     OW33106   8.197   5.896   3.131  0.1374 -0.1446  0.0739
 9408SOL    HW133107   8.270   5.856   3.186 -1.6476 -3.4381  0.2169
 9408SOL    HW233108   8.131   5.942   3.191  0.7410  0.5623  0.1963
 9409SOL     OW33109   0.768   0.275   2.110 -0.6536 -0.1419 -0.3162
 9409SOL    HW133110   0.735   0.225   2.029 -1.5334  0.9436 -0.6462
 9409SOL    HW233111   0.852   0.233   2.143 -1.2084 -1.6515 -0.7725
 9410SOL     OW33112   7.621   9.753   1.327 -0.0436 -0.2195 -0.1119
 9410SOL    HW133113   7.574   9.675   1.285 -0.0881 -0.3597  0.2010
 9410SOL    HW233114   7.644   9.731   1.421  0.6794 -0.1639 -0.2761
 9411SOL     OW33115   0.353   3.133   3.694 -0.4299 -0.0155 -0.5825
 9411SOL    HW133116   0.448   3.158   3.713 -0.5471 -0.5767  0.7825
 9411SOL    HW233117   0.331   3.156   3.599  1.2039 -0.2926 -1.0441
 9412SOL     OW33118   5.586   9.073   3.416  0.2186 -0.4347  0.1404
 9412SOL    HW133119   5.529   8.991   3.407 -0.9592  0.1252  2.0399
 9412SOL    HW233120   5.537   9.152   3.380  0.3943 -0.1866  0.4413
 9413SOL     OW33121   8.783   8.398   2.504 -0.6080 -0.0706  0.7955
 9413SOL    HW133122   8.784   8.372   2.408 -0.5114  2.6922  0.0098
 9413SOL    HW233123   8.689   8.407   2.536 -0.6386 -0.4285  0.8102
 9414SOL     OW33124   4.935   1.563   2.564 -0.0266  0.0216  0.1670
 9414SOL    HW133125   4.923   1.524   2.655 -1.6807 -0.1816 -0.1223
 9414SOL    HW233126   4.969   1.657   2.572 -0.2968  0.0521  0.9917
 9415SOL     OW33127   0.697   0.469   2.863 -0.3410 -0.1143  0.7106
 9415SOL    HW133128   0.793   0.495   2.850 -0.7328  0.6488 -0.7336
 9415SOL    HW233129   0.654   0.531   2.928 -0.4824  1.0038 -0.4487
 9416SOL     OW33130   3.494   9.522   2.188  0.0851 -0.3360  0.5234
 9416SOL    HW133131   3.523   9.614   2.163  0.5750 -0.3003  1.2333
 9416SOL    HW233132   3.516   9.459   2.113 -0.2492  0.1192  0.0399
 9417SOL     OW33133   2.130   0.663   2.459  0.3679  0.4409  0.0692
 9417SOL    HW133134   2.099   0.568   2.462 -1.3027  1.0131  2.1196
 9417SOL    HW233135   2.125   0.703   2.550  0.6377  2.6353 -0.8381
 9418SOL     OW33136   5.145   2.722   1.968  0.1510  0.1742 -0.3774
 9418SOL    HW133137   5.190   2.782   2.033 -0.0152 -0.7126  0.5734
 9418SOL    HW233138   5.213   2.675   1.912  0.3220  0.4039 -0.3620
 9419SOL     OW33139   2.174   9.481   1.929 -0.2534 -0.0479  0.0320
 9419SOL    HW133140   2.250   9.439   1.980 -2.1115 -1.7433  1.5003
 9419SOL    HW233141   2.096   9.419   1.931 -0.7929  0.4275 -3.8893
 9420SOL     OW33142   1.612   1.946   2.800 -0.1767  0.3726  0.4796
 9420SOL    HW133143   1.708   1.957   2.825 -0.5828 -1.1966  2.8351
 9420SOL    HW233144   1.601   1.866   2.742 -0.3477 -0.6806  1.9575
 9421SOL     OW33145   2.937   6.372   1.565  0.0921 -0.0105  0.5043
 9421SOL    HW133146   2.926   6.274   1.577  0.0546 -0.0351  0.2651
 9421SOL    HW233147   2.934   6.417   1.654 -2.7359  0.0773  0.3973
 9422SOL     OW33148   3.302   8.636   2.057 -0.3541  0.4621  0.2408
 9422SOL    HW133149   3.211   8.627   2.017 -0.2808 -3.4189  0.8071
 9422SOL    HW233150   3.307   8.583   2.141  3.2089 -1.5796 -1.1766
 9423SOL     OW33151   2.267   4.899   1.484  0.2048  0.3641 -0.1741
 9423SOL    HW133152   2.189   4.921   1.426 -0.2488 -0.6460  0.0459
 9423SOL    HW233153   2.322   4.981   1.499 -0.7115  1.0357 -0.4841
 9424SOL     OW33154   9.452   4.153   0.994 -0.6104 -0.7392  0.2998
 9424SOL    HW133155   9.445   4.141   0.895  0.4410 -0.0356  0.1311
 9424SOL    HW233156   9.489   4.070   1.036 -2.1275 -1.4593  0.2504
 9425SOL     OW33157   2.236   8.278   3.172  0.4298  0.2720 -0.1940
 9425SOL    HW133158   2.162   8.278   3.105  0.6604 -1.1924 -0.4538
 9425SOL    HW233159   2.266   8.372   3.188  0.9121  0.5909 -2.7568
 9428SOL     OW33160   9.225   8.523   1.114 -0.5790 -0.3094  0.1578
 9428SOL    HW133161   9.287   8.456   1.155 -1.9922 -0.8851  1.4057
 9428SOL    HW233162   9.135   8.517   1.158 -0.9396  1.9288 -0.1984
 9430SOL     OW33163   8.411   2.425   2.153  0.0943  0.2365 -0.2708
 9430SOL    HW133164   8.376   2.407   2.245  1.8082 -3.4397 -0.2619
 9430SOL    HW233165   8.511   2.428   2.155  0.1117  1.1514 -1.8599
 9431SOL     OW33166   1.628   9.364   1.611 -0.3062 -0.1000 -0.2792
 9431SOL    HW133167   1.706   9.317   1.570  0.1307  0.9158 -0.6125
 9431SOL    HW233168   1.655   9.456   1.640 -1.9412  1.0893 -2.3884
 9433SOL     OW33169   5.150   2.299   1.686 -0.0140 -0.2244 -0.1413
 9433SOL    HW133170   5.083   2.373   1.676 -1.1248 -1.3285 -1.0750
 9433SOL    HW233171   5.133   2.251   1.772  0.2666  0.1763  0.1371
 9434SOL     OW33172   3.242   4.332   3.073 -0.6538 -0.1629  0.3559
 9434SOL    HW133173   3.332   4.290   3.082 -0.6651 -0.0154  1.1403
 9434SOL    HW233174   3.248   4.429   3.095 -1.1211 -0.2730  0.9893
 9435SOL     OW33175   5.893   8.895   3.702  0.0186 -0.2762 -0.5162
 9435SOL    HW133176   5.875   8.958   3.626  1.3746  0.1138 -0.5341
 9435SOL    HW233177   5.878   8.801   3.673 -0.9477 -0.0348 -0.8138
 9436SOL     OW33178   1.939   9.639   0.812 -1.1516 -0.2205 -0.4892
 9436SOL    HW133179   1.904   9.703   0.880 -0.0513 -1.1257  0.9444
 9436SOL    HW233180   1.982   9.561   0.858 -0.9562 -1.1541 -2.2158
 9437SOL     OW33181   1.377   9.623   1.697  1.0333  0.1732  0.4301
 9437SOL    HW133182   1.345   9.692   1.762  0.0677 -1.4197  1.6736
 9437SOL    HW233183   1.303   9.558   1.677  1.7149 -0.1139 -1.2675
 9438SOL     OW33184   8.068   9.863   2.563 -0.3669  0.3328 -0.4773
 9438SOL    HW133185   8.139   9.834   2.628 -1.5044 -2.0869 -0.2383
 9438SOL    HW233186   8.103   9.855   2.470 -0.8411 -2.6985 -0.4700
 9439SOL     OW33187   0.782   5.601   1.842 -0.0050  0.0031 -0.4373
 9439SOL    HW133188   0.822   5.685   1.879  0.4683 -1.2516  2.0661
 9439SOL    HW233189   0.683   5.606   1.850  0.0562  0.0462  0.3796
 9441SOL     OW33190   0.968   3.830   2.780  0.3508 -0.6013  0.3894
 9441SOL    HW133191   0.909   3.760   2.740  1.0137 -0.7844 -0.2764
 9441SOL    HW233192   0.931   3.920   2.758  1.0915 -0.6789 -1.2629
 9442SOL     OW33193   7.416   7.673   3.464  0.1241 -0.5523  0.7502
 9442SOL    HW133194   7.413   7.773   3.460 -1.5616 -0.5176  2.2312
 9442SOL    HW233195   7.325   7.636   3.448  1.0389 -1.9546 -1.3717
 9443SOL     OW33196   2.624   1.381   1.679 -0.1569  0.2579 -0.2804
 9443SOL    HW133197   2.676   1.461   1.650 -0.5942  1.4627  2.1635
 9443SOL    HW233198   2.529   1.390   1.649 -0.2185  0.6742  0.0444
 9444SOL     OW33199   3.465   9.465   3.091 -0.0328 -0.3558  0.1258
 9444SOL    HW133200   3.403   9.390   3.114 -2.5195  0.9186 -2.0415
 9444SOL    HW233201   3.524   9.439   3.015 -1.1238 -0.0667 -0.8471
 9445SOL     OW33202   9.082   3.490   3.181  0.1599 -0.0650  0.2462
 9445SOL    HW133203   9.140   3.462   3.258  1.7259  1.6976 -0.2515
 9445SOL    HW233204   9.098   3.587   3.161 -0.6836 -0.3505 -1.9204
 9446SOL     OW33205   9.193   4.358   2.899 -0.4349 -0.2277  0.4370
 9446SOL    HW133206   9.236   4.366   2.809  1.3236  0.9369  1.3420
 9446SOL    HW233207   9.094   4.365   2.889 -0.2120  0.9543 -1.3190
 9447SOL     OW33208   2.784   2.508   3.019 -0.3714 -0.0794  0.7140
 9447SOL    HW133209   2.878   2.474   3.026 -0.5064 -0.3598  1.2341
 9447SOL    HW233210   2.784   2.599   2.979 -0.2659 -2.0019 -4.0142
 9448SOL     OW33211   7.864   1.313   2.576 -0.0792  0.0868  0.0597
 9448SOL    HW133212   7.903   1.360   2.656  0.7655 -0.2440 -0.1464
 9448SOL    HW233213   7.783   1.362   2.545  0.6106  1.2439  0.0437
 9449SOL     OW33214   7.770   0.079   3.337 -0.1516 -0.4684 -0.0249
 9449SOL    HW133215   7.733   0.025   3.262 -0.4882 -1.5589  0.9217
 9449SOL    HW233216   7.695   0.125   3.386 -0.1064 -1.2408  0.7811
 9451SOL     OW33217   4.230   8.836   1.050 -0.3544  0.3487  0.3480
 9451SOL    HW133218   4.225   8.931   1.017  0.8524  0.1812 -0.3635
 9451SOL    HW233219   4.258   8.836   1.146 -0.1721  0.7208  0.2990
 9452SOL     OW33220   1.317   0.483   1.663  0.2346  0.0470  0.0156
 9452SOL    HW133221   1.391   0.492   1.731  1.8076 -1.1944 -1.4815
 9452SOL    HW233222   1.355   0.496   1.572 -1.1614 -1.8407 -0.8651
 9453SOL     OW33223   8.100   9.605   3.208  0.0566 -0.1106 -0.3758
 9453SOL    HW133224   8.154   9.683   3.177  1.5312 -0.5785  0.9860
 9453SOL    HW233225   8.070   9.620   3.302 -0.1020 -0.9636 -0.2900
 9454SOL     OW33226   0.368   6.247   2.951  0.2710  0.0301 -0.0431
 9454SOL    HW133227   0.369   6.340   2.988  0.0460 -0.2451  0.6666
 9454SOL    HW233228   0.337   6.184   3.022  0.9125 -0.6546 -0.3708
 9455SOL     OW33229   2.199   3.401   3.747 -0.5030  0.0787 -0.2100
 9455SOL    HW133230   2.142   3.322   3.725 -0.0513  0.4806 -3.0442
 9455SOL    HW233231   2.152   3.458   3.813 -1.7339 -1.5128  0.3368
 9456SOL     OW33232   3.535   4.339   2.746 -0.5296 -0.3695 -0.3696
 9456SOL    HW133233   3.450   4.373   2.707  0.5822  0.0416 -2.5274
 9456SOL    HW233234   3.541   4.240   2.734 -0.3675 -0.2959 -0.9316
 9457SOL     OW33235   7.896   9.422   0.474  0.3821 -0.0838 -0.2184
 9457SOL    HW133236   7.936   9.469   0.552  0.3293  0.4013 -0.4825
 9457SOL    HW233237   7.961   9.421   0.398  1.1431 -2.1963  0.4418
 9458SOL     OW33238   8.069   0.171   0.155  0.1217 -0.2786  0.1728
 9458SOL    HW133239   7.999   0.199   0.222 -2.0670  0.5873 -2.3637
 9458SOL    HW233240   8.133   0.246   0.141 -1.3206  0.7780 -1.0216
 9459SOL     OW33241   2.367   6.591   1.099  0.1920 -0.1080  0.3731
 9459SOL    HW133242   2.340   6.681   1.064  3.7528  1.6063  1.8255
 9459SOL    HW233243   2.426   6.546   1.033 -0.2522 -0.6647  0.3576
 9460SOL     OW33244   9.897   1.049   3.151 -0.0627 -0.3722  0.6982
 9460SOL    HW133245   9.816   1.054   3.091 -1.1470  0.0781  2.1845
 9460SOL    HW233246   9.890   0.968   3.209 -0.1824  0.4803  1.8804
 9461SOL     OW33247   6.263   9.760   2.149 -0.2949  0.1430 -0.0792
 9461SOL    HW133248   6.298   9.795   2.235  0.9447  0.7234 -0.8063
 9461SOL    HW233249   6.227   9.668   2.162  2.0238 -0.6998  0.5745
 9464SOL     OW33250   6.047   9.242   3.008  0.5642  0.1534 -0.1710
 9464SOL    HW133251   5.954   9.229   3.042  0.4011 -1.5417 -1.2545
 9464SOL    HW233252   6.076   9.336   3.027 -1.1941  0.5618  0.5739
 9465SOL     OW33253   0.599   6.751   1.765 -0.4778  0.2841  0.2772
 9465SOL    HW133254   0.603   6.678   1.833 -1.8012  0.8169  0.9360
 9465SOL    HW233255   0.643   6.833   1.802  2.9510 -0.7492 -1.2547
 9466SOL     OW33256   3.570   6.982   3.582  0.2948  0.0549 -0.0943
 9466SOL    HW133257   3.475   6.966   3.610  0.4259  0.7358  0.7471
 9466SOL    HW233258   3.606   6.898   3.541 -0.7108 -0.1686 -0.5552
 9468SOL     OW33259   5.108   1.499   1.397 -0.3925 -0.1136 -0.5303
 9468SOL    HW133260   5.022   1.473   1.441 -0.1476  0.1631  0.1185
 9468SOL    HW233261   5.088   1.544   1.310 -0.7948 -2.9149 -1.9343
 9469SOL     OW33262   3.637   2.544   1.891 -0.4011  0.1628  0.0611
 9469SOL    HW133263   3.551   2.540   1.941 -0.5129  1.3286 -0.0268
 9469SOL    HW233264   3.713   2.550   1.956 -0.3901 -0.7891  0.1368
 9472SOL     OW33265   0.036   2.643   2.845 -0.1592 -0.6393  0.0648
 9472SOL    HW133266   0.013   2.692   2.928  1.6934 -0.9088  0.7516
 9472SOL    HW233267   0.134   2.625   2.842 -0.2847 -1.1711 -1.8819
 9473SOL     OW33268   9.802   0.172   2.275 -0.2447  0.5633 -0.0108
 9473SOL    HW133269   9.866   0.190   2.201  1.0407  0.5597  1.0710
 9473SOL    HW233270   9.802   0.250   2.338  0.1579 -0.2747  1.0301
 9474SOL     OW33271   2.248   6.109   0.036  0.3542  0.0987  0.1086
 9474SOL    HW133272   2.158   6.082   0.003 -0.8770  1.3056  2.3395
 9474SOL    HW233273   2.295   6.030   0.074 -1.1271  0.0677  1.9266
 9475SOL     OW33274   8.724   7.598   3.326 -0.3182 -0.3526  0.1794
 9475SOL    HW133275   8.652   7.580   3.393  0.8695  1.8760  2.1257
 9475SOL    HW233276   8.808   7.550   3.353  0.2953  0.9218  0.5532
 9476SOL     OW33277   2.126   2.424   3.525 -0.0563  0.4202 -0.0338
 9476SOL    HW133278   2.046   2.422   3.466 -0.2695 -0.3728  0.2715
 9476SOL    HW233279   2.190   2.353   3.495  0.2212  0.5919  0.1550
 9477SOL     OW33280   2.214   1.711   3.476 -0.3701 -0.1752  0.4240
 9477SOL    HW133281   2.269   1.795   3.483  0.9671 -0.9364 -0.6143
 9477SOL    HW233282   2.117   1.735   3.469  0.0037  1.2934  0.1071
 9478SOL     OW33283   6.993   0.965   3.121  1.1124 -0.3036  0.2601
 9478SOL    HW133284   7.037   0.890   3.170  1.5471 -0.0018  0.3393
 9478SOL    HW233285   6.986   1.045   3.181 -1.7051 -1.0800  1.0311
 9479SOL     OW33286   7.405   9.100   2.203  0.2101  0.6158  0.6729
 9479SOL    HW133287   7.400   9.059   2.112  1.5182 -1.1547  1.3603
 9479SOL    HW233288   7.421   9.198   2.195 -0.5222  0.6129 -1.0027
 9480SOL     OW33289   1.661   1.935   1.091  0.4846 -0.0965 -0.1901
 9480SOL    HW133290   1.578   1.989   1.089  0.0872 -0.6950 -0.0161
 9480SOL    HW233291   1.722   1.965   1.017  0.8000  1.4093  0.6652
 9481SOL     OW33292   1.969   4.552   1.412  0.5667  0.0843  0.3048
 9481SOL    HW133293   2.041   4.565   1.480  0.9178  0.3374 -0.1150
 9481SOL    HW233294   1.990   4.606   1.331 -0.0428  0.0762  0.1412
 9482SOL     OW33295   8.623   0.633   2.897  0.0214  0.2042  0.1997
 9482SOL    HW133296   8.544   0.606   2.951 -1.4634  2.1115 -0.9806
 9482SOL    HW233297   8.696   0.664   2.957 -0.5014 -0.5278  1.2321
 9483SOL     OW33298   3.657   0.478   1.827 -0.1321 -0.0296 -0.5667
 9483SOL    HW133299   3.570   0.468   1.778  0.2772 -0.2626 -1.2625
 9483SOL    HW233300   3.665   0.570   1.863 -2.2720 -1.0417  2.6249
 9484SOL     OW33301   8.176   3.326   1.293  0.2566 -0.0285  0.0142
 9484SOL    HW133302   8.209   3.348   1.201  2.6468 -0.8911  0.6357
 9484SOL    HW233303   8.103   3.258   1.286  0.9738 -0.7057 -1.2186
 9485SOL     OW33304   1.901   2.153   1.892  0.0833  0.6766 -0.2193
 9485SOL    HW133305   1.845   2.086   1.843  1.1034 -0.1134 -0.3150
 9485SOL    HW233306   1.945   2.214   1.827  0.4853  0.3850 -0.2197
 9486SOL     OW33307   4.898   1.312   2.893  0.2802  0.0426 -0.1867
 9486SOL    HW133308   4.985   1.329   2.847  0.8678  0.0323  0.9173
 9486SOL    HW233309   4.902   1.348   2.986 -0.5629 -0.8246  0.1900
 9487SOL     OW33310   1.836   2.552   1.485 -0.2405  0.0871  0.3689
 9487SOL    HW133311   1.826   2.473   1.424  0.1160  1.2006 -1.1819
 9487SOL    HW233312   1.863   2.522   1.576  1.0573 -1.5019 -0.5195
 9489SOL     OW33313   1.157   6.175   0.759  0.1844 -0.5400 -1.2807
 9489SOL    HW133314   1.243   6.223   0.741 -0.1001 -0.0759 -1.4287
 9489SOL    HW233315   1.102   6.230   0.822  0.5661 -1.4660 -0.1181
 9491SOL     OW33316   0.429   2.702   0.404  0.4654 -0.0523  0.0161
 9491SOL    HW133317   0.431   2.744   0.313 -2.4252  0.7530  0.2598
 9491SOL    HW233318   0.390   2.610   0.396 -1.7100  0.7800  0.6652
 9492SOL     OW33319   6.297   8.543   2.320  0.1889  0.6394  0.4275
 9492SOL    HW133320   6.245   8.467   2.283 -0.9101  1.7387 -0.3063
 9492SOL    HW233321   6.302   8.534   2.420  0.4802 -0.6383  0.3102
 9493SOL     OW33322   3.416   9.550   1.144  0.2435 -0.4319  0.0278
 9493SOL    HW133323   3.485   9.483   1.173 -0.3313 -0.9046  0.3309
 9493SOL    HW233324   3.342   9.552   1.212 -0.2873 -0.3064 -0.5510
 9494SOL     OW33325   9.300   5.262   2.698 -0.6391  0.2541  0.1445
 9494SOL    HW133326   9.202   5.281   2.687 -0.0838  2.1487 -1.9914
 9494SOL    HW233327   9.324   5.180   2.646 -0.8608  0.4736 -0.3045
 9495SOL     OW33328   8.812   8.806   0.615 -0.1726 -0.1029  0.2143
 9495SOL    HW133329   8.720   8.802   0.576  0.9373 -1.0473 -2.3864
 9495SOL    HW233330   8.828   8.897   0.653 -1.0806  1.0482 -2.0731
 9496SOL     OW33331   1.231   7.325   0.815 -0.1602  0.4851 -0.3890
 9496SOL    HW133332   1.198   7.320   0.720  1.5933  1.8881 -1.1109
 9496SOL    HW233333   1.155   7.346   0.876 -1.3244 -0.5200 -1.4782
 9497SOL     OW33334   6.605   0.280   2.687  0.0552 -0.3734 -0.2412
 9497SOL    HW133335   6.574   0.213   2.754  0.4631 -1.5271 -1.2050
 9497SOL    HW233336   6.557   0.367   2.702 -2.3981 -1.6210 -0.6630
 9498SOL     OW33337   2.997   5.346   3.622 -0.0134  0.9170  0.6082
 9498SOL    HW133338   3.096   5.338   3.633  0.2004  0.3725 -1.4810
 9498SOL    HW233339   2.955   5.256   3.627 -0.0700  0.8127 -1.1716
 9499SOL     OW33340   9.802   9.904   2.803  0.2574 -0.1763 -0.4932
 9499SOL    HW133341   9.705   9.887   2.820  0.3062 -0.5507 -0.6046
 9499SOL    HW233342   9.816  10.002   2.785 -0.1023 -0.1287 -0.5071
 9500SOL     OW33343   9.864   9.714   1.894  0.3783 -0.2651 -0.6202
 9500SOL    HW133344   9.789   9.663   1.935  2.1140 -0.6834  2.2005
 9500SOL    HW233345   9.840   9.811   1.887 -0.4719 -0.4266  0.0856
 9501SOL     OW33346   0.348   7.823   0.280 -0.5027 -0.2020  0.2662
 9501SOL    HW133347   0.382   7.729   0.289  0.6462  0.3194  1.6472
 9501SOL    HW233348   0.262   7.832   0.330 -0.1871 -0.3225  0.8397
 9503SOL     OW33349   1.115   9.504   1.380 -0.1767 -0.4495 -0.7970
 9503SOL    HW133350   1.215   9.501   1.371  0.2371 -1.7035  3.1801
 9503SOL    HW233351   1.086   9.597   1.402  0.2545 -0.3659 -0.5779
 9505SOL     OW33352   3.901   3.223   0.116  0.0908 -0.0717 -0.1212
 9505SOL    HW133353   3.888   3.138   0.064 -0.2591 -0.0085 -0.1396
 9505SOL    HW233354   3.812   3.255   0.149  0.1559  0.5700 -0.5621
 9507SOL     OW33355   7.690   5.406   2.883  0.0509  0.4325 -0.7822
 9507SOL    HW133356   7.610   5.426   2.939  0.4308 -0.4075  0.0710
 9507SOL    HW233357   7.754   5.483   2.888  0.5432 -0.0406  0.7847
 9508SOL     OW33358   8.800   6.844   0.097 -0.0339 -0.1165 -0.4082
 9508SOL    HW133359   8.858   6.789   0.037  0.4393  0.3910 -0.4221
 9508SOL    HW233360   8.773   6.790   0.177 -1.1314 -0.9765 -1.3501
 9509SOL     OW33361   8.413   9.791   3.559 -0.3315 -0.4583  0.0394
 9509SOL    HW133362   8.464   9.707   3.575 -0.0886 -0.5510 -1.1565
 9509SOL    HW233363   8.339   9.773   3.494 -0.2936  0.2415 -0.2079
 9511SOL     OW33364   5.173   8.445   3.469  0.4064  0.1330  0.7734
 9511SOL    HW133365   5.129   8.361   3.438  3.1949 -1.6696  1.4182
 9511SOL    HW233366   5.224   8.486   3.393  1.4203 -0.3986  1.1449
 9512SOL     OW33367   0.575   4.763   0.112 -0.2470  0.5624  0.7630
 9512SOL    HW133368   0.526   4.833   0.164 -1.3519  1.6481 -1.6257
 9512SOL    HW233369   0.609   4.804   0.027 -1.2197 -1.8954 -0.8440
 9513SOL     OW33370   3.615   8.717   1.352 -0.1503 -0.2316  0.4538
 9513SOL    HW133371   3.595   8.815   1.351 -0.1705 -0.2282  1.0399
 9513SOL    HW233372   3.558   8.672   1.422  0.9113 -0.4373  1.1928
 9514SOL     OW33373   8.803   2.829   0.836 -0.2307 -0.4753  0.1944
 9514SOL    HW133374   8.852   2.855   0.753 -0.6317 -2.9854 -0.8761
 9514SOL    HW233375   8.712   2.796   0.812 -0.4257 -1.0665  1.6718
 9515SOL     OW33376   4.452   9.119   1.129 -0.5653  0.1888  0.1957
 9515SOL    HW133377   4.466   9.084   1.036  0.4602 -1.5958  0.9839
 9515SOL    HW233378   4.481   9.214   1.134 -0.5362  0.2679 -1.2963
 9516SOL     OW33379   6.702   9.424   3.481  0.3073  0.2932  0.6483
 9516SOL    HW133380   6.734   9.412   3.387 -2.2946 -0.0327 -0.2262
 9516SOL    HW233381   6.777   9.405   3.545  1.2602 -2.5130 -1.2535
 9517SOL     OW33382   4.729   0.760   3.142 -0.1077  0.3576  0.0397
 9517SOL    HW133383   4.791   0.691   3.106  1.2043  0.7871  1.4102
 9517SOL    HW233384   4.682   0.806   3.066 -0.1916 -1.2901 -0.9107
 9518SOL     OW33385   2.774   1.173   1.218 -0.6585 -0.1759  0.4451
 9518SOL    HW133386   2.729   1.119   1.146 -2.7451  0.3042  1.3462
 9518SOL    HW233387   2.746   1.269   1.208  0.0752  0.1034  1.1106
 9519SOL     OW33388   2.099   8.848   0.366 -0.0160  0.0929  0.0749
 9519SOL    HW133389   2.118   8.924   0.303  1.9262 -0.4558 -0.0445
 9519SOL    HW233390   2.091   8.883   0.459  1.0578  0.4350  0.0438
 9521SOL     OW33391   9.648   1.065   3.562 -0.0193 -1.0314 -0.1864
 9521SOL    HW133392   9.739   1.061   3.604  0.0808 -2.0646 -0.4991
 9521SOL    HW233393   9.640   1.150   3.510 -0.1386  0.2621  1.8837
 9522SOL     OW33394   1.227   3.798   3.184 -0.0863 -0.2853 -0.4905
 9522SOL    HW133395   1.214   3.894   3.161  0.4019 -0.1794 -0.3421
 9522SOL    HW233396   1.325   3.779   3.190 -0.1559 -1.0740 -1.6934
 9523SOL     OW33397   7.339   9.338   0.544 -0.1225  0.1144  0.0110
 9523SOL    HW133398   7.426   9.293   0.524  0.5935  1.1821  0.6544
 9523SOL    HW233399   7.302   9.378   0.461  0.2160  0.0104 -0.1914
 9524SOL     OW33400   7.928   4.880   0.327  0.0233 -0.5319  0.2002
 9524SOL    HW133401   7.953   4.891   0.423  1.9828  0.5815 -0.4116
 9524SOL    HW233402   7.986   4.938   0.271 -0.6831 -1.6516 -1.7285
 9526SOL     OW33403   5.325   3.109   0.810 -0.4563 -0.4101  0.5737
 9526SOL    HW133404   5.389   3.116   0.887 -0.0610 -1.2403  0.3201
 9526SOL    HW233405   5.373   3.132   0.725  0.0067 -2.9225  0.1386
 9527SOL     OW33406   8.260   4.626   1.500 -0.2044 -1.0144  0.1503
 9527SOL    HW133407   8.260   4.697   1.571 -0.9023 -1.2624  0.4064
 9527SOL    HW233408   8.351   4.585   1.493  0.3877  0.4085 -0.5090
 9528SOL     OW33409   0.574   7.220   3.393  0.5918  0.2157 -0.4535
 9528SOL    HW133410   0.600   7.163   3.316 -1.6746  0.6830 -1.6067
 9528SOL    HW233411   0.546   7.310   3.360  2.3571  1.4186  1.1791
 9529SOL     OW33412   4.253   3.856   0.361 -0.4935  0.0056  0.6426
 9529SOL    HW133413   4.241   3.857   0.262 -0.9992 -2.5912  0.6597
 9529SOL    HW233414   4.164   3.849   0.406 -0.4334  3.0553  1.3894
 9530SOL     OW33415   1.525   4.044   0.410  0.6552 -0.2468  0.2640
 9530SOL    HW133416   1.610   3.996   0.433 -0.3759 -1.9742  0.5954
 9530SOL    HW233417   1.475   3.990   0.342 -0.1401  0.8089  0.0084
 9531SOL     OW33418   8.852   9.197   3.704 -0.1804 -0.0166  0.1031
 9531SOL    HW133419   8.908   9.194   3.787 -0.6142  1.1608  0.4470
 9531SOL    HW233420   8.860   9.110   3.655  0.3884 -0.5708  1.1683
 9532SOL     OW33421   8.936   4.165   0.119 -0.3467 -0.2281 -0.1449
 9532SOL    HW133422   9.011   4.169   0.054  0.0780  1.2760  0.4270
 9532SOL    HW233423   8.849   4.156   0.070  0.1069 -0.8935 -0.8360
 9533SOL     OW33424   8.174   9.482   1.083 -0.4759  0.4189 -0.0878
 9533SOL    HW133425   8.088   9.532   1.074  0.2494  1.4545 -1.5881
 9533SOL    HW233426   8.155   9.385   1.098 -1.9139  0.5566 -0.9047
 9534SOL     OW33427   0.133   2.474   0.373 -0.1771  0.2178  0.0523
 9534SOL    HW133428   0.100   2.506   0.461  0.1025 -1.6735  0.8691
 9534SOL    HW233429   0.055   2.443   0.318 -0.0635 -1.5358  0.8605
 9535SOL     OW33430   2.791   0.621   2.057  0.6148 -0.0265  0.0067
 9535SOL    HW133431   2.694   0.646   2.055  0.9196  1.2078  0.2485
 9535SOL    HW233432   2.808   0.550   1.989 -1.2532 -3.2581  2.7355
 9536SOL     OW33433   2.361   8.596   1.056  0.1720  0.4443  0.0911
 9536SOL    HW133434   2.273   8.640   1.037 -0.6935 -0.4400  2.0045
 9536SOL    HW233435   2.401   8.563   0.970 -1.4021  0.7617 -0.7749
 9537SOL     OW33436   8.343   0.875   3.057 -0.1024 -0.0256 -0.0057
 9537SOL    HW133437   8.430   0.856   3.011  0.6280  1.7439  0.5813
 9537SOL    HW233438   8.357   0.870   3.156 -0.5831  0.5824  0.0936
 9538SOL     OW33439   1.089   0.569   1.826  0.2701  0.0518  0.0796
 9538SOL    HW133440   1.096   0.575   1.926 -0.0620  0.4968  0.0776
 9538SOL    HW233441   1.160   0.507   1.792  2.1478  2.0061  0.3420
 9539SOL     OW33442   9.845   1.910   0.924 -0.6145  0.0614  0.1035
 9539SOL    HW133443   9.858   1.900   1.022  2.7794  0.4663 -0.2525
 9539SOL    HW233444   9.880   1.999   0.894  0.8234 -1.1066 -1.8347
 9540SOL     OW33445   8.852   3.552   1.070 -0.0215  0.2741 -0.2074
 9540SOL    HW133446   8.824   3.479   1.133 -0.4434 -0.1701 -0.8966
 9540SOL    HW233447   8.921   3.610   1.114 -0.0830 -0.2164  0.5443
 9541SOL     OW33448   9.076   0.751   0.050 -0.8834  0.2961  0.3029
 9541SOL    HW133449   9.044   0.683  -0.016  1.4812 -0.2383 -0.3146
 9541SOL    HW233450   9.043   0.726   0.141  0.7108 -2.2120  0.2245
 9542SOL     OW33451   5.314   7.955   1.797 -0.3985  0.2469 -0.1802
 9542SOL    HW133452   5.344   7.908   1.880  0.9180  0.2827 -0.6319
 9542SOL    HW233453   5.302   8.052   1.816 -1.5277  0.0199  0.3321
 9543SOL     OW33454   9.777   6.837   3.344 -0.2646  0.0049  0.0927
 9543SOL    HW133455   9.825   6.827   3.257 -1.2636  1.0905 -0.5932
 9543SOL    HW233456   9.834   6.800   3.418  1.2562  0.4717 -0.8152
 9544SOL     OW33457   3.504   6.977   1.794  0.6011  0.2912 -0.0992
 9544SOL    HW133458   3.588   7.009   1.838  0.8902  1.3678 -1.3763
 9544SOL    HW233459   3.486   6.882   1.820  0.7615  0.8959  2.2877
 9545SOL     OW33460   7.730   1.449   0.414  0.0150 -0.4132  0.1685
 9545SOL    HW133461   7.715   1.402   0.501 -0.6642 -0.5144  0.0031
 9545SOL    HW233462   7.694   1.542   0.420  0.1872 -0.3417  0.0795
 9546SOL     OW33463   4.501   7.288   0.474  0.4378  0.0886 -0.0237
 9546SOL    HW133464   4.443   7.344   0.415  0.7245  0.2034 -0.2009
 9546SOL    HW233465   4.503   7.327   0.566 -0.0646 -0.1292  0.0835
 9548SOL     OW33466   1.486   2.252   1.364  0.2196 -0.4814  0.2266
 9548SOL    HW133467   1.538   2.174   1.400  0.1238 -0.0427  1.3348
 9548SOL    HW233468   1.458   2.310   1.440  0.4466  0.7312 -0.6157
 9549SOL     OW33469   3.335   5.604   0.241 -0.1408  0.0845  0.1626
 9549SOL    HW133470   3.289   5.689   0.266 -0.0225  0.5749 -1.2641
 9549SOL    HW233471   3.392   5.573   0.318 -0.5734  1.0160  0.8650
 9550SOL     OW33472   3.839   1.429   3.211  0.3716  0.3774 -0.3563
 9550SOL    HW133473   3.928   1.410   3.253  0.7925  0.0283 -1.3904
 9550SOL    HW233474   3.799   1.510   3.253  0.4115 -0.4360  1.2777
 9551SOL     OW33475   8.767   1.275   0.321 -0.3656 -0.7509  0.5024
 9551SOL    HW133476   8.689   1.337   0.308  0.4850 -0.0439 -1.5071
 9551SOL    HW233477   8.775   1.216   0.241  0.3985 -1.6822  1.2736
 9552SOL     OW33478   1.891   8.689   0.803  0.3806 -0.0328  0.0212
 9552SOL    HW133479   1.883   8.640   0.889 -0.2062  3.0847  1.8200
 9552SOL    HW233480   1.820   8.658   0.740  0.2389 -1.6926  0.9763
 9553SOL     OW33481   1.609   2.597   3.323  0.0949  0.0063  0.1926
 9553SOL    HW133482   1.687   2.562   3.374  0.5502  0.6801 -0.0419
 9553SOL    HW233483   1.556   2.659   3.381 -0.0490 -0.1474  0.2260
 9554SOL     OW33484   6.901   9.874   2.006  0.3534  0.7850 -0.1145
 9554SOL    HW133485   6.838   9.838   2.075  0.0715  1.0222 -0.2441
 9554SOL    HW233486   6.937   9.962   2.037  1.7991 -0.0585  0.6451
 9555SOL     OW33487   1.963   0.189   0.358 -0.1583  0.2928  0.1339
 9555SOL    HW133488   1.939   0.145   0.444  0.3336 -0.1063  0.0696
 9555SOL    HW233489   1.971   0.120   0.286 -0.2620  0.5889 -0.1657
 9556SOL     OW33490   5.131   9.072   1.606 -0.3057 -0.3613 -0.2580
 9556SOL    HW133491   5.177   9.071   1.695 -0.7808  1.5075  0.0323
 9556SOL    HW233492   5.200   9.065   1.533  0.2767  0.3001  0.2193
 9559SOL     OW33493   8.786   8.741   3.572  0.2158 -0.0620 -0.3658
 9559SOL    HW133494   8.831   8.793   3.645 -2.3192  0.4844  0.8662
 9559SOL    HW233495   8.855   8.698   3.515  2.3256  1.9564  0.5622
 9560SOL     OW33496   9.015   3.667   2.078  0.6143 -0.1182 -0.0696
 9560SOL    HW133497   8.924   3.710   2.075  0.6099 -0.2097 -1.8754
 9560SOL    HW233498   9.061   3.680   1.990  2.5707  0.3656  1.0079
 9561SOL     OW33499   0.551   9.739   2.691 -0.0769  0.2088  0.1198
 9561SOL    HW133500   0.629   9.746   2.628  1.0293  1.9370  1.6130
 9561SOL    HW233501   0.581   9.698   2.777 -1.0131  0.1439  0.4236
 9562SOL     OW33502   3.435   5.432   0.760  0.0982  0.4352 -0.5014
 9562SOL    HW133503   3.400   5.408   0.851  2.1870 -1.0810 -0.0690
 9562SOL    HW233504   3.360   5.469   0.705 -1.5157  0.0355  1.3501
 9563SOL     OW33505   4.612   8.186   2.605  0.3077  0.4123 -0.9605
 9563SOL    HW133506   4.681   8.151   2.669 -0.2350  1.4333  0.2157
 9563SOL    HW233507   4.579   8.111   2.548 -0.2514 -0.8529  0.9506
 9564SOL     OW33508   4.381   2.838   1.322 -0.1340 -0.0310  0.3000
 9564SOL    HW133509   4.304   2.799   1.372  0.6133 -0.6874  0.9766
 9564SOL    HW233510   4.364   2.831   1.224 -1.3816  0.7756  0.4544
 9565SOL     OW33511   4.058   3.292   1.213  0.0145 -0.0958 -0.1384
 9565SOL    HW133512   4.035   3.262   1.306  2.1765  0.9270  0.7637
 9565SOL    HW233513   4.116   3.373   1.218  2.0586 -1.3603 -2.3071
 9567SOL     OW33514   2.227   6.425   0.879 -0.0230  0.0528  0.0600
 9567SOL    HW133515   2.165   6.438   0.957  1.9851  0.3377  1.6590
 9567SOL    HW233516   2.228   6.508   0.824  0.0312  0.5810  0.8427
 9568SOL     OW33517   8.086   3.092   0.750  0.1922 -0.0530 -0.0902
 9568SOL    HW133518   8.005   3.150   0.737 -0.2178 -0.5746  0.1159
 9568SOL    HW233519   8.106   3.044   0.664 -0.0881 -0.3908  0.0294
 9570SOL     OW33520   7.543   7.528   3.207  0.3594  0.5912  0.2397
 9570SOL    HW133521   7.540   7.431   3.227  1.4630  0.7321  1.0961
 9570SOL    HW233522   7.477   7.577   3.265 -0.3571  0.3363 -0.3497
 9571SOL     OW33523   0.188   4.135   0.842  0.3831  1.0335  0.0296
 9571SOL    HW133524   0.241   4.079   0.778 -1.3159 -1.1138  0.4571
 9571SOL    HW233525   0.219   4.117   0.935 -0.6143  0.3043  0.2215
 9572SOL     OW33526   2.475   8.469   0.833  0.0434  0.1675 -0.4960
 9572SOL    HW133527   2.564   8.465   0.879  0.2818 -1.4646 -1.0318
 9572SOL    HW233528   2.489   8.463   0.734 -0.7255 -1.6399 -0.5167
 9573SOL     OW33529   0.392   9.573   1.177  0.0419  0.3131 -0.3011
 9573SOL    HW133530   0.427   9.626   1.254 -1.9143 -0.0986  0.9124
 9573SOL    HW233531   0.468   9.534   1.126  1.4519  2.8191 -0.1813
 9574SOL     OW33532   0.940   9.508   2.085  0.2334  0.0735 -0.0725
 9574SOL    HW133533   0.918   9.440   2.155 -0.1174  2.3565  2.0784
 9574SOL    HW233534   0.856   9.555   2.057  1.0004  2.4281  1.4492
 9575SOL     OW33535   8.565   2.322   0.919  0.7704  0.0815 -0.7116
 9575SOL    HW133536   8.569   2.348   0.822  0.6356  0.8703 -0.5038
 9575SOL    HW233537   8.560   2.404   0.976  1.9339 -0.3397  0.0258
 9576SOL     OW33538   0.615   4.581   0.915 -0.3470 -0.0537 -0.3822
 9576SOL    HW133539   0.685   4.645   0.884 -1.3410  2.4541  2.2483
 9576SOL    HW233540   0.643   4.542   1.003 -1.2568 -0.6875 -0.3707
 9577SOL     OW33541   6.275   6.866   2.209 -0.3575 -0.2839  0.1261
 9577SOL    HW133542   6.334   6.917   2.147  0.8470 -1.8707 -0.0723
 9577SOL    HW233543   6.331   6.812   2.272 -1.5757  0.4769  1.9024
 9578SOL     OW33544   0.439   4.826   0.493  0.5361 -0.1201 -0.4725
 9578SOL    HW133545   0.416   4.880   0.574  4.0360 -2.0904  2.0285
 9578SOL    HW233546   0.402   4.734   0.503 -0.1485  0.0091 -1.7734
 9579SOL     OW33547   4.573   1.198   2.105 -0.5056 -0.1261 -0.0567
 9579SOL    HW133548   4.673   1.192   2.103 -0.5190 -0.3467 -0.0359
 9579SOL    HW233549   4.546   1.294   2.101 -0.2978 -0.0760 -0.2676
 9580SOL     OW33550   8.174   8.547   0.777  0.3843 -0.0107  0.3524
 9580SOL    HW133551   8.201   8.514   0.867  1.3960  1.9847  0.8251
 9580SOL    HW233552   8.254   8.585   0.731 -0.7067  1.7437 -0.1411
 9581SOL     OW33553   7.919   0.376   2.662 -0.5242  0.2369  0.4692
 9581SOL    HW133554   7.838   0.400   2.609 -0.7451  0.6526  0.9982
 9581SOL    HW233555   7.917   0.278   2.684 -2.1038  0.7153  2.5717
 9582SOL     OW33556   1.831   9.560   3.089  0.0968 -0.1894  0.1532
 9582SOL    HW133557   1.849   9.658   3.086  1.1143 -0.3873 -0.6153
 9582SOL    HW233558   1.881   9.515   3.015  0.2436 -1.3762  0.9608
 9583SOL     OW33559   5.320   8.464   2.901 -0.1935  0.9282  0.4009
 9583SOL    HW133560   5.283   8.372   2.889 -1.0918  1.3654 -0.2585
 9583SOL    HW233561   5.372   8.491   2.820 -0.4438  1.2356  0.3410
 9584SOL     OW33562   3.756   0.009   2.803  0.2398  0.0166  0.1538
 9584SOL    HW133563   3.657   0.012   2.819  0.4699  0.6684  1.6228
 9584SOL    HW233564   3.774  -0.023   2.711 -1.3990  1.3418 -0.6685
 9585SOL     OW33565   1.485   2.087   3.607  0.5608 -0.0758  0.4623
 9585SOL    HW133566   1.446   2.060   3.696  0.4963  0.6801  0.6714
 9585SOL    HW233567   1.480   2.186   3.598 -2.8142 -0.3618 -1.9590
 9587SOL     OW33568   1.960   4.559   0.867 -0.5969 -0.2957  0.4395
 9587SOL    HW133569   1.958   4.538   0.965 -1.0925 -1.1601  0.2474
 9587SOL    HW233570   1.992   4.479   0.817 -1.1629 -0.1365 -0.1783
 9588SOL     OW33571   9.126   9.281   0.062  0.0584 -0.4612 -0.2391
 9588SOL    HW133572   9.182   9.359   0.036  0.5815 -1.1406 -1.1938
 9588SOL    HW233573   9.064   9.307   0.136  3.0028 -0.2236  2.2273
 9590SOL     OW33574   1.575   9.861   3.092 -0.5201  0.9078  0.0537
 9590SOL    HW133575   1.574   9.776   3.144 -0.8854  0.3314 -0.8937
 9590SOL    HW233576   1.487   9.908   3.102 -0.6343  0.7364 -0.1352
 9591SOL     OW33577   3.966   4.271   3.544 -0.2984  0.0844 -0.8571
 9591SOL    HW133578   4.046   4.236   3.495 -0.1142  1.1517 -1.3140
 9591SOL    HW233579   3.995   4.311   3.631 -0.2016  1.4969 -1.5357
 9592SOL     OW33580   0.828   5.648   0.735  0.9877 -0.2588 -0.0543
 9592SOL    HW133581   0.752   5.585   0.747  0.8887 -0.2006 -0.3909
 9592SOL    HW233582   0.843   5.665   0.638 -0.8382  2.5008  0.0825
 9593SOL     OW33583   1.595   8.896   0.514 -0.4099 -0.2782 -0.0768
 9593SOL    HW133584   1.524   8.850   0.568  1.0025 -2.8343 -0.3283
 9593SOL    HW233585   1.574   8.886   0.416  0.7404 -1.8642 -0.1852
 9594SOL     OW33586   9.080   2.442   3.543 -0.0141 -0.2020 -1.1607
 9594SOL    HW133587   9.068   2.344   3.558  1.0451 -0.4381 -1.8446
 9594SOL    HW233588   8.994   2.482   3.511  0.4460 -1.5387 -4.2076
 9595SOL     OW33589   4.956   9.266   1.232  0.2375 -0.7382 -0.1975
 9595SOL    HW133590   4.924   9.209   1.308  0.7153 -0.1811  0.4291
 9595SOL    HW233591   5.056   9.266   1.230  0.2971  1.8950  1.2194
 9597SOL     OW33592   9.433   9.410   2.887  0.1806 -0.3210  0.0153
 9597SOL    HW133593   9.431   9.332   2.949  1.3292 -0.7824 -0.5091
 9597SOL    HW233594   9.521   9.412   2.838  0.4511  1.6775  0.5117
 9598SOL     OW33595   0.289   0.601   2.724  0.3158  0.2646  0.3595
 9598SOL    HW133596   0.323   0.533   2.789 -1.1227 -0.0922  0.7409
 9598SOL    HW233597   0.192   0.619   2.742  0.3805  1.5135 -0.5201
 9600SOL     OW33598   0.019   3.443   3.314 -0.5855 -0.1165 -0.3716
 9600SOL    HW133599   0.087   3.453   3.387 -1.9465  0.3690  0.8678
 9600SOL    HW233600  -0.071   3.426   3.355 -1.2624 -0.4510 -1.9683
 9601SOL     OW33601   4.427   7.770   1.307 -0.6376  0.2508  0.0069
 9601SOL    HW133602   4.455   7.732   1.219  0.4326 -0.7988  0.7862
 9601SOL    HW233603   4.501   7.828   1.343  0.9654 -3.0906  2.4095
 9602SOL     OW33604   2.877   7.653   0.511  0.0512  0.3390  0.3562
 9602SOL    HW133605   2.944   7.662   0.437 -1.7214  0.9684 -1.2067
 9602SOL    HW233606   2.888   7.729   0.576  1.0026  0.3050  0.2342
 9603SOL     OW33607   4.346   0.686   3.596  0.4302 -0.2371  0.0529
 9603SOL    HW133608   4.373   0.704   3.502  1.8315  0.1842  0.5232
 9603SOL    HW233609   4.399   0.609   3.632  0.3445  0.0052  0.7045
 9604SOL     OW33610   0.982   6.291   0.939  0.4439  0.5431  0.2213
 9604SOL    HW133611   0.968   6.270   1.035 -2.3903  0.0500 -0.2534
 9604SOL    HW233612   0.952   6.385   0.921  0.5729  0.4958 -0.2471
 9605SOL     OW33613   1.289   9.593   0.768 -0.0710  0.2586  0.1821
 9605SOL    HW133614   1.356   9.536   0.816  1.6827  1.9321 -0.2186
 9605SOL    HW233615   1.257   9.665   0.829 -0.9107 -0.0526  0.1125
 9606SOL     OW33616   6.052   9.916   3.123  0.0776 -0.1275  0.2140
 9606SOL    HW133617   6.048   9.880   3.216  1.1807  0.3804  0.4785
 9606SOL    HW233618   6.142   9.896   3.084 -1.5162 -3.2842 -1.9961
 9607SOL     OW33619   4.884   2.730   2.700  0.5727 -0.4006  0.0927
 9607SOL    HW133620   4.918   2.704   2.791  1.7121  0.5669 -0.0385
 9607SOL    HW233621   4.943   2.690   2.630 -0.0092 -0.7234 -0.2214
 9609SOL     OW33622   2.357   5.210   0.456 -0.4263 -0.2370  0.3153
 9609SOL    HW133623   2.298   5.132   0.475 -2.1451  0.6126 -1.4533
 9609SOL    HW233624   2.451   5.177   0.443 -1.0312 -1.9531  0.0764
 9610SOL     OW33625   9.994   8.000   3.094 -0.0844 -0.0790 -0.4650
 9610SOL    HW133626  10.012   8.091   3.058  1.2524  0.2911  1.0914
 9610SOL    HW233627   9.903   7.998   3.135  0.5432  1.0828  1.0511
 9611SOL     OW33628   9.581   9.607   2.020  0.2830  0.0545 -0.1707
 9611SOL    HW133629   9.552   9.681   1.959  1.2370  0.7104  0.1607
 9611SOL    HW233630   9.515   9.598   2.095 -0.1643  0.1478 -0.5455
 9612SOL     OW33631   3.223   3.448   0.851  0.1169  0.5210 -0.4983
 9612SOL    HW133632   3.240   3.374   0.787  1.8265  1.3786 -1.0928
 9612SOL    HW233633   3.260   3.423   0.941 -0.9365 -0.0763 -0.2293
 9614SOL     OW33634   9.437   4.752   2.884  0.3565 -0.2998 -0.4452
 9614SOL    HW133635   9.337   4.741   2.878 -0.1301  2.2972  1.8911
 9614SOL    HW233636   9.480   4.661   2.884 -2.0918 -1.5104 -0.2432
 9615SOL     OW33637   0.449   1.196   0.124  0.4102 -0.4647  0.7488
 9615SOL    HW133638   0.421   1.188   0.028 -0.5265 -0.3118  1.0084
 9615SOL    HW233639   0.417   1.115   0.174  0.3578 -0.2421  1.0710
 9616SOL     OW33640   1.456   3.393   1.746  0.1218 -0.3930  0.1363
 9616SOL    HW133641   1.489   3.475   1.794 -2.9998 -0.8814  3.2568
 9616SOL    HW233642   1.374   3.416   1.694  0.4701 -1.0816 -0.7285
 9618SOL     OW33643   3.104  -0.000   1.344  0.0869 -0.0915 -0.4740
 9618SOL    HW133644   3.115  -0.016   1.246 -0.3958 -0.3271 -0.4922
 9618SOL    HW233645   3.189   0.035   1.383  0.7509 -1.4572 -0.6950
 9619SOL     OW33646   9.674   3.604   3.533  0.0337 -0.0639  0.7865
 9619SOL    HW133647   9.733   3.598   3.614 -1.4084  0.2143  1.8758
 9619SOL    HW233648   9.629   3.693   3.531  1.1576  0.4752 -1.1122
 9620SOL     OW33649   3.029   7.142   1.557 -0.6043  0.2896  0.1869
 9620SOL    HW133650   2.937   7.132   1.594 -0.9329  0.3300 -0.6097
 9620SOL    HW233651   3.075   7.053   1.557  0.9784  1.0049  4.7313
 9621SOL     OW33652   1.344   0.723   2.210 -0.1181 -0.7713 -0.7554
 9621SOL    HW133653   1.363   0.644   2.269  0.8073 -0.5410 -0.7266
 9621SOL    HW233654   1.429   0.751   2.164  0.0384  1.5642  0.8983
 9622SOL     OW33655   0.542   9.383   0.884  0.2132  0.5073 -0.5196
 9622SOL    HW133656   0.463   9.365   0.824  0.2507 -1.1793 -0.0634
 9622SOL    HW233657   0.621   9.405   0.827 -0.3791  1.4214 -1.0093
 9624SOL     OW33658   8.751   0.051   1.271  0.0095  0.1105  0.1079
 9624SOL    HW133659   8.654   0.074   1.262 -0.1184 -0.7266 -0.6409
 9624SOL    HW233660   8.770  -0.034   1.223  1.1759  0.4096  0.0286
 9626SOL     OW33661   2.323   7.164   1.571  0.3785 -0.1470  0.1449
 9626SOL    HW133662   2.228   7.149   1.542 -0.9358  1.1148  3.5304
 9626SOL    HW233663   2.353   7.086   1.626  0.4860  0.4909  0.9977
 9628SOL     OW33664   7.703   5.134   2.357  0.5567  0.0404  0.7565
 9628SOL    HW133665   7.631   5.066   2.373  0.5996  0.0201  0.8638
 9628SOL    HW233666   7.751   5.152   2.443 -0.2624  1.1268  0.9839
 9629SOL     OW33667   3.651   9.423   2.871  0.0630 -0.0655 -0.0242
 9629SOL    HW133668   3.731   9.365   2.886 -0.2244 -0.4107  0.1753
 9629SOL    HW233669   3.676   9.500   2.812  0.2803 -0.7845 -0.8879
 9630SOL     OW33670   0.103   0.070   1.802  0.2640  0.3361  0.0506
 9630SOL    HW133671   0.132  -0.011   1.853 -0.6464 -1.4506 -2.1574
 9630SOL    HW233672   0.176   0.138   1.803  1.1208 -0.5684  1.8035
 9631SOL     OW33673   2.448   0.666   1.130  0.2170 -0.1240 -0.3121
 9631SOL    HW133674   2.535   0.698   1.168 -0.1589  1.1352 -0.5104
 9631SOL    HW233675   2.383   0.649   1.205  0.4297 -0.4691 -0.2051
 9632SOL     OW33676   8.665   2.140   0.270  0.3516 -0.0440 -0.0063
 9632SOL    HW133677   8.759   2.173   0.281  0.1515  0.0012  1.5685
 9632SOL    HW233678   8.604   2.219   0.257  0.3048  0.0239  0.6214
 9634SOL     OW33679   6.187   9.509   2.168  0.0222 -0.4545  0.1664
 9634SOL    HW133680   6.189   9.482   2.072 -0.4951 -0.0794  0.0458
 9634SOL    HW233681   6.186   9.427   2.225 -1.8856 -0.7219 -0.2086
 9636SOL     OW33682   7.713   6.693   3.748  0.4058 -0.3225  0.0388
 9636SOL    HW133683   7.703   6.791   3.733 -0.3014 -0.5998 -1.3545
 9636SOL    HW233684   7.777   6.678   3.823 -0.2354  1.2165  0.9214
 9637SOL     OW33685   0.939   6.356   1.395 -0.2928 -0.0927 -0.2514
 9637SOL    HW133686   0.923   6.289   1.322 -0.9385  0.6819 -0.8334
 9637SOL    HW233687   1.009   6.321   1.457 -1.0024 -1.5407 -0.2357
 9638SOL     OW33688   3.168   4.638   0.195 -0.1088  0.3293 -0.1282
 9638SOL    HW133689   3.135   4.654   0.102 -0.9713  0.4655  0.1959
 9638SOL    HW233690   3.118   4.562   0.235  0.8599 -0.2824 -0.0732
 9639SOL     OW33691   4.717   2.209   2.751 -0.0504  0.4517  0.5090
 9639SOL    HW133692   4.659   2.135   2.784 -1.0789  1.0749  0.1273
 9639SOL    HW233693   4.659   2.285   2.722  0.9178  0.7018 -0.7848
 9640SOL     OW33694   8.244   9.404   3.291  0.0199 -0.1671 -0.1807
 9640SOL    HW133695   8.191   9.474   3.243 -1.0448  1.0064  2.5830
 9640SOL    HW233696   8.182   9.346   3.345  1.2243 -1.0297  0.3148
 9641SOL     OW33697   2.112   5.926   1.707 -0.3359 -0.7435 -0.2949
 9641SOL    HW133698   2.148   5.833   1.703  2.0993  0.0565  1.4061
 9641SOL    HW233699   2.063   5.939   1.793 -0.2116 -0.3294 -0.2819
 9643SOL     OW33700   8.340   0.237   3.747  0.1958 -0.1625 -0.2729
 9643SOL    HW133701   8.305   0.222   3.840  1.8555  1.6483  0.6740
 9643SOL    HW233702   8.403   0.163   3.722  2.6760  1.2781  1.5310
 9644SOL     OW33703   7.658   6.779   2.229  0.3088 -0.8747  0.5368
 9644SOL    HW133704   7.751   6.814   2.240 -0.3757  1.0641  0.4385
 9644SOL    HW233705   7.619   6.816   2.145 -0.4329 -1.9696  0.3887
 9645SOL     OW33706   3.717   3.427   2.344  0.3251  0.1247 -0.0464
 9645SOL    HW133707   3.787   3.401   2.411  1.2820 -0.0989 -1.1146
 9645SOL    HW233708   3.722   3.526   2.328 -2.2312  0.8134  2.7916
 9646SOL     OW33709   8.789   9.884   2.371 -0.0744 -0.6056  0.4061
 9646SOL    HW133710   8.715   9.947   2.347  0.7091  0.3423  0.4334
 9646SOL    HW233711   8.752   9.793   2.387 -1.5518  0.3757  2.7917
 9647SOL     OW33712   6.200   8.911   2.077 -0.1925 -0.6925 -0.3434
 9647SOL    HW133713   6.247   8.850   2.141 -0.2601 -1.7650 -1.2915
 9647SOL    HW233714   6.136   8.969   2.127  1.2957 -0.0156  0.8233
 9650SOL     OW33715   0.607   7.485   1.953  0.4428 -0.6703 -0.9820
 9650SOL    HW133716   0.616   7.508   2.050  1.2030  2.2642 -1.7241
 9650SOL    HW233717   0.697   7.484   1.911 -0.2738  2.9338 -2.7102
 9652SOL     OW33718   8.872   7.063   3.435  0.4263 -0.6687  0.2861
 9652SOL    HW133719   8.896   7.120   3.356  2.7323 -0.7870  0.8814
 9652SOL    HW233720   8.939   6.990   3.446 -0.6146 -1.4601  1.5656
 9653SOL     OW33721   9.148   4.027   3.124 -0.1378 -0.0320  0.6690
 9653SOL    HW133722   9.164   4.084   3.204 -2.5401  1.0735  0.4078
 9653SOL    HW233723   9.222   4.040   3.058  0.3905  1.1956  1.4920
 9654SOL     OW33724   0.933   8.134   0.383 -0.1810 -0.5741  0.4325
 9654SOL    HW133725   0.942   8.057   0.320  1.6595 -0.0154 -0.0400
 9654SOL    HW233726   0.842   8.174   0.375 -0.4437 -1.4035 -0.8478
 9655SOL     OW33727   5.971   9.132   1.725 -0.0561 -0.4534  0.1368
 9655SOL    HW133728   5.895   9.189   1.756  0.3425 -0.5721  1.3671
 9655SOL    HW233729   5.968   9.123   1.626 -2.2067 -1.2489  0.2481
 9656SOL     OW33730   2.445   2.536   1.770 -0.1317  0.3632 -0.1246
 9656SOL    HW133731   2.443   2.483   1.686 -0.8191  0.2455 -0.0389
 9656SOL    HW233732   2.525   2.596   1.770  0.8839 -0.9540 -0.0385
 9658SOL     OW33733   2.386   3.988   2.442  0.3702 -0.0741  0.4564
 9658SOL    HW133734   2.467   4.041   2.417 -0.6761  1.8034  0.8846
 9658SOL    HW233735   2.307   4.050   2.449 -1.3508 -2.0019 -1.0367
 9659SOL     OW33736   3.750   9.928   0.569 -0.6204 -0.8749  0.2462
 9659SOL    HW133737   3.722   9.970   0.655  0.4798 -0.5064  0.4295
 9659SOL    HW233738   3.820   9.859   0.586  1.4239  0.9370 -0.5730
 9661SOL     OW33739   7.973   6.181   3.462 -0.2584 -0.2978  0.0738
 9661SOL    HW133740   8.028   6.250   3.509 -1.0629  1.0753 -0.9342
 9661SOL    HW233741   7.890   6.164   3.514 -0.2026 -0.2646  0.1729
 9662SOL     OW33742   9.820   4.443   2.664 -0.7585  0.1973  0.3616
 9662SOL    HW133743   9.908   4.491   2.663 -0.6505  0.0843  2.1232
 9662SOL    HW233744   9.748   4.507   2.692 -1.6120  0.8216 -3.0487
 9663SOL     OW33745   7.687   3.890   0.488  0.6014  0.1632  0.2233
 9663SOL    HW133746   7.665   3.839   0.405  1.5186  0.3770 -0.1556
 9663SOL    HW233747   7.705   3.986   0.464  1.8461  0.0125  0.5271
 9664SOL     OW33748   8.839   2.650   3.091 -0.1119  1.0328 -0.0833
 9664SOL    HW133749   8.790   2.737   3.104  2.3734  2.4321  0.2186
 9664SOL    HW233750   8.937   2.668   3.082  0.4410 -1.7612 -0.0645
 9665SOL     OW33751   0.193   1.432   3.609 -0.2010  0.3317  0.5204
 9665SOL    HW133752   0.252   1.417   3.689 -0.5893  1.1872  0.9717
 9665SOL    HW233753   0.250   1.436   3.527  0.2381 -0.1742  0.7931
 9666SOL     OW33754   1.599   4.101   1.413  0.0119 -0.0976  0.3466
 9666SOL    HW133755   1.587   4.147   1.501 -0.0237 -0.4437  0.5262
 9666SOL    HW233756   1.531   4.028   1.404  1.7005 -1.8427  1.2185
 9667SOL     OW33757   0.921   7.787   0.918 -0.2105  0.3043  0.2143
 9667SOL    HW133758   0.948   7.729   0.841 -0.5231 -0.3513  0.5990
 9667SOL    HW233759   0.822   7.793   0.923 -0.1819  0.7050  0.2962
 9668SOL     OW33760   0.742   0.541   2.062 -0.1726  0.4605 -0.3310
 9668SOL    HW133761   0.694   0.582   2.140 -0.9735  0.4072 -0.7900
 9668SOL    HW233762   0.751   0.442   2.077  2.1668  0.8422  0.9911
 9669SOL     OW33763   8.521   9.133   1.878  0.2859 -0.3037 -0.0071
 9669SOL    HW133764   8.573   9.156   1.961 -0.3630 -0.2347  0.3836
 9669SOL    HW233765   8.438   9.083   1.904  0.2136 -0.5148 -0.6388
 9670SOL     OW33766   1.556   6.860   1.906 -0.2679 -0.1566 -0.5976
 9670SOL    HW133767   1.571   6.762   1.915  1.2940 -0.0880 -2.1264
 9670SOL    HW233768   1.604   6.908   1.979 -0.6447 -0.5010 -0.1245
 9671SOL     OW33769   0.604   5.715   0.174 -0.3094  0.3464 -0.1515
 9671SOL    HW133770   0.663   5.764   0.237 -0.0164 -0.8131  0.4939
 9671SOL    HW233771   0.642   5.624   0.157 -1.3702 -0.0333 -0.5252
 9672SOL     OW33772   3.921   9.286   0.406 -0.4067 -0.0489  0.0804
 9672SOL    HW133773   3.932   9.189   0.424  3.0702  0.1128 -0.8343
 9672SOL    HW233774   3.909   9.335   0.492 -1.0195 -1.1600  0.6334
 9673SOL     OW33775   1.783   9.356   2.183 -0.1476  0.5320 -1.4621
 9673SOL    HW133776   1.808   9.434   2.240 -0.5020 -0.3645 -0.0656
 9673SOL    HW233777   1.737   9.287   2.239 -0.0903 -0.5546 -2.7369
 9674SOL     OW33778   3.134   0.812   3.382  0.1781  0.0407  0.4875
 9674SOL    HW133779   3.159   0.720   3.411 -1.2539 -0.5884 -0.1939
 9674SOL    HW233780   3.118   0.869   3.462 -0.1555 -0.6613  0.9274
 9675SOL     OW33781   0.295   4.022   0.623  0.1083 -0.4839  0.1790
 9675SOL    HW133782   0.339   3.932   0.626  1.4045  0.0691 -1.7828
 9675SOL    HW233783   0.242   4.030   0.539  0.5234  0.8267  0.0395
 9676SOL     OW33784   0.566   6.536   0.397  0.2735  0.0433  0.8111
 9676SOL    HW133785   0.528   6.619   0.356  1.9802  0.6160  0.3250
 9676SOL    HW233786   0.608   6.480   0.326 -1.9605 -1.8901  0.9456
 9677SOL     OW33787   6.835   0.659   3.638 -0.3425 -0.2461  0.2042
 9677SOL    HW133788   6.781   0.736   3.673 -0.5563 -0.1741 -0.2724
 9677SOL    HW233789   6.911   0.695   3.583  0.4601 -0.3314  1.2417
 9678SOL     OW33790   8.546   9.482   1.530 -0.2898  0.0385  0.7135
 9678SOL    HW133791   8.504   9.451   1.445 -1.1388 -0.7567  1.4126
 9678SOL    HW233792   8.474   9.507   1.595  0.3515  1.8724  0.7622
 9679SOL     OW33793   8.099   2.365   1.113  0.4625  0.4176  0.5977
 9679SOL    HW133794   8.168   2.420   1.161  0.2810  1.5854 -0.4351
 9679SOL    HW233795   8.105   2.383   1.015 -1.9149  1.2546  0.5651
 9682SOL     OW33796   3.609   2.759   1.676  0.4449  0.4778 -0.5414
 9682SOL    HW133797   3.552   2.839   1.693 -1.7300 -0.8291 -1.4747
 9682SOL    HW233798   3.551   2.677   1.673  2.2618 -0.7873 -2.3106
 9683SOL     OW33799   8.791   2.986   2.720  0.2190  0.0171  0.6264
 9683SOL    HW133800   8.741   3.072   2.723 -1.2059 -0.7587 -0.1721
 9683SOL    HW233801   8.884   3.000   2.752 -0.4504  1.5320  1.9611
 9684SOL     OW33802   8.876   7.531   1.347 -0.1598  0.0076 -0.0158
 9684SOL    HW133803   8.806   7.534   1.276  0.0490  0.7189 -0.1938
 9684SOL    HW233804   8.846   7.472   1.421  0.2426 -1.9404 -1.3571
 9685SOL     OW33805   1.107   4.310   0.884  0.3181 -0.3859 -0.4603
 9685SOL    HW133806   1.105   4.323   0.785 -0.2970 -0.0060 -0.4047
 9685SOL    HW233807   1.201   4.311   0.917  0.5453 -0.9658 -1.1005
 9686SOL     OW33808   7.365   1.741   3.233  0.2367  0.0374 -0.0153
 9686SOL    HW133809   7.279   1.776   3.196  0.4466  1.2516  0.6479
 9686SOL    HW233810   7.348   1.695   3.320  0.2937  0.5088  0.2461
 9687SOL     OW33811   8.180   9.793   0.874  0.4674 -0.1820 -0.1081
 9687SOL    HW133812   8.103   9.755   0.924  0.9772  0.8128  1.4912
 9687SOL    HW233813   8.160   9.889   0.850  0.4424 -0.4896 -1.3716
 9688SOL     OW33814   8.210   2.025   0.296  0.2818  0.0242  0.4552
 9688SOL    HW133815   8.200   2.027   0.196 -0.5389  2.1880  0.5430
 9688SOL    HW233816   8.279   1.957   0.321  1.7216  0.5995 -1.7213
 9689SOL     OW33817   2.115   3.971   3.117  0.5206  0.0989  0.2620
 9689SOL    HW133818   2.146   3.997   3.025  0.5965  2.3690  0.8962
 9689SOL    HW233819   2.194   3.954   3.175  0.4712 -1.4668 -0.1048
 9690SOL     OW33820   4.027   1.392   0.317 -0.1129  0.3478  0.4394
 9690SOL    HW133821   4.001   1.486   0.296  1.6013  1.1084  1.5992
 9690SOL    HW233822   3.995   1.369   0.409 -0.9657 -0.3728 -0.0375
 9691SOL     OW33823   9.037   9.348   0.446 -0.2856  0.4436 -0.0163
 9691SOL    HW133824   9.079   9.427   0.402  0.3902 -0.0430 -0.2522
 9691SOL    HW233825   8.979   9.300   0.380 -0.0426  0.2695 -0.1006
 9692SOL     OW33826   2.594   0.552   2.660 -0.0543  0.3744  0.2980
 9692SOL    HW133827   2.503   0.512   2.674  0.5362 -0.8245  0.7870
 9692SOL    HW233828   2.631   0.581   2.748  0.5419 -0.2447  0.2493
 9693SOL     OW33829   0.199   2.184   1.324 -0.7041  0.1152 -0.6255
 9693SOL    HW133830   0.267   2.113   1.342 -2.5571 -1.7806 -0.9002
 9693SOL    HW233831   0.223   2.233   1.241  2.1646  1.8053  1.1213
 9695SOL     OW33832   9.103   2.369   0.973 -0.1773 -0.0059  0.6315
 9695SOL    HW133833   9.116   2.456   1.021  0.6787  0.4818 -0.4669
 9695SOL    HW233834   9.145   2.374   0.883 -0.1567 -1.5501  0.5397
 9696SOL     OW33835   0.395   2.829   1.062 -0.0943 -0.0125  0.2577
 9696SOL    HW133836   0.312   2.835   1.007 -0.6579  1.4400  1.2423
 9696SOL    HW233837   0.395   2.902   1.131  1.8874 -0.1240  0.4113
 9697SOL     OW33838   8.433   1.240   0.495  0.7009 -0.3756  0.1769
 9697SOL    HW133839   8.415   1.142   0.504  0.2037 -0.4087 -1.1127
 9697SOL    HW233840   8.461   1.261   0.402 -0.2019  0.8631  0.1663
 9699SOL     OW33841   9.333   0.381   1.920  0.4159 -0.3943 -0.0644
 9699SOL    HW133842   9.302   0.470   1.887  0.1009 -0.8122 -0.9315
 9699SOL    HW233843   9.279   0.353   1.999  0.2613  0.0123 -0.0269
 9700SOL     OW33844   5.045   7.264   2.421  0.7447  0.7633  0.2107
 9700SOL    HW133845   5.117   7.331   2.405 -0.2261  1.3034 -2.1285
 9700SOL    HW233846   5.032   7.208   2.339 -0.7109 -0.0969  0.9931
 9701SOL     OW33847   2.928   7.288   0.399  0.0269 -0.5534 -0.1698
 9701SOL    HW133848   2.848   7.295   0.340  0.3180 -0.0187 -0.5080
 9701SOL    HW233849   2.910   7.224   0.473 -0.1887 -1.5512 -1.0849
 9702SOL     OW33850   1.443   9.901   0.122  0.0447 -0.4956  0.3734
 9702SOL    HW133851   1.501   9.828   0.086  0.2111 -0.6181  0.8856
 9702SOL    HW233852   1.463   9.915   0.219  0.3600  0.5650  0.1619
 9703SOL     OW33853   2.358   8.599   2.215  0.4864  0.2684 -0.6260
 9703SOL    HW133854   2.343   8.502   2.196  0.0607  0.6016 -2.0551
 9703SOL    HW233855   2.455   8.619   2.208  0.9099 -0.5787  2.2703
 9704SOL     OW33856   4.527   9.104   3.722  0.4696 -0.4644  0.2294
 9704SOL    HW133857   4.432   9.078   3.710  0.0000  1.0926  0.3914
 9704SOL    HW233858   4.532   9.194   3.766  1.9906 -0.1559 -0.5082
 9705SOL     OW33859   1.566   9.561   0.992  0.2342  0.2849  0.1042
 9705SOL    HW133860   1.646   9.506   0.969  0.0674  0.6611 -1.4651
 9705SOL    HW233861   1.490   9.501   1.016  0.2922 -0.1563 -0.7792
 9706SOL     OW33862   8.682   3.777   0.540 -0.2130 -0.1884  0.3713
 9706SOL    HW133863   8.680   3.867   0.584  1.4370 -0.8118  1.7281
 9706SOL    HW233864   8.589   3.753   0.510 -0.8329  1.5207  0.8746
 9708SOL     OW33865   1.085   1.281   0.880  0.0996  0.3328  0.4088
 9708SOL    HW133866   1.120   1.371   0.908  0.6585 -0.0504  0.9718
 9708SOL    HW233867   0.995   1.266   0.921  0.3344  0.3285  0.9379
 9710SOL     OW33868   4.653   8.365   0.089 -0.4357 -0.4515  0.1206
 9710SOL    HW133869   4.626   8.366   0.185  1.5600 -1.3732  0.7109
 9710SOL    HW233870   4.719   8.438   0.072 -0.6505 -0.4015 -0.5217
 9711SOL     OW33871   8.940   9.416   2.759 -0.1916  0.2432  0.6986
 9711SOL    HW133872   9.010   9.373   2.702 -1.0461 -0.2430  0.0073
 9711SOL    HW233873   8.981   9.444   2.846  0.7599 -0.4435  0.4832
 9712SOL     OW33874   7.869   0.204   1.796 -0.2583  0.1296  0.4376
 9712SOL    HW133875   7.967   0.209   1.816  0.6007 -1.9704 -2.9357
 9712SOL    HW233876   7.833   0.118   1.831 -0.6744  0.4160  0.7167
 9713SOL     OW33877   7.578   8.065   2.485 -0.1441  0.0804  0.3652
 9713SOL    HW133878   7.584   8.139   2.553  0.7262 -0.6540  1.1005
 9713SOL    HW233879   7.606   7.979   2.527 -0.0710 -0.4740 -0.7983
 9714SOL     OW33880   4.330   1.598   0.818 -0.2043  0.0828  0.2211
 9714SOL    HW133881   4.311   1.537   0.895 -2.4047 -0.8255 -1.0138
 9714SOL    HW233882   4.244   1.628   0.777  0.9430  0.7242 -1.7790
 9715SOL     OW33883   5.934   9.502   3.271  0.6768  0.2895  0.0635
 9715SOL    HW133884   5.966   9.576   3.330  0.4002  0.8230 -0.4558
 9715SOL    HW233885   5.880   9.539   3.196  2.0203 -0.2724 -1.2129
 9716SOL     OW33886   2.676   7.128   1.197 -0.3903  0.2519 -0.1326
 9716SOL    HW133887   2.763   7.166   1.230 -0.9638  1.4074  0.0889
 9716SOL    HW233888   2.691   7.087   1.107  0.0728  1.8729 -0.8179
 9717SOL     OW33889   3.083   6.884   3.430  0.0153 -0.1841  0.2016
 9717SOL    HW133890   3.167   6.874   3.376  0.1428  0.7027  0.2342
 9717SOL    HW233891   3.098   6.847   3.522  0.7766  1.1058  0.6135
 9718SOL     OW33892   0.711   4.386   2.102  0.0871 -0.5885  0.4074
 9718SOL    HW133893   0.620   4.393   2.061  1.2346  1.6528 -1.9107
 9718SOL    HW233894   0.714   4.439   2.186 -0.8710 -1.0470  0.7333
 9719SOL     OW33895   6.074   0.650   2.077  0.0085 -0.3911  0.3929
 9719SOL    HW133896   6.027   0.697   2.152  1.1677  2.1209 -0.3966
 9719SOL    HW233897   6.006   0.614   2.013 -0.9156 -0.2242  1.2626
 9721SOL     OW33898   8.226   7.918   1.485 -0.0443 -0.1297 -0.4779
 9721SOL    HW133899   8.255   7.988   1.550  0.1518  0.6637 -1.4065
 9721SOL    HW233900   8.293   7.910   1.412  0.5395 -2.1775  0.2742
 9722SOL     OW33901   0.869   0.300   1.143  0.7928  0.2517  0.1316
 9722SOL    HW133902   0.803   0.354   1.195 -1.1037 -1.3287 -0.5551
 9722SOL    HW233903   0.831   0.277   1.054  1.6701 -1.9334  0.2840
 9723SOL     OW33904   1.929   5.023   0.296  0.1089  0.0385 -0.0055
 9723SOL    HW133905   1.845   4.979   0.264 -1.4812  1.4574  2.0871
 9723SOL    HW233906   1.990   4.955   0.335  0.4466 -1.1643 -2.5194
 9725SOL     OW33907   9.946   2.611   3.549  0.1981  0.1691  0.1429
 9725SOL    HW133908   9.973   2.599   3.454  1.4170 -0.4170  0.5543
 9725SOL    HW233909  10.010   2.673   3.595  1.0287 -1.4031  1.1817
 9727SOL     OW33910   5.401   6.313   2.289  0.2255  0.2236  0.2103
 9727SOL    HW133911   5.306   6.303   2.316  0.2298  1.9778  0.9367
 9727SOL    HW233912   5.459   6.260   2.351  0.0046  2.0340  2.0191
 9728SOL     OW33913   2.780   4.542   0.935 -0.1165  0.0786  0.0100
 9728SOL    HW133914   2.691   4.576   0.964 -0.4188 -0.3462 -0.4184
 9728SOL    HW233915   2.847   4.616   0.940 -0.6557  0.6006 -0.4131
 9729SOL     OW33916   9.719   1.828   3.496  0.5549 -0.2947 -0.2817
 9729SOL    HW133917   9.750   1.755   3.435  0.0120 -0.3067 -0.5476
 9729SOL    HW233918   9.781   1.906   3.488  0.2452 -0.1323 -1.1765
 9730SOL     OW33919   4.887   0.203   0.015 -0.1009  0.4188  0.2981
 9730SOL    HW133920   4.976   0.248   0.006 -0.4063  0.7268 -1.3355
 9730SOL    HW233921   4.900   0.105   0.025  0.3928  0.3322 -1.0979
 9731SOL     OW33922   3.947   0.100   3.390  0.0744  0.2048  0.3452
 9731SOL    HW133923   3.935   0.175   3.325  1.4631  2.0080  2.0797
 9731SOL    HW233924   3.995   0.025   3.345 -0.6033  0.6872 -1.2128
 9732SOL     OW33925   0.987   7.143   3.236 -0.4516  0.1998  0.0349
 9732SOL    HW133926   0.999   7.065   3.298  0.7858  2.0910  2.2267
 9732SOL    HW233927   0.890   7.163   3.226 -0.6356  0.2751  1.8595
 9733SOL     OW33928   1.141   7.947   0.268 -0.8185  0.4062 -0.0532
 9733SOL    HW133929   1.169   8.028   0.320  1.6145 -0.3334 -0.1555
 9733SOL    HW233930   1.077   7.974   0.196 -2.2266  1.8083  1.6961
 9734SOL     OW33931   7.623   6.281   3.603  0.3748 -0.3373  0.5811
 9734SOL    HW133932   7.660   6.306   3.693 -0.9906  2.8238  0.3388
 9734SOL    HW233933   7.539   6.332   3.586  0.5057 -1.0178 -2.4406
 9735SOL     OW33934   7.757   1.700   0.727 -0.1236 -0.2857  0.5485
 9735SOL    HW133935   7.852   1.672   0.739  1.1231  2.3969 -2.3379
 9735SOL    HW233936   7.697   1.637   0.776  3.0822 -2.4774  1.7886
 9736SOL     OW33937   0.534   4.145   0.674  0.5456 -0.4156 -0.0133
 9736SOL    HW133938   0.446   4.100   0.664  0.2419 -0.1821  1.4721
 9736SOL    HW233939   0.596   4.114   0.602 -0.6657 -0.7690 -0.9137
 9737SOL     OW33940   8.169   7.905   3.538 -0.2457 -0.2385 -0.3900
 9737SOL    HW133941   8.194   7.920   3.442 -1.1788  1.3570 -0.4007
 9737SOL    HW233942   8.142   7.810   3.551 -1.0319 -0.2285 -1.9169
 9738SOL     OW33943   0.868   7.440   0.364 -0.7486 -0.0617  0.0563
 9738SOL    HW133944   0.812   7.401   0.291  0.6543  1.7177 -2.0411
 9738SOL    HW233945   0.945   7.379   0.382  0.2080  0.6238 -1.6338
 9739SOL     OW33946   6.867   9.606   0.322  0.0506  0.4422 -0.2399
 9739SOL    HW133947   6.907   9.548   0.393 -1.1003  0.4415  0.4147
 9739SOL    HW233948   6.799   9.666   0.362 -0.3593  0.6923 -1.2900
 9741SOL     OW33949   2.811   7.300   2.177  0.7373 -0.1705  0.2915
 9741SOL    HW133950   2.792   7.229   2.245  0.7554  0.0527  0.5307
 9741SOL    HW233951   2.726   7.331   2.135  0.7858 -0.7677 -0.2527
 9743SOL     OW33952   8.136   6.218   2.757  0.1248 -0.3932  0.4531
 9743SOL    HW133953   8.052   6.253   2.716  0.5615  1.4414  1.1035
 9743SOL    HW233954   8.122   6.123   2.786 -0.9312 -0.9319 -1.6975
 9744SOL     OW33955   2.399   2.846   1.082 -0.4290  0.1944 -0.2890
 9744SOL    HW133956   2.418   2.818   0.988 -1.3882 -0.2503 -0.3557
 9744SOL    HW233957   2.322   2.792   1.118  1.0692 -0.9023  1.3587
 9745SOL     OW33958   5.826   8.685   3.109 -0.2330  0.3768 -0.2232
 9745SOL    HW133959   5.730   8.705   3.092 -0.1846 -0.3837 -1.4097
 9745SOL    HW233960   5.869   8.764   3.153 -1.3346  0.8068  0.1001
 9746SOL     OW33961   3.586   5.083   3.150 -1.1252 -0.6247 -0.2834
 9746SOL    HW133962   3.610   5.018   3.078 -1.4461 -0.0277 -0.9337
 9746SOL    HW233963   3.495   5.060   3.186 -1.1687 -0.6349 -0.3999
 9747SOL     OW33964   4.795   7.551   3.416  0.5106  0.2931  0.1700
 9747SOL    HW133965   4.793   7.504   3.328  0.1175 -0.8891  0.8014
 9747SOL    HW233966   4.702   7.575   3.443  0.6826  1.1768 -0.0076
 9749SOL     OW33967   7.847   6.922   1.553 -0.7576  0.3421 -0.1461
 9749SOL    HW133968   7.825   6.855   1.482  2.3852 -0.2209 -0.6348
 9749SOL    HW233969   7.917   6.885   1.614 -0.4579  2.4041  0.8135
 9750SOL     OW33970   1.281   3.373   1.517  0.0929 -0.3677 -0.0614
 9750SOL    HW133971   1.273   3.391   1.419  1.2593  1.5971  0.1955
 9750SOL    HW233972   1.190   3.371   1.558 -0.3254  0.0965 -0.9630
 9751SOL     OW33973   8.901   7.848   3.488  0.2995 -0.0191 -0.5372
 9751SOL    HW133974   8.990   7.877   3.523  0.6702 -0.3362 -1.2227
 9751SOL    HW233975   8.866   7.775   3.547  0.0069  0.8197  0.3499
 9752SOL     OW33976   7.999   1.444   2.801  0.0499  0.3141  0.5212
 9752SOL    HW133977   7.958   1.535   2.798  0.4278  0.4975  0.7351
 9752SOL    HW233978   7.989   1.407   2.894  3.2511  1.7393  1.5148
 9753SOL     OW33979   5.426   8.789   2.185 -0.3414  0.3622  0.0442
 9753SOL    HW133980   5.468   8.876   2.158 -0.1569  0.1260 -0.4295
 9753SOL    HW233981   5.353   8.766   2.121 -0.6704  0.3753  0.4122
 9754SOL     OW33982   8.361   6.438   3.725  0.3785 -0.4692 -0.1976
 9754SOL    HW133983   8.309   6.477   3.801 -1.4247 -0.1216 -1.5757
 9754SOL    HW233984   8.443   6.493   3.710 -1.9353  2.7110 -1.8703
 9755SOL     OW33985   5.200   7.923   3.764 -0.0028 -0.5046 -0.3347
 9755SOL    HW133986   5.124   7.869   3.800 -0.1460 -1.4031 -1.9368
 9755SOL    HW233987   5.188   8.019   3.788 -1.1394 -0.7838  0.2332
 9756SOL     OW33988   1.641   4.480   2.419 -0.0933  0.2286 -0.6723
 9756SOL    HW133989   1.739   4.486   2.399 -0.2467  0.4561 -1.3770
 9756SOL    HW233990   1.589   4.519   2.343 -0.7478 -0.2955 -0.5012
 9757SOL     OW33991   2.527   1.854   3.731  0.6156 -0.0057  0.0862
 9757SOL    HW133992   2.609   1.910   3.736  0.7321 -0.3617  3.3091
 9757SOL    HW233993   2.552   1.757   3.736  0.1145 -0.1728 -0.6102
 9759SOL     OW33994   2.042   6.441   3.590  0.1412 -0.6975 -0.6306
 9759SOL    HW133995   2.115   6.387   3.632  2.0575  0.2091 -2.7077
 9759SOL    HW233996   2.005   6.392   3.511 -1.3140 -1.0049  0.2171
 9760SOL     OW33997   3.444   1.564   1.416  0.2771  0.3484 -0.7332
 9760SOL    HW133998   3.404   1.482   1.456  0.6022  0.8993  0.7429
 9760SOL    HW233999   3.492   1.616   1.486  0.9390  1.2927 -1.8543
 9761SOL     OW34000   6.478   9.233   3.676  0.0984  0.3103 -0.2307
 9761SOL    HW134001   6.381   9.214   3.692  0.2013  0.0608  0.1130
 9761SOL    HW234002   6.491   9.266   3.583 -0.2032 -0.5094 -0.5698
 9762SOL     OW34003   1.567   2.537   2.381 -0.0174 -0.0981  0.4297
 9762SOL    HW134004   1.554   2.505   2.287  0.8723  1.9447 -0.4192
 9762SOL    HW234005   1.506   2.486   2.442 -0.5750 -1.4839 -1.2347
 9763SOL     OW34006   9.059   3.023   2.789 -0.4403 -0.4966 -0.2818
 9763SOL    HW134007   9.110   3.109   2.801  0.0352 -0.7396 -0.5229
 9763SOL    HW234008   9.112   2.962   2.731  0.6685 -2.1527  2.3879
 9764SOL     OW34009   7.702   3.475   1.084 -0.1622 -0.2736 -0.1653
 9764SOL    HW134010   7.770   3.508   1.149 -0.6562 -1.7067  1.0986
 9764SOL    HW234011   7.687   3.377   1.098 -0.4607 -0.5477 -2.2693
 9765SOL     OW34012   9.851   1.661   2.293  0.9018  0.2102 -0.0575
 9765SOL    HW134013   9.846   1.582   2.355 -0.1203  0.2648 -0.0610
 9765SOL    HW234014   9.832   1.630   2.199  1.0578  0.3696 -0.1416
 9766SOL     OW34015   9.497   2.324   3.069  0.3796 -0.6281  0.1276
 9766SOL    HW134016   9.580   2.372   3.099 -1.5249  1.2578  2.6401
 9766SOL    HW234017   9.495   2.233   3.111  0.7006 -0.2942  0.8882
 9767SOL     OW34018   9.317   9.064   2.130  0.1708  0.8477 -0.6416
 9767SOL    HW134019   9.237   9.005   2.135  0.1964  0.8766  0.0870
 9767SOL    HW234020   9.386   9.022   2.071  0.1052  0.2618 -0.2986
 9769SOL     OW34021   2.213   3.256   1.706  0.1359 -0.1337 -0.1524
 9769SOL    HW134022   2.157   3.211   1.636 -1.0867 -0.1316  0.8109
 9769SOL    HW234023   2.174   3.238   1.796  0.1080  2.1820  0.3136
 9772SOL     OW34024   8.672   9.558   3.057  0.0496 -0.1773  0.4667
 9772SOL    HW134025   8.675   9.567   3.157 -0.6878  1.1495  0.3832
 9772SOL    HW234026   8.720   9.475   3.030 -0.6646 -1.1343  2.0134
 9774SOL     OW34027   0.788   9.140   3.480  0.2802 -0.4512  0.4189
 9774SOL    HW134028   0.862   9.205   3.464  0.2744 -0.7850 -1.0115
 9774SOL    HW234029   0.706   9.170   3.431  0.4362 -1.8103 -0.6976
 9775SOL     OW34030   1.337   5.636   1.820 -0.0289  0.0906  0.1989
 9775SOL    HW134031   1.425   5.619   1.865 -0.2800 -0.2372  0.5656
 9775SOL    HW234032   1.305   5.552   1.777  1.2707  0.9264 -2.4850
 9776SOL     OW34033   2.080   2.141   1.287 -0.2739 -0.0793  0.6485
 9776SOL    HW134034   2.088   2.083   1.206 -0.6685 -1.3174  1.4872
 9776SOL    HW234035   2.134   2.224   1.273 -0.4657 -0.1945 -0.9482
 9777SOL     OW34036   8.790   6.198   3.617 -0.0658  0.2899 -0.4045
 9777SOL    HW134037   8.794   6.138   3.698  0.3493  2.2654  1.0805
 9777SOL    HW234038   8.872   6.183   3.561  0.2677 -0.1799  0.1972
 9778SOL     OW34039   3.423   0.208   0.398 -0.6209  0.1152  0.5853
 9778SOL    HW134040   3.491   0.278   0.421 -0.3307  0.3451 -0.8990
 9778SOL    HW234041   3.470   0.122   0.378 -0.7476  0.2475 -0.3418
 9780SOL     OW34042   4.348   5.236   1.709  0.4509  0.6816 -0.5904
 9780SOL    HW134043   4.422   5.233   1.776  0.9943  0.6380 -1.1999
 9780SOL    HW234044   4.363   5.167   1.638 -0.2620  0.5488 -0.6234
 9782SOL     OW34045   0.639   8.968   2.250 -0.2461 -0.5888  0.5667
 9782SOL    HW134046   0.690   9.034   2.196 -0.7996  1.2519  2.2550
 9782SOL    HW234047   0.703   8.916   2.308  0.1562 -1.3723 -0.5616
 9783SOL     OW34048   4.332   1.553   3.438 -0.4956  0.0672  0.7618
 9783SOL    HW134049   4.296   1.511   3.355 -1.4732  1.5508  0.4137
 9783SOL    HW234050   4.275   1.631   3.463  2.2606  2.2833  0.3872
 9784SOL     OW34051   7.395   9.079   1.923  0.2708 -0.2730 -0.2478
 9784SOL    HW134052   7.426   8.995   1.880  0.0020  0.5693 -2.1602
 9784SOL    HW234053   7.353   9.139   1.854 -0.3714  1.0411  1.2278
 9785SOL     OW34054   9.522   9.825   3.629 -0.1728 -0.0649  0.8093
 9785SOL    HW134055   9.549   9.763   3.703  0.4606  0.6113  1.1561
 9785SOL    HW234056   9.574   9.910   3.637 -0.1930  0.0611 -0.3447
 9787SOL     OW34057   4.623   3.826   1.858  0.3065 -0.0499  0.3778
 9787SOL    HW134058   4.722   3.815   1.849  0.7601  2.8021  1.3317
 9787SOL    HW234059   4.602   3.921   1.883 -2.7488 -0.2937 -1.0120
 9791SOL     OW34060   0.931   2.353   3.455 -0.0408  0.2405 -0.1128
 9791SOL    HW134061   1.012   2.307   3.419 -0.3049 -0.7989  0.5992
 9791SOL    HW234062   0.871   2.286   3.499 -1.1379  1.0422 -0.3464
 9792SOL     OW34063   1.195   6.697   3.114 -0.7453  0.3120  0.1616
 9792SOL    HW134064   1.259   6.695   3.191  1.3083 -0.9598 -1.5271
 9792SOL    HW234065   1.211   6.779   3.059 -2.3061  1.2924  1.1189
 9793SOL     OW34066   1.221   7.904   1.876 -0.3621 -0.2988 -0.2812
 9793SOL    HW134067   1.206   7.955   1.790  1.1602 -0.1484 -0.4580
 9793SOL    HW234068   1.264   7.817   1.855  0.8550  0.1347  0.4213
 9795SOL     OW34069   3.154   4.592   0.955 -0.2049  0.1863  0.7805
 9795SOL    HW134070   3.217   4.545   1.018  1.2681  0.3237 -0.5518
 9795SOL    HW234071   3.197   4.599   0.865 -2.5375 -0.5469 -0.4170
 9796SOL     OW34072   8.183   0.583   0.417  0.1329  0.6221 -0.3053
 9796SOL    HW134073   8.231   0.524   0.352  0.0157  0.6657 -0.4304
 9796SOL    HW234074   8.105   0.627   0.372 -0.1824  0.3467 -0.0313
 9797SOL     OW34075   7.179   6.945   3.336 -0.1385 -0.7334 -0.0742
 9797SOL    HW134076   7.250   6.929   3.405  1.3984  0.3945 -1.3645
 9797SOL    HW234077   7.208   6.907   3.248 -0.3099  1.2988 -1.0429
 9798SOL     OW34078   9.344   8.241   2.419  0.2207  0.1215  0.5597
 9798SOL    HW134079   9.248   8.222   2.398  0.7123  0.6513 -2.4602
 9798SOL    HW234080   9.362   8.338   2.409  1.5382 -0.2664 -1.1466
 9799SOL     OW34081   2.495   0.903   3.609 -0.7701  0.2016  0.3968
 9799SOL    HW134082   2.472   0.838   3.537 -0.6731 -0.9101  1.3511
 9799SOL    HW234083   2.542   0.982   3.569  0.7452 -1.1465 -0.5495
 9800SOL     OW34084   3.140   4.930   0.442  0.1159  0.3875 -0.1438
 9800SOL    HW134085   3.213   4.909   0.376 -1.4361  0.0351 -1.8025
 9800SOL    HW234086   3.052   4.903   0.403 -0.8128 -0.0250  2.2092
 9801SOL     OW34087   9.741   7.916   2.809 -0.1455 -0.0381 -0.1453
 9801SOL    HW134088   9.825   7.954   2.771  0.2407 -0.2552  0.4723
 9801SOL    HW234089   9.763   7.836   2.864 -0.9829 -1.3009 -1.6298
 9802SOL     OW34090   1.776   9.055   0.642  0.1650 -0.1461  0.4375
 9802SOL    HW134091   1.707   8.986   0.621  0.3099 -0.2642  0.3437
 9802SOL    HW234092   1.853   9.011   0.689  1.1242 -0.4052 -1.3418
 9803SOL     OW34093   6.340   7.335   3.140 -0.1759  0.2203 -0.5306
 9803SOL    HW134094   6.439   7.325   3.152 -0.2214 -0.6408 -0.8839
 9803SOL    HW234095   6.320   7.428   3.109  0.5178  0.4216 -0.3876
 9804SOL     OW34096   9.186   1.639   3.219 -0.0669  0.1681 -0.0427
 9804SOL    HW134097   9.226   1.705   3.283 -1.4434 -0.3447  1.3840
 9804SOL    HW234098   9.196   1.673   3.126  0.7111  1.6143  0.5480
 9805SOL     OW34099   1.677   9.001   3.056 -0.1996  0.1227  0.3124
 9805SOL    HW134100   1.747   9.059   3.098  0.7464 -0.6159 -0.2308
 9805SOL    HW234101   1.653   9.037   2.966  0.3357 -0.2787  0.0057
 9807SOL     OW34102   0.051   9.750   2.421 -0.0595  0.1032  0.1254
 9807SOL    HW134103   0.143   9.711   2.434  0.1142  1.2437  2.6027
 9807SOL    HW234104  -0.009   9.718   2.494 -1.7794 -1.0040 -1.7520
 9808SOL     OW34105   0.463   3.716   2.174  0.4070  0.3424  0.3964
 9808SOL    HW134106   0.549   3.669   2.153  0.9525  0.4797  2.2504
 9808SOL    HW234107   0.473   3.814   2.156 -0.0202  0.0896 -1.3176
 9809SOL     OW34108   1.970   1.719   1.254  0.0460 -0.2039  0.4613
 9809SOL    HW134109   1.906   1.794   1.264  1.7455  1.3272  0.1960
 9809SOL    HW234110   1.977   1.668   1.340 -0.7514  0.2216  0.7805
 9810SOL     OW34111   4.513   7.625   3.428 -0.3328  0.3181  0.2272
 9810SOL    HW134112   4.485   7.532   3.405 -1.5319  0.2356  1.8835
 9810SOL    HW234113   4.526   7.678   3.345 -0.5424 -1.0783 -0.7112
 9811SOL     OW34114   3.399   5.314   3.020  0.3242  0.1340  0.0963
 9811SOL    HW134115   3.446   5.389   2.973  0.8767 -0.0722  0.3187
 9811SOL    HW234116   3.387   5.336   3.116  0.1224  0.1076  0.0791
 9812SOL     OW34117   7.845   9.133   0.034 -0.1526  1.0080 -0.6242
 9812SOL    HW134118   7.797   9.207   0.081 -1.1163  0.8654 -1.3708
 9812SOL    HW234119   7.910   9.172  -0.030 -1.7040  1.2450 -2.0914
 9813SOL     OW34120   2.273   4.585   0.387 -0.3515 -0.3996  0.0647
 9813SOL    HW134121   2.188   4.564   0.339 -1.1290  0.2493  1.1427
 9813SOL    HW234122   2.256   4.593   0.485  0.8179  0.4306  0.2209
 9814SOL     OW34123   8.686   8.755   1.993  0.0392 -0.7387  0.0133
 9814SOL    HW134124   8.601   8.752   2.047 -0.6837 -0.9845 -1.1153
 9814SOL    HW234125   8.742   8.832   2.024 -1.1800  0.2118 -0.0558
 9815SOL     OW34126   0.041   2.574   1.330  0.2215  0.1207 -0.2544
 9815SOL    HW134127   0.044   2.510   1.406  0.8958  0.6905  0.2054
 9815SOL    HW234128   0.096   2.655   1.352 -2.0761  1.6751 -0.0868
 9816SOL     OW34129   9.611   0.717   3.050  0.2254 -0.0300 -0.2843
 9816SOL    HW134130   9.562   0.647   2.998 -0.3436 -0.8370  1.3151
 9816SOL    HW234131   9.710   0.709   3.032  0.0605 -0.4512 -1.0331
 9817SOL     OW34132   3.864   5.385   1.218  0.1429  0.1753  0.7827
 9817SOL    HW134133   3.954   5.413   1.183  0.6602 -2.3582 -0.0761
 9817SOL    HW234134   3.865   5.387   1.318  0.4769  2.1249  0.7572
 9818SOL     OW34135   2.417   2.309   0.395  0.1508 -0.1383 -0.2721
 9818SOL    HW134136   2.517   2.317   0.403  0.1757 -1.2383  0.6018
 9818SOL    HW234137   2.394   2.222   0.351 -0.3962  0.6273 -1.5283
 9819SOL     OW34138   9.081   0.190   0.934 -0.0845  0.2700 -0.3734
 9819SOL    HW134139   9.131   0.146   1.009 -0.0413  0.7158 -0.1366
 9819SOL    HW234140   9.015   0.254   0.973  0.2191  0.7994 -0.7367
 9822SOL     OW34141   1.750   0.801   2.374  0.2305 -0.1437  0.0549
 9822SOL    HW134142   1.794   0.737   2.311  0.8001  0.1462  0.1604
 9822SOL    HW234143   1.795   0.890   2.370  0.0564 -0.0222  0.6203
 9823SOL     OW34144   3.254   4.995   1.841  0.1431 -0.0650  0.3316
 9823SOL    HW134145   3.201   4.923   1.796  0.1725  0.9528 -1.3490
 9823SOL    HW234146   3.199   5.036   1.914 -0.0842 -1.3672  0.9190
 9824SOL     OW34147   3.852   2.687   1.154 -0.0037  0.2147  0.4626
 9824SOL    HW134148   3.796   2.627   1.098  0.0769  0.1794  0.4201
 9824SOL    HW234149   3.935   2.712   1.104 -0.5360  1.2159  0.0640
 9825SOL     OW34150   8.765   7.699   1.899  0.2887  0.3171  0.4836
 9825SOL    HW134151   8.773   7.599   1.904  2.2202  0.5216  1.8617
 9825SOL    HW234152   8.805   7.731   1.814 -0.5220 -0.0771 -0.0610
 9826SOL     OW34153   1.931   4.950   2.338 -0.6114  0.0100 -0.0947
 9826SOL    HW134154   2.002   4.946   2.409 -1.3852 -0.3748  0.6583
 9826SOL    HW234155   1.841   4.960   2.380 -1.1638 -1.1449 -0.9768
 9827SOL     OW34156   8.666   8.446   3.360  0.1327 -0.0688  0.2959
 9827SOL    HW134157   8.646   8.405   3.271 -1.5930 -0.2307  0.7354
 9827SOL    HW234158   8.658   8.376   3.431  0.1730  0.3572  0.7189
 9828SOL     OW34159   9.266   3.880   0.753  0.4077 -0.1518  0.6859
 9828SOL    HW134160   9.202   3.865   0.678  0.1389  1.4585  0.5763
 9828SOL    HW234161   9.227   3.945   0.819  2.2528  1.5679  0.1542
 9829SOL     OW34162   7.586   0.767   1.099  0.3439 -0.3377 -0.5282
 9829SOL    HW134163   7.665   0.822   1.071  0.4139  0.1523  0.6144
 9829SOL    HW234164   7.535   0.816   1.169  0.4077 -1.7389  0.4986
 9831SOL     OW34165   4.464   9.344   3.251  0.7638 -0.0034 -0.4272
 9831SOL    HW134166   4.516   9.397   3.318 -2.6430  2.2214  0.5894
 9831SOL    HW234167   4.375   9.319   3.290  0.5603 -2.7395 -2.4883
 9832SOL     OW34168   0.308   4.189   0.199  0.3806 -0.5854 -0.3075
 9832SOL    HW134169   0.237   4.181   0.130 -1.6974  0.5157  1.6328
 9832SOL    HW234170   0.327   4.286   0.216  1.9399 -0.8590 -0.3885
 9833SOL     OW34171   2.574   3.890   1.247 -0.2303  0.2291 -0.4234
 9833SOL    HW134172   2.656   3.849   1.286 -1.4734  0.3331  2.4678
 9833SOL    HW234173   2.597   3.941   1.164  2.4870 -0.2845 -0.0051
 9835SOL     OW34174   3.073   3.000   1.088  0.3365  0.5199  0.1751
 9835SOL    HW134175   2.988   3.047   1.064 -0.4048 -1.9761 -2.3009
 9835SOL    HW234176   3.057   2.939   1.165  0.6644  2.2421  1.6555
 9836SOL     OW34177   2.747   9.094   2.507 -0.1742  0.2397  0.4161
 9836SOL    HW134178   2.719   9.152   2.584  0.5085 -0.8994  1.5502
 9836SOL    HW234179   2.833   9.048   2.530  0.1966  0.1126 -1.1638
 9838SOL     OW34180   2.983   8.966   2.526 -0.1011 -0.0423  0.1670
 9838SOL    HW134181   3.001   8.929   2.617 -0.0342 -1.4696 -0.4209
 9838SOL    HW234182   3.070   8.986   2.480 -0.1357  1.7885  0.8428
 9839SOL     OW34183   3.903   0.830   3.490  0.0253  0.1935 -0.8917
 9839SOL    HW134184   3.989   0.828   3.540 -0.4440  1.9655  0.0677
 9839SOL    HW234185   3.854   0.915   3.511 -1.0667  0.1208 -2.9139
 9841SOL     OW34186   9.554   4.533   0.761  0.0933 -0.4715 -0.4256
 9841SOL    HW134187   9.534   4.506   0.667  3.2530 -2.4239 -0.6209
 9841SOL    HW234188   9.570   4.631   0.765 -2.0092 -0.0540 -1.5348
 9842SOL     OW34189   2.558   2.778   2.610  0.0995  0.3069  0.1584
 9842SOL    HW134190   2.484   2.753   2.671 -0.7650  0.0013 -1.0031
 9842SOL    HW234191   2.624   2.703   2.605  0.2761  0.4141  0.8690
 9843SOL     OW34192   0.793   4.892   3.607  0.1807  0.1983  0.4905
 9843SOL    HW134193   0.882   4.919   3.642 -0.3109  0.9463  1.1744
 9843SOL    HW234194   0.743   4.841   3.677 -0.2596  0.4927  0.3925
 9844SOL     OW34195   2.001   6.137   2.230  0.2588 -0.0084  0.3496
 9844SOL    HW134196   1.938   6.126   2.306 -0.1786 -0.4396 -0.0720
 9844SOL    HW234197   2.076   6.198   2.257 -0.3935  0.5959  0.8180
 9845SOL     OW34198   0.379   1.788   3.598 -0.4574  0.2014 -0.6666
 9845SOL    HW134199   0.295   1.838   3.575 -0.2269  1.2106  0.6464
 9845SOL    HW234200   0.359   1.690   3.603 -2.1254  0.6248  2.0182
 9846SOL     OW34201   8.485   8.686   2.176 -0.3054 -0.3937 -0.3888
 9846SOL    HW134202   8.503   8.745   2.255  0.7774  0.9582 -1.6186
 9846SOL    HW234203   8.428   8.609   2.205 -0.6530  0.5357  1.5272
 9847SOL     OW34204   2.640   1.792   1.737 -0.1118  0.2105 -0.3246
 9847SOL    HW134205   2.687   1.862   1.790  0.6307 -0.9347  0.5594
 9847SOL    HW234206   2.576   1.835   1.673 -1.2445  1.6142  1.6990
 9849SOL     OW34207   7.583   9.551   3.755 -0.1798 -0.1028  0.8407
 9849SOL    HW134208   7.635   9.590   3.831  0.7705 -0.6710  0.5019
 9849SOL    HW234209   7.487   9.577   3.763  0.2274  1.3626  1.2379
 9850SOL     OW34210   3.630   9.181   0.285  0.3592 -0.0080  0.2372
 9850SOL    HW134211   3.565   9.238   0.234  0.0275  1.1734  1.9312
 9850SOL    HW234212   3.706   9.156   0.225 -2.3647 -2.7189 -2.2422
 9852SOL     OW34213   1.436   1.448   2.609 -0.1385 -0.2242 -0.6918
 9852SOL    HW134214   1.460   1.351   2.615 -0.7605 -0.3474 -0.2056
 9852SOL    HW234215   1.470   1.496   2.690 -1.7314 -0.4434  0.1182
 9854SOL     OW34216   4.104   7.960   1.232  0.3852  0.5950 -0.2949
 9854SOL    HW134217   4.027   8.007   1.276  0.5094  1.0237 -0.5283
 9854SOL    HW234218   4.190   7.995   1.269  0.5259  1.9033 -1.7880
 9855SOL     OW34219   0.689   2.483   2.022 -0.0473  0.0207  0.1757
 9855SOL    HW134220   0.788   2.491   2.023 -0.0002 -0.4519 -0.2506
 9855SOL    HW234221   0.653   2.496   2.115  0.2419  2.0679  0.0054
 9856SOL     OW34222   1.640   2.534   0.466  0.3370 -0.1136  0.6247
 9856SOL    HW134223   1.603   2.519   0.374  1.4696  2.3783 -0.2902
 9856SOL    HW234224   1.576   2.589   0.519  0.5219  0.0411  0.6879
 9857SOL     OW34225   1.419   5.894   3.056  0.2609  0.2761  1.0576
 9857SOL    HW134226   1.470   5.949   2.989 -1.2532  0.9493  0.4296
 9857SOL    HW234227   1.324   5.886   3.026  1.1903 -5.8912 -0.8847
 9858SOL     OW34228   8.018   1.230   3.337 -0.2955  0.0857  0.1859
 9858SOL    HW134229   7.964   1.236   3.252 -0.6880  1.5183  0.5184
 9858SOL    HW234230   8.110   1.197   3.315 -1.0393 -1.5806 -0.5029
 9859SOL     OW34231   3.364   1.810   2.862  0.0298 -0.3874 -0.5178
 9859SOL    HW134232   3.369   1.784   2.765 -0.9982 -2.2247 -0.0960
 9859SOL    HW234233   3.449   1.786   2.907  0.3653  0.1139 -0.8787
 9861SOL     OW34234   7.322   9.534   1.861  0.7131  0.1766 -0.5428
 9861SOL    HW134235   7.366   9.469   1.923  0.6176 -0.8910 -1.5788
 9861SOL    HW234236   7.228   9.551   1.890  0.3347 -1.1207 -0.9658
 9862SOL     OW34237   1.410   4.785   2.392 -0.4273 -0.5950  0.5200
 9862SOL    HW134238   1.341   4.823   2.331  0.3081  0.1461  0.1276
 9862SOL    HW234239   1.466   4.719   2.342  0.0847 -0.0934  0.4249
 9863SOL     OW34240   6.014   7.897   2.306 -0.3845 -0.1176  0.3412
 9863SOL    HW134241   5.943   7.941   2.251  0.2430 -0.5412 -0.8214
 9863SOL    HW234242   6.020   7.800   2.282 -0.7428 -0.5284  1.8338
 9866SOL     OW34243   8.917   0.256   0.699  0.2618 -0.0104  0.5292
 9866SOL    HW134244   8.969   0.233   0.782 -0.7970 -2.1329  0.6656
 9866SOL    HW234245   8.978   0.256   0.620  0.8476 -0.3674  0.9752
 9867SOL     OW34246   7.734   0.394   1.972  0.2135  0.0065  0.8014
 9867SOL    HW134247   7.770   0.487   1.981 -1.6220  0.8568 -0.4364
 9867SOL    HW234248   7.803   0.336   1.926  0.1308  1.5585 -1.3617
 9868SOL     OW34249   9.119   4.027   1.135  0.2637  0.2628 -0.2725
 9868SOL    HW134250   9.157   4.115   1.162 -0.0917  0.5314 -0.6260
 9868SOL    HW234251   9.129   4.015   1.036  0.5813 -0.2265 -0.1805
 9869SOL     OW34252   9.792   5.698   1.605  0.1560  0.3081  0.2403
 9869SOL    HW134253   9.866   5.705   1.538  0.4515 -1.5576  0.3512
 9869SOL    HW234254   9.719   5.641   1.568  0.3950 -0.8733  1.5571
 9870SOL     OW34255   5.577   7.227   2.729  0.0120 -0.0593 -0.2748
 9870SOL    HW134256   5.623   7.230   2.640  0.1918  0.2033 -0.1741
 9870SOL    HW234257   5.643   7.208   2.801 -0.1249 -0.2161 -0.1884
 9871SOL     OW34258   9.814   8.067   1.568  0.2572  0.2898 -0.1373
 9871SOL    HW134259   9.824   8.045   1.665 -1.6774  1.1681  0.2808
 9871SOL    HW234260   9.827   7.984   1.514 -3.1937 -1.2392  1.1788
 9872SOL     OW34261   5.082   5.329   1.826  0.2365 -0.7290  0.1673
 9872SOL    HW134262   5.158   5.276   1.787  0.6740  0.2457 -0.3312
 9872SOL    HW234263   5.007   5.333   1.760  0.1687 -0.7864  0.2403
 9874SOL     OW34264   9.771   5.783   0.478 -0.7670  0.5566 -0.0412
 9874SOL    HW134265   9.761   5.685   0.465 -0.1775  0.5964 -0.8514
 9874SOL    HW234266   9.681   5.825   0.488 -1.0360 -0.0213 -0.0274
 9875SOL     OW34267   3.376   7.694   3.621  0.6998 -0.1965  0.0187
 9875SOL    HW134268   3.282   7.662   3.608  0.7508  0.0542 -1.0271
 9875SOL    HW234269   3.417   7.713   3.532  0.8823  2.1579  0.5833
 9876SOL     OW34270   1.614   7.232   0.572  0.3288 -0.2331 -0.2309
 9876SOL    HW134271   1.625   7.293   0.650 -1.4194 -1.7956  1.2670
 9876SOL    HW234272   1.568   7.281   0.498 -1.4525  0.1489  1.1152
 9879SOL     OW34273   9.313   3.578   1.627 -0.1962 -0.1027 -0.0362
 9879SOL    HW134274   9.325   3.485   1.662  1.3036  0.6837  1.6277
 9879SOL    HW234275   9.390   3.603   1.568 -0.3451  0.2546 -0.0858
 9880SOL     OW34276   2.396   5.519   1.759  0.7452  0.0698  0.2525
 9880SOL    HW134277   2.378   5.420   1.759  1.0510 -0.0001 -0.9181
 9880SOL    HW234278   2.378   5.556   1.849 -1.2675 -0.7257  0.2080
 9881SOL     OW34279   5.354   0.188   2.231  0.2338  0.4091  0.2063
 9881SOL    HW134280   5.425   0.205   2.300 -0.0066  1.4282  0.2125
 9881SOL    HW234281   5.377   0.105   2.180  1.3193  0.6004  0.3519
 9882SOL     OW34282   9.808   3.377   0.840 -0.6065 -0.4095  0.1449
 9882SOL    HW134283   9.875   3.438   0.798 -2.9555  2.1843  0.0041
 9882SOL    HW234284   9.804   3.393   0.938 -2.5275  1.0275 -0.1425
 9884SOL     OW34285   0.966   9.150   3.076  0.5398  0.3556  0.0011
 9884SOL    HW134286   0.943   9.083   3.147 -0.1339 -2.5741 -2.8931
 9884SOL    HW234287   0.884   9.176   3.027  1.3414  0.5003 -1.2857
 9885SOL     OW34288   2.991   9.485   3.433  0.6650  0.0068  0.0689
 9885SOL    HW134289   2.967   9.408   3.374  2.2306 -1.2187  0.9753
 9885SOL    HW234290   3.082   9.518   3.409  1.0701 -0.1207  1.4213
 9887SOL     OW34291   1.832   9.799   1.002  0.8822  0.1392 -0.2584
 9887SOL    HW134292   1.762   9.851   0.953 -0.6422 -1.7535 -0.1553
 9887SOL    HW234293   1.798   9.775   1.093  2.7760  1.6138  0.8524
 9888SOL     OW34294   4.000   8.495   1.728  0.5650  0.1732  0.7307
 9888SOL    HW134295   3.930   8.504   1.658  1.1330  0.1471  0.1593
 9888SOL    HW234296   4.066   8.571   1.720  1.3738 -0.5600  0.3911
 9890SOL     OW34297   8.249   7.991   3.024 -0.1129 -0.1915 -0.3100
 9890SOL    HW134298   8.210   8.073   3.065  0.7412 -0.3470  0.8405
 9890SOL    HW234299   8.188   7.956   2.953 -0.2344  1.7335 -1.1714
 9892SOL     OW34300   9.991   4.849   2.806 -0.3816 -0.2555 -0.4626
 9892SOL    HW134301   9.933   4.876   2.729 -1.0147  2.4578  0.8940
 9892SOL    HW234302   9.938   4.854   2.891  0.5795 -2.2772  0.2943
 9895SOL     OW34303   9.466   0.603   2.721  0.2134  0.1813 -0.2763
 9895SOL    HW134304   9.494   0.521   2.672  0.3867 -0.0812  0.2560
 9895SOL    HW234305   9.456   0.582   2.819 -2.4042  0.1167 -0.5155
 9897SOL     OW34306   2.551   3.453   1.402 -0.1892 -0.4811  0.2882
 9897SOL    HW134307   2.500   3.441   1.317  0.0942 -0.3549  0.1013
 9897SOL    HW234308   2.524   3.382   1.467  1.3653 -2.0602 -0.7466
 9898SOL     OW34309   3.970   2.035   1.222 -0.5069  0.5083 -0.5011
 9898SOL    HW134310   4.001   1.966   1.287  0.0802 -0.0104 -1.3088
 9898SOL    HW234311   4.018   2.022   1.135 -0.7566  1.6285 -0.8179
 9900SOL     OW34312   0.403   5.796   3.349 -0.3640 -0.4573  0.4221
 9900SOL    HW134313   0.470   5.841   3.408 -0.4372 -1.3374  1.1661
 9900SOL    HW234314   0.410   5.834   3.256  0.4708  0.1632  0.7382
 9901SOL     OW34315   2.064   7.348   3.434  0.5980 -0.2264 -0.4950
 9901SOL    HW134316   2.108   7.432   3.467  1.2944 -1.1303  0.9403
 9901SOL    HW234317   1.993   7.320   3.499 -2.2370  1.2807 -2.8580
 9902SOL     OW34318   3.306   6.433   3.435  0.3161 -0.7777 -0.5903
 9902SOL    HW134319   3.390   6.479   3.463 -0.6742  0.6359  0.1229
 9902SOL    HW234320   3.289   6.452   3.338 -0.5947  1.2220 -0.0692
 9903SOL     OW34321   8.373   8.317   2.126  0.6243  0.4542 -0.5617
 9903SOL    HW134322   8.333   8.406   2.149  0.2589 -0.2415  1.6525
 9903SOL    HW234323   8.383   8.263   2.210  0.9480 -1.5511 -1.8616
 9904SOL     OW34324   9.643   1.349   2.935 -0.3143  0.1967  0.2644
 9904SOL    HW134325   9.643   1.249   2.939 -0.7788  0.2623  1.9959
 9904SOL    HW234326   9.553   1.384   2.961 -0.3212  1.0589 -0.8710
 9905SOL     OW34327   1.198   1.254   0.258  0.0383  0.1261 -0.3839
 9905SOL    HW134328   1.272   1.299   0.208  0.1538  0.0384 -0.2908
 9905SOL    HW234329   1.142   1.324   0.303 -1.4807  0.3678 -2.5835
 9906SOL     OW34330   8.882   9.808   1.074  0.1817  0.0560 -0.2760
 9906SOL    HW134331   8.952   9.767   1.133  0.6865  0.8063 -0.3546
 9906SOL    HW234332   8.920   9.824   0.983  0.1161  1.0736 -0.1329
 9909SOL     OW34333   4.277   1.782   1.571 -0.2382  0.7258  0.0689
 9909SOL    HW134334   4.340   1.859   1.585 -1.2512  1.0017  3.5422
 9909SOL    HW234335   4.330   1.697   1.565  0.7290  1.4116 -1.5745
 9910SOL     OW34336   1.583   5.193   0.137 -0.1716  0.2076  0.0541
 9910SOL    HW134337   1.645   5.114   0.142 -2.3496 -1.5205  0.6716
 9910SOL    HW234338   1.547   5.200   0.043 -0.7482 -0.1737  0.2402
 9911SOL     OW34339   8.781   2.725   2.598  0.3933  0.0166  0.3039
 9911SOL    HW134340   8.785   2.674   2.684  0.6642 -0.3805  0.0551
 9911SOL    HW234341   8.771   2.823   2.618 -1.0956 -0.2124  0.7719
 9912SOL     OW34342   0.747   2.432   0.694  0.1761  0.1630  0.3423
 9912SOL    HW134343   0.673   2.367   0.716 -0.1273  0.5176  0.3792
 9912SOL    HW234344   0.721   2.485   0.613  0.5883 -0.0197  0.0880
 9913SOL     OW34345   3.413   0.494   1.719 -0.4531 -0.5755  0.3685
 9913SOL    HW134346   3.357   0.534   1.791 -2.0945 -3.3811  0.7461
 9913SOL    HW234347   3.382   0.527   1.629  0.7550  1.9217  0.8338
 9914SOL     OW34348   1.644   4.703   1.302 -0.5218 -0.4988 -0.4453
 9914SOL    HW134349   1.675   4.775   1.364  2.5275 -0.3278 -2.0498
 9914SOL    HW234350   1.660   4.732   1.208 -2.7077 -1.7969 -1.2516
 9915SOL     OW34351   8.668   0.696   0.647  0.1937  0.3059  0.5822
 9915SOL    HW134352   8.579   0.685   0.601  0.7605  0.0105 -0.4530
 9915SOL    HW234353   8.728   0.751   0.589  2.0670 -2.9171 -0.6516
 9916SOL     OW34354   4.409   3.898   3.333  0.1831  0.2475 -0.3065
 9916SOL    HW134355   4.504   3.901   3.364  0.2381  1.5407 -0.5733
 9916SOL    HW234356   4.372   3.806   3.347  0.8676  0.2422  1.5670
 9917SOL     OW34357   2.443   2.749   0.046  0.3370  0.1279  0.4230
 9917SOL    HW134358   2.444   2.649   0.054 -1.2167 -0.2230 -2.8552
 9917SOL    HW234359   2.350   2.782   0.058  0.4084  0.9064 -1.0776
 9918SOL     OW34360   2.432   3.022   1.961 -0.2004 -0.6422  0.0748
 9918SOL    HW134361   2.361   2.967   2.005 -1.3522  0.7348 -0.0387
 9918SOL    HW234362   2.438   2.999   1.864 -0.5131 -0.7479  0.0808
 9919SOL     OW34363   4.636   7.831   2.962 -0.2162 -0.0274 -0.0880
 9919SOL    HW134364   4.729   7.863   2.978 -0.3958  1.2808 -1.5071
 9919SOL    HW234365   4.594   7.885   2.888 -1.8626 -1.0380  0.0712
 9922SOL     OW34366   8.477   1.916   3.359 -0.5210 -1.0747 -0.3566
 9922SOL    HW134367   8.457   1.980   3.285 -3.0115 -1.2340  0.1229
 9922SOL    HW234368   8.510   1.830   3.321  0.8910 -0.2115 -1.1133
 9923SOL     OW34369   6.387   8.895   2.567 -0.1547 -0.6006 -0.0047
 9923SOL    HW134370   6.429   8.983   2.592 -2.9619 -0.0517  3.1619
 9923SOL    HW234371   6.444   8.820   2.601  1.5692 -0.0221 -1.5504
 9924SOL     OW34372   0.391   1.960   1.338 -0.1196  0.0447  0.5865
 9924SOL    HW134373   0.336   1.877   1.345 -1.5985  0.8636 -0.6898
 9924SOL    HW234374   0.481   1.938   1.302 -0.6126 -0.9760 -0.0547
 9925SOL     OW34375   2.824   4.625   0.169 -0.0332 -0.1035 -0.8227
 9925SOL    HW134376   2.746   4.672   0.212  0.9402 -0.0572  0.9513
 9925SOL    HW234377   2.872   4.688   0.108  0.2158  0.6811  0.1772
 9926SOL     OW34378   4.075   7.103   2.480  0.1344  0.4981  0.2791
 9926SOL    HW134379   4.141   7.127   2.551  0.4315  2.3308 -0.5909
 9926SOL    HW234380   4.091   7.160   2.399 -0.8248 -0.8878 -0.9035
 9928SOL     OW34381   8.568   1.655   3.383  0.3784 -0.2796  0.3814
 9928SOL    HW134382   8.667   1.640   3.386  0.1153 -2.0490  0.9222
 9928SOL    HW234383   8.523   1.592   3.446 -1.1431  0.1440 -0.2553
 9929SOL     OW34384   2.142   9.519   1.648 -0.1463 -0.6223 -0.0678
 9929SOL    HW134385   2.185   9.608   1.632 -2.6831  0.5706 -0.5667
 9929SOL    HW234386   2.122   9.509   1.746  1.1395 -1.1444  0.1525
 9931SOL     OW34387   3.863   3.283   0.823  0.2259 -0.8096 -0.2920
 9931SOL    HW134388   3.827   3.257   0.733  0.0845 -0.6181 -0.2896
 9931SOL    HW234389   3.962   3.291   0.818  0.2068 -0.6795 -0.4616
 9932SOL     OW34390   9.580   6.887   2.037  0.2079 -0.2908  0.2182
 9932SOL    HW134391   9.488   6.853   2.058  0.8821 -2.2326  0.0873
 9932SOL    HW234392   9.618   6.932   2.117 -0.1482 -1.0995  0.8456
 9933SOL     OW34393   8.395   5.742   2.060 -0.3954 -0.6878 -0.3732
 9933SOL    HW134394   8.443   5.726   2.146 -0.9428  0.1599  0.1036
 9933SOL    HW234395   8.297   5.731   2.075 -0.3493 -2.4600 -1.3537
 9934SOL     OW34396   8.953   8.504   1.184  0.0314  0.2949  0.3350
 9934SOL    HW134397   8.908   8.562   1.116  1.1608  0.8003  0.0089
 9934SOL    HW234398   8.941   8.408   1.158  0.9335  0.4997 -0.8975
 9935SOL     OW34399   0.374   5.557   1.576  0.5408  0.6941  0.2745
 9935SOL    HW134400   0.359   5.596   1.485 -0.9489  0.2815  0.3301
 9935SOL    HW234401   0.335   5.465   1.580  2.0429  0.0685  0.8341
 9936SOL     OW34402   0.344   2.214   2.495 -0.0086 -0.1100  0.1628
 9936SOL    HW134403   0.342   2.130   2.439 -2.2177  0.9410 -1.4133
 9936SOL    HW234404   0.342   2.294   2.435 -0.8712  1.0704  1.7222
 9937SOL     OW34405   0.495   8.619   3.572 -0.3937 -0.0690 -0.1432
 9937SOL    HW134406   0.421   8.677   3.606  1.0259  1.4701  0.3387
 9937SOL    HW234407   0.542   8.665   3.497 -1.0270 -1.8021 -1.6514
 9938SOL     OW34408   3.749   8.606   2.042  0.1308 -0.4207  0.4373
 9938SOL    HW134409   3.688   8.645   2.110 -0.0469  0.1830 -0.0535
 9938SOL    HW234410   3.844   8.623   2.069  0.0709 -0.7197  0.8380
 9939SOL     OW34411   4.894   1.362   1.489  0.1700  0.4425 -0.3151
 9939SOL    HW134412   4.907   1.265   1.469  0.1533  0.5584 -0.8722
 9939SOL    HW234413   4.797   1.380   1.506  0.2461  0.2563  0.3613
 9940SOL     OW34414   6.296   0.142   1.475 -0.0189  0.3398  0.4469
 9940SOL    HW134415   6.391   0.174   1.479 -0.7088  2.1656  3.5427
 9940SOL    HW234416   6.268   0.109   1.565 -1.1385 -3.9696 -1.3453
 9941SOL     OW34417   5.038   3.422   0.095  0.6314  0.3473 -0.5655
 9941SOL    HW134418   5.011   3.393   0.186  0.7343  1.2682 -0.2314
 9941SOL    HW234419   5.131   3.389   0.075  0.5078 -0.0724 -0.4463
 9943SOL     OW34420   9.955   1.538   1.583 -0.0899 -0.0039 -0.0380
 9943SOL    HW134421   9.883   1.578   1.639  0.9649  0.7886  0.7891
 9943SOL    HW234422   9.992   1.457   1.629 -0.5795 -0.5176 -0.5486
 9944SOL     OW34423   0.890   2.500   2.934 -0.2101  0.1253 -0.3316
 9944SOL    HW134424   0.953   2.578   2.929 -0.4872  0.2787 -2.1004
 9944SOL    HW234425   0.804   2.529   2.977  0.2024  0.4392  0.2724
 9945SOL     OW34426   9.036   1.814   0.750 -0.0478 -0.5850  0.6051
 9945SOL    HW134427   9.123   1.852   0.783 -0.8508  1.6102  0.3122
 9945SOL    HW234428   8.961   1.862   0.795 -1.1288 -1.9078  0.2346
 9946SOL     OW34429   6.900   0.442   3.369  0.0630 -1.1154  0.2211
 9946SOL    HW134430   6.929   0.505   3.440 -1.7976 -0.2174  0.2219
 9946SOL    HW234431   6.947   0.354   3.380  2.7204  0.2688  0.1653
 9947SOL     OW34432   9.821   3.668   0.370 -0.3715 -0.0448  0.0613
 9947SOL    HW134433   9.847   3.715   0.454 -0.0147  0.2312 -0.1977
 9947SOL    HW234434   9.746   3.718   0.325 -0.9847 -0.5376  0.5302
 9948SOL     OW34435   5.399   7.632   1.795  0.1635 -0.3372 -1.0754
 9948SOL    HW134436   5.343   7.714   1.810  0.6663  0.2545 -2.3220
 9948SOL    HW234437   5.342   7.551   1.801 -0.2441  0.0499  0.7548
 9949SOL     OW34438   9.024   6.993   1.846 -0.3360 -0.3269 -0.1969
 9949SOL    HW134439   8.961   7.070   1.853  0.3344  0.0272  2.2641
 9949SOL    HW234440   9.013   6.933   1.925  0.5393 -1.7164 -1.1031
 9950SOL     OW34441   2.024   4.611   3.129 -0.3226 -0.0307  0.3587
 9950SOL    HW134442   2.059   4.565   3.211  0.3408  0.3502  0.2938
 9950SOL    HW234443   2.078   4.581   3.050  0.9107  1.7830  0.4985
 9951SOL     OW34444   1.302   5.797   0.316 -0.6491  0.2532 -0.1743
 9951SOL    HW134445   1.382   5.856   0.308 -0.4745 -0.3260 -3.6640
 9951SOL    HW234446   1.270   5.796   0.410  1.3592  3.2490  0.6087
 9952SOL     OW34447   0.254   3.526   0.914 -0.1128  0.1363 -0.5050
 9952SOL    HW134448   0.255   3.443   0.969 -0.0494  0.3445 -0.1917
 9952SOL    HW234449   0.302   3.510   0.828  2.3993  0.6589  0.7343
 9954SOL     OW34450   1.703   5.288   1.626 -0.1092 -0.1488 -0.1625
 9954SOL    HW134451   1.788   5.260   1.581  0.6644  0.8263  0.6530
 9954SOL    HW234452   1.704   5.387   1.639 -3.1824  0.4901 -3.8305
 9955SOL     OW34453   5.010   9.799   1.579 -0.0145 -0.7788  0.0201
 9955SOL    HW134454   4.980   9.879   1.632  0.3829  0.2695 -1.3030
 9955SOL    HW234455   4.943   9.778   1.509  0.5572 -0.7257 -0.5509
 9956SOL     OW34456   4.473   8.387   1.378 -0.0249  0.3913  0.0053
 9956SOL    HW134457   4.382   8.379   1.419 -0.1185  0.4434 -0.1927
 9956SOL    HW234458   4.479   8.473   1.327  0.1352  0.3870  0.0189
 9957SOL     OW34459   9.496   5.382   1.413 -0.2786 -0.3241 -0.1139
 9957SOL    HW134460   9.587   5.384   1.371 -0.3478 -1.1620 -0.3181
 9957SOL    HW234461   9.505   5.365   1.511 -0.1775  0.3932  0.0007
 9958SOL     OW34462   3.757   8.039   2.644  0.3529 -0.7116  0.3139
 9958SOL    HW134463   3.791   8.094   2.568  2.0040 -2.3631 -0.2102
 9958SOL    HW234464   3.664   8.007   2.624  1.7347 -3.3848 -2.3519
 9959SOL     OW34465   8.458   2.403   2.716  0.2217  0.2704  1.1931
 9959SOL    HW134466   8.522   2.339   2.759 -0.7789 -1.8854 -0.4699
 9959SOL    HW234467   8.366   2.365   2.720 -0.4215  1.7193  0.3515
 9960SOL     OW34468   2.212   5.126   3.382  0.0609  0.0443  0.0510
 9960SOL    HW134469   2.214   5.225   3.391 -0.1485  0.0493  0.0487
 9960SOL    HW234470   2.164   5.101   3.297  2.0903 -0.0044 -1.1143
 9961SOL     OW34471   2.150   9.075   3.280 -0.4183  0.3482 -0.3951
 9961SOL    HW134472   2.091   9.007   3.324 -0.1242 -0.3607 -1.0912
 9961SOL    HW234473   2.097   9.159   3.264 -1.4771 -0.5462 -1.7153
 9962SOL     OW34474   7.232   1.366   2.416  0.2954  0.1962 -0.3350
 9962SOL    HW134475   7.304   1.361   2.486 -0.6426 -0.7583  0.5675
 9962SOL    HW234476   7.149   1.405   2.457 -0.4118 -0.8300 -0.7860
 9963SOL     OW34477   8.040   5.322   3.613  0.2755  0.3656  0.1289
 9963SOL    HW134478   8.086   5.351   3.697  0.2163 -0.6674  0.5326
 9963SOL    HW234479   8.054   5.224   3.600 -1.7360  0.0410  0.2116
 9964SOL     OW34480   4.887   7.669   2.909 -0.6814  0.3837  0.8375
 9964SOL    HW134481   4.857   7.647   2.816  0.8322 -0.6826  0.5773
 9964SOL    HW234482   4.885   7.768   2.922 -4.6710  0.3347  1.0007
 9965SOL     OW34483   8.621   8.868   1.355  0.5904  0.1881  0.4423
 9965SOL    HW134484   8.594   8.965   1.358  0.7691  0.2263  1.0332
 9965SOL    HW234485   8.573   8.818   1.427 -1.4374 -0.6850 -1.4539
 9966SOL     OW34486   8.365   0.101   2.511  0.3943  0.3500  0.3215
 9966SOL    HW134487   8.303   0.045   2.566 -2.0564  0.9503 -1.7269
 9966SOL    HW234488   8.344   0.198   2.525 -0.0199  0.5202 -1.3465
 9967SOL     OW34489   1.963   8.774   2.222 -0.7007  0.1931 -0.0342
 9967SOL    HW134490   1.937   8.793   2.316 -0.3410 -2.1123  0.5546
 9967SOL    HW234491   2.061   8.791   2.210 -1.1510  2.5739 -0.5770
 9968SOL     OW34492   2.594   9.833   1.657 -0.1326  0.0814  0.1550
 9968SOL    HW134493   2.574   9.928   1.681  0.3362  0.0777  0.5711
 9968SOL    HW234494   2.657   9.794   1.725  0.2936 -0.2848 -0.4474
 9969SOL     OW34495   4.997   7.396   2.719 -0.5545 -0.5974 -0.0816
 9969SOL    HW134496   4.914   7.452   2.721  0.1605  0.5102 -0.6354
 9969SOL    HW234497   5.064   7.439   2.659  0.5322 -1.3297  0.5933
 9970SOL     OW34498   0.026   0.503   2.215 -0.0643  0.5361  0.0855
 9970SOL    HW134499   0.119   0.482   2.244  0.1151  1.0532 -0.1126
 9970SOL    HW234500  -0.007   0.431   2.154 -0.2752 -0.3174  1.1820
 9971SOL     OW34501   1.103   2.678   2.945  0.4980 -0.0482  0.0805
 9971SOL    HW134502   1.052   2.764   2.947 -0.3238 -0.5398  1.3836
 9971SOL    HW234503   1.201   2.697   2.941  0.2648  0.9233 -1.1966
 9972SOL     OW34504   8.282   6.123   2.238  0.3662 -0.3468  0.0651
 9972SOL    HW134505   8.213   6.085   2.300  0.7742 -1.6821 -0.2629
 9972SOL    HW234506   8.369   6.133   2.286  0.3842 -0.3179  0.0261
 9973SOL     OW34507   4.264   2.979   2.202 -0.2237  0.6869  0.3345
 9973SOL    HW134508   4.311   3.032   2.273 -1.0896  2.5206 -0.4341
 9973SOL    HW234509   4.169   2.964   2.229  0.3924 -1.8456  1.2535
 9974SOL     OW34510   8.139   0.070   0.868  0.0821 -0.1840  0.0663
 9974SOL    HW134511   8.098   0.120   0.791 -1.2653 -0.2589  0.7109
 9974SOL    HW234512   8.076   0.074   0.947 -0.2448 -3.2555  0.0007
 9976SOL     OW34513   1.894   4.252   2.078  0.4979  0.5522  0.6321
 9976SOL    HW134514   1.917   4.243   1.982 -0.9796 -0.1935  0.3269
 9976SOL    HW234515   1.959   4.199   2.133 -0.4716 -1.5936 -0.2068
 9977SOL     OW34516   3.944   6.878   2.375  0.1318 -0.2895  0.3341
 9977SOL    HW134517   3.846   6.865   2.382  0.0372 -1.3277 -2.4979
 9977SOL    HW234518   3.967   6.973   2.397 -1.5750  0.1247  0.3291
 9978SOL     OW34519   0.192   2.842   0.882 -0.2736 -1.2118  0.7156
 9978SOL    HW134520   0.199   2.841   0.782  0.6535  0.1437  0.7549
 9978SOL    HW234521   0.113   2.789   0.910 -0.6928 -1.3928 -0.7609
 9980SOL     OW34522   8.455   1.787   1.717  0.0265  0.5252  1.0343
 9980SOL    HW134523   8.437   1.834   1.804 -1.7745  0.1478  0.8906
 9980SOL    HW234524   8.397   1.706   1.710  0.4749  0.3068 -0.3261
 9983SOL     OW34525   0.118   2.132   2.649 -0.1863  0.1592 -0.1947
 9983SOL    HW134526   0.179   2.135   2.570  0.6614  1.2931  0.4902
 9983SOL    HW234527   0.122   2.219   2.698  0.3676 -0.9996  1.9071
 9984SOL     OW34528   7.591   9.197   0.372  0.1265  0.3285  0.2935
 9984SOL    HW134529   7.639   9.256   0.308  1.4017 -1.6274 -0.6086
 9984SOL    HW234530   7.657   9.149   0.430 -0.9568  1.0001  2.1243
 9985SOL     OW34531   4.492   4.271   0.833 -0.2864  0.0098 -0.2072
 9985SOL    HW134532   4.444   4.234   0.754  0.4461  1.7363 -1.4967
 9985SOL    HW234533   4.571   4.213   0.854 -0.5152 -0.4818 -0.6866
 9986SOL     OW34534   9.183   7.225   1.497 -0.1018  0.3603 -1.2113
 9986SOL    HW134535   9.271   7.239   1.450  0.4286 -0.2899 -0.4370
 9986SOL    HW234536   9.200   7.190   1.589 -1.1494  1.2490 -0.6721
 9987SOL     OW34537   9.586   9.554   0.483 -0.3852  0.4409 -0.0972
 9987SOL    HW134538   9.648   9.476   0.499  0.9336  1.5029  0.1041
 9987SOL    HW234539   9.501   9.540   0.534 -0.8301 -1.6316 -1.3572
 9988SOL     OW34540   9.413   1.200   3.665  0.1942 -0.0932 -0.2291
 9988SOL    HW134541   9.337   1.171   3.723  1.0480 -0.2807  0.8195
 9988SOL    HW234542   9.457   1.119   3.626 -1.0377  0.0843 -2.0005
 9989SOL     OW34543   1.484   4.815   0.277  0.0277  0.0562 -0.0306
 9989SOL    HW134544   1.387   4.838   0.272  0.0452  0.1382  0.0098
 9989SOL    HW234545   1.501   4.755   0.355  0.0377  0.1768  0.0582
 9990SOL     OW34546   4.158   9.703   0.137  0.1764  0.3877 -0.5849
 9990SOL    HW134547   4.132   9.731   0.230  1.3997 -0.0227 -0.1155
 9990SOL    HW234548   4.192   9.783   0.087  1.1676  0.2849 -0.1002
 9991SOL     OW34549   4.210   8.863   2.460  0.4118  0.2397  0.1855
 9991SOL    HW134550   4.131   8.831   2.512 -0.1196 -0.4021 -0.9977
 9991SOL    HW234551   4.245   8.948   2.501 -0.0910 -0.1600  1.4743
 9992SOL     OW34552   1.692   6.325   2.030  0.1304 -0.2214  0.1054
 9992SOL    HW134553   1.769   6.376   2.068  1.8090 -2.1321 -0.6410
 9992SOL    HW234554   1.716   6.292   1.939 -2.3679  0.9329 -1.0152
 9993SOL     OW34555   1.096   4.353   0.250 -0.7681 -0.2959 -0.0436
 9993SOL    HW134556   1.096   4.253   0.261 -1.3830 -0.3086 -0.1577
 9993SOL    HW234557   1.024   4.393   0.306 -0.8917  0.0415 -0.4425
 9994SOL     OW34558   5.525   1.302   2.444 -0.5174 -0.8228 -0.2261
 9994SOL    HW134559   5.622   1.277   2.444 -0.3930 -0.3450 -1.8228
 9994SOL    HW234560   5.484   1.272   2.531  1.3265  0.0788  0.9966
 9995SOL     OW34561   1.806   7.889   2.672 -0.3148 -0.3938 -0.0683
 9995SOL    HW134562   1.769   7.799   2.696 -2.2995  0.2996 -0.4942
 9995SOL    HW234563   1.885   7.909   2.730 -0.4197 -2.0160  0.6574
 9996SOL     OW34564   6.644   9.692   3.351  0.1123  0.6053 -0.0054
 9996SOL    HW134565   6.591   9.608   3.337  3.1263 -1.5439  0.8586
 9996SOL    HW234566   6.635   9.721   3.446  0.6636  0.0922  0.2074
 9997SOL     OW34567   9.049   1.886   0.174  0.2783  0.2653 -0.3031
 9997SOL    HW134568   9.095   1.938   0.245 -0.8648 -0.9222  1.3484
 9997SOL    HW234569   9.075   1.789   0.181 -0.9368 -0.0962 -0.5871
 9999SOL     OW34570   6.780   7.176   2.743  0.0534  0.1866  0.0542
 9999SOL    HW134571   6.751   7.115   2.670  0.5275 -0.1499  0.1393
 9999SOL    HW234572   6.702   7.229   2.777 -0.6440 -1.3681  0.9178
10000SOL     OW34573   0.580   9.222   3.732 -0.2352  0.1302 -0.2474
10000SOL    HW134574   0.488   9.225   3.771 -0.2666  0.4437 -0.3451
10000SOL    HW234575   0.575   9.240   3.633 -0.1055 -0.1806 -0.3121
10001SOL     OW34576   2.091   0.988   3.724  0.0843  0.7555 -0.1850
10001SOL    HW134577   2.038   1.015   3.804 -2.7167 -0.7599 -1.4430
10001SOL    HW234578   2.165   0.928   3.752  0.0960  1.4855  1.4227
10002SOL     OW34579   2.489   9.949   2.518  0.5242  0.3230  0.7257
10002SOL    HW134580   2.578   9.993   2.509  0.2995  0.6658  0.2049
10002SOL    HW234581   2.417  10.014   2.495  0.1459 -0.0220  0.9265
10003SOL     OW34582   8.810   8.949   2.102 -0.1009  0.3892  0.1533
10003SOL    HW134583   8.825   8.905   2.191 -1.1168  0.0027  0.1484
10003SOL    HW234584   8.785   9.044   2.117  0.5427  0.5420  0.2464
10005SOL     OW34585   7.307   9.401   3.336 -0.1171 -0.2274 -0.3617
10005SOL    HW134586   7.332   9.305   3.320 -0.3062 -0.1649 -1.0455
10005SOL    HW234587   7.297   9.416   3.434  2.5722 -0.2308 -0.0408
10006SOL     OW34588   3.920   0.317   3.199  0.2940 -0.2190  0.6086
10006SOL    HW134589   3.881   0.408   3.180  1.5355 -0.1312 -1.7570
10006SOL    HW234590   3.901   0.257   3.122  1.1089 -1.4384  1.3544
10007SOL     OW34591   0.632   0.035   3.338 -0.2246 -0.1535 -0.4483
10007SOL    HW134592   0.661   0.111   3.280 -0.3022  0.6684  0.5832
10007SOL    HW234593   0.678  -0.049   3.308  1.4101  0.6754 -0.3248
10008SOL     OW34594   7.952   9.268   1.837  0.0739  0.1137  0.6898
10008SOL    HW134595   7.855   9.267   1.861  0.0232 -1.1357  0.4695
10008SOL    HW234596   7.964   9.314   1.748 -0.4022 -0.3766  0.3694
10009SOL     OW34597   4.450   8.292   2.372  0.4528  0.0874 -0.4063
10009SOL    HW134598   4.506   8.370   2.344 -1.1934  1.5466  0.3321
10009SOL    HW234599   4.400   8.257   2.293 -0.5393  1.2031 -0.2725
10010SOL     OW34600   4.148   9.299   1.953 -0.5541 -0.0324 -0.5010
10010SOL    HW134601   4.179   9.243   2.029 -1.5271  0.1019 -0.0020
10010SOL    HW234602   4.186   9.263   1.867  1.2690  0.3658  0.1305
10011SOL     OW34603   5.598   8.046   1.645  0.0979  0.1021  0.3078
10011SOL    HW134604   5.669   7.977   1.636 -0.2465 -0.1290 -0.6520
10011SOL    HW234605   5.511   8.002   1.669  0.2774  0.3903  1.5522
10012SOL     OW34606   3.066   7.415   2.912 -0.4765 -0.0199  0.0899
10012SOL    HW134607   2.998   7.370   2.970 -0.5625 -0.1320 -0.0996
10012SOL    HW234608   3.100   7.497   2.959 -1.1651  0.3554 -0.0634
10013SOL     OW34609   1.395   5.363   1.007 -0.1488 -0.0388  0.4978
10013SOL    HW134610   1.322   5.306   0.968 -1.3270  0.9550  1.2105
10013SOL    HW234611   1.444   5.410   0.933 -0.2961 -0.6260  0.0233
10016SOL     OW34612   2.584   2.716   1.972 -0.4507  0.3506  0.1311
10016SOL    HW134613   2.484   2.717   1.968 -0.5888 -1.5977  2.1644
10016SOL    HW234614   2.613   2.737   2.066  0.9104 -2.3741  0.3735
10017SOL     OW34615   6.204   9.188   3.690 -0.6709  0.3692 -1.0790
10017SOL    HW134616   6.127   9.238   3.651 -1.2546 -0.2559 -0.7455
10017SOL    HW234617   6.186   9.090   3.684 -1.7064  0.2655  2.5873
10018SOL     OW34618   4.141   4.627   1.310 -0.6556 -0.3219  0.0056
10018SOL    HW134619   4.061   4.574   1.285 -0.3604 -0.6188 -0.3200
10018SOL    HW234620   4.154   4.623   1.410 -0.1658 -1.5486 -0.0976
10019SOL     OW34621   8.870   6.015   2.534  0.1771 -0.5493 -0.0455
10019SOL    HW134622   8.947   6.011   2.597  1.0126 -1.0439 -1.0739
10019SOL    HW234623   8.814   5.933   2.545 -0.8224  0.3162  1.4570
10020SOL     OW34624   1.008   7.286   1.955 -0.5383  0.5568 -0.1420
10020SOL    HW134625   1.081   7.335   2.002 -0.9106 -0.3279  1.3983
10020SOL    HW234626   1.046   7.225   1.887  0.1475  0.1508  0.6086
10021SOL     OW34627   9.368   3.509   2.877  0.7236 -0.3829  0.5314
10021SOL    HW134628   9.271   3.493   2.861  0.8928 -0.8801  0.0133
10021SOL    HW234629   9.385   3.514   2.976  0.4186 -1.7741  0.6571
10022SOL     OW34630   9.871   9.205   1.808  0.5824 -0.0746  1.0659
10022SOL    HW134631   9.939   9.132   1.811  1.6893  0.8636 -0.5384
10022SOL    HW234632   9.791   9.178   1.862  1.3417 -2.0734  1.2336
10023SOL     OW34633   1.990   7.480   3.038  0.2858 -0.3457 -0.2358
10023SOL    HW134634   1.935   7.531   2.973 -0.2847 -0.1242  0.4220
10023SOL    HW234635   2.086   7.480   3.008  0.4836  2.0242  0.3156
10024SOL     OW34636   9.896   4.638   1.174 -0.0126  0.3678 -0.5890
10024SOL    HW134637   9.919   4.567   1.240  0.2860  2.8125  2.0357
10024SOL    HW234638   9.797   4.642   1.162 -0.0526 -0.2205 -0.4685
10025SOL     OW34639   2.494   5.608   1.347  0.6623  0.5783  0.3740
10025SOL    HW134640   2.533   5.592   1.438  2.7237  0.6318 -0.4522
10025SOL    HW234641   2.500   5.524   1.293  0.5606  0.8604 -0.0834
10026SOL     OW34642   7.286   9.091   0.068  0.5178 -0.2172  0.0431
10026SOL    HW134643   7.384   9.081   0.086  0.5097 -1.8981 -0.7244
10026SOL    HW234644   7.266   9.060  -0.025 -0.5091  1.6439 -0.3819
10027SOL     OW34645   2.513   9.250   1.805 -0.7521  0.5294 -0.0546
10027SOL    HW134646   2.610   9.229   1.793 -0.8539 -0.0278  0.1000
10027SOL    HW234647   2.504   9.336   1.856 -0.3227  2.1907 -2.6665
10028SOL     OW34648   2.667   1.167   1.514  0.7396  0.2511  0.6465
10028SOL    HW134649   2.743   1.137   1.457  0.5712 -1.0118  1.0745
10028SOL    HW234650   2.687   1.257   1.552  1.4252  0.5210 -0.3410
10031SOL     OW34651   7.891   5.249   3.056 -0.4944  0.8464  0.3050
10031SOL    HW134652   7.850   5.286   2.973 -0.8416 -1.5803 -0.6618
10031SOL    HW234653   7.982   5.213   3.035 -0.5947  0.1988  0.9511
10032SOL     OW34654   2.611   9.042   0.087  0.4751 -0.2707  0.2611
10032SOL    HW134655   2.568   8.995   0.010 -0.0427 -1.4578  1.2652
10032SOL    HW234656   2.600   9.141   0.077  0.4878 -0.4164 -1.2263
10033SOL     OW34657   8.559   8.328   0.935 -0.0826  0.4349  0.2886
10033SOL    HW134658   8.611   8.311   1.019  0.5595 -1.9682 -0.5597
10033SOL    HW234659   8.528   8.241   0.897 -1.0379  1.5573 -1.5479
10034SOL     OW34660   3.364   1.903   2.299 -0.0051  0.2695 -0.5729
10034SOL    HW134661   3.266   1.906   2.321  0.8214  1.0855  3.3999
10034SOL    HW234662   3.388   1.813   2.262 -2.2619  0.1528 -1.8481
10035SOL     OW34663   9.149   8.837   2.721 -0.1962  0.2764 -0.1892
10035SOL    HW134664   9.210   8.798   2.653 -0.2128  1.1348 -0.6970
10035SOL    HW234665   9.191   8.918   2.762 -0.9822  0.8832 -0.5570
10036SOL     OW34666   0.026   8.166   0.291  0.2280 -0.0412  0.0564
10036SOL    HW134667  -0.001   8.072   0.271  0.1635 -0.1282  0.5613
10036SOL    HW234668   0.118   8.167   0.331  0.0464  0.0753  0.4697
10037SOL     OW34669   2.693   2.334   0.412  0.8786 -0.2699 -0.2451
10037SOL    HW134670   2.748   2.260   0.373 -0.1252 -1.5286  0.6985
10037SOL    HW234671   2.715   2.420   0.365  0.9903 -1.4115 -2.3340
10038SOL     OW34672   1.948   7.795   2.081 -0.4768  0.3473 -0.4404
10038SOL    HW134673   1.857   7.791   2.123 -1.2439  0.4318 -2.0605
10038SOL    HW234674   1.995   7.877   2.112 -0.5019 -0.2822  1.3000
10039SOL     OW34675   0.589   2.852   3.737 -0.4846 -0.1336  0.0052
10039SOL    HW134676   0.627   2.888   3.652 -0.6751 -0.0678 -0.0521
10039SOL    HW234677   0.577   2.926   3.803  1.2652 -0.4544  0.6964
10040SOL     OW34678   9.112   7.042   0.236  0.3146 -0.2763 -0.2873
10040SOL    HW134679   9.141   7.136   0.218  0.9235 -0.8428 -2.3825
10040SOL    HW234680   9.021   7.027   0.199 -0.3803 -0.1172  1.3191
10041SOL     OW34681   2.689   4.135   2.178 -0.1909  0.4668 -0.2735
10041SOL    HW134682   2.739   4.061   2.135 -1.1431  0.6312 -1.7170
10041SOL    HW234683   2.672   4.113   2.274  1.0392 -0.3896 -0.2417
10042SOL     OW34684   9.673   9.471   2.282 -0.0721  0.3647 -0.0934
10042SOL    HW134685   9.582   9.511   2.286 -0.5135 -0.6731  0.2676
10042SOL    HW234686   9.727   9.519   2.213 -0.9247  0.9087 -0.3897
10043SOL     OW34687   0.356   7.586   1.851 -0.1642  0.1468  0.1464
10043SOL    HW134688   0.322   7.555   1.763 -1.8170  1.5456  0.2633
10043SOL    HW234689   0.446   7.545   1.869  1.1167  1.3706 -3.0995
10044SOL     OW34690   9.479   1.745   0.072 -0.4074  0.5837  0.4985
10044SOL    HW134691   9.549   1.674   0.077 -0.7933  0.2216  0.8408
10044SOL    HW234692   9.508   1.824   0.126 -0.1539  0.5344  0.4359
10045SOL     OW34693   9.176   2.875   2.179  0.1764  0.2825  0.2539
10045SOL    HW134694   9.156   2.854   2.274  0.6037 -0.6338  0.1386
10045SOL    HW234695   9.273   2.898   2.169 -0.1255  1.6418  0.2551
10047SOL     OW34696   8.181   5.974   0.281 -0.0444 -0.3970 -0.2219
10047SOL    HW134697   8.136   6.025   0.354 -0.8703 -0.8188 -0.4390
10047SOL    HW234698   8.266   6.022   0.255 -0.3754  0.4101  0.1610
10048SOL     OW34699   8.871   6.301   3.033  0.2170  0.0913 -0.0285
10048SOL    HW134700   8.778   6.325   3.063 -0.3602 -1.4101 -0.5898
10048SOL    HW234701   8.892   6.350   2.949 -0.9234 -1.2346 -1.1222
10049SOL     OW34702   7.112   9.876   2.474 -0.0932  0.4567 -0.7142
10049SOL    HW134703   7.136   9.783   2.447 -0.2213 -0.4091  1.9681
10049SOL    HW234704   7.013   9.890   2.462 -0.4859 -0.5758  1.0337
10050SOL     OW34705   9.794   0.841   1.358  0.1740 -0.3672 -0.1980
10050SOL    HW134706   9.851   0.922   1.370  0.2624 -0.0152 -2.7023
10050SOL    HW234707   9.698   0.867   1.365  0.2246 -0.5386  1.5674
10051SOL     OW34708   3.862   0.710   0.100  0.0108 -0.2702  0.0545
10051SOL    HW134709   3.788   0.643   0.111 -0.3021  0.0407 -0.1587
10051SOL    HW234710   3.950   0.664   0.112 -0.2818  0.1155  4.5252
10053SOL     OW34711   9.477   6.620   2.313  0.0553  0.0118 -0.3011
10053SOL    HW134712   9.406   6.674   2.267 -0.5435 -1.1116 -0.6996
10053SOL    HW234713   9.566   6.662   2.296 -0.5778  1.9458  0.9255
10054SOL     OW34714   9.408   0.034   2.287 -0.2236  0.4202 -0.4058
10054SOL    HW134715   9.336  -0.020   2.330  0.9603  0.6809  2.0005
10054SOL    HW234716   9.494  -0.018   2.288  0.6447  1.8235  0.8473
10055SOL     OW34717   4.235   3.755   1.991  0.1469  0.1734 -0.6898
10055SOL    HW134718   4.319   3.701   1.980  0.0881  0.2574 -1.5975
10055SOL    HW234719   4.216   3.804   1.905 -0.3577  0.8325 -0.2030
10056SOL     OW34720   0.458   7.836   3.096 -0.0813 -0.6515 -0.7116
10056SOL    HW134721   0.454   7.799   3.188 -0.4844 -1.6744 -1.1307
10056SOL    HW234722   0.369   7.827   3.052 -0.0759  0.4673 -0.9588
10057SOL     OW34723   3.842   1.030   2.529  0.5895 -0.2771 -0.1282
10057SOL    HW134724   3.857   0.933   2.548  0.0798 -0.5735 -1.1533
10057SOL    HW234725   3.796   1.073   2.607  2.7283 -0.3551  1.2023
10058SOL     OW34726   1.984   3.290   2.870  0.1874 -0.2967 -0.7722
10058SOL    HW134727   1.976   3.235   2.954  2.0406  0.4883 -0.0614
10058SOL    HW234728   2.033   3.237   2.801  3.5357  1.0408  0.4952
10060SOL     OW34729   3.397   2.676   1.278  0.1080 -0.1489  0.4363
10060SOL    HW134730   3.350   2.759   1.309 -0.7483  0.4636 -2.3883
10060SOL    HW234731   3.495   2.692   1.275  0.0700  0.2824  1.3043
10061SOL     OW34732   3.684   7.091   0.693  0.3068  0.4780  0.1311
10061SOL    HW134733   3.758   7.157   0.697 -0.6350  1.5756 -0.2344
10061SOL    HW234734   3.715   7.008   0.647  1.2336  1.0245 -0.2294
10063SOL     OW34735   5.626   6.724   2.918  0.5147  0.1870 -0.0846
10063SOL    HW134736   5.567   6.787   2.868  1.1336  1.9585  1.3361
10063SOL    HW234737   5.590   6.631   2.912  1.0207  0.1635 -4.5010
10065SOL     OW34738   0.025   7.011   1.815 -0.4695 -0.1417 -0.3139
10065SOL    HW134739   0.041   7.082   1.746  2.1758 -0.5111 -0.1393
10065SOL    HW234740  -0.045   7.042   1.879 -0.1550  1.8381 -0.8846
10066SOL     OW34741   2.637   5.119   1.619  0.5206  0.3135  0.1254
10066SOL    HW134742   2.553   5.162   1.585  0.9484  1.9247  1.0272
10066SOL    HW234743   2.615   5.050   1.687 -0.0745  0.5360  0.1544
10068SOL     OW34744   9.795   4.074   1.861  0.1001  0.6433 -0.3118
10068SOL    HW134745   9.799   4.067   1.961  1.0629  1.8283 -0.2601
10068SOL    HW234746   9.700   4.064   1.831 -0.3129  1.1704  0.7890
10069SOL     OW34747   1.148   8.624   1.690  0.0419 -0.2438  0.1495
10069SOL    HW134748   1.086   8.693   1.728  0.1797  0.7571 -1.3954
10069SOL    HW234749   1.147   8.630   1.590  2.9827  0.1147  0.0842
10072SOL     OW34750   9.825   4.456   0.594  0.1814  0.6199  0.0136
10072SOL    HW134751   9.772   4.475   0.677  1.4834  1.7981  0.6081
10072SOL    HW234752   9.917   4.424   0.620 -0.2817 -1.5994 -1.0017
10073SOL     OW34753   7.410   0.267   3.030 -0.4566 -0.2731  0.6822
10073SOL    HW134754   7.342   0.194   3.046  0.3148 -1.0703  0.3789
10073SOL    HW234755   7.408   0.294   2.934 -0.2127 -0.4409  0.6281
10074SOL     OW34756   8.325   0.967   0.572  0.5244  0.8957 -0.2437
10074SOL    HW134757   8.270   0.932   0.648  0.1241  0.5572 -0.6855
10074SOL    HW234758   8.381   0.894   0.534 -1.6811  0.2249 -2.3567
10076SOL     OW34759   9.288   8.489   2.875  0.0393 -0.0159 -0.2569
10076SOL    HW134760   9.346   8.473   2.795 -1.5539  0.8823 -1.6219
10076SOL    HW234761   9.202   8.440   2.864 -0.1599  0.0535  0.9511
10077SOL     OW34762   6.225   8.080   2.888  0.1064  0.2788  0.1352
10077SOL    HW134763   6.132   8.117   2.885  0.2358  0.6661  0.8814
10077SOL    HW234764   6.290   8.147   2.852  0.3310  0.7684  1.4195
10079SOL     OW34765   8.706   3.023   1.339 -0.3760  0.7814 -0.6886
10079SOL    HW134766   8.624   2.972   1.363 -0.8586  1.8988  0.1002
10079SOL    HW234767   8.771   3.018   1.415 -0.8251  2.1355 -0.2022
10080SOL     OW34768   8.948   3.026   2.112 -0.8886 -0.1894 -0.1985
10080SOL    HW134769   8.876   3.037   2.180  0.4297  0.2891  1.1385
10080SOL    HW234770   9.011   2.954   2.140 -1.2569 -1.1240 -1.7330
10081SOL     OW34771   3.982   7.721   3.542 -0.1756 -0.0666 -0.1771
10081SOL    HW134772   4.052   7.649   3.541  2.1536  2.0190  3.1904
10081SOL    HW234773   3.923   7.709   3.622  1.2798  2.6646  1.3482
10082SOL     OW34774   0.333   6.060   1.990 -0.3285  0.2043 -0.2456
10082SOL    HW134775   0.277   6.136   2.022  0.1515 -0.3821  2.0999
10082SOL    HW234776   0.284   5.974   2.005  0.5491 -0.1938  0.4103
10083SOL     OW34777   8.032   1.568   0.218  0.1101 -0.1383  0.4391
10083SOL    HW134778   7.961   1.638   0.216  0.3736  0.2010  1.9575
10083SOL    HW234779   8.049   1.540   0.313  0.9621 -1.2802 -0.0299
10084SOL     OW34780   8.311   6.007   1.995 -0.3734 -0.1772  0.3186
10084SOL    HW134781   8.331   5.915   2.027 -2.2519 -0.4298  0.8066
10084SOL    HW234782   8.302   6.069   2.073  1.4763  0.5806 -0.0239
10086SOL     OW34783   1.080   8.339   0.483  0.2752 -0.0283  0.0907
10086SOL    HW134784   1.085   8.411   0.413 -1.4432 -0.1304 -0.1515
10086SOL    HW234785   1.025   8.263   0.449  0.9524 -0.8800  0.8701
10089SOL     OW34786   4.359   3.027   1.761 -0.0905 -0.4562  0.2914
10089SOL    HW134787   4.359   3.081   1.846 -2.4492 -0.8953  0.6128
10089SOL    HW234788   4.397   2.936   1.779  0.5644 -0.1341  0.5727
10090SOL     OW34789   6.144   0.071   0.802  0.0826  0.3438 -0.2319
10090SOL    HW134790   6.045   0.076   0.792  0.3429  0.5107 -2.9977
10090SOL    HW234791   6.167   0.047   0.897 -2.5693  0.4493  0.4692
10091SOL     OW34792   4.773   1.009   1.445 -0.1489 -0.9780  0.2198
10091SOL    HW134793   4.858   1.025   1.494 -0.0881  0.2982 -0.2906
10091SOL    HW234794   4.696   1.014   1.510 -0.0083 -0.0422  0.3144
10092SOL     OW34795   3.188   8.060   3.389 -0.2558  0.6026  0.2987
10092SOL    HW134796   3.287   8.069   3.375 -0.0641 -0.0802  1.1936
10092SOL    HW234797   3.166   7.966   3.415 -1.1120  0.8213  0.3859
10093SOL     OW34798   3.653   7.961   0.886  0.1024 -0.2928  0.0068
10093SOL    HW134799   3.749   7.974   0.909  0.1697 -2.0836  0.8356
10093SOL    HW234800   3.642   7.959   0.787  0.8240  0.6175 -0.0901
10095SOL     OW34801   2.414   3.768   3.040  0.0420 -0.1905 -0.3875
10095SOL    HW134802   2.508   3.741   3.019  0.1473 -0.0307 -0.1299
10095SOL    HW234803   2.357   3.755   2.960  0.3219 -0.1303 -0.5983
10096SOL     OW34804   2.381   1.643   2.686 -0.4107 -0.6555  0.0842
10096SOL    HW134805   2.442   1.563   2.685  1.0643  0.4537 -1.9766
10096SOL    HW234806   2.316   1.634   2.762  1.3026 -2.6210  1.3798
10097SOL     OW34807   0.352   3.094   1.771 -0.4450  0.1573 -0.3675
10097SOL    HW134808   0.292   3.119   1.695  1.0189  0.0129 -1.5965
10097SOL    HW234809   0.372   3.175   1.826 -1.6411  0.2309 -0.0238
10098SOL     OW34810   5.017   7.615   0.713 -0.0274 -0.5078 -0.5411
10098SOL    HW134811   4.979   7.682   0.649 -1.1457  0.8225  1.4508
10098SOL    HW234812   5.100   7.651   0.754 -0.5108 -0.4329  0.3772
10100SOL     OW34813   5.435   6.706   2.088 -0.2021  0.1442  0.0585
10100SOL    HW134814   5.398   6.617   2.061  0.0512 -0.4548  1.6556
10100SOL    HW234815   5.471   6.701   2.181  1.7309  1.3598 -0.5838
10103SOL     OW34816   5.664   6.808   2.488  0.2782  0.4889  0.1668
10103SOL    HW134817   5.600   6.784   2.560 -0.8548  0.5157 -0.8200
10103SOL    HW234818   5.657   6.742   2.413  0.3156  1.3601 -0.6103
10104SOL     OW34819   9.773   2.604   2.211  0.1081 -0.2669 -0.2384
10104SOL    HW134820   9.839   2.589   2.285  0.3259  1.0195 -0.1665
10104SOL    HW234821   9.822   2.628   2.127  0.0169 -3.9289 -1.4198
10105SOL     OW34822   8.171   0.354   3.344  0.3870 -0.5929  0.7462
10105SOL    HW134823   8.128   0.268   3.373 -2.5913  1.0308  1.3056
10105SOL    HW234824   8.161   0.422   3.416  0.8548  0.8481 -0.5428
10106SOL     OW34825   1.478   5.995   2.441  0.6523  0.2692  0.3124
10106SOL    HW134826   1.479   6.061   2.366  0.8727 -0.1425 -0.0489
10106SOL    HW234827   1.556   5.933   2.432  0.6256  0.1600  0.8290
10107SOL     OW34828   0.366   8.135   2.338  0.1675  0.3254  0.6224
10107SOL    HW134829   0.349   8.196   2.260 -0.6665 -0.1018  0.4598
10107SOL    HW234830   0.445   8.168   2.390  0.6364  0.6977 -0.3166
10109SOL     OW34831   3.741   1.716   0.484  0.1406  0.1569  0.8116
10109SOL    HW134832   3.779   1.702   0.393 -0.5477 -1.3568  0.7388
10109SOL    HW234833   3.809   1.761   0.542  1.6628 -1.5200  0.3673
10110SOL     OW34834   1.041   8.786   3.358 -0.6839 -0.0938 -0.0352
10110SOL    HW134835   1.096   8.749   3.283 -0.0087 -1.2976  1.0488
10110SOL    HW234836   0.975   8.851   3.321 -1.1168 -1.5051 -1.8384
10111SOL     OW34837   9.938   6.929   2.637 -0.0512 -0.0438 -0.0425
10111SOL    HW134838   9.892   6.847   2.672 -0.0061  0.6542  1.7051
10111SOL    HW234839   9.928   7.004   2.702  0.4400  1.1836 -1.3343
10112SOL     OW34840   1.374   2.725   2.878  0.0278 -0.2396  0.0199
10112SOL    HW134841   1.454   2.712   2.818  0.7676  0.6669  0.7970
10112SOL    HW234842   1.390   2.677   2.964 -0.0624  0.3403  0.3586
10113SOL     OW34843   0.743   3.914   1.290  0.1609 -0.4410 -0.2678
10113SOL    HW134844   0.764   4.012   1.281  0.1989 -0.3422  0.8584
10113SOL    HW234845   0.794   3.876   1.366 -0.8343 -1.0565  0.0951
10114SOL     OW34846   4.089   3.587   0.646  0.2131  0.2435 -0.1756
10114SOL    HW134847   4.175   3.542   0.621  0.1570 -0.6454  1.1692
10114SOL    HW234848   4.076   3.580   0.745 -0.8841  1.3135 -0.2395
10115SOL     OW34849   3.372   8.057   0.911  0.5666  0.5238 -0.0733
10115SOL    HW134850   3.455   8.008   0.881 -0.6492 -1.2708 -0.5781
10115SOL    HW234851   3.349   8.030   1.004 -0.0091  0.2529 -0.2906
10116SOL     OW34852   0.190   1.668   3.285  0.7834  0.6544 -0.3908
10116SOL    HW134853   0.217   1.725   3.208  0.0248 -0.2961 -1.3727
10116SOL    HW234854   0.270   1.623   3.324  1.4496  2.6799  0.6479
10117SOL     OW34855   8.916   1.498   0.053  0.3531  0.0577 -0.0957
10117SOL    HW134856   8.985   1.570   0.045 -1.0480  1.6459  1.6150
10117SOL    HW234857   8.956   1.419   0.100  1.0632  0.8986  0.7269
10118SOL     OW34858   2.616   1.676   3.428  0.9042 -0.1627 -0.1254
10118SOL    HW134859   2.622   1.770   3.396  2.2819 -0.0918  0.2882
10118SOL    HW234860   2.534   1.633   3.392  1.4464  0.4864 -2.1974
10120SOL     OW34861   2.198   4.976   2.447 -0.0072 -0.6139  0.2690
10120SOL    HW134862   2.249   4.890   2.443 -0.5271 -1.1112  3.1006
10120SOL    HW234863   2.246   5.046   2.394  3.1504 -1.3052  2.1054
10121SOL     OW34864   3.911   0.569   3.493  0.5692  0.1592  0.7951
10121SOL    HW134865   3.917   0.668   3.484  0.2685  0.1975  1.0120
10121SOL    HW234866   3.990   0.534   3.543  1.9869  0.0090 -1.4981
10123SOL     OW34867   4.167   3.554   2.453  0.1046 -0.2331 -0.2823
10123SOL    HW134868   4.144   3.522   2.361 -0.9578 -0.0213 -0.0897
10123SOL    HW234869   4.253   3.605   2.450 -1.6425  2.7649 -1.7624
10124SOL     OW34870   2.312   1.079   3.275  0.2486  0.4075 -0.1391
10124SOL    HW134871   2.328   0.988   3.236  0.1438 -0.0702  0.9171
10124SOL    HW234872   2.215   1.092   3.292  0.4423  0.0157  1.3650
10125SOL     OW34873   8.130   6.342   1.969 -0.1703  0.4575 -0.1025
10125SOL    HW134874   8.219   6.325   1.928 -1.0427 -1.5020 -1.2406
10125SOL    HW234875   8.141   6.362   2.067  1.4448 -0.4819 -0.0817
10126SOL     OW34876   6.164   9.784   2.775 -0.0340  0.1402  0.1895
10126SOL    HW134877   6.065   9.771   2.767  0.0570 -0.1104 -0.6283
10126SOL    HW234878   6.184   9.882   2.776 -0.1341  0.2051 -2.0312
10127SOL     OW34879   8.252   4.908   0.268 -0.3541 -0.5594 -0.3696
10127SOL    HW134880   8.281   4.940   0.358  1.8507 -0.8649 -0.9316
10127SOL    HW234881   8.199   4.979   0.222 -0.3620  0.1013  0.6470
10128SOL     OW34882   2.637   7.329   1.803  0.9536  0.4914 -0.1756
10128SOL    HW134883   2.648   7.282   1.715  0.7679 -0.3167  0.2302
10128SOL    HW234884   2.562   7.394   1.796  0.6854  0.1528 -0.5087
10129SOL     OW34885   3.093   9.561   1.194 -0.2914 -0.3375  0.4365
10129SOL    HW134886   3.036   9.481   1.211 -0.2602 -0.4624 -0.0324
10129SOL    HW234887   3.034   9.640   1.176 -0.3221 -0.4766 -0.0909
10130SOL     OW34888   0.667   5.432   0.709 -0.4364  0.5062  0.1906
10130SOL    HW134889   0.691   5.424   0.612  2.0470  2.6334  0.5639
10130SOL    HW234890   0.568   5.426   0.720 -0.6239 -1.5149 -2.2653
10131SOL     OW34891   5.929   8.133   1.992  0.1386  0.0065  0.0771
10131SOL    HW134892   5.881   8.189   1.924  1.7993 -0.1581 -1.2719
10131SOL    HW234893   6.024   8.165   2.000  0.3898 -0.9765  1.1853
10132SOL     OW34894   0.679   5.091   0.475  0.4094  0.8446  0.4036
10132SOL    HW134895   0.658   5.020   0.542  0.2410 -1.8577 -2.4402
10132SOL    HW234896   0.778   5.098   0.464  0.3823  0.2065 -0.2187
10135SOL     OW34897   3.397   6.087   3.102 -0.4620 -0.5157  0.5237
10135SOL    HW134898   3.446   6.046   3.024 -2.2560  0.7589 -1.3177
10135SOL    HW234899   3.463   6.118   3.170  1.1566 -1.3415 -0.6374
10136SOL     OW34900   1.655   7.370   0.958 -0.1303 -0.0762  0.1757
10136SOL    HW134901   1.589   7.295   0.959 -0.0700 -0.1213  0.6473
10136SOL    HW234902   1.668   7.404   1.051 -1.2379  1.4461 -0.1968
10137SOL     OW34903   0.702   5.478   0.086  0.2267 -0.1181 -0.3650
10137SOL    HW134904   0.802   5.478   0.078  0.4400 -0.8282  1.8526
10137SOL    HW234905   0.671   5.385   0.105 -0.8017  0.2114 -0.4401
10138SOL     OW34906   4.293   8.892   3.277 -0.2856  0.0983  0.0243
10138SOL    HW134907   4.254   8.972   3.232 -1.8427 -1.4924 -1.4910
10138SOL    HW234908   4.336   8.833   3.208  0.1928 -0.7458  1.0373
10139SOL     OW34909   0.598   9.508   3.188 -0.0964 -0.4709 -0.0485
10139SOL    HW134910   0.539   9.526   3.268  0.1722  1.3096 -0.2236
10139SOL    HW234911   0.690   9.487   3.219  0.5961  2.5372  0.0942
10140SOL     OW34912   2.742   3.045   0.513  0.2464  0.4134  0.3609
10140SOL    HW134913   2.697   2.957   0.497  3.8369 -1.4584 -0.1369
10140SOL    HW234914   2.721   3.108   0.438  1.4260 -1.6879 -1.8151
10141SOL     OW34915   0.971   2.986   1.508 -0.0873 -0.1430  0.1018
10141SOL    HW134916   1.038   3.017   1.440 -1.0860  0.0611 -0.8004
10141SOL    HW234917   1.014   2.920   1.569  0.5218 -1.1749 -1.4105
10142SOL     OW34918   9.858   1.498   0.177  0.0652 -0.1973 -0.2661
10142SOL    HW134919   9.899   1.475   0.265 -1.0007 -1.3086 -0.0509
10142SOL    HW234920   9.883   1.591   0.152  2.3092 -0.6871  0.0890
10143SOL     OW34921   3.777   4.892   2.478  0.5195 -0.4313 -0.3860
10143SOL    HW134922   3.824   4.847   2.403  0.2004 -2.2699  0.4927
10143SOL    HW234923   3.710   4.829   2.518  0.9640  0.3728  1.6843
10144SOL     OW34924   8.721   4.691   3.456 -0.1899 -0.1187  0.6912
10144SOL    HW134925   8.782   4.672   3.379 -0.3506 -0.0777  0.5523
10144SOL    HW234926   8.666   4.772   3.434  0.0902  0.1665  1.0413
10145SOL     OW34927   4.546   0.952   3.580 -0.0781 -0.3490 -0.4572
10145SOL    HW134928   4.561   0.895   3.499  1.0844 -0.6894 -0.0109
10145SOL    HW234929   4.539   0.894   3.661  1.8064  0.1822  0.0894
10146SOL     OW34930   4.209   7.822   0.173 -0.5662 -0.5042  0.4010
10146SOL    HW134931   4.282   7.890   0.174 -0.6455 -0.4335  1.3325
10146SOL    HW234932   4.147   7.837   0.250 -0.6762 -1.5276  0.5260
10147SOL     OW34933   7.873   0.702   3.427 -0.1433  0.4353 -0.3801
10147SOL    HW134934   7.911   0.711   3.520 -0.8369 -2.2724  0.2093
10147SOL    HW234935   7.778   0.673   3.433 -0.3300  0.6900 -1.9688
10148SOL     OW34936   6.106   9.628   1.370 -0.0380  0.1416 -0.4461
10148SOL    HW134937   6.168   9.633   1.292  1.5400  1.1557  0.8563
10148SOL    HW234938   6.024   9.683   1.351  0.7056  1.0401 -1.0463
10150SOL     OW34939   3.975   1.470   2.804 -0.2038 -0.3479 -0.0911
10150SOL    HW134940   3.954   1.527   2.725  0.2704 -0.0670 -0.0204
10150SOL    HW234941   3.891   1.432   2.843 -0.6660  1.5503  0.8043
10152SOL     OW34942   8.886   2.783   1.083 -0.4621  0.2483 -0.1646
10152SOL    HW134943   8.808   2.782   1.145  0.2704  0.3770  0.7766
10152SOL    HW234944   8.854   2.794   0.989 -1.5937 -0.0814  0.1736
10153SOL     OW34945   2.587   1.074   0.690 -0.0978 -0.3920 -0.1172
10153SOL    HW134946   2.537   1.159   0.708 -0.0319 -0.9184  2.8350
10153SOL    HW234947   2.529   1.010   0.640 -0.7698  0.7050 -0.7554
10155SOL     OW34948   4.661   7.448   2.168 -0.0175 -0.4028 -0.4600
10155SOL    HW134949   4.715   7.515   2.119 -0.3568  1.3836  1.5184
10155SOL    HW234950   4.577   7.428   2.117  0.4720  0.0619 -1.4444
10156SOL     OW34951   4.175   3.738   3.342  0.3222  0.2999  0.1103
10156SOL    HW134952   4.158   3.814   3.279  0.8200  0.1649 -0.1939
10156SOL    HW234953   4.153   3.767   3.435  0.8555  0.9471  0.0480
10157SOL     OW34954   5.606   0.042   0.901 -0.3811  0.3865 -0.2383
10157SOL    HW134955   5.515   0.078   0.920 -0.3316 -0.2260  1.2852
10157SOL    HW234956   5.676   0.105   0.936 -0.2455  0.3760 -0.4915
10158SOL     OW34957   3.276   1.162   1.749 -0.1654 -0.3369  0.2141
10158SOL    HW134958   3.324   1.102   1.813 -0.2036 -0.4361  0.1504
10158SOL    HW234959   3.236   1.107   1.676  0.6319 -0.1333 -0.3785
10160SOL     OW34960   9.798   7.348   2.087  0.4329  0.3448  0.7051
10160SOL    HW134961   9.789   7.418   2.158  0.4518  0.1004  0.9491
10160SOL    HW234962   9.879   7.291   2.105  1.4715  1.3952 -0.4874
10162SOL     OW34963   3.380   5.376   3.295  0.2155  0.2560  0.6063
10162SOL    HW134964   3.468   5.399   3.336  0.6846  0.3920 -0.4479
10162SOL    HW234965   3.323   5.457   3.290  0.8822  0.6694 -0.7271
10164SOL     OW34966   1.789   2.066   2.436  0.0624  0.3271  0.1432
10164SOL    HW134967   1.814   2.125   2.359  1.0644  1.8217  1.5646
10164SOL    HW234968   1.699   2.093   2.471  0.6324  1.2388  0.9575
10165SOL     OW34969   1.406   1.058   3.408 -0.5025  0.1337 -0.2381
10165SOL    HW134970   1.338   1.040   3.337  0.5945 -0.7604 -1.0621
10165SOL    HW234971   1.385   1.002   3.488  0.8780 -2.2694 -1.5191
10166SOL     OW34972   2.444   5.917   0.084 -0.0027  0.2361  0.5563
10166SOL    HW134973   2.485   5.946  -0.003  0.6387  1.6863  1.3334
10166SOL    HW234974   2.515   5.912   0.154 -0.2532 -2.3745  0.6785
10167SOL     OW34975   2.034   1.162   0.707 -0.2431  0.2142  0.2116
10167SOL    HW134976   2.022   1.254   0.671  0.2070  0.7119  1.3257
10167SOL    HW234977   2.016   1.096   0.634 -1.8972  1.1287 -0.2405
10170SOL     OW34978   1.717   7.770   0.433  0.1659  0.0965  0.4229
10170SOL    HW134979   1.624   7.745   0.462  0.1392 -0.2591  0.0405
10170SOL    HW234980   1.712   7.849   0.371  0.0538 -0.3335 -0.1281
10171SOL     OW34981   3.942   1.382   1.656  0.1056  0.2426  0.2349
10171SOL    HW134982   3.990   1.311   1.604  1.6441 -0.0718  2.0266
10171SOL    HW234983   3.927   1.462   1.597  1.1363 -0.3967 -0.9143
10172SOL     OW34984   6.946   6.854   3.262  0.4437  0.4149  0.0643
10172SOL    HW134985   7.034   6.885   3.297  0.1809  1.0009  0.2122
10172SOL    HW234986   6.909   6.922   3.199  0.9797 -0.6964 -1.4860
10173SOL     OW34987   4.780   8.957   1.332 -0.0162  0.4080 -0.1960
10173SOL    HW134988   4.750   9.039   1.284  0.5594  0.6802 -0.0907
10173SOL    HW234989   4.798   8.979   1.428 -0.6394 -0.0165  0.0260
10174SOL     OW34990   8.152   5.590   3.227  0.2686 -0.0548 -0.4002
10174SOL    HW134991   8.188   5.663   3.285  0.7388  0.7731 -1.7171
10174SOL    HW234992   8.206   5.507   3.240  1.0415  0.4379 -0.4455
10175SOL     OW34993   9.426   9.180   0.128 -0.4150 -0.8614  0.1498
10175SOL    HW134994   9.433   9.265   0.076  1.1315  0.2404  2.1015
10175SOL    HW234995   9.341   9.133   0.104 -2.5132  2.4464  0.8467
10176SOL     OW34996   5.250   0.816   1.682  0.2929 -0.0454  0.1903
10176SOL    HW134997   5.195   0.773   1.611  2.0965  0.4194 -1.5364
10176SOL    HW234998   5.190   0.869   1.743 -1.2833 -0.4243 -0.9957
10177SOL     OW34999   3.218   8.648   0.531  0.7921 -0.2849  0.4409
10177SOL    HW135000   3.295   8.639   0.594  0.6858 -0.9703  0.4743
10177SOL    HW235001   3.156   8.570   0.542 -0.2667  0.6197  0.9016
10178SOL     OW35002   1.123   6.181   2.954  0.0730 -0.4213 -0.0412
10178SOL    HW135003   1.183   6.226   2.888  1.2310 -0.9140  0.6728
10178SOL    HW235004   1.132   6.226   3.043 -0.2564 -0.8104  0.1876
10179SOL     OW35005   9.041   8.376   2.849  0.1681  0.0797  0.2419
10179SOL    HW135006   9.066   8.319   2.927 -0.8437  1.2812  1.4665
10179SOL    HW235007   8.969   8.330   2.796  0.0358 -0.2147  0.6743
10180SOL     OW35008   8.686   2.887   0.516 -0.7878  0.2206 -0.3112
10180SOL    HW135009   8.695   2.788   0.504 -2.0688 -0.0072  0.5291
10180SOL    HW235010   8.766   2.922   0.564 -0.9512 -0.6195  0.5846
10181SOL     OW35011   8.193   3.518   0.045  0.0781  0.0827  0.2901
10181SOL    HW135012   8.260   3.470  -0.012  0.7673 -0.5679  1.6008
10181SOL    HW235013   8.139   3.580  -0.011  0.8696 -0.3919 -1.0241
10182SOL     OW35014   0.041   3.726   0.218  0.3713  0.0788  0.3497
10182SOL    HW135015   0.132   3.706   0.253  0.9167  2.5270  0.4609
10182SOL    HW235016  -0.028   3.680   0.275  1.4648 -0.0952  1.5466
10183SOL     OW35017   3.533   5.259   0.332 -0.0374 -0.1735  0.2795
10183SOL    HW135018   3.580   5.181   0.290  0.4086  0.4012 -0.3068
10183SOL    HW235019   3.440   5.231   0.358  0.1916 -0.9600  0.2867
10184SOL     OW35020   9.850   5.889   2.418 -0.0190  0.2383 -0.3677
10184SOL    HW135021   9.866   5.868   2.321 -0.5471  0.8194 -0.5839
10184SOL    HW235022   9.762   5.936   2.427  1.6542  3.4178 -0.0166
10186SOL     OW35023   6.421   7.139   2.158 -0.1981 -0.5151  0.5011
10186SOL    HW135024   6.400   7.161   2.063  0.4452  1.5734  0.8135
10186SOL    HW235025   6.509   7.179   2.183  0.1254 -1.9313  1.6779
10187SOL     OW35026   8.870   6.888   0.578  0.0489  0.1030  0.5655
10187SOL    HW135027   8.807   6.925   0.647  1.0735  2.0465  0.4853
10187SOL    HW235028   8.922   6.963   0.537 -1.3445 -0.9064 -3.1595
10188SOL     OW35029   0.162   7.754   2.719  0.3669 -0.3823  0.2000
10188SOL    HW135030   0.164   7.809   2.802  0.0054 -0.2699  0.1360
10188SOL    HW235031   0.070   7.715   2.707  0.5890 -0.9189  0.1957
10190SOL     OW35032   9.384   7.345   2.712  0.8352 -0.0507  0.2343
10190SOL    HW135033   9.386   7.370   2.809 -0.4406 -3.1218  1.0867
10190SOL    HW235034   9.297   7.302   2.690  0.4614  2.0056 -2.6949
10191SOL     OW35035   3.687   7.040   0.098  0.1633 -0.5005 -0.2888
10191SOL    HW135036   3.615   6.971   0.093 -0.6090  0.3326 -0.9688
10191SOL    HW235037   3.716   7.064   0.005  0.3690  0.1312 -0.0664
10192SOL     OW35038   1.730   1.436   2.572  0.1050 -0.6134 -0.3421
10192SOL    HW135039   1.695   1.506   2.510  0.3169 -1.5517 -1.5353
10192SOL    HW235040   1.665   1.360   2.578 -0.0056 -0.4419  0.7403
10193SOL     OW35041   1.168   5.870   1.850 -0.0277 -0.1521 -0.2455
10193SOL    HW135042   1.234   5.796   1.836  0.2438 -0.2211  1.3286
10193SOL    HW235043   1.186   5.943   1.785 -0.4727 -1.5738 -2.0128
10194SOL     OW35044   3.151   7.582   3.477 -0.0187  0.5255 -0.0522
10194SOL    HW135045   3.092   7.663   3.481 -1.4169 -0.5779  2.9727
10194SOL    HW235046   3.113   7.517   3.411  0.0743  1.4706 -1.0733
10196SOL     OW35047   5.511   0.827   3.550 -0.4049 -1.0422 -0.1199
10196SOL    HW135048   5.604   0.792   3.552  0.3248  0.7278 -1.3611
10196SOL    HW235049   5.500   0.887   3.470 -2.4910 -0.9344  0.2261
10197SOL     OW35050   1.949   2.453   0.736  0.3010  0.2187  0.2820
10197SOL    HW135051   1.913   2.360   0.737  2.7745 -0.7828 -0.0721
10197SOL    HW235052   1.967   2.483   0.830 -0.4430  0.3326  0.3924
10198SOL     OW35053   9.403   2.011   3.106 -0.0374 -0.6596 -0.0637
10198SOL    HW135054   9.490   2.016   3.058  0.1865 -3.3118  0.0477
10198SOL    HW235055   9.418   2.019   3.204  0.0822 -1.2512 -0.0364
10199SOL     OW35056   3.189   7.593   3.090  0.5771 -0.1561  0.8039
10199SOL    HW135057   3.211   7.685   3.057 -2.0856  0.0400 -0.5491
10199SOL    HW235058   3.132   7.600   3.172 -0.1023 -0.5781  0.3736
10200SOL     OW35059   1.679   1.553   1.945  0.2969 -0.3594 -0.0721
10200SOL    HW135060   1.687   1.465   1.993 -1.4476  0.0390  1.0004
10200SOL    HW235061   1.731   1.549   1.860 -0.0993 -2.5813 -0.2430
10202SOL     OW35062   1.607   5.113   1.806  0.2061 -0.5632 -0.2223
10202SOL    HW135063   1.617   5.016   1.782 -0.0152 -0.8568  0.8433
10202SOL    HW235064   1.601   5.167   1.723  2.4149 -1.2483 -0.8490
10203SOL     OW35065   8.523   2.091   0.525  0.1844 -0.4733  0.3430
10203SOL    HW135066   8.578   2.115   0.445  1.7876  1.6108  2.0060
10203SOL    HW235067   8.493   1.996   0.518  0.5447 -0.4109 -2.5637
10206SOL     OW35068   1.979   0.380   3.405 -0.3118 -0.4023 -0.4290
10206SOL    HW135069   2.021   0.305   3.354 -1.1000 -0.4040 -1.1024
10206SOL    HW235070   1.889   0.400   3.366 -0.6529  0.0391  0.5645
10207SOL     OW35071   0.827   0.241   0.545  0.2207 -0.5710  0.3152
10207SOL    HW135072   0.793   0.334   0.560  2.1488  0.0935  0.7876
10207SOL    HW235073   0.865   0.234   0.452 -0.4909 -1.0693  0.0618
10208SOL     OW35074   2.323   8.331   1.456 -0.0067  0.0296 -0.0083
10208SOL    HW135075   2.294   8.307   1.548 -2.0027  0.2757 -0.5540
10208SOL    HW235076   2.359   8.250   1.410  1.6138  0.0495  1.1897
10209SOL     OW35077   9.334   7.710   0.265  0.1782 -0.1468  0.3382
10209SOL    HW135078   9.282   7.755   0.193  0.2759  2.3956  1.7920
10209SOL    HW235079   9.272   7.659   0.324 -0.3681  0.8561  0.6376
10210SOL     OW35080   8.323   7.235   0.714 -0.0767  0.4976  0.0099
10210SOL    HW135081   8.391   7.221   0.786 -0.6487  0.7809  0.6111
10210SOL    HW235082   8.350   7.184   0.632 -0.1127 -0.9308  0.8685
10212SOL     OW35083   4.680   2.824   1.307  0.0030 -0.2367  0.0971
10212SOL    HW135084   4.583   2.808   1.328 -0.2228  0.3156 -0.5082
10212SOL    HW235085   4.728   2.852   1.390  0.2954 -3.4465  1.0848
10213SOL     OW35086   6.382   9.960   2.636 -0.5499  0.2177 -0.4407
10213SOL    HW135087   6.340  10.033   2.689  1.2518 -0.0613  1.4043
10213SOL    HW235088   6.437   9.902   2.696  0.0479 -1.2055 -2.3078
10214SOL     OW35089   2.244   4.100   2.913 -0.2635  0.1549  0.1172
10214SOL    HW135090   2.242   4.194   2.945 -0.1006 -0.3564  1.6834
10214SOL    HW235091   2.326   4.085   2.857  0.3585  0.6129  0.8979
10216SOL     OW35092   8.926   6.246   2.361 -0.2923  0.2607  0.0593
10216SOL    HW135093   8.926   6.156   2.405  0.5821 -0.5185 -1.5050
10216SOL    HW235094   8.832   6.278   2.350 -0.6063 -0.4814  0.5589
10217SOL     OW35095   4.883   9.287   3.404  0.5358 -0.0819  0.2629
10217SOL    HW135096   4.832   9.202   3.395 -0.2408  0.2756  1.1683
10217SOL    HW235097   4.947   9.280   3.480 -0.7751  0.7335  1.4727
10218SOL     OW35098   9.906   0.118   1.606  0.8218 -0.5419  0.1315
10218SOL    HW135099   9.814   0.147   1.635  0.8519 -1.2062  0.9243
10218SOL    HW235100   9.969   0.128   1.683  1.7433  1.3189 -0.8285
10219SOL     OW35101   0.978   1.087   1.106 -1.0981 -0.2158  0.2523
10219SOL    HW135102   0.970   1.037   1.192 -1.8711  0.4756  0.5851
10219SOL    HW235103   0.918   1.045   1.037 -0.9753 -0.3628  0.2330
10220SOL     OW35104   8.729   9.603   2.393  0.4038  0.1088 -0.0239
10220SOL    HW135105   8.797   9.530   2.395 -0.6465 -0.8783  1.1046
10220SOL    HW235106   8.650   9.576   2.448  0.0584  2.1630  0.5540
10222SOL     OW35107   8.714   2.425   3.198  0.2003 -0.9328 -0.1787
10222SOL    HW135108   8.791   2.389   3.144  1.6561 -0.2692  1.4006
10222SOL    HW235109   8.703   2.523   3.179 -0.0412 -0.9611 -0.1772
10224SOL     OW35110   1.682   6.989   0.638 -0.7533  0.1911  0.0299
10224SOL    HW135111   1.636   7.075   0.615  0.9342  0.8949 -0.7841
10224SOL    HW235112   1.729   7.000   0.726 -1.2711 -0.1936  0.3575
10225SOL     OW35113   9.499   7.516   3.357  0.0142 -0.5635 -0.0422
10225SOL    HW135114   9.410   7.554   3.384 -0.3425 -0.3524 -1.4721
10225SOL    HW235115   9.526   7.445   3.423 -0.9400 -0.2351  0.7247
10226SOL     OW35116   1.032   9.757   3.127 -0.3507  0.4261  0.0925
10226SOL    HW135117   1.072   9.848   3.124 -0.9351  0.8168  2.3859
10226SOL    HW235118   0.933   9.764   3.144 -0.2768 -0.6335  1.0699
10227SOL     OW35119   9.003   6.286   0.268 -0.2963 -0.1008 -0.0803
10227SOL    HW135120   9.078   6.310   0.206 -0.1390  0.1126  0.1873
10227SOL    HW235121   9.014   6.192   0.298  0.3696  0.1986  0.6516
10228SOL     OW35122   9.106   8.080   3.536 -0.4149  0.2466 -0.1124
10228SOL    HW135123   9.050   8.054   3.614 -0.0226  1.7682  0.7000
10228SOL    HW235124   9.202   8.087   3.565 -0.0012 -0.9315 -1.1531
10229SOL     OW35125   4.606   3.141   0.808 -0.1576 -0.1828 -0.8625
10229SOL    HW135126   4.683   3.130   0.870  0.2956 -0.9236 -1.5444
10229SOL    HW235127   4.620   3.223   0.752 -0.8115  0.7693  0.3435
10231SOL     OW35128   3.366   3.089   2.019  0.1816 -0.1409 -0.0778
10231SOL    HW135129   3.284   3.144   2.033 -0.0597 -0.5875  0.2544
10231SOL    HW235130   3.352   2.996   2.055  1.0971 -0.0052  0.6605
10232SOL     OW35131   3.509   2.026   1.033 -0.1543  0.1828 -0.4185
10232SOL    HW135132   3.418   2.001   1.066 -0.2296  0.4406 -0.4363
10232SOL    HW235133   3.579   1.988   1.094 -0.2821  0.2964 -0.2027
10233SOL     OW35134   0.355   5.184   2.772 -0.1154 -0.0051  0.5002
10233SOL    HW135135   0.305   5.261   2.813 -0.2101 -0.0191  0.4112
10233SOL    HW235136   0.396   5.129   2.845 -2.3447 -1.4492  0.7199
10234SOL     OW35137   9.513   2.985   1.030  0.3810 -0.1203  0.6580
10234SOL    HW135138   9.557   3.054   0.972  0.6684  0.5680  1.6955
10234SOL    HW235139   9.457   3.030   1.099 -1.1421 -0.9777  0.0106
10235SOL     OW35140   1.606   4.652   3.351  0.0800 -0.5228 -0.4224
10235SOL    HW135141   1.619   4.631   3.254 -1.6392 -0.4257 -0.6803
10235SOL    HW235142   1.571   4.745   3.361  0.7509 -0.3420  0.3335
10236SOL     OW35143   0.153   8.319   2.685  0.0184  0.3360  0.4151
10236SOL    HW135144   0.187   8.346   2.595  2.6967  1.7473  1.7854
10236SOL    HW235145   0.186   8.228   2.708 -0.6768 -0.0297 -0.0284
10237SOL     OW35146   9.323   5.385   3.569  0.0433  0.5845 -0.3999
10237SOL    HW135147   9.235   5.420   3.601  0.5234  1.6778 -0.2417
10237SOL    HW235148   9.309   5.328   3.488 -1.3058 -3.1678  2.3667
10238SOL     OW35149   8.951   5.098   3.076  0.3196  0.0226 -0.0319
10238SOL    HW135150   9.027   5.149   3.036  1.3228 -0.5241  1.1439
10238SOL    HW235151   8.935   5.130   3.169  1.8066 -2.6681  1.1994
10241SOL     OW35152   1.731   3.258   2.036  0.8731  0.4076  0.2783
10241SOL    HW135153   1.747   3.175   2.088  2.4968 -0.4742 -1.5565
10241SOL    HW235154   1.632   3.270   2.022  0.6463 -1.7014 -0.1625
10242SOL     OW35155   0.402   6.697   2.092  0.4361  0.6251 -0.3205
10242SOL    HW135156   0.494   6.671   2.062  0.6198  1.0651 -0.1404
10242SOL    HW235157   0.366   6.627   2.154  0.8872  0.7552  0.0895
10243SOL     OW35158   1.595   4.163   0.759 -0.1540  0.1092 -0.0496
10243SOL    HW135159   1.681   4.163   0.709 -1.0929 -0.0946 -1.7187
10243SOL    HW235160   1.556   4.071   0.757 -0.3886  0.1895  0.7347
10245SOL     OW35161   1.462   1.605   0.432 -0.1744 -0.3326 -0.2934
10245SOL    HW135162   1.474   1.700   0.460 -0.0103 -0.9613  1.9048
10245SOL    HW235163   1.456   1.547   0.514 -0.9633 -2.1232 -1.5915
10248SOL     OW35164   7.946   8.464   2.789  0.5202 -0.0482 -0.7418
10248SOL    HW135165   7.900   8.481   2.702 -1.9685  0.7971  0.6903
10248SOL    HW235166   8.002   8.543   2.813  1.1957 -0.2736 -1.5607
10249SOL     OW35167   4.498   8.227   1.971 -0.6694 -0.1207  0.0758
10249SOL    HW135168   4.459   8.258   1.884  2.3424 -0.1258 -1.3496
10249SOL    HW235169   4.593   8.201   1.957  0.8776  2.8273  3.9972
10250SOL     OW35170   0.779   4.606   0.258  0.2593 -0.3688  0.3459
10250SOL    HW135171   0.737   4.522   0.293 -0.3485 -0.1458  0.1513
10250SOL    HW235172   0.713   4.657   0.204  1.1221 -0.5949 -0.9567
10251SOL     OW35173   2.358   4.164   1.683  0.0025  0.2438 -0.1764
10251SOL    HW135174   2.436   4.206   1.636  0.2490 -0.9646 -0.8578
10251SOL    HW235175   2.392   4.103   1.755 -0.3742  2.3153  1.8221
10252SOL     OW35176   1.206   2.377   2.146 -0.1979  0.0423  0.1920
10252SOL    HW135177   1.181   2.341   2.056  1.1436 -1.6695  0.4680
10252SOL    HW235178   1.233   2.301   2.205  3.4321  1.5747  0.6017
10254SOL     OW35179   4.665   9.683   3.033 -0.3666  0.0392  0.1720
10254SOL    HW135180   4.717   9.601   3.010  2.0929  1.7990 -0.8720
10254SOL    HW235181   4.687   9.712   3.126 -1.4595 -0.6427  0.6459
10255SOL     OW35182   9.691   9.174   0.750  0.2723 -0.0609  0.5373
10255SOL    HW135183   9.704   9.223   0.663  1.0875  1.1775  1.3524
10255SOL    HW235184   9.779   9.146   0.786 -0.1129 -1.1489  0.6630
10256SOL     OW35185   3.361   2.876   2.191 -0.0484  0.1866  0.0779
10256SOL    HW135186   3.311   2.792   2.212 -0.0431  0.1359 -0.1080
10256SOL    HW235187   3.457   2.866   2.219  0.1348 -0.1605 -0.6468
10258SOL     OW35188   0.035   4.905   2.239  0.0072 -0.1876  0.4773
10258SOL    HW135189   0.037   4.865   2.148  0.1043  1.1331 -0.1220
10258SOL    HW235190  -0.058   4.934   2.261  0.2581  0.8658  0.1731
10259SOL     OW35191   4.745   8.892   2.670 -0.5481 -0.3056 -0.2841
10259SOL    HW135192   4.798   8.821   2.624 -1.1843 -0.2449 -1.1190
10259SOL    HW235193   4.654   8.897   2.629 -1.0612 -0.1320  0.8709
10260SOL     OW35194   0.758   7.658   1.312 -0.0525  0.0110 -0.2110
10260SOL    HW135195   0.744   7.593   1.386 -1.8938  0.1585 -0.4251
10260SOL    HW235196   0.829   7.724   1.338 -0.3519 -0.2242  1.2042
10261SOL     OW35197   2.509   6.959   1.320 -0.0008 -0.0287 -0.0985
10261SOL    HW135198   2.574   7.020   1.274  1.3756  0.5012  2.4460
10261SOL    HW235199   2.559   6.898   1.381 -1.8350 -0.1145  1.3430
10262SOL     OW35200   3.332   3.977   1.317 -0.0392  0.1569  0.4062
10262SOL    HW135201   3.423   3.942   1.293 -0.4046 -0.3906 -0.2212
10262SOL    HW235202   3.339   4.071   1.350  0.5857  0.6430 -1.0801
10263SOL     OW35203   4.108   8.712   3.388  0.3085  0.5481  0.0260
10263SOL    HW135204   4.151   8.652   3.321  0.6171 -1.1812  1.7322
10263SOL    HW235205   4.139   8.806   3.373  1.9291 -0.1275 -0.9725
10264SOL     OW35206   1.459   4.334   0.923 -0.3719  0.1536  0.3474
10264SOL    HW135207   1.502   4.285   0.848 -0.8053  0.9067 -0.4028
10264SOL    HW235208   1.486   4.293   1.010  2.0596  0.7685 -0.0857
10265SOL     OW35209   1.640   7.965   3.133  0.5161 -0.2442 -0.5462
10265SOL    HW135210   1.676   7.927   3.218 -0.4751  1.5315  0.6964
10265SOL    HW235211   1.694   8.045   3.106 -0.4995  0.4907 -0.4166
10266SOL     OW35212   7.497   1.970   3.141  0.2216  0.7364 -0.2272
10266SOL    HW135213   7.483   2.062   3.178  2.0040  0.9724 -0.1267
10266SOL    HW235214   7.487   1.903   3.215 -2.2360  0.7357 -0.5230
10267SOL     OW35215   0.172   0.319   1.030  0.1189  0.2743  0.1313
10267SOL    HW135216   0.150   0.381   0.955  0.4792  0.9059  0.5502
10267SOL    HW235217   0.087   0.290   1.074 -0.0585  0.3770 -0.1431
10268SOL     OW35218   3.166   3.386   2.881 -0.1535 -0.1716  0.3238
10268SOL    HW135219   3.169   3.439   2.796 -0.4203  0.0111  0.4282
10268SOL    HW235220   3.139   3.446   2.956 -0.8406 -0.5347  0.3764
10271SOL     OW35221   4.079   3.602   1.338  0.3184  1.0557 -0.4355
10271SOL    HW135222   4.070   3.539   1.415  1.3198  3.0904  1.4075
10271SOL    HW235223   4.001   3.664   1.336  0.9043  1.8041 -0.2935
10272SOL     OW35224   1.343   8.782   2.876  0.1545 -0.5850 -0.4849
10272SOL    HW135225   1.332   8.819   2.784 -0.4438 -0.2828 -0.2932
10272SOL    HW235226   1.343   8.682   2.872  0.1863 -0.5723 -0.8161
10273SOL     OW35227   9.280   9.099   3.720 -0.3913 -0.1324  0.1246
10273SOL    HW135228   9.364   9.144   3.749  1.5925 -3.5988  0.0178
10273SOL    HW235229   9.267   9.114   3.621  0.6631 -0.4470 -0.0678
10275SOL     OW35230   0.794   5.913   2.148 -0.1843  0.0876  0.2540
10275SOL    HW135231   0.775   6.004   2.112 -0.7731 -0.1002  0.0847
10275SOL    HW235232   0.710   5.872   2.182 -0.0205 -0.5985 -0.1431
10276SOL     OW35233   2.536   2.776   3.572  0.1834 -0.0014 -0.2050
10276SOL    HW135234   2.511   2.863   3.615  1.6984  0.0255  0.6805
10276SOL    HW235235   2.460   2.743   3.516 -0.8272  1.3222  0.3530
10277SOL     OW35236   8.227   2.603   2.958  0.2330  0.2791  0.2751
10277SOL    HW135237   8.257   2.695   2.934 -0.5455  0.4987  0.1477
10277SOL    HW235238   8.200   2.554   2.875 -1.2241  0.5995  0.5579
10278SOL     OW35239   4.763   0.977   0.542  0.2192 -0.0089 -0.7743
10278SOL    HW135240   4.726   1.069   0.547  0.4715  0.1094 -1.0768
10278SOL    HW235241   4.722   0.920   0.614 -0.7141  0.0508 -1.2623
10279SOL     OW35242   1.526   5.605   1.533 -0.3107 -0.0913 -0.6167
10279SOL    HW135243   1.440   5.652   1.510  0.1953  0.2932 -1.7877
10279SOL    HW235244   1.519   5.508   1.509 -0.8202 -0.2978  0.3651
10280SOL     OW35245   4.947   0.670   2.420 -0.2512 -0.7105 -0.4583
10280SOL    HW135246   4.907   0.759   2.397 -1.6368 -0.6766  1.9142
10280SOL    HW235247   4.937   0.608   2.343 -1.1835  0.5421 -1.3720
10282SOL     OW35248   5.742   8.206   3.283  0.7722 -0.4581  0.1035
10282SOL    HW135249   5.688   8.130   3.250  0.5424 -0.1842 -0.1558
10282SOL    HW235250   5.759   8.270   3.207 -0.3450  0.5238  0.6741
10284SOL     OW35251   3.497   8.336   1.963  0.2428  0.6002 -0.6930
10284SOL    HW135252   3.530   8.262   2.022 -1.0165  0.3577 -0.2736
10284SOL    HW235253   3.564   8.409   1.960  1.7694 -0.8077 -1.5746
10285SOL     OW35254   6.729   9.178   3.131 -0.0347 -0.6648 -0.1129
10285SOL    HW135255   6.759   9.259   3.181  1.0906 -2.2277  1.8265
10285SOL    HW235256   6.629   9.174   3.129 -0.0911  0.9062 -0.4687
10286SOL     OW35257   8.088   1.028   2.213  0.6939  0.2061  0.3832
10286SOL    HW135258   8.002   0.994   2.172  0.3869 -0.0773  1.2567
10286SOL    HW235259   8.071   1.054   2.308  1.6789 -0.2296  0.6751
10287SOL     OW35260   0.453   7.023   2.673  0.5796 -0.2929  0.6617
10287SOL    HW135261   0.500   7.098   2.626  0.5157 -0.1193  0.8773
10287SOL    HW235262   0.518   6.949   2.689  0.4351 -0.6518 -0.3481
10288SOL     OW35263   2.411   8.113   1.627  0.0452 -0.1433  0.5427
10288SOL    HW135264   2.508   8.091   1.643  0.0066  0.3285  1.4359
10288SOL    HW235265   2.384   8.080   1.536  1.0298 -0.3320  0.3131
10289SOL     OW35266   8.375   0.508   0.895 -0.0141  0.7641  0.3528
10289SOL    HW135267   8.456   0.562   0.918  1.7052 -1.6691  0.2416
10289SOL    HW235268   8.368   0.429   0.956 -1.4668  0.1246 -0.5995
10290SOL     OW35269   0.553   9.956   2.989  0.1579  0.2632  0.1923
10290SOL    HW135270   0.525   9.905   3.071  1.3660 -1.7175 -0.5985
10290SOL    HW235271   0.540   9.899   2.908  2.9943  0.5892 -0.5565
10292SOL     OW35272   3.985   2.002   3.018 -0.5692  0.3241  0.0614
10292SOL    HW135273   3.932   1.921   3.043  0.4734  0.3383  2.4272
10292SOL    HW235274   4.066   1.974   2.966 -0.8161 -0.0573 -0.1182
10293SOL     OW35275   3.053   1.595   2.844 -0.2706 -0.2537 -0.1081
10293SOL    HW135276   3.004   1.530   2.901  0.1288  0.2471  0.8370
10293SOL    HW235277   3.152   1.577   2.851 -0.1416  0.5934  0.3591
10294SOL     OW35278   5.126   7.905   3.139 -0.5396  0.3726  0.4062
10294SOL    HW135279   5.142   7.807   3.138 -2.3230  0.0733  0.3776
10294SOL    HW235280   5.188   7.949   3.204  1.6364 -0.5106 -1.0302
10295SOL     OW35281   8.425   6.724   0.186 -0.3748  0.0452 -0.0886
10295SOL    HW135282   8.454   6.813   0.150 -2.0221  0.2217 -1.0760
10295SOL    HW235283   8.409   6.662   0.109  0.1649 -0.9136  0.5726
10296SOL     OW35284   2.072   8.053   0.403  0.8095  0.0298 -0.0238
10296SOL    HW135285   2.151   8.103   0.440  1.5419 -0.4996 -0.8737
10296SOL    HW235286   2.085   7.955   0.418 -0.9105  0.1104  2.1827
10297SOL     OW35287   4.620   9.261   1.641 -0.2259 -0.1921 -0.0697
10297SOL    HW135288   4.665   9.313   1.714  0.9669 -1.0697 -0.1540
10297SOL    HW235289   4.600   9.169   1.674  0.5879 -0.6891 -0.9296
10298SOL     OW35290   9.099   4.484   3.356 -0.0724 -0.2178 -0.6093
10298SOL    HW135291   9.162   4.485   3.279  2.1960  0.3074  1.1924
10298SOL    HW235292   9.147   4.453   3.438 -2.3117 -0.3138  0.7113
10299SOL     OW35293   4.992   9.441   1.506 -0.1040 -0.0453  0.5447
10299SOL    HW135294   4.957   9.508   1.440 -2.1464 -0.6016  1.0230
10299SOL    HW235295   5.071   9.394   1.467  0.5830  1.7461 -0.2940
10301SOL     OW35296   3.775   8.454   0.456  0.1239 -0.3424 -0.0851
10301SOL    HW135297   3.741   8.508   0.532  1.1386  0.5585 -0.2586
10301SOL    HW235298   3.750   8.358   0.469  0.3905 -0.2126  1.4354
10302SOL     OW35299   5.797   9.417   2.721  0.2373 -0.1996 -0.3228
10302SOL    HW135300   5.847   9.394   2.638 -1.3162 -1.1956 -1.0122
10302SOL    HW235301   5.701   9.393   2.709 -0.3022  1.1461  1.1779
10303SOL     OW35302   1.836   1.952   0.880 -0.2648  0.0608 -0.0677
10303SOL    HW135303   1.864   2.047   0.892 -0.6281  0.1004  0.5080
10303SOL    HW235304   1.899   1.893   0.930 -0.0586 -0.0008 -0.3981
10304SOL     OW35305   8.733   4.247   0.389 -0.0386  0.4426 -0.2909
10304SOL    HW135306   8.727   4.248   0.289 -1.8267 -2.1946 -0.2321
10304SOL    HW235307   8.829   4.253   0.416  0.5232  0.3218 -2.1776
10305SOL     OW35308   2.480   3.271   2.297 -0.0593  0.6048  0.1711
10305SOL    HW135309   2.529   3.184   2.297 -2.7232 -0.9870  2.1829
10305SOL    HW235310   2.533   3.339   2.247  1.1178 -2.6829 -3.2721
10306SOL     OW35311   1.537   2.982   0.256 -0.0213 -0.3193  0.5804
10306SOL    HW135312   1.543   2.971   0.355  2.2358 -2.5236  0.2476
10306SOL    HW235313   1.607   3.046   0.225 -1.5344  1.3453  0.5048
10307SOL     OW35314   5.313   1.241   3.310 -0.1815 -0.5649  0.1433
10307SOL    HW135315   5.319   1.340   3.323  1.3718 -0.1643 -3.0771
10307SOL    HW235316   5.299   1.222   3.213 -0.6387 -3.5211  0.7638
10308SOL     OW35317   4.721   8.287   1.271 -0.2420 -0.1103  0.2965
10308SOL    HW135318   4.793   8.336   1.320  0.2909  0.3632 -0.9164
10308SOL    HW235319   4.631   8.317   1.304  0.1110 -1.0185  2.1103
10309SOL     OW35320   2.161   2.902   2.145  0.1994 -0.0784 -0.0299
10309SOL    HW135321   2.065   2.927   2.132  0.3139  0.3404 -0.0555
10309SOL    HW235322   2.197   2.951   2.225  0.5593  0.2128 -0.3719
10310SOL     OW35323   1.055   4.484   3.120 -0.2067 -0.5396 -0.1122
10310SOL    HW135324   1.016   4.469   3.211 -1.3487  0.3160 -0.4568
10310SOL    HW235325   1.153   4.462   3.123 -0.3839 -1.2429  1.1289
10311SOL     OW35326   2.668   1.860   0.645  0.1231  0.0831 -0.2305
10311SOL    HW135327   2.641   1.904   0.559 -0.4060  2.9811  1.3702
10311SOL    HW235328   2.605   1.784   0.664 -0.6756  0.3687 -1.6480
10312SOL     OW35329   7.350   8.596   2.454  0.1493  0.1418  0.2480
10312SOL    HW135330   7.300   8.611   2.540  1.4130 -1.2255  1.2486
10312SOL    HW235331   7.308   8.520   2.404 -1.1420  1.5113 -0.8233
10313SOL     OW35332   0.007   1.234   2.268 -0.5867  0.2117  0.4037
10313SOL    HW135333  -0.044   1.246   2.353 -2.9558 -2.0218 -0.6531
10313SOL    HW235334  -0.020   1.304   2.202 -1.6738 -0.4412  0.1486
10314SOL     OW35335   2.917   9.800   0.849  0.6858  0.2703  0.4579
10314SOL    HW135336   2.833   9.819   0.799  1.2623  1.8168  0.0454
10314SOL    HW235337   2.975   9.737   0.796 -0.5658 -1.5193  1.1444
10315SOL     OW35338   0.345   0.383   2.865 -0.5094  0.2385  0.2980
10315SOL    HW135339   0.431   0.357   2.909  0.2745 -0.3855 -1.5470
10315SOL    HW235340   0.283   0.305   2.863 -0.1768 -0.0060 -0.5509
10316SOL     OW35341   0.115   5.426   0.943  0.7034 -0.1217 -0.5784
10316SOL    HW135342   0.090   5.399   1.036  1.8841 -0.4155 -0.3372
10316SOL    HW235343   0.166   5.512   0.947  0.2670  0.1552 -1.0050
10317SOL     OW35344   4.745   7.078   3.376  0.1781  0.1346  0.6106
10317SOL    HW135345   4.792   7.024   3.306 -1.1887  1.1068 -1.0924
10317SOL    HW235346   4.810   7.141   3.419  1.0351 -0.4897  0.2412
10318SOL     OW35347   7.116   9.409   1.475  0.1910  0.5000  0.1338
10318SOL    HW135348   7.213   9.431   1.464  0.3016  0.0497  0.2056
10318SOL    HW235349   7.062   9.493   1.469  0.4715  0.6037 -1.2013
10319SOL     OW35350   1.153   8.511   2.944 -0.2849  0.5287  0.3456
10319SOL    HW135351   1.209   8.490   3.024 -0.6034 -0.9348  0.2068
10319SOL    HW235352   1.209   8.504   2.861 -0.4557 -0.0913  0.2771
10320SOL     OW35353   0.184   6.661   1.132 -0.4272 -0.0575 -0.4724
10320SOL    HW135354   0.093   6.684   1.166  0.0074  1.5724 -0.3491
10320SOL    HW235355   0.252   6.715   1.181  0.5645 -0.8733 -0.9351
10321SOL     OW35356   9.234   2.088   0.817  0.5626  0.7692 -0.5007
10321SOL    HW135357   9.271   1.997   0.840  0.4886  0.5310 -1.3154
10321SOL    HW235358   9.161   2.111   0.881  1.8551  1.0753  0.8877
10322SOL     OW35359   0.105   9.340   0.048 -0.3020 -0.0053  0.3625
10322SOL    HW135360   0.159   9.365   0.129  0.2517  4.2240 -1.1858
10322SOL    HW235361   0.018   9.389   0.050 -0.8526 -0.9129 -0.9306
10324SOL     OW35362   4.602   2.276   0.615  0.1592  0.2616  0.3773
10324SOL    HW135363   4.616   2.271   0.714 -2.7165 -0.1428  0.8078
10324SOL    HW235364   4.597   2.372   0.587 -0.7957  0.3892  0.9406
10325SOL     OW35365   2.025   7.985   1.285 -0.2690 -0.2080  0.4584
10325SOL    HW135366   2.042   7.933   1.201  1.3469  2.5686 -1.0189
10325SOL    HW235367   1.997   7.923   1.358  3.0017 -3.3303 -0.8149
10326SOL     OW35368   8.097   6.441   3.559  0.0844  0.5175 -0.0989
10326SOL    HW135369   8.110   6.448   3.460 -0.7026 -0.7505 -0.3032
10326SOL    HW235370   8.185   6.431   3.604  0.5335  2.1812 -0.5669
10328SOL     OW35371   2.967   3.643   2.375  0.0989  0.2377  0.1022
10328SOL    HW135372   3.001   3.640   2.281  1.6792 -0.3694  0.6769
10328SOL    HW235373   2.947   3.550   2.407  1.1233  0.2739  0.8969
10329SOL     OW35374   3.967   0.860   3.141  0.6716  0.3627 -0.2784
10329SOL    HW135375   4.022   0.916   3.202  0.2011  2.1206 -1.4270
10329SOL    HW235376   4.024   0.824   3.067  1.0349 -0.9524  0.6209
10330SOL     OW35377   7.186   9.470   0.322 -0.4877 -0.5226  0.3325
10330SOL    HW135378   7.272   9.519   0.305 -0.4653 -0.3586  0.8897
10330SOL    HW235379   7.178   9.393   0.259 -1.3935  1.2535 -1.7895
10331SOL     OW35380   0.064   9.940   2.060 -0.1245 -0.1054  0.4150
10331SOL    HW135381   0.109  10.009   2.116  0.9203  0.1534 -0.7370
10331SOL    HW235382  -0.028   9.972   2.037  0.3407  0.8877 -0.0831
10332SOL     OW35383   0.315   6.574   3.224  0.6097 -0.3332 -0.1209
10332SOL    HW135384   0.222   6.577   3.187  0.8576  2.0096 -0.6035
10332SOL    HW235385   0.313   6.529   3.314 -1.2318  0.9561  0.5198
10333SOL     OW35386   0.719   5.662   3.150  0.0478  0.0564 -0.1059
10333SOL    HW135387   0.627   5.650   3.188  0.3431  0.7134  0.8476
10333SOL    HW235388   0.717   5.644   3.052 -0.5086 -2.8594  0.3709
10334SOL     OW35389   7.251   4.868   0.559 -0.5142  0.1325  0.1553
10334SOL    HW135390   7.318   4.928   0.602  0.1238  0.6636 -1.5348
10334SOL    HW235391   7.194   4.921   0.496 -1.2770 -0.6553  0.1812
10335SOL     OW35392   2.037   3.450   3.293 -0.5022 -0.1560 -0.4730
10335SOL    HW135393   2.103   3.517   3.259 -1.7970  2.6435  2.1949
10335SOL    HW235394   1.968   3.432   3.223  0.0770  1.0188 -1.3666
10336SOL     OW35395   0.850   7.188   0.821 -0.8485  0.3823  0.1275
10336SOL    HW135396   0.751   7.175   0.825 -0.7126 -0.5460  0.6361
10336SOL    HW235397   0.889   7.124   0.755 -0.1074 -2.2807  3.0231
10337SOL     OW35398   7.486   5.467   3.035 -0.2191  0.5368 -0.3946
10337SOL    HW135399   7.462   5.527   3.112 -1.1908  0.6862 -0.8099
10337SOL    HW235400   7.404   5.445   2.983  0.1202 -1.2078 -0.2209
10338SOL     OW35401   1.408   8.107   1.954  0.3876  0.5733 -0.1570
10338SOL    HW135402   1.332   8.157   1.912 -0.4573  0.2438  0.9345
10338SOL    HW235403   1.379   8.013   1.972  0.9389  0.5446  0.5760
10340SOL     OW35404   0.466   2.661   2.266 -0.4552  0.2081  0.1299
10340SOL    HW135405   0.562   2.680   2.286  0.1034 -2.2483 -0.0974
10340SOL    HW235406   0.417   2.748   2.252  1.7613  1.4779  0.0071
10341SOL     OW35407   4.522   1.267   2.549  0.2072 -0.1568 -0.1845
10341SOL    HW135408   4.518   1.296   2.645 -1.2534  0.7371 -0.5000
10341SOL    HW235409   4.617   1.252   2.523  0.8191  1.9962  0.7120
10343SOL     OW35410   1.193   3.015   0.749  0.2486 -0.3037 -0.0329
10343SOL    HW135411   1.254   3.048   0.677  0.4816 -0.2335  0.1975
10343SOL    HW235412   1.192   2.915   0.750 -0.0615 -0.3060 -0.3948
10344SOL     OW35413   6.544   0.208   1.511 -0.3233  0.3071  0.1172
10344SOL    HW135414   6.549   0.218   1.611 -0.3475 -0.7759  0.2350
10344SOL    HW235415   6.629   0.167   1.477 -0.3501  0.5948 -0.2994
10345SOL     OW35416   8.813   5.886   1.860  0.1179 -0.4176  0.0849
10345SOL    HW135417   8.764   5.945   1.796  0.2568 -1.4830 -1.0288
10345SOL    HW235418   8.846   5.940   1.938 -1.2366  0.6374 -0.0605
10346SOL     OW35419   7.938   5.988   3.249  0.1790 -0.1305  0.3608
10346SOL    HW135420   7.955   6.055   3.321 -2.2057  1.4084 -0.4614
10346SOL    HW235421   7.886   5.911   3.286  0.7109 -0.3173  0.7256
10347SOL     OW35422   2.481   6.747   0.619  0.1589  0.2628 -0.5792
10347SOL    HW135423   2.482   6.846   0.627  1.6508  0.2212  0.0173
10347SOL    HW235424   2.548   6.708   0.683 -0.0078 -1.0893 -1.2056
10348SOL     OW35425   8.464   0.150   2.124  0.2271 -0.0890 -0.5997
10348SOL    HW135426   8.417   0.129   2.039 -0.8317  0.2664 -0.1110
10348SOL    HW235427   8.472   0.067   2.180 -0.8447  0.0913 -0.1817
10349SOL     OW35428   3.861   2.264   1.604 -0.0931 -0.2544 -0.3900
10349SOL    HW135429   3.879   2.358   1.576 -1.8700  0.2300  0.0388
10349SOL    HW235430   3.869   2.255   1.703 -0.7900 -0.3466 -0.3374
10351SOL     OW35431   8.964   4.552   0.611  0.1455 -0.2486  0.5396
10351SOL    HW135432   8.873   4.543   0.572  0.2125 -0.0199  0.3311
10351SOL    HW235433   8.963   4.621   0.684  0.5760  1.1532 -0.7691
10352SOL     OW35434   6.171   7.717   3.144 -0.1255  0.3532 -0.7902
10352SOL    HW135435   6.096   7.783   3.141 -0.6128 -0.0424  1.5179
10352SOL    HW235436   6.253   7.763   3.177  0.4920  0.6239 -2.6586
10353SOL     OW35437   7.463   1.299   2.269 -0.1795 -0.1618 -0.2401
10353SOL    HW135438   7.371   1.302   2.307 -0.8707  0.7724 -1.9085
10353SOL    HW235439   7.524   1.252   2.332 -1.3693  0.9298  1.7665
10354SOL     OW35440   0.480   8.393   3.032 -0.2550 -0.1822  0.0533
10354SOL    HW135441   0.439   8.481   3.056 -0.6821 -0.1585 -0.7439
10354SOL    HW235442   0.541   8.364   3.105  0.3327  1.0479  0.0678
10355SOL     OW35443   7.199   7.025   2.508  0.2768 -0.5791 -0.2624
10355SOL    HW135444   7.261   6.988   2.439 -0.7298 -2.4265 -0.1911
10355SOL    HW235445   7.116   7.059   2.463  0.1575 -0.6319 -0.0797
10356SOL     OW35446   0.706   1.384   1.352  1.2249  1.0041 -0.4847
10356SOL    HW135447   0.792   1.433   1.365  1.9262  0.0829 -1.5281
10356SOL    HW235448   0.723   1.286   1.352 -0.1143  0.7534  1.1843
10357SOL     OW35449   3.348   7.104   2.899  0.2400  0.4086  0.5343
10357SOL    HW135450   3.286   7.111   2.977  1.6473 -0.4020  1.7732
10357SOL    HW235451   3.441   7.085   2.933  1.0555  1.0516 -1.2939
10358SOL     OW35452   9.003   6.907   1.355  0.3785  0.1083 -0.2951
10358SOL    HW135453   9.020   6.915   1.454 -0.2913 -1.4281 -0.0429
10358SOL    HW235454   8.978   6.813   1.333  1.5086  0.1984 -2.0957
10359SOL     OW35455   8.027   1.353   3.065  0.1205  0.1869 -0.3187
10359SOL    HW135456   7.980   1.425   3.117 -1.1842 -0.7773 -0.1297
10359SOL    HW235457   8.126   1.362   3.079 -0.1828  0.0349  2.2652
10360SOL     OW35458   7.353   8.471   3.681  0.8526 -0.0988 -0.0534
10360SOL    HW135459   7.265   8.473   3.727  0.4934 -4.0903 -0.4061
10360SOL    HW235460   7.420   8.521   3.736 -1.2511  1.7376  0.9266
10361SOL     OW35461   0.538   7.180   2.276  0.7188 -0.2376 -0.3198
10361SOL    HW135462   0.546   7.101   2.214  0.8474 -1.2108  0.9079
10361SOL    HW235463   0.451   7.226   2.260  0.6915 -0.5563 -1.1268
10363SOL     OW35464   9.119   4.799   3.179 -0.2978 -0.0581  0.0733
10363SOL    HW135465   9.139   4.896   3.188 -0.9272  0.3092 -2.1009
10363SOL    HW235466   9.165   4.763   3.098 -2.0423 -0.9963 -0.5376
10364SOL     OW35467   2.405   4.687   2.837  0.1951 -0.0705 -0.0485
10364SOL    HW135468   2.434   4.695   2.933  1.8987 -2.4369 -0.3168
10364SOL    HW235469   2.471   4.631   2.787 -1.2855  0.1876 -2.3537
10365SOL     OW35470   9.431   3.797   0.508 -0.0981 -0.6644  0.0789
10365SOL    HW135471   9.491   3.818   0.585 -0.3377  0.6003 -0.0710
10365SOL    HW235472   9.373   3.719   0.532 -0.3052 -0.1624  1.2600
10366SOL     OW35473   2.605   0.098   1.807 -0.3972  0.2851 -0.1953
10366SOL    HW135474   2.588   0.102   1.905 -0.8442  1.4394 -0.3055
10366SOL    HW235475   2.699   0.127   1.788  0.8238 -3.2015  0.1569
10367SOL     OW35476   1.778   6.113   3.353  0.1742  0.0461 -0.0289
10367SOL    HW135477   1.763   6.015   3.363 -2.6545  0.3983 -0.2735
10367SOL    HW235478   1.799   6.134   3.257  1.1829 -0.3517  0.1012
10368SOL     OW35479   1.536   7.518   3.458  0.0740 -0.1494  0.3733
10368SOL    HW135480   1.489   7.435   3.487 -0.0830 -0.6527 -1.2356
10368SOL    HW235481   1.483   7.598   3.483 -0.8930 -0.6457 -0.0779
10370SOL     OW35482   8.454   7.712   2.639  0.5023  0.0501  0.4316
10370SOL    HW135483   8.398   7.725   2.557 -0.0067  0.9241  0.9011
10370SOL    HW235484   8.394   7.699   2.719  0.9451  1.1537  0.9636
10372SOL     OW35485   3.442   4.827   1.161 -0.4893 -0.5239 -0.2153
10372SOL    HW135486   3.502   4.803   1.237 -1.0322 -2.9914 -0.5453
10372SOL    HW235487   3.446   4.926   1.145  0.8486 -0.2129  1.9692
10373SOL     OW35488   5.328   1.202   2.674  0.0909 -0.3367  0.4905
10373SOL    HW135489   5.264   1.157   2.613 -0.8272  0.9262  0.5153
10373SOL    HW235490   5.385   1.133   2.719 -1.5797 -1.5041  0.8554
10374SOL     OW35491   1.381   6.649   3.305  0.2527 -0.2952 -0.2555
10374SOL    HW135492   1.376   6.704   3.388 -0.5686  0.9765 -1.1197
10374SOL    HW235493   1.476   6.627   3.284  0.4118 -1.2299  1.4007
10375SOL     OW35494   2.663   8.872   0.317 -0.3667 -0.6000 -0.1392
10375SOL    HW135495   2.615   8.910   0.238 -0.2927  0.8096  0.4821
10375SOL    HW235496   2.599   8.823   0.376 -0.5982 -0.8111 -0.5712
10376SOL     OW35497   3.689   4.567   0.617 -0.1463 -0.0168 -0.3480
10376SOL    HW135498   3.743   4.534   0.539 -0.7889  1.1296 -1.3081
10376SOL    HW235499   3.710   4.663   0.635 -0.8481  0.0546  0.1401
10377SOL     OW35500   0.227   3.191   2.821  0.0173 -0.1162 -0.2057
10377SOL    HW135501   0.300   3.257   2.803 -0.1549  0.2599  0.4537
10377SOL    HW235502   0.139   3.235   2.806 -0.0855 -0.4317 -0.5342
10379SOL     OW35503   8.243   3.340   1.547  0.3108 -0.4117 -0.0055
10379SOL    HW135504   8.307   3.265   1.565  0.8778  0.1579  0.3661
10379SOL    HW235505   8.222   3.344   1.450  1.8781  0.2313 -0.3303
10381SOL     OW35506   0.858   6.076   0.176 -0.4596  0.5169  0.0247
10381SOL    HW135507   0.829   6.154   0.121 -0.0147  1.2823  0.8639
10381SOL    HW235508   0.940   6.035   0.136 -2.3413 -1.3073 -2.0387
10382SOL     OW35509   2.197   4.006   1.501  0.3829  0.1402 -0.3642
10382SOL    HW135510   2.271   4.043   1.556  0.7551  0.0914 -0.8237
10382SOL    HW235511   2.155   4.079   1.448 -0.6630  0.3710  0.7634
10383SOL     OW35512   1.320   9.038   1.502  0.8140  0.0370 -0.2095
10383SOL    HW135513   1.337   9.134   1.527 -0.8095  0.9319 -2.3545
10383SOL    HW235514   1.306   8.984   1.584  0.2706  1.9619  0.9971
10386SOL     OW35515   9.469   0.286   3.425  0.1121  0.1036 -0.0560
10386SOL    HW135516   9.491   0.383   3.413 -1.9692  0.5359 -0.6299
10386SOL    HW235517   9.443   0.269   3.520  0.1564  0.1747 -0.0307
10387SOL     OW35518   9.051   5.576   2.647 -0.2472  0.5067  0.1037
10387SOL    HW135519   9.023   5.623   2.731 -1.1886 -0.7512  0.5197
10387SOL    HW235520   8.974   5.522   2.612  0.6593 -0.3549 -0.5982
10389SOL     OW35521   5.226   7.187   2.636 -0.5455  0.0724 -0.6406
10389SOL    HW135522   5.131   7.201   2.609 -1.1458 -0.1942  1.2168
10389SOL    HW235523   5.255   7.260   2.698 -0.2090 -0.9476  0.4312
10390SOL     OW35524   3.395   7.238   3.675  0.6205 -0.6866  0.8332
10390SOL    HW135525   3.438   7.313   3.625 -1.3297  0.4127  0.7477
10390SOL    HW235526   3.409   7.152   3.626 -0.8675  0.2968 -1.4060
10391SOL     OW35527   9.606   7.571   1.710 -0.5371 -0.5563 -0.0078
10391SOL    HW135528   9.526   7.546   1.655  0.0125 -2.8838  0.1965
10391SOL    HW235529   9.629   7.495   1.771 -1.7877  2.3357  4.2606
10392SOL     OW35530   8.027   9.041   2.655  0.0446  0.0478  0.3800
10392SOL    HW135531   7.952   9.020   2.719  1.8109 -1.1307  2.1049
10392SOL    HW235532   8.004   9.006   2.565 -1.2205 -0.8469  1.0289
10394SOL     OW35533   8.852   7.296   2.420 -0.3723 -0.7151  1.1777
10394SOL    HW135534   8.813   7.376   2.466  0.9215 -1.3317  3.4222
10394SOL    HW235535   8.828   7.214   2.470 -0.0377 -1.5580 -0.0165
10397SOL     OW35536   0.046   3.937   2.993  0.4259  0.1138 -0.1123
10397SOL    HW135537  -0.026   3.972   3.053  0.3436  0.6072 -0.4972
10397SOL    HW235538   0.062   3.840   3.014 -0.3594 -0.0031 -0.0284
10398SOL     OW35539   3.872   0.131   1.077  0.4980 -0.3178  0.3790
10398SOL    HW135540   3.777   0.157   1.059  0.6915 -0.7277 -1.3047
10398SOL    HW235541   3.881   0.100   1.171 -0.5663  1.8929  1.2348
10399SOL     OW35542   3.223   9.068   1.638 -0.2474 -0.3516 -0.2342
10399SOL    HW135543   3.162   9.026   1.705 -0.4477  0.3497  0.0236
10399SOL    HW235544   3.225   9.012   1.555 -0.0661 -1.1761  0.3209
10400SOL     OW35545   5.297   3.536   0.319 -0.0350  0.0578 -0.0113
10400SOL    HW135546   5.243   3.586   0.252  0.2667 -1.0301 -1.0911
10400SOL    HW235547   5.237   3.483   0.379 -0.2123 -0.7294 -0.8693
10401SOL     OW35548   9.487   9.787   0.085  0.5267  0.5485  0.3702
10401SOL    HW135549   9.525   9.847   0.155  0.2267 -0.7536  1.6741
10401SOL    HW235550   9.511   9.821  -0.005  0.2534  2.6915  1.0921
10402SOL     OW35551   3.433   1.086   1.236 -0.1576 -0.1552 -0.1211
10402SOL    HW135552   3.527   1.119   1.223 -0.2125 -0.1163 -0.4267
10402SOL    HW235553   3.431   0.987   1.226  0.1957 -0.3892  1.8691
10403SOL     OW35554   8.350   1.281   0.014  0.0173  0.0619 -0.3843
10403SOL    HW135555   8.442   1.268  -0.024  0.2319 -0.8897  0.4558
10403SOL    HW235556   8.341   1.375   0.046  1.0450 -0.1134  0.4499
10405SOL     OW35557   6.526   8.536   1.421 -0.3075 -0.1092 -0.4187
10405SOL    HW135558   6.494   8.630   1.434  1.4223  0.5257 -0.5550
10405SOL    HW235559   6.615   8.538   1.375  0.3105 -1.7631  0.6724
10406SOL     OW35560   4.686   4.391   1.388 -0.8449  0.6107 -0.0122
10406SOL    HW135561   4.644   4.481   1.380 -2.2252 -0.0448 -0.2922
10406SOL    HW235562   4.681   4.344   1.300 -1.1704 -0.1903  0.4287
10407SOL     OW35563   0.199   7.006   3.743  0.1515  0.1887  0.0235
10407SOL    HW135564   0.257   7.070   3.793 -0.0102  0.2756  0.0999
10407SOL    HW235565   0.246   6.918   3.733 -0.0189  0.0103  0.7617
10409SOL     OW35566   8.961   2.520   1.943  0.3005 -0.3890  0.5940
10409SOL    HW135567   9.042   2.580   1.952  0.0889  0.1768 -1.1431
10409SOL    HW235568   8.987   2.436   1.896  0.0912 -0.6595  0.9604
10410SOL     OW35569   3.481   0.689   0.761 -0.6527  0.4331 -0.3208
10410SOL    HW135570   3.467   0.771   0.817  0.2193  0.7431 -0.5513
10410SOL    HW235571   3.579   0.679   0.741 -0.6539 -1.1364  0.4218
10411SOL     OW35572   3.847   3.455   1.149  1.1409  0.1911 -0.1695
10411SOL    HW135573   3.932   3.409   1.175  0.2432 -0.9932  0.7170
10411SOL    HW235574   3.805   3.496   1.230  0.1219 -0.5013 -0.3317
10412SOL     OW35575   1.016   9.161   1.664 -0.1325  0.0250  0.0788
10412SOL    HW135576   0.958   9.228   1.712  1.1105  0.7892  0.5375
10412SOL    HW235577   1.006   9.071   1.707 -1.2640  0.0644 -0.0860
10413SOL     OW35578   0.563   9.460   2.210  0.0457 -0.1731 -0.4277
10413SOL    HW135579   0.488   9.527   2.210  0.7952  0.6710 -0.7983
10413SOL    HW235580   0.526   9.369   2.230 -0.8916  0.4428  0.7388
10414SOL     OW35581   8.975   9.268   2.009 -0.5094 -0.4745  0.8062
10414SOL    HW135582   8.958   9.246   2.105 -1.4714 -0.3269  0.6732
10414SOL    HW235583   8.992   9.366   1.999  1.1320 -0.7105  1.0266
10415SOL     OW35584   2.430   5.966   3.008  0.3901 -0.1279  0.6992
10415SOL    HW135585   2.400   6.044   3.064 -0.6690  0.0861 -0.1629
10415SOL    HW235586   2.351   5.923   2.966  1.0149 -1.4744  0.8939
10416SOL     OW35587   2.367   9.777   2.260 -0.2904 -0.4562 -0.1375
10416SOL    HW135588   2.387   9.875   2.269 -0.9038 -0.4624  1.3870
10416SOL    HW235589   2.280   9.765   2.213  0.5260 -0.3144 -1.7235
10418SOL     OW35590   9.879   2.168   0.810 -0.0553  0.0329 -0.1244
10418SOL    HW135591   9.820   2.246   0.832  0.3592  0.1812  0.4634
10418SOL    HW235592   9.916   2.178   0.718  0.3650  0.7582  0.1228
10419SOL     OW35593   2.248   3.885   2.202 -0.9958 -0.6055  1.0676
10419SOL    HW135594   2.246   3.785   2.198  0.9488 -0.6843  1.7127
10419SOL    HW235595   2.302   3.914   2.281  0.2126  0.9588 -0.3026
10420SOL     OW35596   3.258   1.785   3.267 -0.3298  0.5917  0.6954
10420SOL    HW135597   3.190   1.768   3.339 -1.8034  1.3582 -0.4835
10420SOL    HW235598   3.213   1.825   3.187  1.0977 -1.1329 -1.0356
10421SOL     OW35599   8.325   0.773   0.137  0.4172 -0.4979  0.1983
10421SOL    HW135600   8.282   0.720   0.064 -0.9852 -0.1803  0.7609
10421SOL    HW235601   8.306   0.871   0.123  0.5036 -0.4003  0.7541
10422SOL     OW35602   8.209   7.365   2.807  0.1614 -0.3209  0.8563
10422SOL    HW135603   8.127   7.400   2.762  0.3563  2.8553  2.8322
10422SOL    HW235604   8.183   7.292   2.870 -1.3915  1.4724  2.3780
10423SOL     OW35605   6.351   7.258   1.924 -0.3778 -0.1839 -0.1762
10423SOL    HW135606   6.258   7.281   1.953 -0.5562 -1.9742  0.7059
10423SOL    HW235607   6.388   7.333   1.868 -1.8094  1.1823  0.6634
10424SOL     OW35608   3.859   1.405   1.909  0.6390  0.0123 -0.2209
10424SOL    HW135609   3.907   1.436   1.827  1.1338 -0.8543 -0.2551
10424SOL    HW235610   3.878   1.309   1.926 -1.9061 -0.6397 -0.8228
10425SOL     OW35611   4.843   2.558   0.424 -0.4702  0.5462 -0.2497
10425SOL    HW135612   4.892   2.630   0.375 -1.2172  0.4542 -1.1531
10425SOL    HW235613   4.866   2.469   0.384 -0.6168  0.4158 -0.0433
10426SOL     OW35614   9.711   5.425   1.243  0.4051  0.0372  0.4265
10426SOL    HW135615   9.715   5.360   1.168  0.0287  0.8438 -0.2964
10426SOL    HW235616   9.768   5.504   1.222  0.3340  0.2449  1.0070
10427SOL     OW35617   9.572   6.841   0.726  0.5046 -0.2064  0.0687
10427SOL    HW135618   9.480   6.813   0.751  0.9388  0.0202  2.0319
10427SOL    HW235619   9.626   6.761   0.701 -0.0218 -0.4233 -0.3685
10429SOL     OW35620   3.867   7.417   2.809  0.0642  0.2850 -0.0077
10429SOL    HW135621   3.924   7.408   2.891 -0.5869  1.2569  0.5720
10429SOL    HW235622   3.788   7.357   2.816  0.6083 -0.4858 -0.4547
10431SOL     OW35623   7.737   0.051   2.422 -0.2075 -0.4958 -0.1715
10431SOL    HW135624   7.658   0.093   2.465  0.7274 -0.9191  2.0280
10431SOL    HW235625   7.784  -0.007   2.488  1.6830 -0.6083 -1.5683
10434SOL     OW35626   1.669   7.465   0.711 -0.5564  0.8037  0.3045
10434SOL    HW135627   1.691   7.452   0.808 -1.7143 -1.5039  0.2927
10434SOL    HW235628   1.725   7.539   0.674  3.0841 -1.1642  1.6083
10435SOL     OW35629   8.458   5.225   1.100  0.8394  0.4058  0.3477
10435SOL    HW135630   8.555   5.203   1.101  0.4518 -1.4571 -0.5040
10435SOL    HW235631   8.412   5.177   1.174  0.4433  0.6102  0.2350
10436SOL     OW35632   8.085   5.103   0.501  0.3825 -0.0689 -0.2422
10436SOL    HW135633   8.002   5.155   0.481  0.4722 -0.0119 -0.4758
10436SOL    HW235634   8.165   5.152   0.465  0.6712  0.6040  1.2770
10437SOL     OW35635   3.508   1.977   0.344  0.3830  0.1606 -0.2724
10437SOL    HW135636   3.561   1.915   0.286  3.0802  1.0695  1.1051
10437SOL    HW235637   3.465   1.925   0.418  1.2735 -0.2988 -0.0697
10438SOL     OW35638   8.373   6.304   2.849  0.4901  0.1446 -0.1075
10438SOL    HW135639   8.453   6.262   2.806  0.7977 -2.0291  2.4744
10438SOL    HW235640   8.290   6.258   2.817  0.7624 -1.8901  2.0038
10440SOL     OW35641   6.269   1.128   2.193 -0.0992  0.3279 -0.1259
10440SOL    HW135642   6.283   1.149   2.096 -0.7675 -0.1000 -0.3203
10440SOL    HW235643   6.316   1.042   2.215  1.0259  1.0177  0.2125
10441SOL     OW35644   8.308   9.569   0.283 -0.5873  0.0289  0.7166
10441SOL    HW135645   8.225   9.513   0.283  0.8695 -2.1996  0.3377
10441SOL    HW235646   8.308   9.627   0.365 -3.0177  0.8767  0.1630
10442SOL     OW35647   7.767   1.345   3.388 -0.2361  0.3155 -0.0340
10442SOL    HW135648   7.734   1.328   3.295  1.2321  4.1345 -1.3215
10442SOL    HW235649   7.857   1.302   3.400 -0.8892 -1.0689  0.0023
10443SOL     OW35650   9.787   1.964   1.552 -0.6010  0.6339  0.0887
10443SOL    HW135651   9.771   2.040   1.615 -0.3179  1.0894 -0.3815
10443SOL    HW235652   9.881   1.969   1.517 -0.4130 -0.2219  0.4431
10444SOL     OW35653   2.387   8.735   1.555 -0.0796 -0.1654  0.1163
10444SOL    HW135654   2.353   8.818   1.510 -0.0852 -0.6232 -0.7245
10444SOL    HW235655   2.418   8.670   1.486 -0.6984 -1.1421  0.7425
10447SOL     OW35656   8.047   1.902   2.996  0.1779  0.1758  0.0401
10447SOL    HW135657   8.092   1.893   3.085 -1.7503  0.6801  1.0838
10447SOL    HW235658   8.082   1.983   2.949  1.5807 -0.3809  0.1016
10448SOL     OW35659   4.103   7.572   0.343 -0.0616 -0.4754  0.7378
10448SOL    HW135660   4.121   7.480   0.308  0.2279  0.0489 -0.4742
10448SOL    HW235661   4.121   7.640   0.273  0.2855  0.5672  1.8131
10449SOL     OW35662   3.036   2.535   3.275 -0.6815 -0.0315  0.1845
10449SOL    HW135663   3.038   2.496   3.183  1.9238  1.3195 -0.3743
10449SOL    HW235664   3.095   2.615   3.279 -0.7122 -0.0930  3.0569
10450SOL     OW35665   2.223   3.640   3.590 -0.0643  0.3718  0.6765
10450SOL    HW135666   2.134   3.675   3.621 -0.4713 -1.7661  2.0511
10450SOL    HW235667   2.232   3.545   3.618  1.8160 -0.0519 -1.2747
10451SOL     OW35668   2.348   2.967   2.854  0.3676  0.6877  0.1153
10451SOL    HW135669   2.319   2.880   2.813 -0.3327  0.2597  1.4804
10451SOL    HW235670   2.447   2.968   2.864  0.2218 -0.9583  2.2038
10452SOL     OW35671   7.589   6.492   2.481  0.0767 -0.0622  0.1174
10452SOL    HW135672   7.505   6.508   2.533 -0.4315  1.0824 -1.0365
10452SOL    HW235673   7.596   6.395   2.458 -0.8302 -0.1921  0.3902
10453SOL     OW35674   0.568   0.495   2.597  0.0389 -0.3547  0.1201
10453SOL    HW135675   0.483   0.528   2.638 -1.2249 -3.0305 -0.2545
10453SOL    HW235676   0.634   0.475   2.669 -0.9796 -1.7961  0.6794
10454SOL     OW35677   4.306   8.537   3.720  0.3567  0.1519 -0.5285
10454SOL    HW135678   4.317   8.484   3.804  1.8487  0.9826 -0.1771
10454SOL    HW235679   4.305   8.475   3.641  1.2877 -0.4527 -0.0675
10455SOL     OW35680   5.961   8.405   2.834  0.1831 -0.0778  0.0211
10455SOL    HW135681   5.899   8.442   2.765  0.5740 -1.2578 -0.9906
10455SOL    HW235682   5.999   8.479   2.888 -0.3517  0.8463 -0.8516
10456SOL     OW35683   9.479   1.714   2.794  0.1415  0.3758 -1.0947
10456SOL    HW135684   9.551   1.678   2.853  0.6150 -1.5884 -2.8319
10456SOL    HW235685   9.398   1.735   2.850  0.1793 -2.5272  0.1291
10457SOL     OW35686   7.196   7.275   3.400 -0.0186  0.9288 -0.0360
10457SOL    HW135687   7.110   7.230   3.374  0.3947  0.3394 -0.4007
10457SOL    HW235688   7.236   7.227   3.478 -0.9700  2.3556  1.3515
10458SOL     OW35689   1.645   2.700   2.027 -0.3382  0.2254  0.4032
10458SOL    HW135690   1.730   2.650   2.041 -1.0728 -0.7306  1.5035
10458SOL    HW235691   1.567   2.639   2.041 -1.2074  0.6476 -2.3065
10459SOL     OW35692   9.628   8.002   0.669  0.0654 -0.2494 -0.2668
10459SOL    HW135693   9.712   8.040   0.708  0.6879 -0.8594 -1.0064
10459SOL    HW235694   9.555   8.070   0.675  0.2736 -0.1818  1.5365
10460SOL     OW35695   7.859   6.744   3.250  0.9020  0.2187 -0.5102
10460SOL    HW135696   7.826   6.823   3.199 -0.6496 -0.3649 -0.4423
10460SOL    HW235697   7.907   6.774   3.331  1.4731  1.1181 -1.1736
10461SOL     OW35698   7.280   1.070   3.278  0.5044 -0.8351  0.7371
10461SOL    HW135699   7.295   1.138   3.350  1.5488 -1.8465  1.4859
10461SOL    HW235700   7.367   1.045   3.236 -0.0657 -0.4450 -0.7315
10462SOL     OW35701   9.654   5.643   2.948 -0.0896  0.9812 -1.0375
10462SOL    HW135702   9.651   5.544   2.940 -1.4932  0.7106  2.2360
10462SOL    HW235703   9.746   5.672   2.973 -0.4969  0.1431  1.5966
10463SOL     OW35704   7.757   0.500   0.604  0.3571 -0.5168  0.3720
10463SOL    HW135705   7.778   0.554   0.522 -0.2206 -1.2069 -0.2381
10463SOL    HW235706   7.758   0.559   0.685 -0.8010  0.5178 -0.3579
10465SOL     OW35707   9.028   9.852   0.780 -0.0051 -0.0088 -0.0586
10465SOL    HW135708   8.942   9.822   0.740  0.7072 -0.3795 -1.3278
10465SOL    HW235709   9.059   9.936   0.734 -0.4246  0.9683  1.3928
10466SOL     OW35710   8.397   4.393   2.693  0.1200  0.0753 -0.1696
10466SOL    HW135711   8.419   4.302   2.728  0.4189  0.2048 -0.0220
10466SOL    HW235712   8.360   4.385   2.601 -0.7913 -0.2819  0.2160
10467SOL     OW35713   4.478   7.905   2.731 -0.3522 -0.1720 -0.8952
10467SOL    HW135714   4.499   7.940   2.639 -1.9968 -1.7893 -1.9276
10467SOL    HW235715   4.385   7.931   2.756 -0.1510 -0.3223  0.0323
10468SOL     OW35716   5.713   0.717   2.272 -0.8822 -0.1307 -0.6394
10468SOL    HW135717   5.701   0.776   2.192  0.3819  0.2321 -0.5804
10468SOL    HW235718   5.689   0.624   2.248  2.4782 -0.6427 -2.4297
10469SOL     OW35719   8.432   2.538   3.696 -0.2343  0.0443 -0.1444
10469SOL    HW135720   8.456   2.471   3.767 -0.2601 -0.3414 -0.4948
10469SOL    HW235721   8.472   2.627   3.719  4.2629 -1.2672 -2.2707
10470SOL     OW35722   0.788   7.342   3.181 -0.5473 -0.1524 -0.4414
10470SOL    HW135723   0.702   7.385   3.210 -1.7944 -3.0525  0.3730
10470SOL    HW235724   0.784   7.322   3.083 -0.0751  1.2761 -0.7644
10471SOL     OW35725   5.088   9.185   3.050  0.7159  0.1559 -0.2870
10471SOL    HW135726   5.091   9.250   3.126  2.2562 -1.1407  0.8138
10471SOL    HW235727   5.069   9.093   3.086 -0.1275 -0.2236 -1.6614
10472SOL     OW35728   9.452   8.909   1.902 -0.0581 -0.0035  0.1594
10472SOL    HW135729   9.536   8.866   1.869 -0.3286 -0.4709  0.0776
10472SOL    HW235730   9.385   8.911   1.829  0.3107  1.5235 -0.1581
10473SOL     OW35731   4.525   6.536   2.073 -0.1722  0.7191 -0.0640
10473SOL    HW135732   4.493   6.488   2.154  1.0778  1.4890  0.9041
10473SOL    HW235733   4.446   6.567   2.019 -0.9924 -1.2508 -0.0284
10474SOL     OW35734   3.299   3.661   2.873  0.0235  0.1118 -0.2827
10474SOL    HW135735   3.210   3.629   2.842  0.5912 -1.7192 -0.0683
10474SOL    HW235736   3.332   3.732   2.811 -0.8392 -0.3623 -1.2960
10476SOL     OW35737   8.702   2.356   2.193 -0.2391  0.0327  0.0300
10476SOL    HW135738   8.763   2.278   2.176 -2.5988 -1.6342 -1.0529
10476SOL    HW235739   8.678   2.358   2.290  1.2321  0.4895  0.3954
10477SOL     OW35740   3.503   9.459   1.720 -0.4175  0.4305  0.0085
10477SOL    HW135741   3.432   9.425   1.659 -1.1005 -0.0368  1.0536
10477SOL    HW235742   3.588   9.407   1.706 -0.5179  0.4440 -0.6591
10478SOL     OW35743   2.963   8.125   0.353  0.2314 -0.2640 -0.0534
10478SOL    HW135744   2.920   8.174   0.277 -0.6200  0.4404  0.8663
10478SOL    HW235745   2.903   8.128   0.433  2.6908  2.2823  1.8327
10479SOL     OW35746   3.025   6.285   3.115  0.3348  0.3761 -0.0207
10479SOL    HW135747   3.025   6.384   3.129  1.1234  0.2661  0.8101
10479SOL    HW235748   3.116   6.255   3.087 -0.0115 -0.0599 -0.7070
10480SOL     OW35749   9.504   3.102   2.034  0.1588 -0.2614  0.2062
10480SOL    HW135750   9.481   3.198   2.048 -0.5355 -0.4934  0.6908
10480SOL    HW235751   9.490   3.052   2.120 -0.1976 -0.9363 -0.2460
10481SOL     OW35752   9.516   4.307   3.520 -0.7998  0.0880 -0.5927
10481SOL    HW135753   9.501   4.370   3.444  0.2564 -1.1802 -1.8753
10481SOL    HW235754   9.553   4.220   3.486 -1.6515 -1.0216  1.2092
10482SOL     OW35755   3.184   5.959   3.716 -0.1546  0.4533 -0.2576
10482SOL    HW135756   3.245   5.892   3.760  1.8560  3.1936  1.3214
10482SOL    HW235757   3.226   5.992   3.632  0.1080  1.6251  0.3226
10483SOL     OW35758   1.367   6.007   3.754 -0.1748 -0.4275  0.4894
10483SOL    HW135759   1.456   5.991   3.796 -0.4699 -1.0903  0.8718
10483SOL    HW235760   1.295   5.998   3.824 -0.5816 -0.4539  0.0725
10484SOL     OW35761   2.364   9.462   3.570 -0.7330 -0.1539  0.2752
10484SOL    HW135762   2.448   9.500   3.608 -0.6091 -0.0401 -0.1062
10484SOL    HW235763   2.356   9.366   3.596  0.9475 -0.9567 -1.9950
10485SOL     OW35764   8.629   0.423   2.408  0.3839 -0.2512 -0.6366
10485SOL    HW135765   8.614   0.522   2.411 -1.5744 -0.5645  1.9626
10485SOL    HW235766   8.551   0.378   2.364 -1.0144 -0.9467  2.3707
10486SOL     OW35767   4.324   2.373   0.707 -0.2858  0.2011  0.0871
10486SOL    HW135768   4.247   2.343   0.764 -0.1259 -0.5553 -0.0816
10486SOL    HW235769   4.410   2.352   0.754 -0.1792  0.8053  0.1593
10487SOL     OW35770   8.177   1.070   1.512  0.1010 -0.5406  0.6870
10487SOL    HW135771   8.183   0.979   1.554  0.1747 -0.5070  0.7490
10487SOL    HW235772   8.261   1.087   1.459  0.5413 -0.0854  1.5176
10489SOL     OW35773   8.502   4.233   0.133 -0.4031 -0.1203  0.0188
10489SOL    HW135774   8.451   4.154   0.167  0.2462 -1.0270 -1.0894
10489SOL    HW235775   8.487   4.311   0.194 -0.8834 -1.1503  1.2323
10491SOL     OW35776   0.544   1.863   3.068 -0.1242  0.5229  0.1577
10491SOL    HW135777   0.560   1.898   2.976  0.5846  0.3102  0.1970
10491SOL    HW235778   0.535   1.939   3.132  0.3282  0.6511  0.0676
10492SOL     OW35779   9.498   5.655   0.391 -0.6640  0.0257 -0.0150
10492SOL    HW135780   9.477   5.745   0.429  0.2657  0.2779 -0.0619
10492SOL    HW235781   9.531   5.666   0.297 -1.7479 -0.4784 -0.4590
10495SOL     OW35782   2.122   6.754   1.120  0.6159  0.4188 -0.1231
10495SOL    HW135783   2.185   6.781   1.048  1.1367  0.5698  0.3820
10495SOL    HW235784   2.068   6.676   1.090 -0.0487  1.2647 -1.1409
10496SOL     OW35785   8.005   4.212   0.424 -0.0924  0.4153 -0.2491
10496SOL    HW135786   8.023   4.281   0.354  0.6161  0.1742 -0.3095
10496SOL    HW235787   7.907   4.198   0.433 -0.2732  1.9575  0.2733
10497SOL     OW35788   3.778   0.343   1.494  0.2863 -0.0341  0.5075
10497SOL    HW135789   3.747   0.385   1.408  0.8380 -0.2357  0.2065
10497SOL    HW235790   3.717   0.370   1.568 -0.7426 -0.6275 -0.1220
10499SOL     OW35791   4.119   3.060   2.889  0.4010 -0.5317 -0.2637
10499SOL    HW135792   4.105   3.053   2.988  1.8605 -0.7650 -0.0624
10499SOL    HW235793   4.071   3.141   2.855 -0.3951 -0.6338  0.5686
10500SOL     OW35794   2.389   9.579   2.900  0.1246  0.0821  0.0989
10500SOL    HW135795   2.383   9.483   2.926  2.0270 -0.5617 -1.6891
10500SOL    HW235796   2.298   9.616   2.884 -0.7200 -0.9821  2.2856
10501SOL     OW35797   2.808   9.190   1.797  0.3370 -0.6937 -0.3906
10501SOL    HW135798   2.778   9.109   1.745  0.0526 -1.0067  0.2466
10501SOL    HW235799   2.862   9.160   1.876 -0.5498 -0.3194  0.3656
10502SOL     OW35800   8.239   5.849   2.362  0.0768 -0.1908 -0.2240
10502SOL    HW135801   8.230   5.867   2.460 -0.9933 -2.4553  0.1401
10502SOL    HW235802   8.329   5.810   2.342 -0.7541 -2.5249  0.3747
10503SOL     OW35803   3.194   8.037   2.059 -0.2980 -0.4478  0.1951
10503SOL    HW135804   3.235   8.069   1.974  1.2297 -0.6428  0.8394
10503SOL    HW235805   3.135   8.109   2.096 -0.9327 -0.3416 -0.9897
10504SOL     OW35806   7.790   5.327   2.551 -0.0974  0.2862  0.4406
10504SOL    HW135807   7.724   5.347   2.624  1.7068  0.4494  2.0792
10504SOL    HW235808   7.794   5.404   2.488 -1.1264  0.4680  0.5915
10505SOL     OW35809   9.557   8.503   2.395  0.4413  0.4092  0.2220
10505SOL    HW135810   9.653   8.476   2.397  1.3149  2.6736 -5.0113
10505SOL    HW235811   9.550   8.602   2.400 -1.6719  0.2812  0.4560
10506SOL     OW35812   1.111   6.265   1.573  0.4444 -0.1390 -0.0263
10506SOL    HW135813   1.145   6.172   1.555 -0.3816 -0.3633 -0.4494
10506SOL    HW235814   1.073   6.268   1.665  0.4179 -0.2366 -0.0332
10507SOL     OW35815   9.911   0.325   2.960  0.2755 -0.5656 -0.5258
10507SOL    HW135816   9.968   0.249   2.991 -0.7233 -1.8004 -1.6442
10507SOL    HW235817   9.814   0.299   2.969 -0.2402  2.3299  3.5131
10509SOL     OW35818   9.276   4.403   3.134 -0.6802  0.0423  0.8892
10509SOL    HW135819   9.285   4.309   3.167 -0.4120  0.1116  1.0127
10509SOL    HW235820   9.254   4.402   3.037 -0.3428 -0.1433  0.8126
10510SOL     OW35821   8.729   5.386   2.961 -0.5405 -0.5587  0.0029
10510SOL    HW135822   8.658   5.382   3.031 -0.7510  2.3292  0.0011
10510SOL    HW235823   8.819   5.378   3.006 -0.5920  3.0559  0.8840
10512SOL     OW35824   2.238   5.147   0.838  0.2777 -0.1498  0.1605
10512SOL    HW135825   2.233   5.100   0.927 -2.1106  0.5085  0.4084
10512SOL    HW235826   2.324   5.124   0.793  2.1347  0.4972  3.2049
10513SOL     OW35827   1.466   1.762   0.925  0.5765  0.2400 -0.0620
10513SOL    HW135828   1.407   1.801   0.854  0.6751 -1.2465 -0.9760
10513SOL    HW235829   1.465   1.821   1.005 -4.1131 -0.9618  0.9020
10514SOL     OW35830   9.209   0.278   3.207 -0.4387  0.2168  0.1088
10514SOL    HW135831   9.171   0.319   3.290  0.7727  3.7362 -0.9824
10514SOL    HW235832   9.190   0.336   3.129 -0.8083 -2.6274 -1.9970
10515SOL     OW35833   9.548   4.320   1.879  0.1669 -0.0185 -0.5896
10515SOL    HW135834   9.560   4.248   1.811  1.0839 -0.5169  0.0850
10515SOL    HW235835   9.638   4.355   1.907 -0.1284 -0.7339  1.3187
10516SOL     OW35836   0.635   6.634   2.288  0.3519  0.4346  0.0400
10516SOL    HW135837   0.693   6.627   2.207 -0.0691 -1.1562 -0.1398
10516SOL    HW235838   0.617   6.543   2.324 -0.6632  1.0327  1.0768
10518SOL     OW35839   2.096   1.321   1.784  0.2641 -0.2008 -0.5021
10518SOL    HW135840   2.050   1.369   1.858 -1.3553 -0.8366 -1.0912
10518SOL    HW235841   2.173   1.377   1.751 -0.0233  0.8196  0.5360
10520SOL     OW35842   3.712   9.138   0.701  0.3774  0.2183 -0.0134
10520SOL    HW135843   3.724   9.060   0.639 -0.9485  1.4397 -1.8477
10520SOL    HW235844   3.687   9.219   0.648 -2.2381  0.9593  2.2662
10521SOL     OW35845   5.345   8.891   2.948 -0.2033  0.0902 -0.0668
10521SOL    HW135846   5.341   8.896   2.848  0.3811  0.5456 -0.0728
10521SOL    HW235847   5.299   8.809   2.980 -1.5452  0.6138 -0.6367
10522SOL     OW35848   4.128   1.016   2.468  0.3313 -0.3609 -0.4892
10522SOL    HW135849   4.067   0.973   2.402 -0.5383  0.5349 -0.2870
10522SOL    HW235850   4.161   1.104   2.431 -1.2899  0.8265  0.8240
10523SOL     OW35851   2.036   3.864   3.606 -0.2612  0.6057 -0.0273
10523SOL    HW135852   1.997   3.851   3.515  0.1076  0.4475 -0.1655
10523SOL    HW235853   1.967   3.903   3.667  0.0531  2.5508 -0.8832
10525SOL     OW35854   3.582   5.216   0.649 -0.0060  0.0772 -0.2947
10525SOL    HW135855   3.549   5.236   0.557  2.3513  1.3872 -0.8897
10525SOL    HW235856   3.550   5.287   0.712  0.6553  0.6979 -0.6481
10526SOL     OW35857   0.918   2.952   3.588 -0.0387 -0.2362 -0.5358
10526SOL    HW135858   0.835   2.929   3.536 -0.5265 -0.7782  0.4692
10526SOL    HW235859   0.894   3.016   3.662  0.6129  0.3623 -0.8364
10527SOL     OW35860   2.052   4.818   0.425  0.2838  0.2430  0.1968
10527SOL    HW135861   2.134   4.859   0.466 -0.4152 -0.3383  2.1839
10527SOL    HW235862   2.063   4.719   0.419 -0.9047 -0.0094  1.9396
10529SOL     OW35863   4.111   9.807   2.720  0.3991  0.4021 -0.1055
10529SOL    HW135864   4.147   9.713   2.725 -0.3898 -0.1231 -2.8807
10529SOL    HW235865   4.156   9.855   2.644 -0.2737  1.7692  0.3539
10530SOL     OW35866   6.634   9.527   1.483  0.1633 -0.3325 -0.0365
10530SOL    HW135867   6.685   9.539   1.568  1.0457  1.8214 -0.8297
10530SOL    HW235868   6.536   9.538   1.501  0.2517 -1.0850  0.9067
10531SOL     OW35869   8.988   1.913   1.556  0.3962  0.2182 -0.2257
10531SOL    HW135870   9.006   1.859   1.474 -0.7766  0.7374 -0.8523
10531SOL    HW235871   9.003   1.858   1.637 -0.9455 -1.1161 -0.8570
10532SOL     OW35872   1.698   4.952   0.174 -0.2590  0.1961  0.2608
10532SOL    HW135873   1.629   4.897   0.220 -1.4295  0.9686 -0.5711
10532SOL    HW235874   1.739   4.898   0.100 -0.4638 -0.0155  0.3021
10533SOL     OW35875   0.858   1.833   3.561 -0.6944 -0.3259 -0.1761
10533SOL    HW135876   0.790   1.824   3.633 -0.9992 -1.7243 -0.6150
10533SOL    HW235877   0.910   1.747   3.553  0.8601  0.5829 -0.0991
10534SOL     OW35878   0.413   5.000   3.020  0.0863  0.0515 -0.8431
10534SOL    HW135879   0.322   5.010   3.059  0.5343  1.2199 -0.0965
10534SOL    HW235880   0.446   4.907   3.037 -0.5821 -0.0898 -0.3039
10535SOL     OW35881   5.275   9.733   1.627 -0.6542 -0.3591 -0.1398
10535SOL    HW135882   5.183   9.767   1.612 -1.1647 -1.3077  0.7561
10535SOL    HW235883   5.292   9.725   1.726  0.3787 -0.2015 -0.2970
10536SOL     OW35884   0.841   1.710   3.195  0.1458 -0.1773  0.0883
10536SOL    HW135885   0.795   1.793   3.226  0.6841  0.8016 -1.6731
10536SOL    HW235886   0.934   1.732   3.167  0.4720 -1.4824  0.1160
10537SOL     OW35887   1.854   9.182   3.209 -0.4610 -0.5080 -0.7570
10537SOL    HW135888   1.914   9.228   3.274 -0.3774 -0.6890 -0.7069
10537SOL    HW235889   1.903   9.166   3.123 -0.5824 -0.2367 -0.8782
10539SOL     OW35890   5.392   2.671   1.511  0.1617  0.2180 -0.0084
10539SOL    HW135891   5.426   2.763   1.495  0.0622  0.3286  0.3992
10539SOL    HW235892   5.341   2.639   1.431  0.0113  0.5968 -0.0654
10541SOL     OW35893   7.949   8.809   2.090 -0.5361  0.3426  0.4160
10541SOL    HW135894   8.014   8.857   2.030 -0.4286  0.0370  0.2895
10541SOL    HW235895   7.866   8.789   2.039 -0.0281 -0.8823  0.0494
10542SOL     OW35896   9.176   9.538   0.300 -0.0400 -0.5304 -0.5542
10542SOL    HW135897   9.273   9.560   0.290 -0.1730  0.8124  0.9191
10542SOL    HW235898   9.121   9.615   0.268 -0.5941 -0.7214 -0.0728
10543SOL     OW35899   8.125   4.690   2.642  0.3334 -0.2807 -0.1067
10543SOL    HW135900   8.089   4.779   2.613  0.1380  0.0594  1.1511
10543SOL    HW235901   8.134   4.631   2.562 -0.6201  0.4848 -0.8042
10544SOL     OW35902   8.383   0.051   0.784 -0.1934 -0.0263  0.0912
10544SOL    HW135903   8.397  -0.024   0.720 -1.3410 -0.3914  0.2569
10544SOL    HW235904   8.297   0.037   0.834  0.5521  0.3875  1.5147
10546SOL     OW35905   9.887   8.362   0.119  0.1241  0.0520 -0.1524
10546SOL    HW135906   9.976   8.317   0.127 -0.7492 -1.7326 -0.2598
10546SOL    HW235907   9.829   8.335   0.196 -0.6507  0.4996 -0.5735
10548SOL     OW35908   2.949   2.095   2.089 -0.0874  0.1322  0.2092
10548SOL    HW135909   2.904   2.098   2.179  2.3917 -0.1639  1.4916
10548SOL    HW235910   3.002   2.010   2.081 -0.2665  0.1712 -1.5389
10549SOL     OW35911   2.935   4.703   1.918  0.4251  0.7344  0.1100
10549SOL    HW135912   2.930   4.650   1.834  1.2698 -0.4362  0.7898
10549SOL    HW235913   2.847   4.698   1.966  0.0935  1.0247 -0.4498
10550SOL     OW35914   9.447   5.261   2.326  0.0956  0.4768  0.4738
10550SOL    HW135915   9.526   5.261   2.265 -1.0260  0.1508 -1.0140
10550SOL    HW235916   9.372   5.311   2.283 -0.9499 -0.4100  1.2523
10552SOL     OW35917   3.315   0.856   0.354 -0.5259 -0.4770  0.3269
10552SOL    HW135918   3.381   0.870   0.281 -1.0225  0.3140  0.0213
10552SOL    HW235919   3.259   0.775   0.333 -0.2932 -0.5827  0.1124
10553SOL     OW35920   5.116   9.833   2.968  0.1435  0.0895 -0.1213
10553SOL    HW135921   5.143   9.746   3.008 -0.5009 -1.1083 -2.2077
10553SOL    HW235922   5.198   9.885   2.943  0.5407  0.5662  2.0658
10555SOL     OW35923   4.830   6.958   2.508  0.8611 -0.1498 -0.0054
10555SOL    HW135924   4.923   6.936   2.479  0.4551  1.4651 -2.6913
10555SOL    HW235925   4.764   6.915   2.446 -0.0744  2.1948 -0.6975
10556SOL     OW35926   1.900   5.346   3.456 -0.2274  0.2863 -0.0071
10556SOL    HW135927   1.942   5.264   3.495 -0.4008  0.0157 -0.3804
10556SOL    HW235928   1.817   5.320   3.407 -2.2096  1.1136  2.7905
10557SOL     OW35929   8.643   8.867   3.077  0.2064 -0.1898 -0.4385
10557SOL    HW135930   8.728   8.916   3.096  0.2605 -1.2050  2.1630
10557SOL    HW235931   8.566   8.931   3.087  0.6078  0.6994 -2.6803
10558SOL     OW35932   9.330   8.068   0.604 -0.2774  0.2052  0.5160
10558SOL    HW135933   9.369   8.000   0.543 -1.7613  1.0295 -1.4066
10558SOL    HW235934   9.303   8.024   0.690  1.4819 -1.0362  0.4578
10559SOL     OW35935   0.928   8.309   2.349  0.3979  0.1755 -0.2782
10559SOL    HW135936   0.897   8.329   2.442 -1.4519  0.0928 -0.8607
10559SOL    HW235937   0.923   8.211   2.333  1.4359  0.1059 -0.2325
10560SOL     OW35938   4.635   1.895   2.193  0.0633  0.0616  0.0619
10560SOL    HW135939   4.696   1.851   2.127  1.0400  1.0043  0.3227
10560SOL    HW235940   4.620   1.833   2.271  0.6480 -0.2003 -0.0312
10561SOL     OW35941   0.999   3.807   0.005  0.4275 -0.4865  0.7299
10561SOL    HW135942   1.057   3.750  -0.054  0.1445  0.5322 -0.5486
10561SOL    HW235943   1.000   3.901  -0.028 -2.7550 -0.6311  0.1064
10562SOL     OW35944   8.615   0.392   3.753  0.1344  0.0443  0.0622
10562SOL    HW135945   8.519   0.405   3.732  0.6867  3.3057 -0.7698
10562SOL    HW235946   8.626   0.379   3.852 -1.0433  1.1146  0.3502
10563SOL     OW35947   3.439   1.474   3.257  0.0282  0.2354  0.6578
10563SOL    HW135948   3.485   1.388   3.278  1.7667  0.7714 -0.8428
10563SOL    HW235949   3.459   1.540   3.330 -0.1101 -0.1732  1.0709
10565SOL     OW35950   0.066   3.050   3.008 -0.2473 -0.4509  0.4672
10565SOL    HW135951   0.123   2.976   3.044  0.0676 -0.2153  0.4520
10565SOL    HW235952   0.110   3.091   2.929  1.2788  2.0603  2.5452
10566SOL     OW35953   9.849   4.888   3.332  0.0415  0.1708  0.1978
10566SOL    HW135954   9.841   4.847   3.423 -0.9993 -1.7648 -0.7396
10566SOL    HW235955   9.845   4.987   3.340 -1.3886 -0.0162  2.1372
10568SOL     OW35956   2.789   5.002   0.076  0.0070  0.0411  0.1048
10568SOL    HW135957   2.831   4.920   0.039  0.2811 -0.2424  1.0228
10568SOL    HW235958   2.692   5.002   0.056 -0.5825 -2.0062  2.6788
10571SOL     OW35959   2.211   2.513   2.986  0.2445  0.1586 -0.1695
10571SOL    HW135960   2.141   2.577   2.954 -0.1487  0.5262  1.3912
10571SOL    HW235961   2.188   2.421   2.955 -1.0765  0.2368  0.5576
10572SOL     OW35962   9.930   3.423   2.704  0.1724 -0.1914  0.5260
10572SOL    HW135963   9.849   3.470   2.670 -0.4777 -0.9037  1.0788
10572SOL    HW235964  10.005   3.436   2.639 -1.1229 -1.7419 -1.3392
10573SOL     OW35965   4.391   9.854   0.313  0.1430 -0.1527  0.0032
10573SOL    HW135966   4.439   9.856   0.225  1.2733 -0.1261  0.6010
10573SOL    HW235967   4.293   9.869   0.298  0.0487 -1.9989 -1.4286
10574SOL     OW35968   5.613   9.457   3.145 -0.2192 -0.0210 -0.1374
10574SOL    HW135969   5.579   9.538   3.193  0.8679  0.0274  0.5502
10574SOL    HW235970   5.691   9.482   3.088 -1.4148 -0.1045 -1.8394
10575SOL     OW35971   3.030   7.116   2.625 -0.6870 -0.2827 -0.2009
10575SOL    HW135972   2.953   7.103   2.688 -1.4741  1.1823 -0.8296
10575SOL    HW235973   3.079   7.200   2.649  0.3929 -0.9191 -0.1474
10578SOL     OW35974   5.119   9.102   1.873 -0.2070  0.4669  0.2378
10578SOL    HW135975   5.035   9.083   1.822  0.4913  0.4442 -0.9227
10578SOL    HW235976   5.114   9.195   1.911  0.2923  1.4501 -1.9976
10579SOL     OW35977   4.434   0.771   1.345  0.7493  0.0544 -0.0516
10579SOL    HW135978   4.485   0.776   1.259 -0.2480  0.9367 -0.5963
10579SOL    HW235979   4.346   0.819   1.336  0.5376 -0.0154  1.3917
10580SOL     OW35980   0.353   8.962   0.293 -0.3892 -0.1259  0.5577
10580SOL    HW135981   0.408   9.045   0.283 -0.2218 -0.3630 -0.5251
10580SOL    HW235982   0.404   8.895   0.347  0.6830 -0.5872 -0.9882
10581SOL     OW35983   1.620   6.327   0.040 -0.1880 -0.3015  0.0464
10581SOL    HW135984   1.719   6.335   0.053  0.0210 -0.0891 -1.5142
10581SOL    HW235985   1.575   6.320   0.128  1.2470 -0.6360  0.7701
10582SOL     OW35986   8.654   9.748   3.286 -0.1126  0.2098  0.1171
10582SOL    HW135987   8.745   9.725   3.321 -0.9704  0.5046  2.6028
10582SOL    HW235988   8.663   9.812   3.209  1.7466  0.7110  0.7212
10583SOL     OW35989   1.679   8.339   0.999 -0.3060 -0.0582  0.1966
10583SOL    HW135990   1.591   8.335   1.046 -0.3206  2.5583  0.4849
10583SOL    HW235991   1.752   8.352   1.066  0.0903 -0.1774 -0.2095
10584SOL     OW35992   9.500   4.073   0.729  0.4599  0.0041 -0.6442
10584SOL    HW135993   9.507   4.126   0.645 -3.2374 -0.2103 -1.1680
10584SOL    HW235994   9.447   3.990   0.711 -1.0958  0.3598  2.0554
10585SOL     OW35995   1.714   2.051   1.451  0.1665  0.6023  0.2423
10585SOL    HW135996   1.697   1.972   1.393  2.0408 -0.0613  0.5692
10585SOL    HW235997   1.689   2.030   1.545  1.5709  0.0480  0.5030
10586SOL     OW35998   2.516   9.386   0.948  0.3899 -0.5866  0.0507
10586SOL    HW135999   2.530   9.308   0.887 -0.0213 -0.5713 -0.0601
10586SOL    HW236000   2.420   9.413   0.947  0.3715 -0.6248  0.7512
10587SOL     OW36001   8.803   2.499   3.466  0.2821 -0.1419  0.4054
10587SOL    HW136002   8.794   2.501   3.367  1.1346  0.1953  0.3374
10587SOL    HW236003   8.735   2.436   3.504 -0.5724  0.3205 -0.3265
10588SOL     OW36004   9.468   3.866   1.395  0.0568 -0.0439  0.0485
10588SOL    HW136005   9.452   3.894   1.300  1.1569  1.8284  0.3851
10588SOL    HW236006   9.427   3.934   1.456  1.1767 -0.1261  0.8952
10590SOL     OW36007   7.416   9.828   3.504 -0.3442 -0.2033 -0.0413
10590SOL    HW136008   7.324   9.789   3.512  0.4831 -2.1734  0.0185
10590SOL    HW236009   7.478   9.761   3.464  1.4337  0.5552  1.3533
10591SOL     OW36010   9.699   8.289   0.320  0.3890  0.1823 -0.3298
10591SOL    HW136011   9.663   8.319   0.409 -0.8340  1.8170 -1.3399
10591SOL    HW236012   9.698   8.189   0.315  0.3860  0.0797  1.4542
10592SOL     OW36013   9.300   7.292   0.511  0.1679 -0.0571 -0.1671
10592SOL    HW136014   9.370   7.265   0.577  0.4598 -1.1488 -0.9215
10592SOL    HW236015   9.343   7.346   0.438 -0.4060  2.5399  1.3278
10593SOL     OW36016   8.558   8.694   3.321 -1.0243  0.2120  0.0017
10593SOL    HW136017   8.618   8.615   3.328 -0.1728  0.8833  0.3201
10593SOL    HW236018   8.593   8.757   3.252 -1.4353  0.5374  0.0858
10594SOL     OW36019   0.598   4.876   3.348 -0.6606 -1.3702  0.4460
10594SOL    HW136020   0.509   4.893   3.390 -0.4735 -1.2004  0.7749
10594SOL    HW236021   0.647   4.806   3.399 -0.3206 -0.9680  0.6789
10595SOL     OW36022   9.675   3.434   3.162  0.7917 -0.0337 -0.3393
10595SOL    HW136023   9.716   3.445   3.071 -2.6652  0.7424 -1.8835
10595SOL    HW236024   9.606   3.361   3.158  0.2564  0.3582  1.5607
10596SOL     OW36025   3.985   8.673   1.025 -0.0344 -0.2754 -0.2207
10596SOL    HW136026   3.920   8.660   1.100  0.6607 -0.3222  0.3848
10596SOL    HW236027   4.058   8.735   1.055 -0.3032  0.5248 -1.2050
10597SOL     OW36028   0.353   4.923   0.733  0.1250  0.5650 -0.2729
10597SOL    HW136029   0.353   5.013   0.777 -0.5590  0.2464  0.3781
10597SOL    HW236030   0.349   4.851   0.802  0.9638  0.0226 -0.7826
10598SOL     OW36031   1.990   5.263   0.468 -0.0884 -0.4582 -0.5048
10598SOL    HW136032   2.027   5.202   0.398 -2.6483 -2.0216 -0.5703
10598SOL    HW236033   1.975   5.212   0.553 -0.2939  0.5744  0.0961
10599SOL     OW36034   0.462   1.667   1.997  0.4603  0.0770  0.0591
10599SOL    HW136035   0.435   1.703   2.086 -0.5147  0.9572 -0.5756
10599SOL    HW236036   0.552   1.703   1.972  0.4177  0.3973  0.3651
10600SOL     OW36037   4.208   8.749   1.774  0.2264  0.0572  0.2776
10600SOL    HW136038   4.151   8.808   1.832 -0.1153 -0.2062  0.2145
10600SOL    HW236039   4.238   8.800   1.694 -1.7593 -0.4307 -0.8235
10602SOL     OW36040   9.004   5.644   3.540 -0.0656 -0.3523  0.1447
10602SOL    HW136041   8.958   5.727   3.508 -1.1306 -1.6056 -1.6523
10602SOL    HW236042   8.955   5.564   3.507  1.6225 -1.7143  0.8840
10603SOL     OW36043   2.294   9.444   1.098 -0.3511  1.1001 -0.5477
10603SOL    HW136044   2.385   9.409   1.119 -0.2979  0.0409 -2.4528
10603SOL    HW236045   2.245   9.464   1.184  0.0413 -2.5253  0.6132
10605SOL     OW36046   4.323   8.740   0.660  0.2549 -0.2502  0.1988
10605SOL    HW136047   4.408   8.790   0.649  0.3123 -0.7151 -1.6389
10605SOL    HW236048   4.323   8.693   0.748  0.9133  1.5763  1.2131
10606SOL     OW36049   2.278   8.079   1.380 -0.3051  0.1623 -0.0590
10606SOL    HW136050   2.178   8.070   1.386 -0.2286 -0.3506  0.5368
10606SOL    HW236051   2.315   8.001   1.329 -0.0334 -0.7286  1.4455
10607SOL     OW36052   4.101   3.035   3.163 -0.9635  0.3467  0.1822
10607SOL    HW136053   4.009   3.043   3.203 -1.0179  2.2252 -0.2823
10607SOL    HW236054   4.158   2.979   3.223 -1.8051  0.9210  1.5516
10608SOL     OW36055   2.554   6.863   3.363  0.1587  0.3623  0.3511
10608SOL    HW136056   2.594   6.940   3.413  3.1679 -0.0271 -1.2815
10608SOL    HW236057   2.544   6.888   3.267 -1.9043 -0.2122  0.3976
10609SOL     OW36058   1.705   0.812   3.233  0.8584 -0.1612  0.6642
10609SOL    HW136059   1.690   0.910   3.245 -0.4713 -0.4495  1.5149
10609SOL    HW236060   1.653   0.779   3.154  0.2418 -0.4171  1.1718
10611SOL     OW36061   8.810   7.992   0.280 -0.5539  0.0877 -0.0972
10611SOL    HW136062   8.732   7.990   0.343  0.7179  0.4471  1.5243
10611SOL    HW236063   8.880   8.054   0.316  1.5913 -2.1743 -0.2014
10612SOL     OW36064   6.242   7.983   2.071  0.3350  0.0985 -0.0714
10612SOL    HW136065   6.233   7.884   2.083 -1.1912  0.1464 -0.7615
10612SOL    HW236066   6.230   8.028   2.160  0.8973 -0.3249  0.2215
10613SOL     OW36067   8.536   0.437   1.397  0.0308 -1.0633 -0.0784
10613SOL    HW136068   8.607   0.462   1.332 -1.2863  4.8386  0.4513
10613SOL    HW236069   8.578   0.418   1.486  1.1717 -1.1488 -0.6209
10614SOL     OW36070   2.493   3.568   3.566  0.2960  0.0720  0.2176
10614SOL    HW136071   2.412   3.616   3.601  0.9134  1.1896  0.1259
10614SOL    HW236072   2.464   3.500   3.499 -0.3835  2.4170 -1.9426
10615SOL     OW36073   7.081   8.822   3.594  0.2063 -0.5570  0.1472
10615SOL    HW136074   7.032   8.761   3.532  0.6801 -0.5470 -0.2336
10615SOL    HW236075   7.017   8.857   3.664 -0.2301 -0.8852 -0.0884
10616SOL     OW36076   6.132   7.270   3.279 -0.2442 -0.1010  0.0023
10616SOL    HW136077   6.214   7.276   3.222  0.8647 -2.3588  1.3168
10616SOL    HW236078   6.056   7.316   3.233  0.8019 -1.2611 -2.9483
10617SOL     OW36079   8.535   8.863   2.388 -0.0038 -0.2487 -0.3608
10617SOL    HW136080   8.519   8.888   2.483  1.7008  0.0550 -0.1383
10617SOL    HW236081   8.485   8.926   2.328 -0.4652  0.0262  0.3155
10618SOL     OW36082   1.256   1.842   2.009  0.2975  0.2170 -0.0752
10618SOL    HW136083   1.340   1.817   1.962  0.6603  0.2759  0.5414
10618SOL    HW236084   1.201   1.761   2.025 -1.2035  0.5333 -3.2156
10619SOL     OW36085   0.662   4.113   3.686 -0.2016 -0.6027  0.2005
10619SOL    HW136086   0.682   4.015   3.687 -1.5274 -0.8974 -0.6228
10619SOL    HW236087   0.571   4.128   3.647 -0.7690  0.8140  1.9816
10621SOL     OW36088   1.947   6.098   1.901 -0.3739  0.1215 -0.2444
10621SOL    HW136089   1.964   6.168   1.969 -2.3416 -0.1734  0.5895
10621SOL    HW236090   1.885   6.133   1.831 -0.0894 -0.2822 -0.7121
10623SOL     OW36091   2.453   9.520   0.107  0.3549  0.4048  0.1219
10623SOL    HW136092   2.399   9.568   0.176 -2.3686  0.5135 -2.0229
10623SOL    HW236093   2.470   9.426   0.137 -1.3783  0.2434  0.6400
10624SOL     OW36094   3.673   9.767   3.560 -0.2390  0.6645 -0.4187
10624SOL    HW136095   3.761   9.723   3.546  0.2582  1.3396  0.5482
10624SOL    HW236096   3.606   9.728   3.496  1.0120  0.9251 -1.9174
10625SOL     OW36097   0.666   4.203   3.045 -0.6455  0.2477  0.1649
10625SOL    HW136098   0.755   4.246   3.036 -0.3784 -0.6587 -1.7479
10625SOL    HW236099   0.594   4.271   3.030 -0.2885  0.9829  1.7351
10626SOL     OW36100   4.722   7.738   2.285 -0.5564 -0.4300  0.8737
10626SOL    HW136101   4.646   7.696   2.335 -2.9018  0.9469 -1.4285
10626SOL    HW236102   4.689   7.775   2.198  2.1416  2.8868  1.1449
10627SOL     OW36103   1.490   3.893   0.768 -0.4298 -0.0842  0.5647
10627SOL    HW136104   1.426   3.843   0.709  0.2648 -1.0385  0.6016
10627SOL    HW236105   1.466   3.879   0.864  0.3224 -1.1118  0.6033
10628SOL     OW36106   2.354   1.615   3.276  0.3139 -0.0166  0.1365
10628SOL    HW136107   2.305   1.624   3.362 -0.3140  0.1433 -0.2348
10628SOL    HW236108   2.299   1.653   3.202  1.7302  1.7462 -0.0348
10630SOL     OW36109   4.890   0.802   2.843 -0.4309  0.2651 -0.5946
10630SOL    HW136110   4.841   0.729   2.796 -1.2651  0.8834 -0.6900
10630SOL    HW236111   4.920   0.769   2.933  0.0947 -0.5180 -1.0483
10632SOL     OW36112   9.708   2.344   0.028  0.8684 -0.4128 -0.5404
10632SOL    HW136113   9.637   2.408   0.000  0.0114 -1.3612 -0.5703
10632SOL    HW236114   9.782   2.344  -0.040  1.7934  1.9429  0.4358
10633SOL     OW36115   5.400   9.891   2.142  0.5616 -0.0733  0.1654
10633SOL    HW136116   5.326   9.834   2.177 -0.0029 -1.0130 -2.4497
10633SOL    HW236117   5.487   9.855   2.176 -0.0691  0.1662  2.0852
10634SOL     OW36118   0.589   8.319   2.322 -0.3800  0.3221  0.0573
10634SOL    HW136119   0.598   8.285   2.416  0.6661 -0.2859 -0.2542
10634SOL    HW236120   0.639   8.259   2.260 -2.6977 -0.4127 -1.1636
10635SOL     OW36121   0.394   4.900   0.251  0.7741  0.1409  0.5698
10635SOL    HW136122   0.340   4.984   0.258  1.1972  0.3307  1.6490
10635SOL    HW236123   0.420   4.869   0.343  0.5023 -1.2507  0.1985
10637SOL     OW36124   3.748   2.015   0.559 -0.4414  0.0765  0.8200
10637SOL    HW136125   3.683   1.964   0.502 -0.9183 -1.1036  2.3846
10637SOL    HW236126   3.720   2.112   0.562 -0.5981  0.0873 -0.6549
10638SOL     OW36127   1.037   0.162   2.921 -0.1869 -0.1164  0.1470
10638SOL    HW136128   1.053   0.236   2.856 -1.1204  0.3238  0.4170
10638SOL    HW236129   1.088   0.081   2.892  1.7874  0.9881  0.5077
10639SOL     OW36130   9.473   5.740   2.736  0.2775 -0.4817 -0.6553
10639SOL    HW136131   9.542   5.703   2.799  0.9693  0.8795 -0.6004
10639SOL    HW236132   9.386   5.692   2.750  0.4472 -0.2416  1.2831
10640SOL     OW36133   3.693   7.897   3.336  0.2051 -0.6106  0.1872
10640SOL    HW136134   3.630   7.831   3.377 -0.8291 -1.1093 -2.1316
10640SOL    HW236135   3.760   7.926   3.405 -1.8862 -0.8653  2.4167
10645SOL     OW36136   9.976   8.801   0.363  0.0379 -0.0694 -0.1882
10645SOL    HW136137   9.904   8.774   0.427 -0.0831  1.6198  0.3973
10645SOL    HW236138  10.019   8.886   0.395  1.2589 -0.2447 -1.3422
10646SOL     OW36139   4.376   7.289   1.587  0.0703 -0.4833  0.1314
10646SOL    HW136140   4.362   7.293   1.686 -2.0946  1.8895 -0.2191
10646SOL    HW236141   4.389   7.382   1.552  2.6355 -1.4382 -1.5947
10647SOL     OW36142   3.585   7.038   3.033  0.1239  1.0358 -0.2239
10647SOL    HW136143   3.634   6.972   3.092 -0.4738 -0.6943 -1.6160
10647SOL    HW236144   3.642   7.060   2.954 -0.6814  0.2657 -1.0245
10649SOL     OW36145   4.036   9.868   3.277  0.2350 -0.3397 -0.2602
10649SOL    HW136146   4.122   9.841   3.235  1.0583  3.1070 -0.9375
10649SOL    HW236147   3.968   9.885   3.205  0.0102  0.2638  0.0928
10651SOL     OW36148   3.089   3.851   1.708 -0.5123 -0.1676  0.3305
10651SOL    HW136149   3.112   3.839   1.611  1.7753  0.3221  0.7650
10651SOL    HW236150   2.998   3.815   1.725 -2.3480  2.7217 -2.6704
10652SOL     OW36151   1.437   7.028   1.735 -0.0830  0.7231  0.0381
10652SOL    HW136152   1.355   6.972   1.731 -0.1706  0.8697 -0.1867
10652SOL    HW236153   1.510   6.976   1.780 -0.2584  0.5476  0.1218
10655SOL     OW36154   8.114   5.259   1.699 -0.1576 -0.8005 -0.0819
10655SOL    HW136155   8.048   5.292   1.632  0.3372  0.1111 -0.1296
10655SOL    HW236156   8.203   5.248   1.656 -0.1793 -1.6399  0.0766
10656SOL     OW36157   7.494   7.562   2.548 -0.1116 -0.1307  0.5417
10656SOL    HW136158   7.448   7.505   2.479 -0.5324  0.5023  0.2889
10656SOL    HW236159   7.434   7.572   2.628 -0.0541 -0.0167  0.5713
10657SOL     OW36160   3.211   2.936   2.812 -0.7369 -0.5646  0.6882
10657SOL    HW136161   3.181   2.912   2.720  1.3103  1.0695 -0.4417
10657SOL    HW236162   3.256   2.857   2.854  1.1655 -0.3949 -0.9467
10658SOL     OW36163   6.919   9.252   0.978 -0.0007 -0.0119 -0.1700
10658SOL    HW136164   6.826   9.219   0.997  0.3808  0.2208  2.2419
10658SOL    HW236165   6.920   9.299   0.890 -2.6166  1.6730  0.6429
10660SOL     OW36166   2.078   2.154   0.008 -0.0535  0.6616 -0.3704
10660SOL    HW136167   2.033   2.243   0.009 -0.0541  0.6901 -2.1542
10660SOL    HW236168   2.023   2.088   0.059 -0.2531  1.5662  0.6104
10661SOL     OW36169   5.491   3.172   0.598 -0.5121  0.1608  0.2734
10661SOL    HW136170   5.499   3.256   0.545  0.9685  0.5162  1.0367
10661SOL    HW236171   5.504   3.093   0.538 -0.4174  0.5154 -0.1748
10662SOL     OW36172   0.414   8.099   2.984  0.0596 -0.3503 -0.1592
10662SOL    HW136173   0.449   8.014   3.023  0.1377  0.2513  1.1223
10662SOL    HW236174   0.430   8.174   3.048  0.2872  0.6959 -1.4137
10663SOL     OW36175   7.815   8.873   0.122 -0.6838 -0.1585 -0.0712
10663SOL    HW136176   7.818   8.966   0.085 -0.3065  0.0790  0.5490
10663SOL    HW236177   7.781   8.810   0.052  0.8002  0.1526 -1.0971
10664SOL     OW36178   2.299   2.813   3.374  0.1265 -0.4273 -0.2570
10664SOL    HW136179   2.241   2.736   3.345  1.7882 -2.6992  2.1886
10664SOL    HW236180   2.366   2.832   3.302 -0.1600 -1.4076 -0.7983
10665SOL     OW36181   3.134   7.076   3.149  0.3566 -0.3130 -0.1257
10665SOL    HW136182   3.187   7.131   3.213  0.6788 -0.8430  0.0698
10665SOL    HW236183   3.164   6.981   3.154 -1.0528 -0.7490  0.4692
10666SOL     OW36184   0.337   9.069   1.422 -0.4447 -0.3391 -0.1378
10666SOL    HW136185   0.349   8.983   1.471 -1.9873 -0.9816 -0.8813
10666SOL    HW236186   0.370   9.145   1.479 -2.2693 -1.0549  1.9292
10669SOL     OW36187   3.021   8.609   1.976 -0.1455  0.0949 -0.3296
10669SOL    HW136188   2.977   8.593   2.065  1.0522 -0.3263  0.2060
10669SOL    HW236189   2.982   8.690   1.934 -1.0771  0.0186  0.3523
10671SOL     OW36190   8.684   3.420   0.178 -0.3411 -0.1335  0.5243
10671SOL    HW136191   8.642   3.337   0.215  1.2753 -2.2256 -2.1777
10671SOL    HW236192   8.612   3.480   0.143 -1.5723 -0.0874  3.0579
10672SOL     OW36193   9.773   1.460   0.745 -0.0819  0.2834  0.0572
10672SOL    HW136194   9.838   1.515   0.798  0.9101 -0.2737 -0.5487
10672SOL    HW236195   9.722   1.400   0.807  1.6749 -0.9910  0.3409
10673SOL     OW36196   0.031   6.503   2.722  0.6013  0.0436  0.1499
10673SOL    HW136197   0.112   6.562   2.725  0.3356  0.4669 -0.7251
10673SOL    HW236198   0.058   6.409   2.741  1.2260  0.2632  0.3619
10674SOL     OW36199   4.862   9.045   1.592 -0.5416  0.3537  0.3358
10674SOL    HW136200   4.961   9.062   1.587 -0.3167 -0.9334  0.2319
10674SOL    HW236201   4.825   9.089   1.673  0.0602  1.1061  0.2104
10675SOL     OW36202   8.088   2.967   0.479 -0.0150 -0.3503 -0.0775
10675SOL    HW136203   8.182   2.934   0.481  0.8287  1.7860 -2.1089
10675SOL    HW236204   8.028   2.897   0.441  1.1337 -0.8739 -0.9325
10676SOL     OW36205   9.126   9.795   3.697 -0.1440  0.3190  0.1039
10676SOL    HW136206   9.182   9.755   3.624  0.0037  1.4898 -0.4276
10676SOL    HW236207   9.149   9.751   3.784  1.3463  0.5408 -0.1644
10677SOL     OW36208   7.272   7.937   2.108  0.4093 -0.3743  0.4333
10677SOL    HW136209   7.273   7.979   2.017 -0.5326  0.5608  0.8384
10677SOL    HW236210   7.342   7.980   2.165  0.4429 -0.3848  0.4001
10679SOL     OW36211   0.725   5.398   0.448  0.1584  0.1303  0.4462
10679SOL    HW136212   0.674   5.321   0.410  0.2883 -0.0719  0.6707
10679SOL    HW236213   0.797   5.425   0.384  0.4059 -0.2382  0.5682
10681SOL     OW36214   4.380   0.154   2.524 -0.1836  0.4685 -0.3981
10681SOL    HW136215   4.304   0.146   2.460  1.3958  2.0525 -2.5391
10681SOL    HW236216   4.356   0.108   2.610 -1.4032 -3.9272 -2.9255
10682SOL     OW36217   8.705   3.963   2.280 -0.0937  0.3905 -0.8860
10682SOL    HW136218   8.672   3.869   2.268 -0.4997  0.4652 -0.3705
10682SOL    HW236219   8.689   4.015   2.195 -0.4520  0.1704 -0.9528
10683SOL     OW36220   9.030   1.155   0.876 -0.1287  0.3106  0.0107
10683SOL    HW136221   9.069   1.246   0.889 -0.7439  0.8813 -2.0186
10683SOL    HW236222   8.930   1.160   0.884 -0.0934 -0.3914  0.9892
10684SOL     OW36223   3.276   8.233   2.325  0.6173  0.0035 -0.1751
10684SOL    HW136224   3.188   8.277   2.344  0.9971  1.7676 -2.3544
10684SOL    HW236225   3.273   8.138   2.358 -2.0505  0.0687 -0.0963
10685SOL     OW36226   3.370   6.087   2.785  0.3519  0.5017 -0.2770
10685SOL    HW136227   3.436   6.099   2.711 -0.4096 -0.7430 -1.1656
10685SOL    HW236228   3.277   6.095   2.749 -0.0303 -0.5442  0.4546
10687SOL     OW36229   3.179   6.748   2.019 -0.7821 -0.0581  0.2501
10687SOL    HW136230   3.146   6.774   1.928  2.1448 -0.7761 -1.1010
10687SOL    HW236231   3.197   6.830   2.073  0.5890  0.5184 -1.0380
10688SOL     OW36232   9.989   9.844   0.239  0.2468  0.1412  0.3175
10688SOL    HW136233  10.006   9.746   0.227  0.4806  0.3570 -1.1695
10688SOL    HW236234  10.071   9.895   0.216 -0.0557  0.7314  0.5314
10690SOL     OW36235   0.170   4.979   3.108 -0.5792 -0.2256  0.1296
10690SOL    HW136236   0.155   4.880   3.104  0.8142 -0.4404 -0.1654
10690SOL    HW236237   0.148   5.013   3.199  0.9062 -1.1648  0.8616
10691SOL     OW36238   2.846   0.983   2.768 -0.3251 -0.2074  0.1515
10691SOL    HW136239   2.900   1.064   2.790 -0.1131 -0.2721 -0.1467
10691SOL    HW236240   2.885   0.935   2.690 -1.1863  0.1109 -0.4893
10692SOL     OW36241   0.187   9.991   2.422  0.5665  0.5980 -0.7435
10692SOL    HW136242   0.251   9.966   2.494 -1.4594  2.0857  1.6873
10692SOL    HW236243   0.121   9.917   2.408 -0.1561  1.0443  0.2622
10693SOL     OW36244   8.517   6.929   3.684  0.5972  0.3406  0.1720
10693SOL    HW136245   8.572   6.973   3.613  0.6379 -2.6229 -1.7042
10693SOL    HW236246   8.564   6.937   3.772  1.6111  2.1321 -0.4994
10694SOL     OW36247   0.285   5.593   1.978 -0.1404  0.3081 -0.0369
10694SOL    HW136248   0.258   5.688   1.994 -2.5484  0.0963 -2.4320
10694SOL    HW236249   0.220   5.550   1.916  2.0344 -2.3414 -0.5895
10695SOL     OW36250   1.286   0.626   1.148  0.4477 -0.3305 -0.0407
10695SOL    HW136251   1.359   0.568   1.113  0.5557  1.3932 -2.8361
10695SOL    HW236252   1.225   0.572   1.206  2.3833 -2.4278  0.0999
10697SOL     OW36253   4.323   0.734   3.018 -0.7724  0.2772  0.1272
10697SOL    HW136254   4.235   0.757   2.975  0.3882  0.5962 -2.1494
10697SOL    HW236255   4.342   0.637   3.003 -0.9998  0.0610  1.1650
10698SOL     OW36256   5.391   0.267   2.612 -0.0400  0.1413 -0.2263
10698SOL    HW136257   5.376   0.365   2.602  0.8630  0.6737  3.0710
10698SOL    HW236258   5.311   0.225   2.657  0.4371 -0.2613  0.2568
10699SOL     OW36259   2.329   4.464   2.102  0.2863 -0.5213 -0.4467
10699SOL    HW136260   2.422   4.428   2.097  0.8741  0.8645  0.2945
10699SOL    HW236261   2.274   4.405   2.161  0.9088 -0.9049 -0.2445
10700SOL     OW36262   1.593   8.103   2.347  0.2140 -0.1960  0.2510
10700SOL    HW136263   1.506   8.150   2.360  0.9654  0.8175  1.7331
10700SOL    HW236264   1.643   8.144   2.270  0.7934  1.3576  1.4357
10701SOL     OW36265   7.961   9.656   2.783 -0.1820  0.1435  0.2721
10701SOL    HW136266   7.935   9.608   2.867  1.0232 -1.7168 -0.3756
10701SOL    HW236267   8.037   9.608   2.739  0.7541  2.4077 -0.6761
10703SOL     OW36268   4.688   6.831   2.341  0.3840 -0.2540  0.9377
10703SOL    HW136269   4.744   6.779   2.276 -0.4041  0.7110 -0.5442
10703SOL    HW236270   4.622   6.887   2.291 -0.1657  0.6067  2.5790
10704SOL     OW36271   9.978   8.067   2.732  0.1691  0.3219  0.5798
10704SOL    HW136272   9.948   8.143   2.791  0.3140  1.0694 -0.2929
10704SOL    HW236273  10.078   8.060   2.736  0.0934 -0.3721  1.3175
10705SOL     OW36274   3.758   4.800   1.022  0.3851  0.5509  0.0882
10705SOL    HW136275   3.681   4.739   1.041  0.6622 -0.3919 -1.7356
10705SOL    HW236276   3.777   4.800   0.924  1.7475  1.9462  0.3413
10707SOL     OW36277   3.540   8.991   0.455 -0.0816 -0.0520  0.0876
10707SOL    HW136278   3.579   9.047   0.382 -1.4011  0.0158 -0.5607
10707SOL    HW236279   3.488   8.915   0.415 -1.4869  0.4436  0.9477
10708SOL     OW36280   1.581   4.265   3.069  0.5343  0.8009  0.2765
10708SOL    HW136281   1.584   4.345   3.010 -1.0349  0.3881 -0.3771
10708SOL    HW236282   1.487   4.247   3.098  0.9701 -0.3408  1.0600
10710SOL     OW36283   2.549   9.796   2.933  0.3233 -0.0924 -0.2026
10710SOL    HW136284   2.490   9.716   2.919  0.9784 -0.7986  0.9502
10710SOL    HW236285   2.502   9.862   2.992 -0.2231  0.3934 -1.1650
10711SOL     OW36286   4.136   1.498   1.246 -0.1890  0.2146  0.1967
10711SOL    HW136287   4.041   1.479   1.221  0.5645  0.3316 -2.9865
10711SOL    HW236288   4.180   1.414   1.277 -0.7551 -0.3032 -0.3840
10712SOL     OW36289   8.324   3.975   1.625  0.6256  0.0883 -0.0470
10712SOL    HW136290   8.341   3.878   1.643 -0.2738  0.0364  0.5080
10712SOL    HW236291   8.258   4.011   1.690 -0.0856  0.7396 -1.0996
10713SOL     OW36292   1.628   0.732   2.985  0.1208  0.3157  0.2724
10713SOL    HW136293   1.575   0.686   2.913  0.3546 -0.8495  0.8332
10713SOL    HW236294   1.697   0.791   2.942  0.7006 -0.8779 -0.4862
10716SOL     OW36295   1.187   8.911   1.109  0.1468 -0.4711 -0.0090
10716SOL    HW136296   1.237   8.979   1.055  1.9337 -1.5153  0.2905
10716SOL    HW236297   1.199   8.820   1.068  2.0278 -1.3794  2.4352
10718SOL     OW36298   3.496   5.007   3.499 -0.4000 -0.2694 -0.0660
10718SOL    HW136299   3.450   4.973   3.417 -0.5328  0.7712 -0.4276
10718SOL    HW236300   3.593   5.020   3.481 -0.6090  0.9046 -0.3541
10720SOL     OW36301   5.341   3.194   0.269  0.3703  0.5571  0.8697
10720SOL    HW136302   5.409   3.123   0.254 -0.0721 -0.2544  2.5289
10720SOL    HW236303   5.322   3.242   0.184  2.0029 -0.1158  0.1126
10721SOL     OW36304   4.338   9.892   0.007  0.1942 -0.0605  0.0094
10721SOL    HW136305   4.415   9.956   0.008 -0.2972  0.5674 -0.9851
10721SOL    HW236306   4.362   9.812  -0.048 -0.1998  0.5719 -1.0919
10722SOL     OW36307   7.914   6.306   1.696  0.2949 -0.1688  0.4708
10722SOL    HW136308   7.914   6.385   1.757  3.5973 -1.0941  1.7620
10722SOL    HW236309   7.902   6.223   1.749  3.8242 -1.0424  0.0504
10723SOL     OW36310   2.991   8.661   3.597 -0.2862 -0.2188  0.5547
10723SOL    HW136311   3.028   8.579   3.640  0.0804  1.4986  3.6685
10723SOL    HW236312   2.997   8.653   3.498  3.7043 -2.1617  0.8740
10724SOL     OW36313   7.693   5.788   2.493 -0.9692 -0.1413 -0.2652
10724SOL    HW136314   7.752   5.859   2.455 -1.5221  0.5320  0.1084
10724SOL    HW236315   7.699   5.705   2.437  0.8565 -0.3316  0.1751
10725SOL     OW36316   8.721   2.517   2.893  0.1458 -0.2536  0.0035
10725SOL    HW136317   8.640   2.569   2.866  0.7215  0.6156 -0.0531
10725SOL    HW236318   8.779   2.573   2.952  0.7747 -0.8270 -0.0593
10726SOL     OW36319   3.745   7.837   3.634 -0.3838 -0.5782  0.2662
10726SOL    HW136320   3.786   7.799   3.718  2.9774 -1.6298 -1.7556
10726SOL    HW236321   3.700   7.763   3.584 -0.5492 -0.3622  0.1003
10727SOL     OW36322   4.389   2.710   2.142 -0.2655  0.2722 -0.2160
10727SOL    HW136323   4.318   2.644   2.168  0.6194 -0.1700  1.1411
10727SOL    HW236324   4.360   2.802   2.166 -1.2993  0.3348 -1.6635
10728SOL     OW36325   3.337   6.254   3.671  0.0967  0.9936  0.4104
10728SOL    HW136326   3.382   6.319   3.732 -2.5268  2.3352  0.9663
10728SOL    HW236327   3.314   6.300   3.585  0.2671  0.1676 -0.0797
10729SOL     OW36328   8.153   8.842   0.407  0.0177 -0.3683  0.6615
10729SOL    HW136329   8.095   8.763   0.425  1.0225 -1.1386  0.5478
10729SOL    HW236330   8.165   8.894   0.491 -1.3344  0.1501  0.5545
10731SOL     OW36331   0.376   2.270   1.116 -0.3580 -0.0633  0.0464
10731SOL    HW136332   0.414   2.362   1.127 -0.4875  0.0119 -0.1433
10731SOL    HW236333   0.327   2.264   1.030  1.0364 -0.7892 -0.7223
10732SOL     OW36334   2.222   9.512   1.366 -0.3203  0.2201 -0.4692
10732SOL    HW136335   2.144   9.508   1.428 -0.5385  0.1145 -0.7499
10732SOL    HW236336   2.307   9.513   1.419 -0.4216 -2.3158 -0.2178
10733SOL     OW36337   3.433   1.544   2.317  0.1136  0.1726  0.0722
10733SOL    HW136338   3.395   1.535   2.225 -0.2134  1.7605  0.0468
10733SOL    HW236339   3.524   1.585   2.313  0.5156 -0.6723  0.3882
10735SOL     OW36340   4.095   2.000   2.115  0.2403  0.0145 -0.5709
10735SOL    HW136341   4.115   1.949   2.199  0.0762  0.8748  0.0018
10735SOL    HW236342   4.007   1.972   2.078 -1.0663  1.6851  1.1599
10737SOL     OW36343   9.452   7.393   2.992  0.6389 -0.3624  0.3954
10737SOL    HW136344   9.514   7.315   2.983 -1.3583 -1.8626 -0.7979
10737SOL    HW236345   9.371   7.365   3.044 -0.5473  0.6181 -0.8772
10738SOL     OW36346   8.956   0.105   3.333  0.1366  0.0360  0.6178
10738SOL    HW136347   8.937   0.038   3.405  1.1681  2.4402  3.1682
10738SOL    HW236348   9.055   0.113   3.320 -0.0411 -0.4996 -1.2158
10739SOL     OW36349   0.595   1.597   3.071  0.0935 -0.5412 -0.4275
10739SOL    HW136350   0.556   1.688   3.078  0.8289 -0.2936  0.7768
10739SOL    HW236351   0.553   1.547   2.996 -1.7484  0.0811  0.1723
10740SOL     OW36352   3.975   4.432   2.421 -0.1395  0.2484 -0.2913
10740SOL    HW136353   3.990   4.334   2.437 -1.3776  0.3143  1.3638
10740SOL    HW236354   3.892   4.443   2.366 -0.4504  0.4138  0.2154
10741SOL     OW36355   4.706   3.445   0.414  0.5059 -0.3360 -0.2337
10741SOL    HW136356   4.703   3.426   0.316  0.7182  2.0368 -0.7154
10741SOL    HW236357   4.689   3.542   0.430 -1.5769 -1.0664  2.2331
10742SOL     OW36358   0.196   2.634   2.032  0.0664 -0.0468  0.0388
10742SOL    HW136359   0.266   2.655   1.965 -1.6330 -1.9221 -2.4399
10742SOL    HW236360   0.157   2.544   2.012 -1.9320  0.2547  2.3012
10744SOL     OW36361   3.848   0.127   3.040  0.1047  0.1316 -0.2193
10744SOL    HW136362   3.776   0.149   2.975  0.4175  0.0841 -0.5855
10744SOL    HW236363   3.888   0.038   3.018  1.7085  1.0971 -1.3185
10745SOL     OW36364   3.713   4.425   1.736 -1.0324 -0.0984 -0.5039
10745SOL    HW136365   3.770   4.345   1.752 -0.5714  0.3963  0.4036
10745SOL    HW236366   3.657   4.443   1.818 -1.1653  0.4736 -0.7158
10746SOL     OW36367   1.926   1.386   3.490 -0.2054  0.1906 -0.0759
10746SOL    HW136368   2.002   1.426   3.542  1.4906 -1.3498 -1.2873
10746SOL    HW236369   1.927   1.287   3.501 -1.2740  0.0567 -1.1103
10747SOL     OW36370   9.072   8.803   1.364 -0.0188  0.1935  0.1475
10747SOL    HW136371   9.025   8.833   1.280  0.8856  0.3200 -0.3124
10747SOL    HW236372   9.003   8.779   1.433 -0.7870 -0.6566 -0.8932
10749SOL     OW36373   2.018   6.751   1.845 -0.1913 -0.3433  0.3864
10749SOL    HW136374   2.063   6.823   1.899 -0.0139 -1.4022  1.6591
10749SOL    HW236375   2.085   6.682   1.819 -0.4243 -0.2056 -0.5860
10750SOL     OW36376   7.889   2.287   3.238 -0.4169  0.0827 -0.3639
10750SOL    HW136377   7.828   2.325   3.308  0.5910  2.1603 -0.5727
10750SOL    HW236378   7.861   2.320   3.148  0.5307  0.3852 -0.5450
10751SOL     OW36379   2.543   8.017   2.683  0.5188 -0.6710 -0.1036
10751SOL    HW136380   2.468   8.002   2.618 -0.2897 -0.9716  0.8869
10751SOL    HW236381   2.630   7.996   2.638  0.0469  0.0376 -1.3836
10752SOL     OW36382   7.405   4.223   0.020  0.0362  0.4798  0.4971
10752SOL    HW136383   7.436   4.318   0.022  1.2654  0.0892  0.5361
10752SOL    HW236384   7.330   4.211   0.086  0.4061  1.2390  1.0690
10753SOL     OW36385   3.082   8.360   1.848  0.2740  0.3864 -0.0722
10753SOL    HW136386   3.060   8.444   1.898 -0.3165 -0.6524  1.4656
10753SOL    HW236387   3.172   8.368   1.807 -0.7523  2.6855 -1.9857
10754SOL     OW36388   3.169   5.943   3.029  1.0205 -0.4676 -0.6313
10754SOL    HW136389   3.242   6.011   3.019  0.5414  0.2272  0.4886
10754SOL    HW236390   3.137   5.943   3.124  0.3374 -1.5651 -0.8594
10756SOL     OW36391   0.023   5.799   0.961  0.3873  0.0289 -0.2914
10756SOL    HW136392   0.116   5.767   0.945  0.0880  0.3602 -2.9328
10756SOL    HW236393  -0.041   5.742   0.909 -0.8345  0.1464  1.0668
10757SOL     OW36394   7.496   4.702   0.173  0.1534 -0.0447  0.0773
10757SOL    HW136395   7.432   4.767   0.130  0.0854 -1.0767 -1.4377
10757SOL    HW236396   7.545   4.748   0.247  1.0857  2.1486 -1.8304
10758SOL     OW36397   8.255   3.717   0.995  0.1197  0.0981 -0.2129
10758SOL    HW136398   8.306   3.635   0.970 -1.2856 -0.2908 -1.9026
10758SOL    HW236399   8.164   3.691   1.028  0.5006  0.8553  1.4839
10759SOL     OW36400   8.513   3.450   1.065  0.4719 -0.0645  0.1094
10759SOL    HW136401   8.572   3.530   1.073  0.8828 -0.3104 -0.3853
10759SOL    HW236402   8.528   3.389   1.142 -0.4100  0.7044  0.8945
10760SOL     OW36403   8.535   0.039   3.605  0.1914 -0.0527 -0.5562
10760SOL    HW136404   8.465  -0.031   3.595  0.5090 -0.1911 -1.9807
10760SOL    HW236405   8.622  -0.003   3.630 -0.1613  0.0892  0.9241
10762SOL     OW36406   9.306   2.667   2.458  0.5236 -0.2956  0.3150
10762SOL    HW136407   9.210   2.643   2.446  0.5855 -0.8556  0.9048
10762SOL    HW236408   9.347   2.689   2.369 -0.0518 -0.4083  0.0210
10763SOL     OW36409   0.059   0.382   3.318  0.0035  0.1506 -0.2334
10763SOL    HW136410   0.039   0.285   3.300  1.4006  0.1327 -1.9019
10763SOL    HW236411   0.020   0.438   3.245 -0.2575  0.7887  0.3898
10765SOL     OW36412   3.382   3.301   0.425 -0.1453  0.2165  0.0587
10765SOL    HW136413   3.327   3.271   0.347  0.8534  0.0142 -0.5786
10765SOL    HW236414   3.355   3.393   0.452  0.1844  0.6799 -1.1682
10766SOL     OW36415   8.218   0.872   0.799  0.0260  0.1946  0.4968
10766SOL    HW136416   8.163   0.945   0.840 -0.4221  0.9071 -1.3391
10766SOL    HW236417   8.307   0.868   0.845  0.1771  2.1051  0.4122
10767SOL     OW36418   9.350   4.122   2.961 -0.1005 -0.0090  0.1999
10767SOL    HW136419   9.366   4.068   2.878 -0.6873  0.1912 -0.0446
10767SOL    HW236420   9.299   4.205   2.937 -0.8542 -0.2743  0.8599
10768SOL     OW36421   8.836   4.923   1.132  0.3175 -0.0659 -0.1305
10768SOL    HW136422   8.752   4.898   1.084  0.1804 -1.0707  0.6120
10768SOL    HW236423   8.858   4.852   1.200  1.2985  0.6072  0.2660
10770SOL     OW36424   9.657   2.061   2.125 -0.3584  0.3971  0.1034
10770SOL    HW136425   9.660   1.972   2.170 -0.7494  0.2241 -0.2083
10770SOL    HW236426   9.709   2.127   2.179  1.3542 -0.4072 -0.5373
10771SOL     OW36427   9.893   1.417   2.104  0.1183 -0.3874  0.3373
10771SOL    HW136428   9.799   1.438   2.131  0.2340  1.5819 -0.6696
10771SOL    HW236429   9.892   1.358   2.023 -0.2304 -1.1171  0.8657
10772SOL     OW36430   0.713   2.376   2.643 -0.1709  0.7130  0.1352
10772SOL    HW136431   0.707   2.399   2.546 -0.1931  0.2038  0.0177
10772SOL    HW236432   0.759   2.288   2.654  0.6036  1.1793  0.6360
10775SOL     OW36433   7.462   7.235   3.257 -0.3233 -0.4694  0.2152
10775SOL    HW136434   7.369   7.266   3.235  0.2640  0.0870 -1.5334
10775SOL    HW236435   7.489   7.163   3.193 -0.0753 -1.6430  1.6194
10776SOL     OW36436   6.398   6.619   2.583 -0.4594 -0.0234 -0.1908
10776SOL    HW136437   6.457   6.579   2.514  1.5387  0.0591  1.4139
10776SOL    HW236438   6.399   6.719   2.576 -0.9914 -0.0457 -0.6191
10777SOL     OW36439   0.358   9.279   0.704  0.2981 -0.2612  0.1600
10777SOL    HW136440   0.381   9.304   0.610  1.6933  1.3175  0.9080
10777SOL    HW236441   0.349   9.179   0.711 -0.0743 -0.3752 -1.6840
10779SOL     OW36442   4.720   0.615   2.730 -0.0955  0.1012 -0.2658
10779SOL    HW136443   4.633   0.661   2.710 -0.0342  0.1992 -0.3091
10779SOL    HW236444   4.716   0.521   2.696 -0.6377 -0.2852  0.8468
10780SOL     OW36445   1.327   4.267   2.889 -0.1785 -0.1998  0.4522
10780SOL    HW136446   1.378   4.301   2.810  0.5904  0.8931  1.4022
10780SOL    HW236447   1.234   4.304   2.886 -0.7147 -1.6357 -0.9107
10781SOL     OW36448   8.928   4.153   1.587  0.1535  0.2232  0.0401
10781SOL    HW136449   8.851   4.091   1.600  0.9678 -1.6647 -3.5758
10781SOL    HW236450   9.006   4.121   1.641 -0.4315 -0.0182  0.7452
10782SOL     OW36451   4.022   3.010   2.325 -0.0326 -0.3668 -1.0108
10782SOL    HW136452   4.004   3.019   2.423 -0.8476  0.2392 -1.2164
10782SOL    HW236453   3.936   3.012   2.274  0.4704  0.5577 -1.8449
10783SOL     OW36454   3.223   5.406   1.613 -0.3721  0.2733 -0.5478
10783SOL    HW136455   3.157   5.368   1.678  0.3209  0.3657  0.2236
10783SOL    HW236456   3.226   5.349   1.531  1.0056 -1.6443  0.7943
10784SOL     OW36457   5.210   8.423   2.532 -0.2447 -0.5671  0.0446
10784SOL    HW136458   5.303   8.406   2.566 -0.3376 -1.3199 -0.0717
10784SOL    HW236459   5.145   8.415   2.607 -0.1501  0.5971  0.2536
10785SOL     OW36460   4.124   7.945   3.480  0.4194  0.6617  0.6281
10785SOL    HW136461   4.098   8.028   3.529 -1.3835  1.7202 -2.0191
10785SOL    HW236462   4.062   7.870   3.507  1.2092  0.4918  2.0242
10786SOL     OW36463   7.679   8.954   2.229  0.3344  0.0317 -0.3741
10786SOL    HW136464   7.681   8.878   2.163 -0.2591 -1.6889  1.5202
10786SOL    HW236465   7.599   8.944   2.288  0.2221  2.1959 -0.1485
10789SOL     OW36466   4.572   0.363   2.175  0.2563 -0.4134  0.1932
10789SOL    HW136467   4.545   0.367   2.272 -0.4101 -6.9338  0.4987
10789SOL    HW236468   4.491   0.354   2.118  0.8865 -1.1598 -0.5941
10790SOL     OW36469   2.352   2.058   0.299 -0.0436 -0.1440 -0.1686
10790SOL    HW136470   2.354   2.085   0.202 -2.6614  0.1078 -0.1856
10790SOL    HW236471   2.289   1.981   0.310  1.4118 -1.1729  1.1202
10791SOL     OW36472   6.813   8.934   3.594 -0.0231  0.4893  0.7950
10791SOL    HW136473   6.722   8.954   3.632  0.2089  0.0391  1.5980
10791SOL    HW236474   6.813   8.841   3.558 -0.1689  0.8304 -0.0988
10792SOL     OW36475   2.354   4.083   2.073 -0.2864  0.2050 -0.1006
10792SOL    HW136476   2.414   4.046   2.002  0.5876 -1.6223  1.5514
10792SOL    HW236477   2.285   4.015   2.097 -1.0248  1.0853  0.3182
10793SOL     OW36478   8.919   2.517   2.226 -0.6364  0.1945  0.4876
10793SOL    HW136479   8.934   2.518   2.127  0.1839  0.1159  0.6116
10793SOL    HW236480   8.826   2.485   2.245 -0.6638 -0.1678 -0.2436
10794SOL     OW36481   9.114   0.176   0.292  0.1861  0.6564 -0.3189
10794SOL    HW136482   9.163   0.102   0.246 -0.9969  0.1640 -0.8097
10794SOL    HW236483   9.169   0.210   0.369 -0.5711 -2.8623  1.8846
10795SOL     OW36484   8.173   6.455   2.225 -0.0552  0.1456  0.1360
10795SOL    HW136485   8.233   6.435   2.303 -0.5175 -0.3710  0.3654
10795SOL    HW236486   8.165   6.554   2.214 -0.4622  0.2324  1.1202
10797SOL     OW36487   1.771   7.053   2.520 -0.1729 -0.3607 -0.4420
10797SOL    HW136488   1.672   7.051   2.533 -0.3105 -1.2832 -1.5902
10797SOL    HW236489   1.810   6.963   2.539  0.3240 -0.2455 -0.8759
10798SOL     OW36490   4.994   7.644   2.434 -0.1934  0.2984 -0.2547
10798SOL    HW136491   4.938   7.700   2.372  0.1360  0.9665  0.0384
10798SOL    HW236492   4.940   7.567   2.466 -0.5619  0.2768 -0.9061
10799SOL     OW36493   8.732   5.181   1.138  0.1991  0.1016 -0.2408
10799SOL    HW136494   8.732   5.081   1.137 -2.1229  0.0638  1.3584
10799SOL    HW236495   8.778   5.214   1.220  0.5602  0.3702 -0.5433
10800SOL     OW36496   7.075   0.741   3.440 -0.2918  0.0765  0.8434
10800SOL    HW136497   7.053   0.720   3.345 -2.1317  0.2416  1.2160
10800SOL    HW236498   7.166   0.783   3.445  0.0982 -0.5478 -0.7545
10801SOL     OW36499   4.037   2.680   2.342 -0.6896 -0.4946 -0.4113
10801SOL    HW136500   4.001   2.711   2.254 -3.5512 -0.3212  0.7634
10801SOL    HW236501   4.065   2.759   2.396  0.6893 -0.5763 -0.9926
10802SOL     OW36502   7.188   0.042   3.571 -0.3905  0.0641  0.5924
10802SOL    HW136503   7.259   0.021   3.639  1.2558  1.4881 -0.6251
10802SOL    HW236504   7.190   0.140   3.550 -0.3142 -0.4743 -2.0711
10804SOL     OW36505   8.432   9.139   0.911 -0.1939 -0.4356  0.2235
10804SOL    HW136506   8.374   9.196   0.853 -0.9313 -0.6956  0.6990
10804SOL    HW236507   8.522   9.182   0.921  0.0691 -0.5693 -1.4101
10805SOL     OW36508   7.667   0.603   2.854  0.6133  0.4222 -0.0506
10805SOL    HW136509   7.752   0.636   2.813  0.9814 -1.2249 -0.6376
10805SOL    HW236510   7.665   0.504   2.850 -0.7695  0.3935  1.1218
10808SOL     OW36511   6.841   0.875   2.932  0.2093 -0.6479  0.1334
10808SOL    HW136512   6.906   0.904   3.003  0.2404 -0.3887 -0.0024
10808SOL    HW236513   6.824   0.777   2.942  1.0521 -0.8345 -0.1751
10809SOL     OW36514   8.265   2.756   0.286  0.0875 -0.1285  0.2503
10809SOL    HW136515   8.233   2.687   0.220 -3.7971  0.8051  1.0470
10809SOL    HW236516   8.275   2.713   0.376 -1.4086  0.1056  0.5397
10810SOL     OW36517   2.638   9.758   3.423  0.3866  0.1616  0.4513
10810SOL    HW136518   2.658   9.680   3.482 -1.3964 -0.8565 -0.2534
10810SOL    HW236519   2.723   9.790   3.381  1.1073 -1.5969  0.5125
10811SOL     OW36520   8.100   0.371   2.098 -0.0903 -0.0707 -0.2167
10811SOL    HW136521   8.029   0.328   2.154 -0.3717 -0.3304 -0.7674
10811SOL    HW236522   8.109   0.467   2.123  0.5982 -0.4563  1.0824
10812SOL     OW36523   1.839   1.961   0.107  0.2732  0.7539 -0.0626
10812SOL    HW136524   1.829   1.987   0.011  0.2294  0.0636 -0.2495
10812SOL    HW236525   1.842   2.043   0.164  0.1119  1.1593 -0.6360
10813SOL     OW36526   3.119   8.128   3.006 -0.0809  0.1703  0.4126
10813SOL    HW136527   3.192   8.195   3.018 -2.1328  2.3761  0.9394
10813SOL    HW236528   3.056   8.133   3.083 -1.2269 -1.1433 -0.4113
10814SOL     OW36529   8.503   8.410   1.212 -0.0431  0.2807  0.7033
10814SOL    HW136530   8.546   8.500   1.220  2.3976 -0.8874  1.3140
10814SOL    HW236531   8.437   8.398   1.287  0.8802  0.9130  1.6362
10816SOL     OW36532   3.358   6.891   3.732 -0.2297 -1.0012 -0.3636
10816SOL    HW136533   3.388   6.873   3.826 -0.3135  0.8189  0.0267
10816SOL    HW236534   3.283   6.828   3.709  0.2836 -1.9577  0.5124
10818SOL     OW36535   4.820   2.061   0.855 -0.2389 -0.2639  0.1285
10818SOL    HW136536   4.748   2.007   0.898 -1.0259  1.1508  0.6309
10818SOL    HW236537   4.783   2.150   0.827  1.4700  0.7329  0.9460
10819SOL     OW36538   8.759   6.709   0.367  0.9176 -0.2083  0.1005
10819SOL    HW136539   8.793   6.631   0.420 -2.4669  0.6202  3.7863
10819SOL    HW236540   8.797   6.794   0.405 -0.8453  0.3384  0.6974
10820SOL     OW36541   2.258   0.723   1.344 -1.1215  0.4764 -0.0572
10820SOL    HW136542   2.162   0.703   1.325 -0.8971  0.4996 -1.2542
10820SOL    HW236543   2.280   0.816   1.314 -0.4948  0.1426 -0.6411
10821SOL     OW36544   5.566   0.973   2.882 -0.4725 -0.1203  0.5031
10821SOL    HW136545   5.483   0.937   2.840 -0.9080  0.7845  0.5747
10821SOL    HW236546   5.646   0.927   2.844 -1.0905 -2.3214  1.7495
10822SOL     OW36547   0.014   9.191   2.321 -0.4110 -0.5025  0.2131
10822SOL    HW136548  -0.025   9.239   2.242 -0.8540 -1.1069  0.0619
10822SOL    HW236549   0.004   9.248   2.402  1.3834  0.7649 -0.4194
10825SOL     OW36550   4.532   0.261   0.397 -0.3045 -0.0697 -0.1026
10825SOL    HW136551   4.459   0.321   0.364 -0.3674 -0.1213 -0.0574
10825SOL    HW236552   4.493   0.171   0.420 -0.8465  0.9474  3.2321
10826SOL     OW36553   1.571   3.620   2.486 -0.1504  0.1968  0.5264
10826SOL    HW136554   1.616   3.539   2.447 -0.2481  0.8322 -0.9190
10826SOL    HW236555   1.640   3.688   2.511 -0.2585  1.1598 -1.6645
10827SOL     OW36556   2.729   4.565   2.941  0.4961 -0.2638  0.3340
10827SOL    HW136557   2.673   4.602   3.015  0.3208  0.0246  0.0557
10827SOL    HW236558   2.769   4.640   2.888  0.3767 -0.4696 -0.0478
10828SOL     OW36559   5.438   8.826   3.454 -0.0719 -0.0968 -0.1639
10828SOL    HW136560   5.395   8.802   3.541  0.6092 -1.3954 -0.1701
10828SOL    HW236561   5.416   8.757   3.385  0.2814  0.3476 -0.7326
10829SOL     OW36562   0.018   4.172   1.726  0.1027  0.0043 -0.0499
10829SOL    HW136563   0.075   4.119   1.789  0.5131 -0.9203 -1.1545
10829SOL    HW236564  -0.078   4.147   1.738  0.3058 -1.1338 -0.6549
10832SOL     OW36565   1.023   7.757   3.523  0.2253 -0.3579 -0.1912
10832SOL    HW136566   1.015   7.694   3.446 -1.0706  0.9958 -1.1834
10832SOL    HW236567   1.003   7.709   3.609 -1.8488 -1.0267 -1.0351
10833SOL     OW36568   2.607   8.791   1.751 -0.7714 -0.0821  0.0786
10833SOL    HW136569   2.562   8.708   1.720 -1.0272 -0.3008  1.0106
10833SOL    HW236570   2.543   8.868   1.747 -0.1319  0.3809 -2.1141
10834SOL     OW36571   3.452   4.132   0.384 -0.4747  0.2793  0.7327
10834SOL    HW136572   3.372   4.177   0.345 -0.6613  0.0044  0.7908
10834SOL    HW236573   3.437   4.118   0.482  0.0925  1.1844  0.9420
10835SOL     OW36574   2.649   9.985   3.603  0.4987  0.5746 -0.0058
10835SOL    HW136575   2.746  10.005   3.588  0.7468 -0.4934  0.0886
10835SOL    HW236576   2.619   9.918   3.535 -0.3570  1.4402 -0.4793
10838SOL     OW36577   1.961   0.338   2.752 -0.0141  0.3338 -0.5680
10838SOL    HW136578   2.056   0.337   2.784  0.1076 -1.1643 -0.9505
10838SOL    HW236579   1.952   0.278   2.673 -1.2768  0.5210 -0.5692
10839SOL     OW36580   3.611   8.142   0.010  0.0028 -0.0527 -0.6102
10839SOL    HW136581   3.664   8.206  -0.046  0.0588 -1.8242 -2.6364
10839SOL    HW236582   3.539   8.101  -0.045 -0.4797 -1.2065  0.8458
10840SOL     OW36583   8.226   2.151   2.741  0.0416  0.2157 -0.6334
10840SOL    HW136584   8.270   2.100   2.815 -2.9350 -1.2554  0.2119
10840SOL    HW236585   8.249   2.109   2.653 -1.4885 -1.9971 -0.0207
10841SOL     OW36586   0.603   7.844   1.174 -0.0027  0.5692  0.2913
10841SOL    HW136587   0.635   7.938   1.174 -2.2675  1.3813  0.9838
10841SOL    HW236588   0.666   7.787   1.226  0.4188  2.0704  1.4595
10842SOL     OW36589   0.017   4.563   0.093  0.1609 -0.0321 -0.1427
10842SOL    HW136590  -0.009   4.500   0.167 -0.4732 -0.6234 -0.8692
10842SOL    HW236591   0.037   4.653   0.132  0.9467 -0.6374  0.8917
10843SOL     OW36592   5.496   6.596   2.331  0.5605 -0.5827  0.6956
10843SOL    HW136593   5.401   6.624   2.348  0.5809 -0.1985  0.1758
10843SOL    HW236594   5.505   6.498   2.350 -0.6043 -1.2520 -1.9896
10845SOL     OW36595   7.545   2.247   3.229  0.6137  0.4013 -0.6202
10845SOL    HW136596   7.592   2.303   3.297  1.0173  0.5926 -1.0564
10845SOL    HW236597   7.588   2.258   3.140  0.4697 -0.3199 -0.7883
10846SOL     OW36598   2.940   5.698   0.782 -0.4525  0.5350  0.8927
10846SOL    HW136599   2.911   5.678   0.875 -1.9279  0.3776  0.4051
10846SOL    HW236600   2.874   5.661   0.717 -0.5638  2.5044 -0.1546
10847SOL     OW36601   8.045   2.095   3.657  0.6054  0.0754 -0.1941
10847SOL    HW136602   7.962   2.151   3.663 -0.8082 -1.8500 -1.0951
10847SOL    HW236603   8.114   2.142   3.603 -0.0411  1.5274  0.2250
10848SOL     OW36604   6.799   9.606   0.944 -0.1607 -0.0450  0.8796
10848SOL    HW136605   6.887   9.557   0.947 -0.2778 -0.2365  1.2194
10848SOL    HW236606   6.761   9.611   1.036 -0.1339  0.7301  0.8511
10850SOL     OW36607   3.049   3.322   0.102 -0.5286  0.4503  0.0633
10850SOL    HW136608   3.054   3.420   0.117  1.3470  0.2242  1.0053
10850SOL    HW236609   3.135   3.279   0.129 -1.1472 -1.3971 -0.7861
10851SOL     OW36610   2.788   2.568   0.863 -0.7126 -0.6782 -0.0729
10851SOL    HW136611   2.832   2.527   0.943 -0.3025  0.3686  0.2466
10851SOL    HW236612   2.763   2.496   0.798  1.5610 -1.2710 -0.3058
10852SOL     OW36613   7.019   9.673   1.448  0.1839  0.6529 -0.0966
10852SOL    HW136614   6.960   9.735   1.396  1.3901  1.1109 -0.9279
10852SOL    HW236615   7.112   9.678   1.413  0.1854 -2.1015 -0.5947
10853SOL     OW36616   8.072   7.691   1.568 -0.5911 -0.7094 -0.3929
10853SOL    HW136617   8.095   7.595   1.558  0.6751 -0.5089  0.4687
10853SOL    HW236618   8.149   7.747   1.537 -0.7619 -0.0059  0.4245
10854SOL     OW36619   0.155   1.593   0.766  0.1777  0.5471 -0.6001
10854SOL    HW136620   0.138   1.667   0.701  0.4941  0.3851 -0.8699
10854SOL    HW236621   0.098   1.606   0.847  1.0059  1.6683 -0.1876
10855SOL     OW36622   3.867   6.158   1.932  0.0146 -0.0421  0.5941
10855SOL    HW136623   3.848   6.067   1.968 -0.6826 -0.0538  0.1906
10855SOL    HW236624   3.800   6.181   1.862  1.6001 -0.1662 -0.9845
10856SOL     OW36625   2.272   8.614   3.221  0.4137  0.6303 -0.4307
10856SOL    HW136626   2.251   8.681   3.150 -1.6616  0.1382 -0.3401
10856SOL    HW236627   2.211   8.629   3.299  0.6302 -0.7079  0.0063
10857SOL     OW36628   9.698   6.166   1.870  0.1842 -0.9357 -0.4055
10857SOL    HW136629   9.723   6.248   1.819  2.8070 -0.6531  1.2322
10857SOL    HW236630   9.613   6.181   1.919  0.8398  0.9750  0.1805
10858SOL     OW36631   0.657   8.822   0.491  0.4912 -0.3067  0.5532
10858SOL    HW136632   0.678   8.748   0.555  0.4155  0.0608  1.0031
10858SOL    HW236633   0.577   8.797   0.436 -0.9240  0.3998  2.2700
10859SOL     OW36634   2.466   3.686   1.565 -0.9770  0.7317 -0.0092
10859SOL    HW136635   2.510   3.631   1.494 -2.7783  1.2453 -1.5605
10859SOL    HW236636   2.477   3.783   1.544 -0.3743  0.9197  1.1370
10861SOL     OW36637   1.338   5.701   1.262  0.0602 -0.1009  0.0889
10861SOL    HW136638   1.296   5.720   1.351  1.8590 -0.1537  0.9891
10861SOL    HW236639   1.293   5.622   1.220 -0.4554 -0.4196  1.2224
10863SOL     OW36640   8.823   0.085   0.062 -0.1281  0.2596  0.1331
10863SOL    HW136641   8.815   0.090   0.162 -0.9502 -1.0255  0.1436
10863SOL    HW236642   8.870   0.166   0.028  1.3434  0.0769  1.6893
10867SOL     OW36643   8.699   5.986   0.496 -0.2966  0.5531  0.1987
10867SOL    HW136644   8.606   6.008   0.523 -1.1529 -1.1756 -1.2373
10867SOL    HW236645   8.707   5.992   0.396  0.7796 -0.6104  0.2087
10868SOL     OW36646   7.946   4.459   0.769 -0.1533 -0.2371  0.3358
10868SOL    HW136647   7.960   4.421   0.860  0.0286 -0.8571  0.0520
10868SOL    HW236648   7.911   4.388   0.708 -0.8562  0.3312  0.0754
10869SOL     OW36649   0.122   2.361   1.513 -0.2153  0.3703  0.0340
10869SOL    HW136650   0.025   2.350   1.532 -0.3286  0.9381 -0.1979
10869SOL    HW236651   0.150   2.297   1.441 -0.9257  1.7394 -1.5065
10870SOL     OW36652   3.548   2.255   2.121 -0.1795  0.4133  0.1541
10870SOL    HW136653   3.537   2.335   2.180 -1.3574  0.2835  0.1077
10870SOL    HW236654   3.464   2.202   2.119 -0.4720  0.8799 -2.3366
10871SOL     OW36655   4.647   5.327   1.247 -0.1782  0.1873  0.2100
10871SOL    HW136656   4.656   5.293   1.341 -0.2296 -1.0386 -0.2143
10871SOL    HW236657   4.600   5.415   1.248 -1.3346 -0.4254  1.2433
10872SOL     OW36658   0.970   1.244   1.607 -0.1938  0.2857  0.0461
10872SOL    HW136659   0.917   1.239   1.522  0.4028  3.1830 -0.5361
10872SOL    HW236660   0.974   1.153   1.649 -3.0558 -0.5951 -1.4466
10873SOL     OW36661   0.935   5.719   2.496  0.2491 -0.2652 -0.2641
10873SOL    HW136662   0.934   5.777   2.578  0.1648 -1.4931  0.6102
10873SOL    HW236663   0.973   5.771   2.420  0.5707  0.8139  0.6143
10874SOL     OW36664   3.382   7.737   3.359  0.0701  0.0517 -0.2560
10874SOL    HW136665   3.361   7.821   3.309  0.1469  0.2789  0.0987
10874SOL    HW236666   3.399   7.663   3.293  0.0825  0.3297 -0.5669
10875SOL     OW36667   9.286   5.997   3.351 -0.4008  0.1629 -0.1292
10875SOL    HW136668   9.303   6.052   3.432 -0.1490 -0.3143  0.1421
10875SOL    HW236669   9.366   5.940   3.332 -0.0759  0.9757 -1.2723
10876SOL     OW36670   2.002   6.585   0.064  0.3509 -0.1883  0.6723
10876SOL    HW136671   2.060   6.592   0.145 -0.1984 -1.9999  1.2579
10876SOL    HW236672   2.057   6.553  -0.013  0.7129  0.8109  0.5055
10879SOL     OW36673   1.039   2.861   3.342 -0.0076 -0.1598  0.1565
10879SOL    HW136674   0.998   2.852   3.432  1.1425 -0.4674  0.6612
10879SOL    HW236675   1.099   2.941   3.341  0.5262 -0.5599 -0.1195
10880SOL     OW36676   2.910   2.451   2.185 -0.3208 -0.2186  0.2986
10880SOL    HW136677   2.814   2.445   2.214 -0.9356  1.4658 -1.3204
10880SOL    HW236678   2.918   2.422   2.090  0.9304 -1.1615  0.6820
10881SOL     OW36679   3.744   2.986   1.510  0.0808 -0.5626 -0.1833
10881SOL    HW136680   3.762   2.949   1.601  1.7159 -0.3248 -0.3861
10881SOL    HW236681   3.665   2.939   1.470 -0.3359 -1.0181  1.1474
10882SOL     OW36682   3.953   1.742   0.833 -0.3310 -0.3449 -0.5859
10882SOL    HW136683   3.986   1.659   0.789 -2.1027 -1.0109 -0.7187
10882SOL    HW236684   3.863   1.725   0.874  0.2559  0.9050  1.2982
10883SOL     OW36685   5.033   1.642   1.144 -0.2763 -0.0395 -0.0872
10883SOL    HW136686   5.126   1.666   1.115 -0.3957 -0.2573 -0.6533
10883SOL    HW236687   4.984   1.725   1.169 -0.4191  0.2373 -1.2446
10884SOL     OW36688   9.835   4.842   3.638 -0.2183 -0.2618  0.5493
10884SOL    HW136689   9.931   4.868   3.635 -0.4667  0.5296 -2.2005
10884SOL    HW236690   9.780   4.921   3.667 -0.2901  0.1635 -0.7117
10885SOL     OW36691   1.294   0.313   0.025 -0.0123 -0.5544 -0.3568
10885SOL    HW136692   1.276   0.219  -0.002 -2.1894 -0.5219  0.8167
10885SOL    HW236693   1.228   0.373  -0.020 -0.0926  0.1371  0.6670
10886SOL     OW36694   3.153   9.500   3.145 -0.1527  0.7437  0.1093
10886SOL    HW136695   3.208   9.552   3.080  1.0709 -0.0489  0.4780
10886SOL    HW236696   3.178   9.403   3.140 -1.4695  0.3878  0.3438
10887SOL     OW36697   6.597   8.121   3.098  0.0531 -0.4087  0.0252
10887SOL    HW136698   6.660   8.113   3.020 -0.7175 -0.1186 -0.6300
10887SOL    HW236699   6.535   8.043   3.098  0.8319 -1.0456  1.0604
10888SOL     OW36700   3.531   7.535   0.076 -0.7760 -0.0369 -0.4128
10888SOL    HW136701   3.432   7.521   0.073 -0.8142 -0.2512  1.4397
10888SOL    HW236702   3.552   7.606   0.143  0.4235 -0.9651  0.1949
10889SOL     OW36703   0.874   0.973   0.328  0.8572  0.1183 -0.1304
10889SOL    HW136704   0.903   1.064   0.357 -2.0084  1.5601 -1.5977
10889SOL    HW236705   0.846   0.976   0.232  1.5088 -2.5220 -0.4530
10890SOL     OW36706   7.068   0.186   2.528 -0.8627 -0.0075  0.6331
10890SOL    HW136707   7.001   0.113   2.511 -1.5881  1.0322 -1.2289
10890SOL    HW236708   7.141   0.180   2.460  0.3067 -0.3844  1.9025
10892SOL     OW36709   1.241   7.521   3.722  0.1414 -0.4199  0.1488
10892SOL    HW136710   1.150   7.562   3.709 -0.2076 -0.6814  1.7157
10892SOL    HW236711   1.232   7.422   3.721  0.7947 -0.4986 -2.2400
10893SOL     OW36712   9.319   6.404   3.580  0.5577 -0.5187 -0.7618
10893SOL    HW136713   9.317   6.388   3.482  0.8119  0.5117 -0.9397
10893SOL    HW236714   9.373   6.486   3.600  0.5676 -0.7557  0.2419
10894SOL     OW36715   4.125   2.637   3.369 -0.0271  0.0741 -0.5943
10894SOL    HW136716   4.077   2.664   3.286 -3.6453  0.3921  1.5137
10894SOL    HW236717   4.154   2.542   3.361  1.3944  0.6341 -2.9072
10895SOL     OW36718   1.599   0.392   0.644  0.0730  0.0751 -0.1375
10895SOL    HW136719   1.619   0.426   0.552 -0.4072 -1.2848 -0.7611
10895SOL    HW236720   1.514   0.340   0.643 -1.2582  2.1517  1.5992
10896SOL     OW36721   1.785   0.134   3.707  0.0380 -0.7338  0.7343
10896SOL    HW136722   1.845   0.212   3.689 -1.7638  0.5743  0.3163
10896SOL    HW236723   1.837   0.050   3.696  1.4123  0.3210 -1.1840
10897SOL     OW36724   2.416   6.885   0.173  0.2546 -0.6134 -0.5120
10897SOL    HW136725   2.438   6.790   0.151  1.1736 -0.6452  0.4940
10897SOL    HW236726   2.329   6.888   0.222 -0.0876 -0.8710 -1.0976
10898SOL     OW36727   1.431   6.826   0.583 -0.0679  0.1205 -0.2770
10898SOL    HW136728   1.524   6.861   0.568 -0.4780  0.7877 -1.3785
10898SOL    HW236729   1.397   6.859   0.671  0.8035 -0.2748  0.2183
10899SOL     OW36730   2.986   6.576   3.131 -0.1643  0.3213  0.0855
10899SOL    HW136731   2.927   6.600   3.209 -0.1034  1.0237 -0.0808
10899SOL    HW236732   2.993   6.655   3.070 -0.9586 -0.5235 -1.1135
10901SOL     OW36733   0.848   4.617   2.489  0.5657 -0.1714  0.0270
10901SOL    HW136734   0.807   4.632   2.399  1.9309  0.3264 -0.5264
10901SOL    HW236735   0.944   4.592   2.478  1.5187  2.7072  1.4520
10902SOL     OW36736   1.850   3.483   0.135 -0.1766 -0.8065  0.1472
10902SOL    HW136737   1.832   3.543   0.057 -0.6983 -0.2735  0.6773
10902SOL    HW236738   1.801   3.396   0.122  0.5730 -1.1191 -0.6136
10903SOL     OW36739   3.626   9.042   3.161 -0.1590  0.2791  0.1472
10903SOL    HW136740   3.651   8.974   3.229 -2.2245 -0.3727  0.2790
10903SOL    HW236741   3.568   9.112   3.203 -0.2164  0.6835 -0.5947
10904SOL     OW36742   9.098   7.957   0.458 -0.2488 -0.4282  0.3170
10904SOL    HW136743   9.157   8.028   0.494 -0.5148 -0.0112 -0.0665
10904SOL    HW236744   9.116   7.945   0.360 -1.9467  0.8634 -0.1815
10905SOL     OW36745   3.640   6.817   2.102  0.1885 -0.6308  0.8634
10905SOL    HW136746   3.636   6.908   2.142 -0.2150 -0.7870  1.1774
10905SOL    HW236747   3.574   6.810   2.028  0.8564 -0.3779  0.2423
10906SOL     OW36748   3.620   4.767   3.220 -0.1817  0.4245  0.3507
10906SOL    HW136749   3.602   4.864   3.202  1.8768  0.3355 -2.4609
10906SOL    HW236750   3.574   4.740   3.304  0.1114  4.1338  1.8074
10907SOL     OW36751   7.843   8.223   1.587  0.2072 -0.1330  0.6402
10907SOL    HW136752   7.816   8.217   1.491 -1.3528  0.9298  1.0016
10907SOL    HW236753   7.799   8.149   1.639 -0.7650  0.6454  0.9384
10908SOL     OW36754   3.881   8.081   1.329  0.3870  0.0637 -0.0175
10908SOL    HW136755   3.828   8.096   1.245  0.3101 -0.0927  0.0033
10908SOL    HW236756   3.825   8.103   1.408 -0.0474 -1.2674  0.0495
10909SOL     OW36757   0.858   8.571   3.468  0.3671 -0.0222  0.2427
10909SOL    HW136758   0.945   8.620   3.470  0.6299 -0.5116  3.0216
10909SOL    HW236759   0.789   8.622   3.520  0.1124 -1.5814  1.4799
10910SOL     OW36760   8.562   3.660   1.978  0.7910  0.0165 -0.3789
10910SOL    HW136761   8.645   3.714   1.969  1.2935 -0.8917 -1.2096
10910SOL    HW236762   8.573   3.572   1.932  0.2326 -1.0891  1.5269
10911SOL     OW36763   7.912   0.288   2.308 -0.5127 -0.5804  0.2840
10911SOL    HW136764   7.876   0.361   2.366  0.3807 -1.0823  1.4967
10911SOL    HW236765   7.886   0.199   2.347 -1.1542 -0.9174 -0.8930
10912SOL     OW36766   0.630   6.191   0.336 -0.0521 -0.4094  0.3453
10912SOL    HW136767   0.706   6.130   0.316  1.7079  1.6131  0.6383
10912SOL    HW236768   0.578   6.155   0.414  1.5554 -1.0068  1.1524
10914SOL     OW36769   9.691   3.923   1.534  0.8199 -0.0157  0.3250
10914SOL    HW136770   9.629   3.863   1.485  1.6459 -1.8494  1.4872
10914SOL    HW236771   9.781   3.879   1.542  1.3397  1.2277  1.4911
10916SOL     OW36772   2.286   9.929   0.525  0.0225  0.8669  0.1375
10916SOL    HW136773   2.258   9.834   0.531  0.4061  0.6655 -1.0412
10916SOL    HW236774   2.274   9.974   0.614  0.7289 -0.5170  0.9487
10917SOL     OW36775   0.003   9.820   0.660  0.2017  0.3243  0.1454
10917SOL    HW136776   0.083   9.771   0.696  0.5846 -0.2881 -1.4906
10917SOL    HW236777  -0.053   9.757   0.606 -1.5834  0.6647  1.5520
10918SOL     OW36778   0.879   9.216   0.476 -0.1369  0.4326 -0.2920
10918SOL    HW136779   0.877   9.274   0.394 -2.6615  0.7622 -0.0352
10918SOL    HW236780   0.970   9.221   0.518  1.0474  0.6362 -2.7856
10919SOL     OW36781   0.299   9.534   2.145  0.2458 -0.2269 -0.5189
10919SOL    HW136782   0.302   9.436   2.130 -1.3679 -0.5078  0.8577
10919SOL    HW236783   0.214   9.571   2.108  0.9654  0.6970 -1.2711
10920SOL     OW36784   8.236   3.387   1.044 -0.1546 -0.5857 -0.2378
10920SOL    HW136785   8.328   3.364   1.011 -0.1208 -0.9963  0.1287
10920SOL    HW236786   8.175   3.402   0.966  0.6939  1.6716 -0.5057
10921SOL     OW36787   2.123   4.466   2.721 -0.3573  0.0354 -0.2973
10921SOL    HW136788   2.153   4.479   2.627 -3.6915  1.5436 -1.2444
10921SOL    HW236789   2.053   4.394   2.724 -0.9580  0.6374  0.8474
10922SOL     OW36790   5.374   0.614   2.053  0.0047  0.5581 -0.3714
10922SOL    HW136791   5.416   0.657   1.972 -1.0609  1.7914 -0.2848
10922SOL    HW236792   5.315   0.680   2.099  1.5357  0.2539  2.1419
10923SOL     OW36793   3.357   5.638   1.663  0.4013  0.7271  0.2773
10923SOL    HW136794   3.307   5.563   1.620  1.6695  0.3631 -0.6053
10923SOL    HW236795   3.391   5.700   1.592 -0.2709  1.9194  0.9738
10924SOL     OW36796   8.046   1.725   1.893  0.3736  0.2690 -0.5490
10924SOL    HW136797   8.129   1.673   1.913  0.9867  0.9525 -1.2833
10924SOL    HW236798   8.047   1.755   1.798 -0.2871  1.0500 -0.3153
10925SOL     OW36799   8.984   6.127   2.066  0.8755  0.2854  1.0458
10925SOL    HW136800   9.001   6.036   2.104  1.3647 -1.1035 -2.3501
10925SOL    HW236801   8.888   6.151   2.079 -0.0334 -2.1390 -0.8841
10926SOL     OW36802   8.093   6.138   1.152 -0.4809  0.2715  0.1517
10926SOL    HW136803   8.095   6.059   1.091 -0.6537 -0.2124  0.7677
10926SOL    HW236804   8.008   6.137   1.205  0.0050  0.2743  0.9404
10927SOL     OW36805   2.502   4.439   3.056 -0.3217 -0.0363 -0.5176
10927SOL    HW136806   2.552   4.390   3.128  0.4210 -0.7787 -1.5106
10927SOL    HW236807   2.483   4.532   3.085  1.0032  0.0196  0.1879
10928SOL     OW36808   8.569   9.404   1.262 -0.0908 -0.4096 -0.3507
10928SOL    HW136809   8.536   9.404   1.168  1.3397 -0.7024 -0.8656
10928SOL    HW236810   8.624   9.486   1.278 -0.2473 -0.4090  0.2026
10929SOL     OW36811   8.408   3.290   3.655  0.3073  0.1747 -0.2101
10929SOL    HW136812   8.479   3.228   3.689  0.6027  0.5855 -0.0703
10929SOL    HW236813   8.331   3.237   3.621  0.6776 -0.2764 -0.3504
10930SOL     OW36814   3.904   8.372   0.729  0.5573 -0.1636  0.2245
10930SOL    HW136815   3.953   8.344   0.812 -1.2622 -0.9313  1.0714
10930SOL    HW236816   3.947   8.330   0.649  0.9553 -1.2703  1.0039
10931SOL     OW36817   4.402   6.418   2.342  0.1196 -0.4752  0.0794
10931SOL    HW136818   4.430   6.505   2.383 -2.2958 -0.1574  1.1551
10931SOL    HW236819   4.387   6.350   2.414 -2.1227 -0.5236 -0.3704
10932SOL     OW36820   9.118   7.909   1.501  0.1677 -0.5860  0.0332
10932SOL    HW136821   9.180   7.926   1.578 -0.4014 -1.2617  0.6389
10932SOL    HW236822   9.109   7.993   1.447 -0.7604  0.3910  1.6747
10933SOL     OW36823   6.467   9.778   1.636 -0.2568  0.5507  0.0984
10933SOL    HW136824   6.497   9.820   1.551 -0.4362  1.5034  0.4913
10933SOL    HW236825   6.389   9.718   1.618  0.4912 -0.2267 -0.5881
10934SOL     OW36826   4.843   8.069   2.753  0.2636  0.0656  0.6926
10934SOL    HW136827   4.873   8.038   2.844 -1.3607 -1.4993  0.7212
10934SOL    HW236828   4.913   8.046   2.686  1.4297  1.1347  1.5240
10935SOL     OW36829   3.603   8.104   1.149 -0.4349  0.5002 -0.2093
10935SOL    HW136830   3.653   8.191   1.137  0.5824 -0.0139  0.2474
10935SOL    HW236831   3.604   8.054   1.063  0.8953 -0.0530  0.1142
10936SOL     OW36832   9.642   2.742   1.949  0.4498  0.3256 -0.6715
10936SOL    HW136833   9.639   2.727   2.048 -0.6491  0.8590 -0.6201
10936SOL    HW236834   9.683   2.831   1.930 -0.8537  0.9479 -0.6188
10938SOL     OW36835   8.602   0.375   0.126  0.2113  0.7111 -0.3223
10938SOL    HW136836   8.617   0.399   0.030 -1.7345  0.4384 -0.7245
10938SOL    HW236837   8.649   0.440   0.185 -0.3365  2.1713 -1.4592
10939SOL     OW36838   9.056   7.183   2.286  0.2959 -0.2153 -0.4886
10939SOL    HW136839   8.983   7.234   2.331  1.2873  1.0577 -0.2899
10939SOL    HW236840   9.021   7.095   2.254 -1.3222  0.3850 -0.4015
10940SOL     OW36841   2.211   1.365   2.117 -0.2242  0.1063 -0.2909
10940SOL    HW136842   2.173   1.275   2.093  1.4674 -0.2772 -1.6172
10940SOL    HW236843   2.300   1.353   2.160  0.7999  1.1831 -2.0252
10941SOL     OW36844   0.331   9.476   2.920  0.4366  0.2824  0.2319
10941SOL    HW136845   0.236   9.448   2.935  0.1367  1.3395  0.3853
10941SOL    HW236846   0.341   9.573   2.944  1.5366  0.1983  0.1324
10942SOL     OW36847   2.745   9.511   1.123  0.0144  0.7954 -0.5423
10942SOL    HW136848   2.811   9.452   1.169  0.7585 -0.1439 -2.8057
10942SOL    HW236849   2.670   9.457   1.086 -0.8605  1.6094 -0.0006
10943SOL     OW36850   1.461   2.555   1.796 -0.8456  0.5497 -0.2604
10943SOL    HW136851   1.421   2.501   1.722  0.2907  0.1268 -0.5826
10943SOL    HW236852   1.504   2.637   1.758 -0.5331  0.4896 -0.0434
10944SOL     OW36853   8.341   8.503   3.343 -0.4460  0.3661 -0.5305
10944SOL    HW136854   8.390   8.583   3.309  2.0381 -0.3572  1.1151
10944SOL    HW236855   8.357   8.495   3.442 -0.5072 -2.2120 -0.6971
10945SOL     OW36856   3.298   2.708   0.122  0.3337 -0.1266 -0.0833
10945SOL    HW136857   3.235   2.711   0.200  0.2065 -0.1674 -0.1843
10945SOL    HW236858   3.274   2.631   0.063 -0.5783  0.8570 -1.0236
10946SOL     OW36859   1.660   6.885   3.547 -0.4453  0.3085 -0.2921
10946SOL    HW136860   1.713   6.971   3.552 -1.2394  0.7564  0.4915
10946SOL    HW236861   1.661   6.851   3.453 -0.2077  1.2362 -0.6308
10947SOL     OW36862   7.323   6.683   3.262 -0.3173  0.3899 -0.2227
10947SOL    HW136863   7.409   6.712   3.305 -1.9732 -0.5025  3.8040
10947SOL    HW236864   7.340   6.665   3.165  3.4200  2.9124 -0.1356
10948SOL     OW36865   7.822   3.160   3.567 -0.5553 -0.0291  0.2074
10948SOL    HW136866   7.880   3.227   3.521 -0.4134 -0.8533 -0.8206
10948SOL    HW236867   7.830   3.071   3.522  0.0602 -1.0180  2.1824
10949SOL     OW36868   4.872   9.637   3.363 -0.0150  0.2801  0.6334
10949SOL    HW136869   4.955   9.672   3.319 -0.4075 -2.0589 -2.1586
10949SOL    HW236870   4.799   9.705   3.352 -0.2025 -0.3563 -2.8386
10952SOL     OW36871   8.051   2.269   2.140 -0.9331 -0.1427  0.6445
10952SOL    HW136872   8.074   2.195   2.076 -0.4779  0.1987  0.4101
10952SOL    HW236873   8.077   2.241   2.233 -2.1438 -0.8764  0.7643
10953SOL     OW36874   3.406   0.484   3.046 -0.0346  0.2616  0.2457
10953SOL    HW136875   3.420   0.536   2.962  2.4665 -0.0063  0.4524
10953SOL    HW236876   3.326   0.425   3.036  0.8256 -0.5187 -2.3489
10955SOL     OW36877   0.957   2.231   1.997 -0.8166 -0.0597  0.4414
10955SOL    HW136878   0.960   2.132   2.011  0.8050  0.0948  1.2550
10955SOL    HW236879   0.924   2.276   2.080  2.8125  0.3902  1.7344
10956SOL     OW36880   7.571   3.084   0.290  0.3799  0.0381 -0.2010
10956SOL    HW136881   7.596   3.179   0.308  0.0761  0.1366 -0.3019
10956SOL    HW236882   7.641   3.040   0.233 -0.8731  1.0013 -2.5315
10958SOL     OW36883   8.027   1.828   3.535  0.0731  0.0880  0.3808
10958SOL    HW136884   7.944   1.776   3.558  0.7759 -0.1014  2.6524
10958SOL    HW236885   8.030   1.912   3.589  0.5137  0.9625 -0.9667
10960SOL     OW36886   9.217   2.852   2.671 -0.0452 -0.0524 -0.3975
10960SOL    HW136887   9.278   2.860   2.750 -1.8842  1.6744  0.8939
10960SOL    HW236888   9.255   2.785   2.607  2.0439 -0.6768  1.4060
10963SOL     OW36889   7.574   1.217   3.550 -0.3212  1.3206  1.1263
10963SOL    HW136890   7.629   1.272   3.486 -0.3594 -0.2722 -0.3116
10963SOL    HW236891   7.634   1.156   3.602 -0.7345 -1.2070 -1.2166
10965SOL     OW36892   1.813   2.222   0.211 -0.0044  0.5510  0.2041
10965SOL    HW136893   1.774   2.215   0.303  1.0885 -0.2254  0.6272
10965SOL    HW236894   1.740   2.219   0.143 -0.7205 -0.5060  0.9922
10967SOL     OW36895   0.103   9.899   3.366 -0.2207  0.8997 -0.3305
10967SOL    HW136896   0.063   9.829   3.426 -1.5641  2.3349  0.4888
10967SOL    HW236897   0.201   9.906   3.385  0.0191 -1.0445 -0.7202
10968SOL     OW36898   0.055   6.569   0.691  0.3149  0.6191  0.3332
10968SOL    HW136899  -0.019   6.632   0.670 -0.6659 -0.2952  1.0130
10968SOL    HW236900   0.133   6.619   0.728 -0.0788  1.5351 -0.0765
10969SOL     OW36901   8.295   8.499   2.284  0.1778  0.2972 -0.6008
10969SOL    HW136902   8.220   8.558   2.255 -0.5928 -0.2748  0.2044
10969SOL    HW236903   8.318   8.519   2.379 -0.6010 -1.2167 -0.0760
10970SOL     OW36904   0.936   9.789   1.529  0.2312  0.1510 -0.2644
10970SOL    HW136905   0.855   9.831   1.571  2.0339  1.4336  2.0039
10970SOL    HW236906   0.932   9.690   1.541  0.2232  0.4137  2.1070
10971SOL     OW36907   1.932   6.640   0.978  0.4339 -0.3733  0.0271
10971SOL    HW136908   1.945   6.542   0.967  1.3618 -0.6267  2.8545
10971SOL    HW236909   1.849   6.668   0.930  1.1621 -2.1670 -2.3886
10973SOL     OW36910   4.565   1.214   3.708 -0.5863 -0.1910 -1.0419
10973SOL    HW136911   4.579   1.115   3.694 -1.3575 -0.6446  1.2822
10973SOL    HW236912   4.483   1.243   3.659 -0.5674 -0.7787 -1.4310
10975SOL     OW36913   7.694   0.277   1.228 -0.3624 -0.5805  0.2490
10975SOL    HW136914   7.679   0.178   1.219 -1.7962 -0.1905 -1.7997
10975SOL    HW236915   7.623   0.316   1.286 -1.3727 -0.3341 -1.1464
10976SOL     OW36916   4.108   1.253   2.958  0.1388  0.6344  0.1538
10976SOL    HW136917   4.027   1.221   3.007  0.4211 -0.5344 -0.1202
10976SOL    HW236918   4.080   1.315   2.885 -0.8354 -2.1911 -1.9796
10977SOL     OW36919   7.842   8.362   0.677 -0.2751 -0.0885 -0.2782
10977SOL    HW136920   7.791   8.288   0.720  0.3936  0.1843  1.0026
10977SOL    HW236921   7.781   8.416   0.620 -1.5738  0.6430  1.7574
10978SOL     OW36922   4.877   2.201   2.224 -0.6068 -0.2152 -0.2300
10978SOL    HW136923   4.961   2.236   2.183 -0.4162 -0.8010 -0.3502
10978SOL    HW236924   4.857   2.111   2.185  0.5217 -1.5800  2.2413
10979SOL     OW36925   2.543   6.431   2.522  0.0712  0.2914  0.0346
10979SOL    HW136926   2.474   6.370   2.484  1.1837 -0.9303 -0.0463
10979SOL    HW236927   2.564   6.503   2.456  0.8169 -0.8821 -1.0291
10980SOL     OW36928   0.050   5.081   3.667 -0.5341  0.0113 -0.3103
10980SOL    HW136929   0.063   5.008   3.734 -0.9970  0.3566  0.1618
10980SOL    HW236930  -0.002   5.155   3.709  1.2171  1.2710 -0.3245
10981SOL     OW36931   8.258   8.576   3.065  0.4983  0.4995  0.4336
10981SOL    HW136932   8.316   8.653   3.092  1.2506 -0.2323  0.9439
10981SOL    HW236933   8.309   8.490   3.078  0.3361  0.0223 -1.8116
10982SOL     OW36934   8.293   7.034   3.340  0.4695  0.3371  0.4119
10982SOL    HW136935   8.276   7.125   3.302  1.2704 -0.0498 -0.9044
10982SOL    HW236936   8.234   6.967   3.294 -0.1414  0.1887  1.3967
10983SOL     OW36937   9.533   0.885   0.109  1.2052  0.2543  0.1627
10983SOL    HW136938   9.629   0.903   0.128  1.3761  0.1181 -0.5693
10983SOL    HW236939   9.494   0.962   0.060  0.9087  0.3540  0.5478
10984SOL     OW36940   1.367   1.676   3.679 -0.6104 -0.2893 -0.0955
10984SOL    HW136941   1.448   1.702   3.732 -2.2790  2.8838  1.0104
10984SOL    HW236942   1.366   1.727   3.593 -0.7472 -1.3559 -0.7370
10985SOL     OW36943   9.265   5.507   1.879  0.1901 -0.1423  0.2742
10985SOL    HW136944   9.276   5.408   1.889  0.0197 -0.0919  0.9204
10985SOL    HW236945   9.290   5.533   1.785  0.4806 -0.7593  0.1759
10986SOL     OW36946   1.097   7.337   0.561 -0.3836  0.1545  0.1873
10986SOL    HW136947   1.133   7.387   0.483  0.9003  0.2136  0.7970
10986SOL    HW236948   1.085   7.241   0.537 -0.4069  0.2585 -0.2129
10987SOL     OW36949   0.571   8.328   3.634  0.5412 -0.1639  0.4505
10987SOL    HW136950   0.529   8.415   3.608  1.0772 -0.1667 -0.4549
10987SOL    HW236951   0.540   8.257   3.571  3.7665  0.2976 -1.8154
10988SOL     OW36952   0.446   5.348   3.174 -0.2248 -0.6911 -0.7052
10988SOL    HW136953   0.496   5.264   3.151  1.0284 -0.0710 -0.2849
10988SOL    HW236954   0.509   5.414   3.214 -1.1292  0.6069 -1.3936
10989SOL     OW36955   5.595   7.025   2.320  0.3020 -0.2980 -0.1817
10989SOL    HW136956   5.527   7.086   2.361  0.5790 -0.4257  0.4782
10989SOL    HW236957   5.605   6.943   2.377  0.0887 -0.8680 -0.9452
10990SOL     OW36958   8.835   9.738   1.731  0.0433 -0.2639  0.7644
10990SOL    HW136959   8.801   9.720   1.639  0.1291  2.5539  0.1444
10990SOL    HW236960   8.759   9.737   1.796 -0.0813 -1.8023  0.6131
10991SOL     OW36961   3.048   8.772   1.042  0.2032 -0.1520  0.1050
10991SOL    HW136962   2.994   8.729   1.114  0.6033 -1.5907 -0.4211
10991SOL    HW236963   3.129   8.815   1.082 -0.0535 -0.1389  0.6151
10992SOL     OW36964   2.457   1.401   0.696  0.1140 -0.2933  0.1258
10992SOL    HW136965   2.422   1.437   0.783 -0.5857  0.3291 -0.4100
10992SOL    HW236966   2.383   1.400   0.629  0.7598 -0.3857 -0.5829
10993SOL     OW36967   0.196   7.840   2.969  0.3512 -0.4873 -0.2813
10993SOL    HW136968   0.134   7.761   2.965  0.8055 -0.8837  0.3590
10993SOL    HW236969   0.154   7.911   3.026  0.1295 -0.4317 -0.5107
10995SOL     OW36970   6.119   7.409   2.411  0.5751 -0.0529  0.8426
10995SOL    HW136971   6.118   7.322   2.362 -0.4601  1.2935 -1.6113
10995SOL    HW236972   6.092   7.395   2.506 -2.3475 -2.0201 -0.2266
10996SOL     OW36973   3.795   8.284   1.063  0.1818  0.2223  0.2176
10996SOL    HW136974   3.749   8.356   1.012 -0.9419  1.2715  2.6002
10996SOL    HW236975   3.893   8.301   1.065  0.1178  0.6923 -0.7578
10997SOL     OW36976   1.830   8.765   0.324  0.1735 -0.2471  0.0467
10997SOL    HW136977   1.791   8.845   0.277  0.3086  0.5564  1.2720
10997SOL    HW236978   1.925   8.785   0.348  1.3434 -2.1456 -2.8202
10998SOL     OW36979   0.127   4.030   0.360  0.2629  0.5004 -0.7373
10998SOL    HW136980   0.207   4.076   0.322  0.9710 -0.7434 -0.7990
10998SOL    HW236981   0.104   3.951   0.303  0.6566 -0.7415  0.7668
10999SOL     OW36982   9.013   5.100   0.961  0.8870 -0.9808 -0.0007
10999SOL    HW136983   8.999   5.078   0.864  1.2535 -0.5573 -0.1493
10999SOL    HW236984   8.954   5.041   1.017 -1.7127  0.9568 -0.6362
11000SOL     OW36985   8.171   6.018   1.768  0.1149  0.1955  0.4352
11000SOL    HW136986   8.229   6.003   1.848  0.3427 -0.7173  0.1066
11000SOL    HW236987   8.078   6.040   1.798  0.5935  1.5811  0.9610
11003SOL     OW36988   5.695   0.452   2.747  0.3551 -0.8556 -0.2151
11003SOL    HW136989   5.763   0.449   2.673  2.6422 -1.1164  1.8281
11003SOL    HW236990   5.696   0.543   2.788 -0.0286 -1.0903  0.3142
11004SOL     OW36991   3.521   8.960   1.316  0.1744  0.2038 -0.0127
11004SOL    HW136992   3.579   9.005   1.249  1.6127 -0.5376  0.7188
11004SOL    HW236993   3.492   9.025   1.386  0.7232  0.4087  0.0186
11005SOL     OW36994   9.405   2.087   1.134  0.1632  0.3552  0.2088
11005SOL    HW136995   9.313   2.057   1.161  0.9510 -0.2621  2.3215
11005SOL    HW236996   9.465   2.007   1.125  0.5260  0.7600 -1.0980
11007SOL     OW36997   2.568   4.365   1.249 -0.8658  0.0812  0.5481
11007SOL    HW136998   2.650   4.308   1.260 -1.2318 -0.3627  0.9887
11007SOL    HW236999   2.533   4.356   1.156 -0.1652  0.6126  0.2229
11013SOL     OW37000   7.050   9.191   1.608 -0.4579 -0.2839  0.1678
11013SOL    HW137001   7.076   9.278   1.565 -0.2142 -0.1393  0.6042
11013SOL    HW237002   7.080   9.115   1.550  2.8798 -0.1976  1.6604
11016SOL     OW37003   4.809   4.005   1.025 -0.6290  0.0194 -0.3255
11016SOL    HW137004   4.814   4.056   0.939 -0.1878 -1.5988 -1.2852
11016SOL    HW237005   4.726   3.950   1.026 -1.8338  1.8081  1.3275
11017SOL     OW37006   7.300   9.882   0.272 -0.4484 -0.0355 -0.1178
11017SOL    HW137007   7.257   9.942   0.204 -0.3867  0.4928  0.3087
11017SOL    HW237008   7.399   9.885   0.261 -0.3740  0.9966  0.7863
11018SOL     OW37009   8.777   1.924   0.797  0.1961 -0.3249 -0.4058
11018SOL    HW137010   8.751   1.987   0.869  2.2132  1.8800 -1.5773
11018SOL    HW237011   8.771   1.970   0.708 -0.5323 -2.4600 -1.5068
11019SOL     OW37012   0.360   5.821   0.150  0.1756 -0.0110 -0.2377
11019SOL    HW137013   0.452   5.783   0.160  0.3756  0.3033 -0.9205
11019SOL    HW237014   0.330   5.858   0.238  0.3978 -0.7971  0.1774
11020SOL     OW37015   9.005   9.525   1.731  0.0795  0.3830  0.1851
11020SOL    HW137016   9.081   9.548   1.792  0.3097  1.8049 -0.6098
11020SOL    HW237017   8.929   9.588   1.748 -0.2704  0.0752 -0.2342
11021SOL     OW37018   8.032   8.924   3.447  0.1955 -0.1072  0.2981
11021SOL    HW137019   7.939   8.955   3.433  0.0881 -0.4561  0.2248
11021SOL    HW237020   8.092   8.966   3.378 -0.0250 -0.4238 -0.0907
11022SOL     OW37021   4.470   4.172   0.429  0.3677 -0.6428 -0.1877
11022SOL    HW137022   4.448   4.267   0.447 -1.1676 -1.4478  2.3120
11022SOL    HW237023   4.486   4.159   0.331 -0.1315  2.0097 -0.6314
11023SOL     OW37024   2.240   6.612   1.768  0.1815 -0.1428 -0.4049
11023SOL    HW137025   2.332   6.578   1.785 -0.5280 -1.8888 -0.0032
11023SOL    HW237026   2.216   6.598   1.672 -0.4702 -1.6994 -0.0287
11024SOL     OW37027   8.103   2.115   1.897 -0.0442  0.3761  0.4518
11024SOL    HW137028   8.076   2.193   1.842 -0.0521  0.5021  0.6339
11024SOL    HW237029   8.202   2.102   1.891 -0.3172 -1.0121 -1.4429
11025SOL     OW37030   0.470   8.646   1.633 -0.2344 -0.2353  0.8845
11025SOL    HW137031   0.502   8.677   1.543 -1.3521 -1.1763  0.1546
11025SOL    HW237032   0.549   8.626   1.691  0.5167 -1.3774 -0.4930
11026SOL     OW37033   7.602   3.354   0.367  0.6764 -0.1639 -0.2566
11026SOL    HW137034   7.627   3.368   0.463  0.1502  0.0696 -0.1535
11026SOL    HW237035   7.664   3.407   0.309  1.2420 -0.6143 -0.0694
11028SOL     OW37036   4.782   7.436   2.451 -0.0108 -0.0623  0.1893
11028SOL    HW137037   4.839   7.354   2.450  2.2166  1.4654 -0.6719
11028SOL    HW237038   4.719   7.434   2.373 -1.8100 -2.1778  1.6442
11030SOL     OW37039   4.050   6.558   3.333 -0.0391  0.3565  0.1524
11030SOL    HW137040   4.003   6.538   3.247  0.0800  0.3787  0.0815
11030SOL    HW237041   4.110   6.638   3.320  0.9502 -0.4132 -0.0955
11031SOL     OW37042   3.160   1.262   2.591 -0.1598 -0.0307  0.1398
11031SOL    HW137043   3.178   1.341   2.649  0.1277 -0.4432  0.6091
11031SOL    HW237044   3.241   1.242   2.536 -0.5207  0.5250 -0.6067
11032SOL     OW37045   1.284   3.785   1.569  0.2796  0.0235  0.2622
11032SOL    HW137046   1.235   3.756   1.486 -0.7604 -2.1646  1.5779
11032SOL    HW237047   1.367   3.731   1.579 -0.9994 -1.7173  2.0440
11033SOL     OW37048   3.034   8.658   3.318 -0.0683 -0.2225  0.5188
11033SOL    HW137049   3.033   8.565   3.283 -0.6710 -0.7344  1.8433
11033SOL    HW237050   2.977   8.716   3.260  1.1249 -0.4377 -0.8990
11036SOL     OW37051   8.273   4.335   2.459  0.0692 -0.0494  0.1707
11036SOL    HW137052   8.178   4.366   2.457 -0.1820 -0.2621  4.0104
11036SOL    HW237053   8.283   4.253   2.403 -1.7551  0.5745 -1.1094
11037SOL     OW37054   1.588   7.888   1.317 -0.2650  0.6309 -0.1268
11037SOL    HW137055   1.625   7.970   1.274  1.7492  0.0303  0.4155
11037SOL    HW237056   1.621   7.807   1.269 -0.4215  0.0583  0.7212
11038SOL     OW37057   9.845   8.309   0.587  0.1151  0.3581  0.3612
11038SOL    HW137058   9.825   8.258   0.671 -1.0503  1.6938  0.9161
11038SOL    HW237059   9.771   8.374   0.569  1.8981  2.3546  0.0470
11039SOL     OW37060   1.816   2.524   2.665 -0.4380 -0.2638  0.0688
11039SOL    HW137061   1.910   2.559   2.662 -0.2505 -0.8785 -1.2814
11039SOL    HW237062   1.818   2.424   2.665 -1.1363 -0.2921 -1.7150
11040SOL     OW37063   3.887   4.888   2.991  0.5657  0.3391 -0.6535
11040SOL    HW137064   3.793   4.912   2.966  1.0072  0.7373 -1.9554
11040SOL    HW237065   3.945   4.890   2.910  1.8092  0.6195  0.2217
11041SOL     OW37066   9.677   1.870   3.206 -0.2389  0.1425 -0.7888
11041SOL    HW137067   9.625   1.892   3.289 -0.1497  0.1730 -0.7417
11041SOL    HW237068   9.770   1.844   3.231  0.0888  1.1504 -0.9623
11042SOL     OW37069   5.482   7.078   3.338  0.2859 -0.9574 -0.2071
11042SOL    HW137070   5.457   7.007   3.272  0.3962 -0.1109 -1.1691
11042SOL    HW237071   5.581   7.086   3.341  0.3331 -1.9042  1.0428
11043SOL     OW37072   3.026   9.313   0.040 -0.1226  0.3425 -0.1394
11043SOL    HW137073   2.967   9.341  -0.036 -0.7957  0.2754  0.3518
11043SOL    HW237074   3.098   9.253   0.006 -0.2846  0.5014 -0.7632
11044SOL     OW37075   6.943   0.412   3.644  0.3991 -0.0807 -0.2960
11044SOL    HW137076   6.884   0.493   3.647 -1.2278 -1.2950  1.8192
11044SOL    HW237077   6.888   0.331   3.624  1.6902 -0.9420 -0.4223
11045SOL     OW37078   1.722   8.750   3.159 -0.2296  0.5638 -0.1800
11045SOL    HW137079   1.693   8.841   3.128 -1.2781 -0.1512 -1.3375
11045SOL    HW237080   1.749   8.755   3.255 -0.1856  2.1162 -0.2567
11046SOL     OW37081   8.424   9.572   2.482  0.0126 -0.6339  0.3652
11046SOL    HW137082   8.392   9.478   2.495 -2.0110  0.0318  0.4189
11046SOL    HW237083   8.472   9.603   2.564 -0.5929 -1.1512  0.9236
11047SOL     OW37084   3.757   6.008   3.458 -0.0690 -0.1002 -0.5914
11047SOL    HW137085   3.857   6.004   3.466  0.1186  1.4093 -1.8770
11047SOL    HW237086   3.715   5.982   3.545  1.4843  1.1337  0.5488
11050SOL     OW37087   2.665   5.529   1.910  0.0910  0.5207 -0.2277
11050SOL    HW137088   2.696   5.456   1.848  1.1738 -1.2350  2.3059
11050SOL    HW237089   2.586   5.496   1.962 -1.7823  2.5307 -1.6803
11051SOL     OW37090   2.671   4.160   1.626  0.1589  0.2488 -0.4692
11051SOL    HW137091   2.697   4.152   1.722 -1.8078  0.4667  0.0966
11051SOL    HW237092   2.730   4.227   1.581  0.1591  1.2162  0.9464
11053SOL     OW37093   0.179   5.674   1.742  0.3513  0.6243 -0.1822
11053SOL    HW137094   0.104   5.711   1.688 -0.5238 -0.8547  0.0122
11053SOL    HW237095   0.248   5.634   1.682 -1.0186 -1.7681 -0.1805
11055SOL     OW37096   7.679   6.958   3.764 -0.7033  0.5897 -0.5914
11055SOL    HW137097   7.736   6.978   3.844  0.4251  3.9427 -2.1390
11055SOL    HW237098   7.602   7.022   3.762 -0.3551  0.9865 -2.4934
11056SOL     OW37099   1.508   2.197   1.096  0.0009  0.1963  0.4782
11056SOL    HW137100   1.432   2.132   1.084  0.3380 -0.6075  2.5272
11056SOL    HW237101   1.508   2.230   1.190  0.9877  1.7552 -0.0600
11057SOL     OW37102   9.621   4.081   3.390  0.1940  0.5157  0.7925
11057SOL    HW137103   9.605   4.106   3.295  0.3378 -0.5014  0.5028
11057SOL    HW237104   9.718   4.060   3.404 -0.1218 -0.9689  0.7857
11058SOL     OW37105   4.270   6.985   2.068 -0.3030  0.4320 -0.2416
11058SOL    HW137106   4.365   6.983   2.039 -0.6981 -1.4081 -1.4781
11058SOL    HW237107   4.253   6.910   2.132 -1.5489 -0.8779 -2.0875
11059SOL     OW37108   0.997   7.762   1.335 -0.0270 -0.5050 -0.3629
11059SOL    HW137109   1.037   7.835   1.389  0.7215  1.3879 -3.3801
11059SOL    HW237110   1.063   7.688   1.324  0.3751 -0.1911 -0.0260
11060SOL     OW37111   3.420   6.813   2.952 -0.1647 -0.5481 -0.0248
11060SOL    HW137112   3.345   6.858   3.000  0.4969 -1.9539  2.3669
11060SOL    HW237113   3.502   6.869   2.957  0.1741 -1.1511  1.3986
11061SOL     OW37114   0.376   8.325   3.418  0.1964  0.4674  0.1462
11061SOL    HW137115   0.450   8.380   3.380  1.4096 -0.0551  1.7364
11061SOL    HW237116   0.301   8.319   3.351  2.3848 -0.6414 -2.2898
11062SOL     OW37117   6.753   7.855   2.476 -0.4930  0.2613 -0.7166
11062SOL    HW137118   6.812   7.773   2.479  1.2590  1.4920 -0.5612
11062SOL    HW237119   6.668   7.833   2.429 -1.0666 -2.2913  1.3725
11063SOL     OW37120   9.077   5.741   1.931 -0.5946 -0.0439  0.1150
11063SOL    HW137121   8.994   5.762   1.880 -1.2035  0.2805  1.2121
11063SOL    HW237122   9.105   5.647   1.913 -0.6781  0.1415 -0.9784
11064SOL     OW37123   9.545   2.196   0.454  0.2437 -0.3175  0.0601
11064SOL    HW137124   9.537   2.110   0.505  0.6049 -0.3567  0.0535
11064SOL    HW237125   9.500   2.186   0.365 -1.2198  0.0574  0.7431
11066SOL     OW37126   3.017   5.280   1.795 -0.5707 -0.1525 -0.1357
11066SOL    HW137127   3.013   5.180   1.789 -0.2617 -0.2758  1.4210
11066SOL    HW237128   3.044   5.306   1.887 -0.5503  1.3781 -0.5656
11067SOL     OW37129   4.177   4.875   1.458  0.3421  0.2990  0.1683
11067SOL    HW137130   4.090   4.838   1.490  0.9618 -0.5532  0.8933
11067SOL    HW237131   4.207   4.824   1.377 -0.1449  1.0141 -0.4661
11068SOL     OW37132   1.558   5.358   3.485 -0.3645 -0.1769 -0.0347
11068SOL    HW137133   1.530   5.412   3.565  1.1398  1.3257 -0.5031
11068SOL    HW237134   1.545   5.412   3.402  1.6379 -0.3290 -0.4703
11070SOL     OW37135   5.879   0.517   1.928  0.4370 -0.1052 -0.1402
11070SOL    HW137136   5.808   0.525   1.859  1.0746 -0.5822 -0.8665
11070SOL    HW237137   5.845   0.466   2.007 -0.5313  1.1035  0.2244
11071SOL     OW37138   9.774   8.094   3.547 -0.3296  0.2729 -0.0117
11071SOL    HW137139   9.733   8.130   3.631  0.8380  2.0848 -0.1944
11071SOL    HW237140   9.791   7.996   3.558 -1.5793  0.1968  1.3061
11072SOL     OW37141   9.863   7.764   1.004  0.1734 -0.0319 -0.4835
11072SOL    HW137142   9.899   7.810   0.923  1.1854 -0.9512 -0.5664
11072SOL    HW237143   9.799   7.692   0.976  0.3693 -0.2154 -0.4648
11074SOL     OW37144   4.451   1.199   1.565 -0.4314 -0.0767 -0.1081
11074SOL    HW137145   4.535   1.211   1.617 -0.0773  0.3617 -0.7752
11074SOL    HW237146   4.421   1.104   1.571  0.7077 -0.4816 -0.7575
11075SOL     OW37147   0.812   8.409   0.380  0.3933 -0.1294 -0.3427
11075SOL    HW137148   0.885   8.445   0.439  0.0109  1.1664 -0.6419
11075SOL    HW237149   0.793   8.475   0.307 -1.5007 -0.1634  0.0930
11078SOL     OW37150   4.072   4.774   0.978 -0.0790  0.1379  0.3763
11078SOL    HW137151   4.034   4.692   1.019 -0.0248  0.5031  1.1540
11078SOL    HW237152   4.060   4.852   1.040  2.2836  0.1850  0.8059
11079SOL     OW37153   8.696   7.314   3.612  0.1730 -0.0714  0.0153
11079SOL    HW137154   8.648   7.263   3.540 -0.3567 -1.9639  1.6690
11079SOL    HW237155   8.791   7.285   3.616  0.1582 -0.1014  0.1785
11081SOL     OW37156   2.033   1.353   2.721 -0.4048 -0.3353  0.1786
11081SOL    HW137157   2.008   1.258   2.739 -2.0691  0.1783  0.6844
11081SOL    HW237158   2.048   1.365   2.623 -1.6051 -0.8103 -0.0751
11082SOL     OW37159   8.979   3.220   1.082  0.1663 -0.6932 -0.1776
11082SOL    HW137160   8.933   3.235   1.170 -2.6414  0.1818 -1.7631
11082SOL    HW237161   9.018   3.128   1.081 -1.7331 -1.5520  1.1349
11083SOL     OW37162   6.342   9.978   3.044 -0.2508 -0.1491  0.1910
11083SOL    HW137163   6.394  10.005   3.125 -0.3154 -0.1689  0.2394
11083SOL    HW237164   6.372   9.888   3.013 -0.1233 -0.0759  0.1048
11084SOL     OW37165   3.349   4.456   3.566  0.0615 -0.0755  0.2382
11084SOL    HW137166   3.317   4.549   3.585  2.2309  0.8773 -0.5282
11084SOL    HW237167   3.271   4.396   3.550 -1.3464  1.8033 -0.0809
11085SOL     OW37168   9.644   2.974   1.273  0.3123 -0.1462  0.4003
11085SOL    HW137169   9.640   3.074   1.267  2.1807 -0.0407  0.6918
11085SOL    HW237170   9.618   2.935   1.185  3.1133  0.7089 -0.8439
11086SOL     OW37171   0.898   4.102   2.688 -0.0008 -0.3901 -0.3818
11086SOL    HW137172   0.804   4.122   2.715  0.3376 -0.3418  0.8013
11086SOL    HW237173   0.912   4.129   2.593 -0.5995  1.5852  0.0609
11088SOL     OW37174   3.281   1.803   1.304 -0.0614 -0.2332 -0.4510
11088SOL    HW137175   3.201   1.803   1.364  0.6789  0.9762  0.5825
11088SOL    HW237176   3.342   1.729   1.330  0.6144  0.7457  0.8158
11089SOL     OW37177   1.413   2.740   3.473 -0.4043  0.2721  0.4747
11089SOL    HW137178   1.438   2.741   3.570  0.1261 -1.6065  0.3611
11089SOL    HW237179   1.413   2.834   3.438 -1.0213  1.0079  2.3894
11090SOL     OW37180   1.267   1.065   2.643  0.5617  0.1784  0.3848
11090SOL    HW137181   1.270   0.987   2.581 -1.2321  0.4152 -0.0199
11090SOL    HW237182   1.214   1.139   2.602  1.0153  1.0713  1.3749
11091SOL     OW37183   8.864   2.144   3.297 -0.4373  0.0383 -0.3584
11091SOL    HW137184   8.831   2.189   3.214 -0.3588 -0.0573 -0.4415
11091SOL    HW237185   8.886   2.213   3.366  1.7614  0.2632 -1.2349
11092SOL     OW37186   0.387   2.894   3.351  0.4865 -0.0315  0.6614
11092SOL    HW137187   0.341   2.976   3.386  0.1667 -0.2419  0.7376
11092SOL    HW237188   0.355   2.876   3.258 -0.3087 -0.7249  1.0584
11094SOL     OW37189   2.898   7.501   2.720 -0.4601 -0.0851  0.0768
11094SOL    HW137190   2.847   7.584   2.746 -0.1736  0.3219 -0.6581
11094SOL    HW237191   2.936   7.459   2.803 -1.4669 -0.0512  0.5658
11095SOL     OW37192   3.481   2.685   0.640 -0.2642  0.0781  0.4856
11095SOL    HW137193   3.425   2.736   0.705 -0.9500  1.1671 -0.9159
11095SOL    HW237194   3.462   2.718   0.547  1.5069 -0.6753 -0.1628
11096SOL     OW37195   7.919   8.523   2.508 -0.4777 -0.1160 -0.2778
11096SOL    HW137196   7.924   8.423   2.508 -0.7777 -0.1346 -1.1640
11096SOL    HW237197   7.956   8.559   2.423 -0.5268  0.5203 -0.0347
11098SOL     OW37198   7.448   7.886   2.765 -0.1239 -0.0626  0.0297
11098SOL    HW137199   7.437   7.880   2.865 -2.4039 -1.0457 -0.2443
11098SOL    HW237200   7.527   7.833   2.737 -0.3800 -1.0715  1.1772
11100SOL     OW37201   3.988   3.835   1.060 -0.4932 -0.6680 -0.0709
11100SOL    HW137202   4.088   3.839   1.066 -0.5497  0.6108  0.0156
11100SOL    HW237203   3.949   3.833   1.152 -0.6357  1.2143 -0.0764
11101SOL     OW37204   8.028   7.990   2.818 -0.3034  0.0991 -0.2792
11101SOL    HW137205   7.956   8.059   2.827  0.6118  0.7567  2.8361
11101SOL    HW237206   8.096   8.021   2.752  0.8333  2.9337  2.1245
11102SOL     OW37207   2.888   8.855   3.745  0.0511  0.4060  0.2288
11102SOL    HW137208   2.953   8.930   3.741 -1.9504  2.1188 -2.6446
11102SOL    HW237209   2.916   8.783   3.681 -0.4425  0.8034 -0.4437
11103SOL     OW37210   2.476   0.961   1.440 -0.0534  0.4037 -0.3746
11103SOL    HW137211   2.411   1.003   1.377 -1.8628 -1.0958  0.4669
11103SOL    HW237212   2.528   1.034   1.486  0.4134  1.5416 -2.6227
11104SOL     OW37213   4.693   3.321   3.326  0.4997  0.4614 -0.3367
11104SOL    HW137214   4.730   3.342   3.236 -1.9540  0.9236 -1.2656
11104SOL    HW237215   4.594   3.334   3.326  0.4623  0.5818  2.4630
11105SOL     OW37216   0.895   1.825   0.544 -0.6760  0.2210 -0.1405
11105SOL    HW137217   0.903   1.734   0.504 -0.6752  0.1067  0.1133
11105SOL    HW237218   0.801   1.840   0.575 -0.3517 -0.2393  1.0873
11108SOL     OW37219   9.744   5.603   3.377  0.4646  0.6461  0.5119
11108SOL    HW137220   9.793   5.667   3.435 -1.3338  0.6914  2.0489
11108SOL    HW237221   9.779   5.607   3.284  0.5423  3.6685  0.6414
11109SOL     OW37222   4.265   7.777   1.026 -0.1512  0.2224 -0.3405
11109SOL    HW137223   4.239   7.680   1.031 -0.5153  0.2242 -2.1794
11109SOL    HW237224   4.187   7.834   1.049  0.6885  0.0800  3.2042
11110SOL     OW37225   9.669   9.927   2.310 -0.0397 -0.4203  0.2324
11110SOL    HW137226   9.715  10.015   2.298 -2.1631  0.5754 -0.8479
11110SOL    HW237227   9.731   9.853   2.283  1.0596  0.8573 -0.7985
11111SOL     OW37228   2.363   0.427   2.689  0.2953 -0.4652  0.0838
11111SOL    HW137229   2.298   0.406   2.762 -0.7350  1.2407 -0.2915
11111SOL    HW237230   2.343   0.370   2.609 -2.2000  1.5193 -0.7881
11112SOL     OW37231   9.929   8.527   3.000 -0.3096  0.0245 -0.1413
11112SOL    HW137232   9.896   8.469   3.074 -1.4112  0.5582 -0.1999
11112SOL    HW237233   9.904   8.622   3.018 -0.0208  0.2498 -0.8808
11113SOL     OW37234   2.217   4.721   3.400 -0.9236  0.8202 -0.0410
11113SOL    HW137235   2.171   4.641   3.361  0.1955  1.0098 -1.7836
11113SOL    HW237236   2.298   4.692   3.450 -2.1006  0.6221  1.7990
11114SOL     OW37237   7.372   7.029   2.304  0.1835 -0.0132  0.6086
11114SOL    HW137238   7.457   7.028   2.250 -0.9394 -0.1582 -1.1736
11114SOL    HW237239   7.306   7.090   2.261 -1.0620 -0.8674  1.2807
11115SOL     OW37240   2.831   1.639   3.585  0.2827  0.1554 -0.5348
11115SOL    HW137241   2.817   1.723   3.638 -0.5263  0.3836 -1.1127
11115SOL    HW237242   2.758   1.629   3.518  0.4266 -0.9704 -0.5296
11116SOL     OW37243   3.494   8.744   3.493  0.3196  0.1063 -0.0230
11116SOL    HW137244   3.480   8.647   3.472  0.5202  0.1423 -0.3269
11116SOL    HW237245   3.590   8.768   3.478  0.1091  0.5380 -0.7105
11118SOL     OW37246   8.268   9.093   3.502 -0.1061  0.4154  0.7324
11118SOL    HW137247   8.293   8.997   3.517 -1.5831 -0.1395 -0.1981
11118SOL    HW237248   8.231   9.103   3.410 -2.1315  1.4219  1.6345
11119SOL     OW37249   8.584   1.874   0.075  0.1923  0.0539  0.2654
11119SOL    HW137250   8.560   1.888   0.171  1.1324 -0.7539  0.6315
11119SOL    HW237251   8.602   1.776   0.059 -1.8861 -0.1343 -1.1828
11120SOL     OW37252   3.650   9.370   1.405  0.4329  0.6286  0.1670
11120SOL    HW137253   3.602   9.347   1.321 -1.7318  2.8206  0.7399
11120SOL    HW237254   3.615   9.313   1.480 -1.4662  2.3411  0.6188
11121SOL     OW37255   2.832   7.690   1.946 -0.1451 -0.3070 -0.1934
11121SOL    HW137256   2.834   7.614   1.881 -1.1571  1.1325 -1.9565
11121SOL    HW237257   2.926   7.723   1.961  0.2254 -1.4540  0.0612
11122SOL     OW37258   5.281   0.671   3.174  0.0953  0.2218  0.1474
11122SOL    HW137259   5.310   0.617   3.252 -1.1723  1.2205  1.3385
11122SOL    HW237260   5.309   0.766   3.187 -2.0801  0.8320  0.4583
11124SOL     OW37261   0.252   0.743   1.085  0.1209 -0.3978  0.7084
11124SOL    HW137262   0.206   0.660   1.115  0.8803 -0.1338  2.6740
11124SOL    HW237263   0.351   0.730   1.091  0.2627  0.0934 -0.5138
11125SOL     OW37264   9.978   6.448   3.548  0.3328 -0.2646  0.3578
11125SOL    HW137265   9.988   6.423   3.644  1.1973 -1.1662  0.0536
11125SOL    HW237266  10.002   6.544   3.535 -1.3070  0.2877  1.2776
11126SOL     OW37267   7.107   7.817   2.800  0.0749 -0.0171 -0.0987
11126SOL    HW137268   7.078   7.723   2.817  0.4055  0.1600  1.4736
11126SOL    HW237269   7.159   7.851   2.878 -0.2528  1.5619 -0.5485
11127SOL     OW37270   6.692   0.252   2.400 -0.2172  0.3767  0.1812
11127SOL    HW137271   6.666   0.278   2.493 -0.9718 -0.1084  0.1094
11127SOL    HW237272   6.614   0.265   2.339 -0.3076 -1.1089 -0.0339
11128SOL     OW37273   3.705   6.624   1.645  0.1660  0.3965  0.5450
11128SOL    HW137274   3.659   6.584   1.725  0.3077  1.9554  1.4313
11128SOL    HW237275   3.637   6.644   1.574 -0.1167  0.0199  0.7081
11129SOL     OW37276   6.970   8.295   3.506  0.1533  0.1241 -0.6605
11129SOL    HW137277   6.912   8.372   3.534  1.2738  0.8851 -0.3511
11129SOL    HW237278   6.915   8.213   3.496 -0.3953 -0.0970  3.4105
11130SOL     OW37279   9.395   6.691   3.623  0.5981 -0.5707  0.1329
11130SOL    HW137280   9.383   6.781   3.580  1.1872 -0.9309 -0.8118
11130SOL    HW237281   9.488   6.658   3.605  0.8031 -0.8001  1.5825
11132SOL     OW37282   6.600   9.854   2.721  0.1254 -0.0314 -0.3250
11132SOL    HW137283   6.678   9.917   2.721  0.7736 -0.8130 -0.4014
11132SOL    HW237284   6.601   9.801   2.636 -0.2507 -0.3345 -0.1403
11134SOL     OW37285   2.729   6.243   2.603  0.1110  0.1726 -0.4108
11134SOL    HW137286   2.695   6.222   2.695  0.5164 -0.6173 -0.4404
11134SOL    HW237287   2.662   6.301   2.556 -0.2425  0.3256  0.2676
11135SOL     OW37288   0.870   9.473   3.255  0.1229  0.3509 -0.1297
11135SOL    HW137289   0.928   9.399   3.288  1.9459  1.2823 -1.1530
11135SOL    HW237290   0.896   9.558   3.302 -0.8345  0.6654 -0.1626
11136SOL     OW37291   2.660   0.132   2.075  0.8143  0.5236  0.6411
11136SOL    HW137292   2.670   0.034   2.096 -1.4229  0.2353  0.4398
11136SOL    HW237293   2.704   0.186   2.147 -0.3733 -0.6046  2.2622
11138SOL     OW37294   2.820   7.746   2.869 -0.3828 -0.5048 -0.5561
11138SOL    HW137295   2.791   7.696   2.950  0.5194  0.9717  0.7169
11138SOL    HW237296   2.888   7.815   2.895  1.0720 -1.0272 -2.8052
11139SOL     OW37297   5.354   9.447   2.082 -0.0687 -0.2571 -0.3145
11139SOL    HW137298   5.338   9.540   2.048 -0.2481  0.0789  0.6601
11139SOL    HW237299   5.287   9.425   2.153 -0.6312 -1.4979 -1.2062
11140SOL     OW37300   4.138   1.978   3.264 -0.1005  0.3504  0.1453
11140SOL    HW137301   4.216   2.037   3.244  0.8293 -0.9044 -0.0151
11140SOL    HW237302   4.082   1.968   3.182  0.6084 -0.2366 -0.2853
11141SOL     OW37303   8.997   3.917   1.335 -0.1787  0.2750 -0.3370
11141SOL    HW137304   9.047   3.968   1.265  1.5602 -0.3194  0.4365
11141SOL    HW237305   8.946   3.980   1.392  3.5933  1.4667  1.9127
11144SOL     OW37306   7.899   0.907   3.102  0.0331  0.2018  0.2539
11144SOL    HW137307   7.970   0.852   3.147 -1.4888 -1.2957  0.8631
11144SOL    HW237308   7.943   0.971   3.039  2.1559  1.5843  2.9811
11145SOL     OW37309   5.207   8.670   3.039  0.0871  0.7718  0.0898
11145SOL    HW137310   5.123   8.717   3.013 -1.0654 -1.4392 -0.2989
11145SOL    HW237311   5.225   8.596   2.974  0.7712 -0.5939  1.7915
11146SOL     OW37312   2.449   4.629   0.175 -0.0195  0.5905  0.2385
11146SOL    HW137313   2.384   4.629   0.251  0.4548 -0.2644  0.6608
11146SOL    HW237314   2.400   4.635   0.089 -0.7072 -0.6926  0.5262
11147SOL     OW37315   8.285   3.959   0.682  0.0063  0.6235  0.2011
11147SOL    HW137316   8.239   3.871   0.692 -0.4416  0.8259 -0.0449
11147SOL    HW237317   8.375   3.955   0.726  1.0462 -0.7522 -1.9742
11149SOL     OW37318   0.613   7.479   2.818 -0.2336  0.0354  0.2724
11149SOL    HW137319   0.600   7.550   2.886  0.1600  0.4295 -0.0641
11149SOL    HW237320   0.642   7.520   2.731  0.4445 -0.5703  0.2078
11150SOL     OW37321   5.943   1.105   2.671 -0.3684 -0.2217 -0.6304
11150SOL    HW137322   5.920   1.013   2.703 -2.7828  0.5405 -0.0958
11150SOL    HW237323   6.001   1.098   2.589  1.1142 -2.1913  0.5351
11151SOL     OW37324   2.087   9.373   0.918  0.7832  0.1071  0.0221
11151SOL    HW137325   2.165   9.415   0.965  2.1454 -0.7083 -1.4839
11151SOL    HW237326   2.109   9.360   0.822 -1.2831 -0.0117 -0.4469
11153SOL     OW37327   4.151   6.031   2.629 -0.1139 -0.0085 -0.5326
11153SOL    HW137328   4.115   5.943   2.600 -0.8130  0.6212 -1.6235
11153SOL    HW237329   4.123   6.102   2.564 -0.8850  1.2899  1.1646
11156SOL     OW37330   2.915   9.313   1.230  0.5743  0.7632  0.4833
11156SOL    HW137331   2.819   9.289   1.247  0.7487  0.0294  0.4821
11156SOL    HW237332   2.973   9.257   1.289  0.9281  2.6067  1.9430
11158SOL     OW37333   4.086   9.736   0.903 -0.0767  0.0622  0.0787
11158SOL    HW137334   4.181   9.749   0.931  0.3102  1.4148 -1.7704
11158SOL    HW237335   4.061   9.639   0.909  1.3025 -0.2401  0.9131
11159SOL     OW37336   1.154   2.553   2.378  0.4521 -0.9887  0.3305
11159SOL    HW137337   1.114   2.515   2.462  1.3103 -0.7757  0.8523
11159SOL    HW237338   1.146   2.486   2.304 -2.1781 -0.3726  0.0097
11160SOL     OW37339   2.257   9.776   1.153  0.9953 -0.2533 -0.3756
11160SOL    HW137340   2.299   9.737   1.072  1.9468  1.3082 -0.6574
11160SOL    HW237341   2.308   9.857   1.182 -1.0946  0.9864 -0.0079
11163SOL     OW37342   9.367   0.412   0.008  0.4418 -0.3847  0.3215
11163SOL    HW137343   9.304   0.400   0.084  0.7395 -0.8227  0.4995
11163SOL    HW237344   9.385   0.509  -0.006 -0.9071 -0.1982 -0.2478
11164SOL     OW37345   9.219   7.600   0.501  0.3374 -0.3348 -0.6884
11164SOL    HW137346   9.245   7.676   0.561  0.3240  0.2640 -1.4283
11164SOL    HW237347   9.238   7.514   0.547 -1.0167  0.1107  0.7486
11165SOL     OW37348   9.572   6.036   2.947  0.0390  0.3760  0.2468
11165SOL    HW137349   9.488   6.051   2.999  0.5288 -1.0779  1.5179
11165SOL    HW237350   9.639   5.990   3.005  0.4539 -1.7230 -1.7938
11166SOL     OW37351   9.856   9.584   0.213 -0.1042  0.3973  0.3201
11166SOL    HW137352   9.815   9.500   0.178  0.1674  0.3261  0.1728
11166SOL    HW237353   9.844   9.658   0.147 -0.3987  0.4899  0.4770
11167SOL     OW37354   6.002   9.518   2.459  0.3842 -0.1838  0.0787
11167SOL    HW137355   6.016   9.490   2.364 -2.6067 -1.2253 -0.1047
11167SOL    HW237356   6.006   9.618   2.465  1.5936 -0.1582 -0.9542
11170SOL     OW37357   3.189   0.812   2.538  0.1100  0.1301  0.1493
11170SOL    HW137358   3.271   0.867   2.554 -1.1798  2.1332  0.0246
11170SOL    HW237359   3.202   0.756   2.456  2.0514 -0.9975  1.1967
11172SOL     OW37360   2.677   9.235   2.787 -0.6008 -0.2868 -0.2803
11172SOL    HW137361   2.625   9.315   2.755 -0.3461  0.1290  0.3259
11172SOL    HW237362   2.621   9.182   2.851 -0.2249  0.2489  0.4981
11173SOL     OW37363   4.055   9.457   0.957 -0.1708  0.1406  0.5886
11173SOL    HW137364   4.041   9.490   1.050  0.6358 -0.2027  0.8307
11173SOL    HW237365   3.980   9.397   0.932 -0.9993  1.1501  0.5936
11174SOL     OW37366   9.142   3.157   2.523 -0.0274 -0.1526  0.0154
11174SOL    HW137367   9.171   3.222   2.453  0.0618 -1.1998 -0.9112
11174SOL    HW237368   9.067   3.198   2.576  1.2055  1.4210  0.6127
11175SOL     OW37369   4.360   7.376   3.306  0.1213  0.1909  0.2391
11175SOL    HW137370   4.266   7.343   3.313 -0.2842  1.5554  1.2763
11175SOL    HW237371   4.418   7.301   3.274 -1.1319 -0.9492  0.5603
11176SOL     OW37372   2.775   4.650   2.483  0.3151  0.3072  0.8031
11176SOL    HW137373   2.788   4.746   2.459  2.0538 -0.7558 -2.7914
11176SOL    HW237374   2.678   4.630   2.494 -0.1135  2.1854  0.4522
11177SOL     OW37375   3.879   0.120   1.619  0.9684 -0.0567 -0.3875
11177SOL    HW137376   3.829   0.196   1.578 -0.7135 -2.2622 -2.5503
11177SOL    HW237377   3.814   0.053   1.655  2.4126 -1.4410 -0.3179
11178SOL     OW37378   3.017   3.273   3.635 -0.2630 -0.2733 -0.0628
11178SOL    HW137379   3.105   3.268   3.683 -0.4355 -1.8692  0.1119
11178SOL    HW237380   2.963   3.191   3.656 -2.1616  1.1072  0.5533
11179SOL     OW37381   9.145   0.425   3.438 -0.2946  0.4061 -0.2252
11179SOL    HW137382   9.066   0.484   3.420  0.9977  2.7481  1.4789
11179SOL    HW237383   9.229   0.475   3.417  0.8093 -1.5361 -0.5778
11182SOL     OW37384   9.589   2.794   0.665  0.4688  0.3227  0.1947
11182SOL    HW137385   9.510   2.751   0.620  0.9669  0.1747 -0.5548
11182SOL    HW237386   9.594   2.890   0.636 -0.2630  0.7102  1.3524
11183SOL     OW37387   3.319   6.347   1.706  0.2113 -0.1587  0.4214
11183SOL    HW137388   3.335   6.249   1.701 -2.8700 -0.6605 -0.2670
11183SOL    HW237389   3.237   6.365   1.759  0.1315  1.9979 -0.3804
11184SOL     OW37390   2.540   2.935   0.226 -0.2842 -0.6724  0.1657
11184SOL    HW137391   2.574   2.902   0.314 -0.3986 -0.5580  0.2541
11184SOL    HW237392   2.500   2.859   0.175 -1.8957 -0.4089  0.9962
11185SOL     OW37393   9.215   0.006   3.132 -0.0520  0.4363  0.1157
11185SOL    HW137394   9.215   0.106   3.139 -0.6000  0.4949 -0.6313
11185SOL    HW237395   9.285  -0.032   3.192 -1.3648  1.1313  2.1542
11186SOL     OW37396   8.615   2.196   1.781 -0.3282 -0.4650 -0.1837
11186SOL    HW137397   8.667   2.263   1.728 -1.3813  0.3149 -0.2557
11186SOL    HW237398   8.560   2.243   1.850 -1.8948 -1.1498 -0.9370
11187SOL     OW37399   9.315   9.729   3.504  0.7094 -0.3058 -0.0905
11187SOL    HW137400   9.324   9.768   3.413 -0.0840 -0.8608 -0.4140
11187SOL    HW237401   9.396   9.751   3.558  2.6168 -2.5880 -1.9156
11188SOL     OW37402   0.122   8.237   1.087 -0.1810 -0.0846 -0.0314
11188SOL    HW137403   0.082   8.156   1.043 -0.1650  0.0542 -0.2994
11188SOL    HW237404   0.220   8.238   1.072 -0.0537 -0.4931  0.7398
11190SOL     OW37405   3.063   0.517   3.651  0.3782 -0.1055  0.5184
11190SOL    HW137406   3.085   0.544   3.745 -1.5916 -1.0818  1.2908
11190SOL    HW237407   2.979   0.563   3.623  1.6829  1.2403 -1.2809
11191SOL     OW37408   8.778   3.169   3.187  0.0162 -0.1754  0.1962
11191SOL    HW137409   8.821   3.176   3.098 -0.0175  0.4365  0.2270
11191SOL    HW237410   8.781   3.258   3.233 -0.2100 -0.4193  0.6888
11192SOL     OW37411   7.437   5.699   3.205  0.6766 -0.1485 -0.4577
11192SOL    HW137412   7.521   5.715   3.152  0.9684  0.7180  0.2663
11192SOL    HW237413   7.461   5.669   3.297  0.1825  0.2905 -0.1886
11193SOL     OW37414   3.048   3.663   2.123 -0.0782 -0.3005  0.2869
11193SOL    HW137415   3.066   3.751   2.166  0.9674 -1.6076  2.6454
11193SOL    HW237416   3.131   3.629   2.080 -0.2982 -0.4439 -0.0275
11194SOL     OW37417   8.219   3.688   3.376  0.0949  0.2747 -0.0370
11194SOL    HW137418   8.216   3.744   3.293 -2.5824 -1.4009 -1.1649
11194SOL    HW237419   8.136   3.704   3.429  1.6853  1.1565  2.2585
11195SOL     OW37420   1.245   5.417   1.705 -0.3160  0.2477 -0.1751
11195SOL    HW137421   1.294   5.404   1.619  1.7804 -1.5192  1.2414
11195SOL    HW237422   1.191   5.336   1.726 -0.9235  0.7209  0.1215
11196SOL     OW37423   7.938   2.777   3.723 -0.1468  0.1163 -0.0915
11196SOL    HW137424   8.032   2.747   3.708 -0.3169 -0.2696 -0.3802
11196SOL    HW237425   7.924   2.793   3.821 -0.4918 -2.2012  0.2638
11199SOL     OW37426   0.199   5.397   2.998 -0.6010 -0.2927 -0.2251
11199SOL    HW137427   0.130   5.331   3.027 -1.2991  1.5281  2.5081
11199SOL    HW237428   0.285   5.379   3.045  0.2548 -1.3816 -2.1654
11200SOL     OW37429   5.135   3.124   1.380 -0.2050  0.2179 -0.1981
11200SOL    HW137430   5.041   3.104   1.353  0.0804 -0.7409 -0.4940
11200SOL    HW237431   5.136   3.151   1.476 -0.4597 -2.5805  0.6474
11201SOL     OW37432   9.348   8.823   0.220  0.2342  0.4611 -0.2843
11201SOL    HW137433   9.289   8.901   0.199 -1.8557 -0.7965  0.7902
11201SOL    HW237434   9.358   8.815   0.319  2.1127  0.5423 -0.4397
11202SOL     OW37435   8.598   2.214   3.041  0.0357  0.0668  0.2339
11202SOL    HW137436   8.643   2.203   2.952 -0.7970 -0.3153 -0.1440
11202SOL    HW237437   8.625   2.302   3.081 -2.1334  1.8012 -1.9184
11206SOL     OW37438   8.578   9.967   1.481  0.0630  0.4693  0.2601
11206SOL    HW137439   8.579   9.930   1.388 -1.9573  0.1144  0.3485
11206SOL    HW237440   8.667  10.006   1.502  0.5672  0.5252 -1.8112
11208SOL     OW37441   3.428   9.592   3.704 -0.0647  0.0915 -0.8401
11208SOL    HW137442   3.374   9.535   3.766  0.8619 -0.1926 -0.2813
11208SOL    HW237443   3.502   9.538   3.664  0.7647  0.8642 -0.3769
11210SOL     OW37444   3.444   4.388   1.655 -0.1456 -0.1028  0.0502
11210SOL    HW137445   3.407   4.431   1.738  1.3914  2.0136 -0.3270
11210SOL    HW237446   3.542   4.405   1.650  0.0481 -1.5939 -1.4006
11211SOL     OW37447   1.587   1.569   1.329  0.2876  0.2310 -0.2220
11211SOL    HW137448   1.545   1.529   1.410  0.9148 -0.4170 -0.2165
11211SOL    HW237449   1.640   1.499   1.281 -0.9858  0.3365 -1.7940
11212SOL     OW37450   2.479   2.912   3.190  0.3214  0.1667  0.6271
11212SOL    HW137451   2.431   2.878   3.110 -0.0815 -0.1204  0.9867
11212SOL    HW237452   2.567   2.864   3.198  0.1369 -0.1707  0.6441
11214SOL     OW37453   2.092   8.149   2.244 -0.0862  0.3000 -0.1245
11214SOL    HW137454   2.181   8.105   2.256  0.3993  1.3135  0.0666
11214SOL    HW237455   2.079   8.217   2.316  0.1444  2.0400 -1.6891
11215SOL     OW37456   8.748   6.216   1.351  0.0648 -0.5831 -0.3048
11215SOL    HW137457   8.841   6.222   1.388 -0.7302 -1.3246  1.8690
11215SOL    HW237458   8.684   6.258   1.414 -1.0534  0.2559 -1.9739
11216SOL     OW37459   3.313   0.541   1.146 -0.2626  0.1585 -0.1399
11216SOL    HW137460   3.297   0.448   1.115 -1.8397  0.5472 -0.5168
11216SOL    HW237461   3.397   0.544   1.200  0.2644 -1.3072 -0.8578
11218SOL     OW37462   3.076   8.501   0.970  0.0902 -0.4087  0.4624
11218SOL    HW137463   3.092   8.597   0.992 -0.5609 -0.8192  2.8427
11218SOL    HW237464   2.988   8.491   0.923 -0.3245  0.0376  1.1422
11219SOL     OW37465   4.381   7.715   3.689 -0.0788 -0.7452 -0.1274
11219SOL    HW137466   4.386   7.649   3.614 -1.8047 -0.0442 -0.8928
11219SOL    HW237467   4.421   7.801   3.659 -1.0747 -0.3606 -0.3828
11221SOL     OW37468   1.160   1.652   2.499  0.4173 -0.4690 -0.1288
11221SOL    HW137469   1.188   1.581   2.563  1.7096 -1.5569 -1.8323
11221SOL    HW237470   1.232   1.721   2.491 -0.9156  1.1696  1.6675
11222SOL     OW37471   2.506   4.082   2.827 -0.1383 -0.0093  0.0893
11222SOL    HW137472   2.569   4.045   2.759  0.0248 -2.4793  1.5154
11222SOL    HW237473   2.557   4.106   2.910 -0.5994  1.2600  0.0212
11223SOL     OW37474   2.447   7.609   0.552 -0.6421  0.5175 -0.0833
11223SOL    HW137475   2.367   7.558   0.582 -0.6287  0.6172  0.1225
11223SOL    HW237476   2.527   7.549   0.550 -0.7292  0.4093 -0.3234
11224SOL     OW37477   2.327   7.648   3.142 -0.0650  0.4203  0.2385
11224SOL    HW137478   2.408   7.704   3.127  0.5896 -0.6950 -0.4111
11224SOL    HW237479   2.333   7.564   3.088 -0.4849 -0.8370  2.1144
11225SOL     OW37480   2.514   5.105   2.360  0.0003  0.0680 -0.0892
11225SOL    HW137481   2.440   5.143   2.305  0.4818  2.4562  0.8554
11225SOL    HW237482   2.576   5.178   2.389  0.6546 -1.3570  2.2602
11226SOL     OW37483   7.955   5.562   0.311 -0.1628  0.5644  0.1814
11226SOL    HW137484   7.866   5.580   0.352  0.5811  1.0078  1.6602
11226SOL    HW237485   8.009   5.504   0.372 -0.7988 -2.8968 -2.4350
11227SOL     OW37486   3.499   8.659   1.088 -0.1377 -0.4331 -0.0366
11227SOL    HW137487   3.548   8.686   1.171 -0.8437  2.0455 -0.4060
11227SOL    HW237488   3.556   8.596   1.035  0.8711 -0.9587  1.6390
11228SOL     OW37489   1.951   2.184   0.519 -0.2423  0.3199 -0.7302
11228SOL    HW137490   2.010   2.214   0.444 -0.5532 -1.1595 -1.5919
11228SOL    HW237491   1.859   2.220   0.505 -1.1994 -2.8086 -3.0024
11230SOL     OW37492   1.357   7.542   0.685 -0.3107 -0.4957 -0.5695
11230SOL    HW137493   1.308   7.467   0.728  0.2066 -0.6743 -0.2922
11230SOL    HW237494   1.452   7.542   0.716 -0.2743  0.1832 -0.6804
11232SOL     OW37495   4.021   3.156   1.466  0.4383  0.3982 -0.0778
11232SOL    HW137496   4.109   3.109   1.466 -0.4116 -1.2439 -0.7028
11232SOL    HW237497   3.947   3.088   1.462 -0.8726  1.7230  1.0439
11233SOL     OW37498   0.256   5.864   2.608  0.5172  0.1693 -0.4451
11233SOL    HW137499   0.214   5.949   2.575  2.4705  0.4173 -2.4227
11233SOL    HW237500   0.312   5.884   2.689  1.0402  0.7994 -0.9539
11235SOL     OW37501   3.703   3.696   2.250 -0.6241  0.1119 -0.0473
11235SOL    HW137502   3.782   3.735   2.296 -0.1876 -1.0913  0.2412
11235SOL    HW237503   3.670   3.760   2.180  0.1043  0.9582  0.3769
11236SOL     OW37504   2.437   5.863   1.229 -0.2108  0.4332  0.2259
11236SOL    HW137505   2.446   5.787   1.294  2.0426 -0.1573 -0.7313
11236SOL    HW237506   2.443   5.950   1.278  0.3742 -0.0116  0.9481
11237SOL     OW37507   2.080   8.984   0.608  0.1302 -0.0012 -0.6475
11237SOL    HW137508   2.044   8.954   0.696 -0.9880  1.0601 -0.7323
11237SOL    HW237509   2.161   9.041   0.623 -0.5155  0.8269 -0.2586
11238SOL     OW37510   2.549   3.764   2.005  0.1814 -0.2339  0.1574
11238SOL    HW137511   2.484   3.715   1.947  1.6917 -0.6524 -1.2150
11238SOL    HW237512   2.633   3.710   2.015  1.1667  1.2477  0.1084
11239SOL     OW37513   1.457   5.519   3.700  0.0499 -0.3043  0.1897
11239SOL    HW137514   1.367   5.521   3.658 -0.7057 -2.0692  1.6275
11239SOL    HW237515   1.453   5.563   3.790  0.9181  0.6555 -0.2235
11240SOL     OW37516   9.861   8.703   3.345 -0.3316  0.3386  0.4034
11240SOL    HW137517   9.792   8.670   3.281 -0.1459  0.3792  0.1826
11240SOL    HW237518   9.827   8.692   3.438 -0.9659  1.0867  0.2719
11241SOL     OW37519   9.166   7.917   0.150  0.3439  0.1130  0.4960
11241SOL    HW137520   9.178   8.007   0.107 -0.3839  1.4132  2.9138
11241SOL    HW237521   9.077   7.879   0.124  0.7112  0.0177 -0.6422
11242SOL     OW37522   1.037   4.318   1.656  0.1363 -0.1090  0.2360
11242SOL    HW137523   1.062   4.301   1.561  0.0449 -0.7210  0.3165
11242SOL    HW237524   1.112   4.289   1.716  0.0221 -0.1236  0.3723
11243SOL     OW37525   2.738   7.753   1.593  0.2770 -0.3650 -0.2888
11243SOL    HW137526   2.663   7.689   1.609  0.0292  0.2987  1.2717
11243SOL    HW237527   2.823   7.702   1.580 -0.3086 -1.0872 -1.3964
11244SOL     OW37528   2.620   8.772   0.931  0.3362  0.7028 -0.0309
11244SOL    HW137529   2.615   8.672   0.932 -0.3117  0.7363  0.3039
11244SOL    HW237530   2.531   8.810   0.909  0.5737  1.2105 -0.1247
11245SOL     OW37531   5.755   9.935   3.391  0.0844  0.6456 -0.0195
11245SOL    HW137532   5.656   9.925   3.405 -0.2373  1.6679 -1.4115
11245SOL    HW237533   5.797   9.968   3.476 -0.7914  0.3751  0.5339
11246SOL     OW37534   0.170   4.544   0.731  0.0679 -0.2342  0.0812
11246SOL    HW137535   0.239   4.594   0.784  0.7225 -2.7684  1.7278
11246SOL    HW237536   0.095   4.606   0.707  1.2787  1.7406  1.2403
11247SOL     OW37537   2.372   8.334   2.191 -0.5406  0.5109  0.1269
11247SOL    HW137538   2.409   8.326   2.099 -1.2585  0.4419 -0.1600
11247SOL    HW237539   2.334   8.246   2.219 -1.4835  0.8675 -0.0167
11248SOL     OW37540   0.744   5.015   1.356 -0.0191 -0.3982  0.0988
11248SOL    HW137541   0.792   4.929   1.373 -0.8560 -1.0165 -0.6105
11248SOL    HW237542   0.688   5.006   1.274  0.3332  1.0165 -0.3113
11250SOL     OW37543   1.168   6.112   0.069 -0.5737  0.1806 -0.9690
11250SOL    HW137544   1.160   6.134  -0.028 -0.2217  1.5130 -0.7146
11250SOL    HW237545   1.246   6.162   0.108 -0.4950 -0.6178 -0.0856
11251SOL     OW37546   7.660   1.711   0.466 -0.2750 -0.3965 -0.2314
11251SOL    HW137547   7.588   1.771   0.432  1.6772  1.9106 -0.4101
11251SOL    HW237548   7.661   1.713   0.566 -1.5819 -1.8294 -0.1723
11252SOL     OW37549   4.562   3.373   0.671  0.0575  0.0228 -0.5789
11252SOL    HW137550   4.607   3.407   0.588  1.4061  1.6182  0.7688
11252SOL    HW237551   4.584   3.434   0.748 -1.4463 -1.2415  0.8795
11253SOL     OW37552   5.165   8.462   1.843 -0.2091  0.4739 -0.8082
11253SOL    HW137553   5.147   8.488   1.748  0.8915 -0.0089 -1.1544
11253SOL    HW237554   5.158   8.543   1.901 -1.1539  0.7218 -1.2592
11254SOL     OW37555   0.876   0.656   0.048 -0.0099  0.8671  0.2982
11254SOL    HW137556   0.949   0.683   0.111 -0.7244  0.7880  1.1586
11254SOL    HW237557   0.908   0.667  -0.046  1.6955 -0.6948  0.6541
11255SOL     OW37558   5.349   0.582   2.610 -0.5449  0.4645  0.2616
11255SOL    HW137559   5.267   0.630   2.639 -0.8897  0.2819 -0.3960
11255SOL    HW237560   5.420   0.649   2.587 -0.1347  0.5960  1.8958
11256SOL     OW37561   9.204   5.192   1.165 -0.4664  0.0031 -0.0732
11256SOL    HW137562   9.159   5.156   1.247 -1.7513  0.1214 -0.7056
11256SOL    HW237563   9.158   5.156   1.084 -0.0422  0.9309 -0.7307
11257SOL     OW37564   1.701   7.075   1.266  0.1324 -0.0303 -0.0171
11257SOL    HW137565   1.616   7.031   1.296 -0.1982  0.8969  0.4230
11257SOL    HW237566   1.697   7.173   1.286  2.0549 -0.2653  1.6891
11258SOL     OW37567   9.890   7.574   1.361 -0.1926 -0.0847 -0.0811
11258SOL    HW137568   9.845   7.489   1.387 -1.9832  1.1543  0.9503
11258SOL    HW237569   9.959   7.598   1.430  1.0070 -1.1912 -0.8792
11261SOL     OW37570   3.178   9.647   1.787  0.4181  0.2634 -0.3601
11261SOL    HW137571   3.126   9.684   1.710 -1.3273 -0.8132  0.2553
11261SOL    HW237572   3.208   9.554   1.766  1.1698  0.4858 -0.2886
11262SOL     OW37573   1.818   3.042   2.652  0.2629  0.0625  0.1490
11262SOL    HW137574   1.865   3.014   2.569 -1.3698  1.5225 -1.3303
11262SOL    HW237575   1.734   2.988   2.663  0.2492  0.1732  0.5975
11263SOL     OW37576   1.886   2.840   0.131  0.5626  0.0828 -0.6022
11263SOL    HW137577   1.908   2.914   0.067  0.2146  0.0196 -0.7988
11263SOL    HW237578   1.957   2.834   0.201  0.4515  0.7810 -0.4261
11264SOL     OW37579   2.740   5.409   1.110  0.2732 -0.5425 -0.5043
11264SOL    HW137580   2.758   5.377   1.017 -1.1589  0.9130 -1.3053
11264SOL    HW237581   2.660   5.469   1.110  1.1026  0.6139  1.4353
11265SOL     OW37582   9.782   9.560   1.296 -0.3269 -0.0036  0.9432
11265SOL    HW137583   9.859   9.623   1.296 -0.0731 -0.3074  1.6301
11265SOL    HW237584   9.789   9.500   1.376 -0.6496 -0.7849  0.3883
11266SOL     OW37585   9.181   2.450   1.337 -0.0530  0.2754  0.4746
11266SOL    HW137586   9.148   2.367   1.292  1.3967 -0.5860  0.9803
11266SOL    HW237587   9.128   2.465   1.421  0.1150 -0.5083  0.7227
11267SOL     OW37588   0.370   7.242   1.700 -0.7305  0.7822  0.1455
11267SOL    HW137589   0.290   7.200   1.659  0.4165 -0.8665 -0.4345
11267SOL    HW237590   0.373   7.219   1.798 -1.8601  2.2622  0.5512
11268SOL     OW37591   4.899   7.690   1.599 -0.4891  0.8299 -0.4312
11268SOL    HW137592   4.881   7.668   1.503  0.1320 -0.3412 -0.2871
11268SOL    HW237593   4.951   7.775   1.604  0.3442  0.3761 -1.1951
11269SOL     OW37594   4.372   0.695   0.403 -0.2659 -0.0401 -0.4437
11269SOL    HW137595   4.346   0.681   0.498 -0.0526  2.6603  0.0510
11269SOL    HW237596   4.453   0.640   0.381 -0.0346 -0.2982  1.0646
11270SOL     OW37597   7.946   7.769   2.950 -0.0250  0.2175  0.1197
11270SOL    HW137598   7.977   7.855   2.908 -0.1295  0.1556 -0.0845
11270SOL    HW237599   8.025   7.718   2.984  0.0360  0.4083  0.2697
11271SOL     OW37600   8.188   1.107   1.921 -0.3862  0.3749 -0.2868
11271SOL    HW137601   8.124   1.093   1.997  0.7846  0.4006  0.7371
11271SOL    HW237602   8.271   1.053   1.938 -0.5810 -0.5462 -2.1463
11272SOL     OW37603   9.835   9.716   2.222  0.0423 -0.0029  0.3550
11272SOL    HW137604   9.886   9.723   2.136  2.2313 -0.2031  1.6021
11272SOL    HW237605   9.898   9.721   2.299 -1.9758  1.0186  2.0012
11273SOL     OW37606   4.055   0.588   1.845  0.1277 -0.5017  0.3990
11273SOL    HW137607   4.149   0.590   1.880 -0.9903  0.8087  3.5222
11273SOL    HW237608   4.004   0.516   1.892 -1.1941  0.7277  0.8865
11274SOL     OW37609   0.262   5.443   1.255  0.1990 -0.1020  0.0210
11274SOL    HW137610   0.171   5.414   1.223  0.0417  0.4685 -0.0559
11274SOL    HW237611   0.318   5.362   1.273  0.4112 -0.4369 -2.0160
11275SOL     OW37612   0.395   0.670   2.035 -0.0051  0.4654  0.1747
11275SOL    HW137613   0.358   0.705   2.121 -1.0908  0.7818 -0.4146
11275SOL    HW237614   0.432   0.745   1.981  0.5794  0.2808  0.3196
11277SOL     OW37615   9.161   4.142   1.922 -0.2628  0.2666  0.2779
11277SOL    HW137616   9.105   4.081   1.866  1.9073  0.6721 -2.4675
11277SOL    HW237617   9.249   4.098   1.941  0.0388  1.2155  1.0912
11278SOL     OW37618   8.413   6.533   0.381  0.2857 -0.7744  0.4774
11278SOL    HW137619   8.429   6.619   0.333 -0.6192 -1.1586 -0.5166
11278SOL    HW237620   8.500   6.484   0.391  1.1622  1.1467  2.8129
11279SOL     OW37621   9.335   7.480   2.116  0.5644 -0.0518 -0.8771
11279SOL    HW137622   9.376   7.413   2.054  0.4715  1.0106 -2.0966
11279SOL    HW237623   9.243   7.503   2.085  0.1090 -0.3002  0.2575
11280SOL     OW37624   3.022   3.629   0.142  0.0657 -0.1722 -0.0130
11280SOL    HW137625   3.004   3.694   0.217  0.4630 -0.9945  0.7987
11280SOL    HW237626   2.947   3.634   0.076 -2.5484 -2.5521  2.6107
11281SOL     OW37627   2.659   7.690   2.479  0.2319 -0.5187  0.2078
11281SOL    HW137628   2.711   7.624   2.425 -0.8332 -1.2380  0.0404
11281SOL    HW237629   2.573   7.713   2.432  1.0308  1.7554 -0.2078
11282SOL     OW37630   9.343   0.913   1.843 -0.2124 -0.0839 -0.5524
11282SOL    HW137631   9.441   0.896   1.837 -0.2916 -0.0857 -2.0619
11282SOL    HW237632   9.294   0.826   1.843 -0.2468 -0.0654 -0.7005
11284SOL     OW37633   8.579   0.899   2.926  0.0418 -0.3563 -0.0884
11284SOL    HW137634   8.589   0.992   2.891 -0.0892  0.1274  1.1185
11284SOL    HW237635   8.596   0.833   2.853 -0.3894  0.6210 -1.0778
11285SOL     OW37636   3.279   3.139   3.225  0.3332  0.7534  0.4919
11285SOL    HW137637   3.296   3.170   3.132 -0.5309  2.5068  0.8843
11285SOL    HW237638   3.209   3.197   3.267 -0.3319 -0.9250  1.7506
11286SOL     OW37639   1.641   2.742   0.151 -0.5906 -0.6406  0.0168
11286SOL    HW137640   1.580   2.809   0.192  0.9449  0.8620 -0.0816
11286SOL    HW237641   1.736   2.771   0.164 -0.0180 -0.9248 -3.2046
11287SOL     OW37642   9.220   2.262   2.003  0.1532  0.2514 -0.8782
11287SOL    HW137643   9.152   2.253   1.930 -0.0288 -0.1441 -0.6605
11287SOL    HW237644   9.269   2.348   1.992  0.3814  0.0272 -1.6852
11288SOL     OW37645   8.207   2.616   1.845  0.2868  0.8221 -0.4424
11288SOL    HW137646   8.178   2.692   1.787 -2.2157 -0.5073 -1.0158
11288SOL    HW237647   8.238   2.540   1.788  1.3374  0.8634  0.0749
11289SOL     OW37648   1.343   0.225   0.613  0.7008  0.6289  0.2684
11289SOL    HW137649   1.311   0.298   0.673 -1.6721 -0.3492  0.2347
11289SOL    HW237650   1.295   0.229   0.526  1.3869 -0.2449 -0.1594
11290SOL     OW37651   2.805   5.849   1.099 -0.6636  0.5050 -0.7779
11290SOL    HW137652   2.715   5.828   1.061 -0.7253 -1.5394  0.4534
11290SOL    HW237653   2.827   5.945   1.081 -3.1144  1.0485 -1.0178
11292SOL     OW37654   2.808   0.590   3.587  0.0694  0.5429 -0.1028
11292SOL    HW137655   2.774   0.653   3.657 -0.3275  1.6031 -1.2362
11292SOL    HW237656   2.731   0.548   3.540  0.3296  0.3422 -0.3500
11293SOL     OW37657   4.130   9.421   0.252 -0.7154  0.8529  0.0880
11293SOL    HW137658   4.088   9.473   0.177 -2.6824  0.3209  0.7866
11293SOL    HW237659   4.062   9.358   0.291  1.8256 -3.0255 -1.3890
11294SOL     OW37660   2.717   3.535   2.675  0.6792 -0.1744  0.1426
11294SOL    HW137661   2.759   3.585   2.599  0.5322 -0.6374 -0.2459
11294SOL    HW237662   2.620   3.520   2.655  0.7546 -0.7299  0.1954
11295SOL     OW37663   2.315   2.981   1.436 -0.2447  0.2683  0.2438
11295SOL    HW137664   2.252   3.056   1.418 -1.2977 -0.0089  2.6266
11295SOL    HW237665   2.378   3.006   1.510  0.5730 -0.5363 -0.1609
11297SOL     OW37666   1.095   2.544   1.403 -0.1212 -0.4007 -0.5055
11297SOL    HW137667   1.191   2.538   1.377 -0.4312 -1.5572 -1.4509
11297SOL    HW237668   1.080   2.491   1.487  0.3119  0.9150  0.4283
11298SOL     OW37669   5.336   9.026   2.043 -0.1514 -0.1812 -0.0697
11298SOL    HW137670   5.260   9.058   1.986 -0.1920  1.0808  0.6709
11298SOL    HW237671   5.413   9.088   2.034  0.1310 -0.4245  0.6309
11299SOL     OW37672   2.712   8.170   0.476  0.4088  0.9504 -0.3347
11299SOL    HW137673   2.658   8.089   0.453  0.6710  0.5575  0.4189
11299SOL    HW237674   2.712   8.233   0.399 -0.0027  0.3412 -0.8378
11300SOL     OW37675   3.172   8.804   1.490  0.4908 -0.0143 -0.1121
11300SOL    HW137676   3.237   8.804   1.413  0.4723 -2.8807 -0.1668
11300SOL    HW237677   3.080   8.823   1.455  0.5334 -0.9690 -0.7471
11301SOL     OW37678   2.563   9.593   3.185 -0.7007 -0.4741  0.0287
11301SOL    HW137679   2.595   9.629   3.097  0.2974 -0.8599  0.2333
11301SOL    HW237680   2.565   9.666   3.253 -0.5663 -0.4122 -0.0396
11302SOL     OW37681   8.612   0.455   1.691 -0.2060 -0.6118  0.4624
11302SOL    HW137682   8.674   0.499   1.756  0.7460  0.8162 -1.3754
11302SOL    HW237683   8.524   0.504   1.691  0.0162 -0.2134  0.1952
11303SOL     OW37684   2.009   2.667   2.910  0.2264 -0.2364  0.1370
11303SOL    HW137685   1.963   2.609   2.977  1.1633  0.6561  1.5935
11303SOL    HW237686   1.991   2.763   2.931  3.0789  0.1400  1.0050
11304SOL     OW37687   5.593   0.492   3.169 -0.1686  0.7047 -0.2710
11304SOL    HW137688   5.690   0.471   3.159 -0.4816 -1.1363  0.4484
11304SOL    HW237689   5.550   0.495   3.078  0.5051  1.3197 -0.5737
11305SOL     OW37690   9.678   5.997   3.355  0.2259  0.8937  0.5738
11305SOL    HW137691   9.703   6.094   3.359  1.6723  0.6036 -0.8577
11305SOL    HW237692   9.700   5.954   3.442  1.6361  1.3839  0.4727
11306SOL     OW37693   4.960   4.746   1.654  0.2882  0.4014 -0.0347
11306SOL    HW137694   4.900   4.768   1.731 -0.5225  2.1980 -1.1659
11306SOL    HW237695   4.963   4.647   1.642 -1.5908  0.2307  0.7049
11308SOL     OW37696   5.647   0.085   1.429  0.6146  0.3171  0.4054
11308SOL    HW137697   5.613   0.005   1.478  2.6686 -2.2809 -2.2659
11308SOL    HW237698   5.747   0.083   1.426  0.6309  2.0540 -1.1655
11309SOL     OW37699   2.156   9.333   0.654  0.0899 -0.0170 -0.1779
11309SOL    HW137700   2.240   9.379   0.625  1.3143 -1.4691  0.9518
11309SOL    HW237701   2.083   9.351   0.588  1.6124  0.2752 -1.8065
11310SOL     OW37702   2.052   4.517   0.268 -0.0105 -0.0846 -0.3778
11310SOL    HW137703   1.970   4.494   0.320  0.2352  1.8743  0.9230
11310SOL    HW237704   2.027   4.528   0.171 -1.2354  0.2070 -0.0444
11311SOL     OW37705   0.501   4.280   3.335 -0.3048 -0.4439  0.0710
11311SOL    HW137706   0.552   4.236   3.261  1.3600  1.7277 -0.1417
11311SOL    HW237707   0.565   4.319   3.401 -1.6342  2.6437 -0.3721
11312SOL     OW37708   8.923   7.871   0.929 -0.2783  0.3564  0.2407
11312SOL    HW137709   8.965   7.805   0.868  0.7376  0.8486  0.4050
11312SOL    HW237710   8.972   7.873   1.016  0.8838  2.6363 -0.4037
11313SOL     OW37711   3.734   0.735   3.745 -0.7431 -0.6831  0.2333
11313SOL    HW137712   3.756   0.811   3.806 -2.9104 -0.1330  0.3565
11313SOL    HW237713   3.785   0.744   3.659  1.3426 -0.7701  1.4332
11314SOL     OW37714   0.273   1.990   2.343 -0.4198 -0.8465 -0.3434
11314SOL    HW137715   0.353   1.935   2.320  0.2443 -1.4183  3.1784
11314SOL    HW237716   0.191   1.932   2.344 -0.1305 -1.2266  0.8061
11315SOL     OW37717   1.413   7.957   0.512  0.2714 -0.3013  0.2430
11315SOL    HW137718   1.373   8.040   0.474 -2.2584 -1.7400 -0.3288
11315SOL    HW237719   1.438   7.973   0.608 -0.6984  0.9445  0.2896
11316SOL     OW37720   5.346   1.221   2.274 -0.0511 -0.1857  0.2172
11316SOL    HW137721   5.431   1.254   2.315 -1.4722  1.3488  2.0057
11316SOL    HW237722   5.271   1.282   2.298 -1.4922 -0.9172 -2.2504
11317SOL     OW37723   8.490   7.650   1.385 -0.4415 -0.7061 -0.6063
11317SOL    HW137724   8.554   7.593   1.334 -0.7106 -0.2655 -1.4434
11317SOL    HW237725   8.510   7.746   1.368 -1.9505 -0.5602 -1.6635
11318SOL     OW37726   8.763   2.825   3.411 -0.5357 -0.5012 -0.2235
11318SOL    HW137727   8.716   2.886   3.474 -2.0798 -0.8413 -1.0171
11318SOL    HW237728   8.747   2.855   3.317  1.2260 -0.3551 -0.4946
11319SOL     OW37729   0.048   5.405   0.652  0.3690  0.5483 -0.4786
11319SOL    HW137730   0.119   5.446   0.594  2.2751 -0.0522  1.3435
11319SOL    HW237731   0.066   5.428   0.747 -0.0052 -2.3562  0.3346
11320SOL     OW37732   7.567   8.661   2.323 -0.0585 -0.2371  0.2499
11320SOL    HW137733   7.587   8.587   2.258 -0.0661  0.0080 -0.0290
11320SOL    HW237734   7.485   8.637   2.376  1.6164 -1.7948  2.2343
11321SOL     OW37735   7.611   0.093   1.429 -0.6555  0.0136 -0.0737
11321SOL    HW137736   7.514   0.086   1.451 -0.7103  0.2187 -0.2570
11321SOL    HW237737   7.634   0.026   1.359 -0.6237 -0.1749  0.1186
11322SOL     OW37738   2.773   9.017   3.066 -0.1067  0.4055  0.0433
11322SOL    HW137739   2.726   9.070   3.136  1.7865  2.4439 -0.1808
11322SOL    HW237740   2.863   9.056   3.050  1.5430 -3.1890  0.1894
11323SOL     OW37741   0.123   7.140   3.516  0.0911  0.6708  0.8348
11323SOL    HW137742   0.196   7.125   3.450  0.3121 -0.4337  1.3209
11323SOL    HW237743   0.147   7.097   3.603 -1.0521  0.4496  1.0556
11325SOL     OW37744   9.363   2.419   1.593 -0.4186  0.1305  0.3826
11325SOL    HW137745   9.281   2.386   1.641  0.6134 -1.8185  0.8361
11325SOL    HW237746   9.350   2.408   1.494 -0.2132 -1.4007  0.5080
11326SOL     OW37747   8.302   7.446   0.893  0.4094  0.0920  0.3157
11326SOL    HW137748   8.330   7.408   0.981  0.5698  0.0170  0.2321
11326SOL    HW237749   8.284   7.372   0.828 -1.3514  0.0849  0.7749
11327SOL     OW37750   5.741   7.523   2.535 -0.0378 -0.1833 -0.0353
11327SOL    HW137751   5.668   7.532   2.469 -0.8510 -0.0875  0.8681
11327SOL    HW237752   5.757   7.427   2.555  0.0622 -0.2016 -0.1984
11328SOL     OW37753   2.132   7.014   1.856  0.0550 -0.1528  0.0058
11328SOL    HW137754   2.083   7.101   1.865 -1.2871 -0.8366 -0.4630
11328SOL    HW237755   2.222   7.021   1.900 -0.0500  1.4559 -0.0145
11329SOL     OW37756   9.573   9.987   0.238 -0.2421  0.2932 -1.0250
11329SOL    HW137757   9.615  10.074   0.213  1.7408  0.4545  2.4277
11329SOL    HW237758   9.532   9.995   0.329 -1.0326 -2.0692 -1.1215
11330SOL     OW37759   9.722   9.381   2.528  0.3450 -0.2993 -0.1221
11330SOL    HW137760   9.701   9.437   2.448  0.8224 -1.8340 -1.3273
11330SOL    HW237761   9.646   9.318   2.546 -0.0959  0.5481  1.1061
11333SOL     OW37762   5.106   0.711   2.640  0.1602  0.2444 -0.2384
11333SOL    HW137763   5.043   0.686   2.567  0.0223  1.7823 -0.6612
11333SOL    HW237764   5.063   0.779   2.699  1.0214  0.5018  0.1018
11334SOL     OW37765   0.899   3.886   0.881  0.0498  0.1331 -0.5522
11334SOL    HW137766   0.842   3.964   0.909  0.3480  0.4609 -0.8399
11334SOL    HW237767   0.995   3.910   0.890  0.1429 -0.3404 -0.2850
11335SOL     OW37768   4.499   2.512   2.935 -0.1158  0.1058  0.0352
11335SOL    HW137769   4.555   2.508   2.852  0.4003 -0.7964  0.4124
11335SOL    HW237770   4.537   2.579   2.998 -0.2650  0.4903 -0.2819
11336SOL     OW37771   2.569   0.934   0.192 -0.5520  0.1755 -0.3983
11336SOL    HW137772   2.654   0.884   0.209 -0.3942  0.4607 -0.3360
11336SOL    HW237773   2.587   1.007   0.126  0.1083  2.5532  2.2972
11337SOL     OW37774   3.551   9.155   3.626 -0.0097 -0.0235 -0.3325
11337SOL    HW137775   3.609   9.164   3.707  0.7960 -0.3770 -0.8569
11337SOL    HW237776   3.455   9.154   3.653  0.1688  1.7398  0.4698
11339SOL     OW37777   4.672   9.602   1.982 -0.3227  0.0910 -0.2525
11339SOL    HW137778   4.655   9.647   1.894  2.1191  1.6175  0.0020
11339SOL    HW237779   4.738   9.656   2.035  0.5643 -2.3744  1.2571
11340SOL     OW37780   9.487   7.139   0.673 -0.5425 -0.0110 -0.0806
11340SOL    HW137781   9.523   7.189   0.751  0.6852  0.2556 -0.8129
11340SOL    HW237782   9.559   7.085   0.631 -1.3607 -0.7204 -0.5975
11341SOL     OW37783   3.442   3.553   1.690  0.1124 -0.3268  0.9800
11341SOL    HW137784   3.495   3.622   1.641  1.5236 -1.2849  1.1333
11341SOL    HW237785   3.422   3.585   1.782  0.8567 -0.1751  1.0884
11342SOL     OW37786   3.192   9.764   3.695  0.1234  0.4175  0.3141
11342SOL    HW137787   3.205   9.861   3.715  1.5549  0.3910 -0.4447
11342SOL    HW237788   3.280   9.717   3.702 -0.4534 -0.7115  0.0363
11343SOL     OW37789   9.900   7.158   0.547  0.2835 -0.0371  0.2312
11343SOL    HW137790   9.824   7.093   0.544  0.2643 -0.0128  0.2036
11343SOL    HW237791   9.975   7.120   0.602 -0.2198  0.4374  1.2528
11346SOL     OW37792   2.425   4.999   3.530 -0.5690 -0.3331  0.3858
11346SOL    HW137793   2.405   4.943   3.610 -0.1734 -0.8158  0.1476
11346SOL    HW237794   2.340   5.031   3.489 -0.7539  1.3169  1.9821
11347SOL     OW37795   8.849   8.636   2.174 -0.1625 -0.1103  0.8262
11347SOL    HW137796   8.807   8.665   2.260  0.8685  0.7532  1.0490
11347SOL    HW237797   8.810   8.688   2.098 -2.3080 -2.0553  0.5248
11348SOL     OW37798   8.132   7.782   2.636 -0.4183 -0.2312 -0.1289
11348SOL    HW137799   8.070   7.835   2.694 -0.1240 -0.5402  0.4685
11348SOL    HW237800   8.131   7.686   2.665 -0.0077 -0.3199 -0.4085
11349SOL     OW37801   9.366   0.952   2.397 -0.1008 -0.1467 -0.2301
11349SOL    HW137802   9.292   0.991   2.452  1.4820  2.2129  0.3096
11349SOL    HW237803   9.435   0.913   2.458  0.3655  0.0363 -0.6408
11351SOL     OW37804   4.494   4.106   0.158  0.0711  0.9316 -0.1339
11351SOL    HW137805   4.411   4.068   0.118  1.8153 -3.3560 -0.0682
11351SOL    HW237806   4.564   4.115   0.086  1.1145 -0.4778  0.6607
11352SOL     OW37807   3.625   7.755   1.089 -0.2005  0.3365 -0.5840
11352SOL    HW137808   3.717   7.775   1.120 -0.8969  2.1109  0.3807
11352SOL    HW237809   3.619   7.769   0.990  0.4114  0.7996 -0.5548
11353SOL     OW37810   2.813   8.478   0.600  0.0946 -0.8633  0.3066
11353SOL    HW137811   2.868   8.486   0.517 -0.3333 -1.0444  0.0072
11353SOL    HW237812   2.803   8.382   0.625 -1.1166 -0.9031 -0.3272
11355SOL     OW37813   0.829   4.574   2.767 -0.2514 -0.2000  0.2625
11355SOL    HW137814   0.833   4.567   2.667 -1.5539 -3.5011  0.3967
11355SOL    HW237815   0.733   4.568   2.797  0.1296  0.7606  1.7273
11356SOL     OW37816   4.660   1.689   2.386  0.0980  0.4525  0.1222
11356SOL    HW137817   4.725   1.641   2.445  0.4676  0.9430  0.1186
11356SOL    HW237818   4.569   1.687   2.427  0.1308 -0.1695  0.1654
11357SOL     OW37819   3.661   5.110   2.313 -0.3355  0.3708  0.4309
11357SOL    HW137820   3.686   5.028   2.364 -0.1432 -0.3105 -0.7360
11357SOL    HW237821   3.741   5.145   2.264 -0.6098  0.7596  0.2549
11359SOL     OW37822   9.019   3.949   1.815 -0.2265 -0.1388  0.0796
11359SOL    HW137823   8.928   3.944   1.857  0.2662 -0.5478  1.1223
11359SOL    HW237824   9.036   3.866   1.763 -0.0149 -0.5587  0.8086
11360SOL     OW37825   1.686   5.747   0.208  0.5678 -0.5027 -0.6621
11360SOL    HW137826   1.687   5.689   0.290  0.6214 -1.1055 -1.0847
11360SOL    HW237827   1.633   5.702   0.136  0.0275  0.2908 -0.7746
11361SOL     OW37828   1.201   7.444   2.050  0.4737 -0.0919 -0.0350
11361SOL    HW137829   1.191   7.514   2.120  0.5338  0.1026 -0.2190
11361SOL    HW237830   1.255   7.480   1.974 -0.2234 -0.0487 -0.5172
11363SOL     OW37831   3.880   7.554   0.931  0.1851  0.4072  0.5420
11363SOL    HW137832   3.804   7.496   0.900  0.4715 -0.5422  1.5855
11363SOL    HW237833   3.921   7.600   0.852 -0.8483  0.1643 -0.1501
11364SOL     OW37834   2.920   7.253   1.329 -0.2213  0.5802  0.6563
11364SOL    HW137835   2.956   7.233   1.420 -0.3464  0.2365  0.6293
11364SOL    HW237836   2.866   7.337   1.333  0.0574  0.7531  0.8284
11365SOL     OW37837   9.697   7.030   1.658 -0.0877 -0.4765 -0.2894
11365SOL    HW137838   9.737   6.939   1.642  1.2611 -0.1253  1.0106
11365SOL    HW237839   9.770   7.097   1.670 -1.0869  0.5514  0.0834
11366SOL     OW37840   1.683   1.658   3.545 -0.0253 -0.5537 -0.4945
11366SOL    HW137841   1.711   1.600   3.469 -0.1165 -1.4539  0.1471
11366SOL    HW237842   1.661   1.601   3.625 -0.4320  0.3389  0.0485
11369SOL     OW37843   3.686   5.921   2.860 -0.2923  0.1485  0.0478
11369SOL    HW137844   3.709   6.015   2.835 -0.8417 -0.0222 -1.0968
11369SOL    HW237845   3.587   5.911   2.868 -0.1789 -0.0248  1.4316
11370SOL     OW37846   4.521   7.020   1.995  0.5304 -0.9010  0.5011
11370SOL    HW137847   4.547   7.089   1.928  0.0598 -0.3307  0.9080
11370SOL    HW237848   4.576   7.031   2.078  1.5184 -1.9650  0.0035
11371SOL     OW37849   9.893   0.506   0.298  0.1944  0.1338 -0.3562
11371SOL    HW137850   9.945   0.424   0.323 -0.1265 -0.2544 -0.9615
11371SOL    HW237851   9.835   0.533   0.374  0.8880  0.2630  0.1359
11372SOL     OW37852   3.315   3.803   0.448  0.3468 -0.1285 -0.0228
11372SOL    HW137853   3.292   3.881   0.507  0.3811 -1.2948  1.5604
11372SOL    HW237854   3.414   3.799   0.436  0.2412  0.9335 -1.3232
11373SOL     OW37855   3.659   9.438   3.633  0.3572 -0.2439 -0.7378
11373SOL    HW137856   3.688   9.425   3.539  1.9077 -0.8197 -0.1875
11373SOL    HW237857   3.696   9.365   3.690 -0.1789  0.3608  0.4108
11375SOL     OW37858   0.085   6.319   0.808 -0.0907 -0.3088  0.0987
11375SOL    HW137859   0.044   6.343   0.896 -0.4471  0.6047 -0.3123
11375SOL    HW237860   0.093   6.401   0.751  1.6591 -0.5985 -0.0952
11376SOL     OW37861   4.898   2.225   1.938 -0.3240 -0.2765  0.3706
11376SOL    HW137862   4.820   2.166   1.955 -0.2782 -0.6124 -0.5638
11376SOL    HW237863   4.980   2.185   1.979 -0.3335 -0.7415 -0.0695
11378SOL     OW37864   3.705   3.893   2.512  0.2783 -0.6410  0.3557
11378SOL    HW137865   3.777   3.837   2.470  0.6576  0.2550 -0.1840
11378SOL    HW237866   3.742   3.983   2.536 -0.5690 -0.3043  0.4131
11380SOL     OW37867   4.637   0.941   2.391  1.2301  0.4917  0.0344
11380SOL    HW137868   4.610   0.885   2.470  2.4131  0.6917  0.5976
11380SOL    HW237869   4.558   0.956   2.332  0.9017 -1.7273 -0.1023
11381SOL     OW37870   2.368   6.239   2.456 -0.0642 -0.4631  0.1608
11381SOL    HW137871   2.384   6.225   2.358 -0.5327  1.0788 -0.1516
11381SOL    HW237872   2.337   6.153   2.497  0.0424 -1.1015 -1.0663
11382SOL     OW37873   5.050   1.032   1.528 -0.7551  0.1937  0.4093
11382SOL    HW137874   5.029   1.003   1.622  0.7965 -0.9089  0.4277
11382SOL    HW237875   5.110   1.111   1.531 -3.2022  2.1050  0.3417
11383SOL     OW37876   2.953   8.690   1.306 -0.7400  0.5753 -0.3438
11383SOL    HW137877   2.955   8.608   1.363 -0.1543 -0.4784 -1.8498
11383SOL    HW237878   2.859   8.717   1.289 -1.0159 -1.1951 -1.7996
11384SOL     OW37879   0.792   2.698   3.352 -0.0066  0.2846  0.1388
11384SOL    HW137880   0.844   2.775   3.315 -0.7806  0.9897  0.4998
11384SOL    HW237881   0.750   2.648   3.277  1.6407 -0.6350 -0.2014
11385SOL     OW37882   3.295   3.030   2.392  0.1352  0.3047 -0.4371
11385SOL    HW137883   3.219   2.987   2.441  0.7903  0.4449  0.6965
11385SOL    HW237884   3.324   2.971   2.317 -0.3457 -0.2665 -0.1743
11386SOL     OW37885   2.816   3.946   2.042 -0.0392  0.0165  0.0261
11386SOL    HW137886   2.916   3.952   2.051 -0.1105  0.9890  0.1824
11386SOL    HW237887   2.790   3.851   2.023  0.8894 -0.2934  0.2956
11387SOL     OW37888   0.403   4.117   3.565  0.0929 -0.6226 -0.4529
11387SOL    HW137889   0.339   4.044   3.588 -1.0549  1.0163  1.7571
11387SOL    HW237890   0.359   4.206   3.579  1.9380  0.5136 -1.6631
11388SOL     OW37891   1.011   9.825   1.276  0.2223 -0.1795 -0.3861
11388SOL    HW137892   0.997   9.899   1.210 -0.7920 -0.9747 -1.0691
11388SOL    HW237893   0.965   9.848   1.362  1.8189  1.0055  0.1775
11389SOL     OW37894   8.162   7.222   3.043  0.1056  0.6072  0.7112
11389SOL    HW137895   8.090   7.154   3.035 -1.8161  2.6305  0.4785
11389SOL    HW237896   8.181   7.240   3.139  0.9114 -0.5262  0.7764
11390SOL     OW37897   5.726   8.410   3.104  0.1313 -0.8022  0.0361
11390SOL    HW137898   5.707   8.376   3.012 -1.5914  0.0309  0.0609
11390SOL    HW237899   5.739   8.509   3.101  1.0200 -0.8978  0.5571
11391SOL     OW37900   2.172   5.811   0.478 -0.3001  0.3031 -0.7422
11391SOL    HW137901   2.198   5.906   0.464  1.9537 -0.1013  0.4803
11391SOL    HW237902   2.251   5.759   0.511 -1.6533 -1.8609 -0.8069
11392SOL     OW37903   0.890   1.210   2.811  0.1993  0.1375 -0.4997
11392SOL    HW137904   0.868   1.159   2.727 -0.4493  1.1639 -0.9607
11392SOL    HW237905   0.826   1.286   2.821  1.3707  1.0639  0.0114
11393SOL     OW37906   8.381   0.582   1.798 -0.3216 -0.3486 -0.3534
11393SOL    HW137907   8.284   0.594   1.775 -0.5863  0.2628  1.0561
11393SOL    HW237908   8.392   0.501   1.854 -0.2950  0.6912  1.1643
11394SOL     OW37909   1.142   9.454   1.699 -0.0064 -0.4335  0.8066
11394SOL    HW137910   1.206   9.383   1.670  2.1661  1.6748  0.2937
11394SOL    HW237911   1.061   9.451   1.641  1.0735 -1.0172 -0.7065
11395SOL     OW37912   0.305   7.462   1.560 -0.2387  0.6193 -0.3817
11395SOL    HW137913   0.346   7.384   1.607 -0.5584 -0.0985 -1.2766
11395SOL    HW237914   0.326   7.457   1.462 -2.4088  0.2640 -0.8559
11396SOL     OW37915   8.331   5.642   0.125 -0.1165 -0.2610 -0.0051
11396SOL    HW137916   8.286   5.664   0.211  2.3803  0.8762  1.0833
11396SOL    HW237917   8.358   5.546   0.124 -1.0596 -0.5245  0.0526
11397SOL     OW37918   8.900   3.851   3.500 -0.2040  0.0649  0.0712
11397SOL    HW137919   8.867   3.840   3.594 -0.8339 -0.6687 -0.2329
11397SOL    HW237920   8.824   3.844   3.436  0.3645 -0.4601 -0.5607
11398SOL     OW37921   2.300   1.323   3.360 -0.4309  0.2212 -0.1778
11398SOL    HW137922   2.314   1.370   3.272  1.5996 -0.7881 -0.4234
11398SOL    HW237923   2.329   1.228   3.352 -2.3853 -0.4963  0.9637
11399SOL     OW37924   2.544   2.098   3.141 -0.1834 -0.0218  0.7145
11399SOL    HW137925   2.478   2.172   3.130  0.2858  0.6297  2.2454
11399SOL    HW237926   2.635   2.136   3.157 -0.0946 -0.9294  2.4034
11401SOL     OW37927   0.236   9.103   1.837 -0.0608  0.0781  0.9297
11401SOL    HW137928   0.153   9.087   1.784  2.4335  1.0648 -3.4945
11401SOL    HW237929   0.251   9.202   1.846  1.4686 -0.0829  0.2595
11402SOL     OW37930   8.609   7.198   1.202  0.1275  0.5172 -0.0920
11402SOL    HW137931   8.546   7.121   1.211 -0.2878  0.4451 -3.0465
11402SOL    HW237932   8.700   7.165   1.177  1.1371  0.7044  3.1142
11403SOL     OW37933   0.396   1.470   0.838 -0.1197  0.1116  0.5073
11403SOL    HW137934   0.324   1.527   0.797 -0.1250 -0.0408  0.3044
11403SOL    HW237935   0.363   1.376   0.848  0.1012  0.0071  0.2727
11404SOL     OW37936   1.394   9.644   2.637  0.2003  0.3084  0.0837
11404SOL    HW137937   1.491   9.668   2.635  0.0349  1.0495  0.9354
11404SOL    HW237938   1.349   9.684   2.558  0.9342 -1.6230 -1.3802
11405SOL     OW37939   3.310   4.642   2.227 -0.5096  0.1283 -0.4416
11405SOL    HW137940   3.392   4.692   2.255  1.0868 -1.4965 -2.1218
11405SOL    HW237941   3.275   4.679   2.142  0.2329 -1.0494 -1.2869
11406SOL     OW37942   8.626   6.026   1.179  0.5563  0.1998 -0.0692
11406SOL    HW137943   8.667   6.097   1.237  0.3137  0.2070  0.0951
11406SOL    HW237944   8.692   5.952   1.166  0.3742 -0.1269  0.7927
11407SOL     OW37945   0.982   0.902   1.337 -0.6311  0.3430 -0.4897
11407SOL    HW137946   0.893   0.862   1.361 -0.3915  0.6981  1.0341
11407SOL    HW237947   1.016   0.859   1.253 -2.1039  0.0066 -0.9357
11408SOL     OW37948   9.190   1.134   1.758 -0.4905  0.0560  0.0977
11408SOL    HW137949   9.248   1.087   1.825 -0.6331  2.6093  2.1343
11408SOL    HW237950   9.101   1.090   1.754  0.5371 -1.9942 -0.7208
11409SOL     OW37951   1.517   4.995   0.886 -0.0255  0.3709  0.2826
11409SOL    HW137952   1.516   5.056   0.807  1.5512 -1.5395 -1.2582
11409SOL    HW237953   1.427   4.953   0.898 -0.9779  2.5617  1.0530
11410SOL     OW37954   2.398   1.236   1.522  0.2524 -0.0251 -0.8274
11410SOL    HW137955   2.497   1.228   1.537  0.0178  0.1056  0.9100
11410SOL    HW237956   2.381   1.295   1.444  1.5240  1.3631 -0.0751
11411SOL     OW37957   6.260   8.407   3.648  0.4768 -0.1697  0.3437
11411SOL    HW137958   6.196   8.397   3.572  1.4017  1.4098 -0.6634
11411SOL    HW237959   6.346   8.447   3.615  2.4980 -3.3828  1.4109
11412SOL     OW37960   2.055   4.215   1.338  0.5682  0.6289  0.3280
11412SOL    HW137961   1.959   4.200   1.312  0.4644 -0.5516  1.3099
11412SOL    HW237962   2.065   4.306   1.378 -0.2608  0.5584  0.7092
11413SOL     OW37963   9.453   6.587   3.269 -0.1566  0.1403  0.0915
11413SOL    HW137964   9.360   6.584   3.304 -0.1406 -0.8457  0.0776
11413SOL    HW237965   9.486   6.493   3.255  0.9511  0.4769  0.4084
11414SOL     OW37966   3.066   9.909   3.013 -0.1274 -0.3611  0.5063
11414SOL    HW137967   3.165   9.921   3.001 -0.3970  1.4869  0.0673
11414SOL    HW237968   3.035   9.832   2.956  1.0480 -0.9495  0.6507
11415SOL     OW37969   9.426   0.178   3.697  0.0199 -0.0175 -0.0697
11415SOL    HW137970   9.509   0.122   3.701  0.4948  0.6146 -0.7668
11415SOL    HW237971   9.350   0.128   3.737  0.4306 -1.1856 -0.7247
11418SOL     OW37972   2.818   1.903   3.693 -0.2967 -0.1545  0.4617
11418SOL    HW137973   2.882   1.926   3.766 -0.7289 -0.4340  0.9336
11418SOL    HW237974   2.786   1.986   3.649  0.9973 -0.0543 -0.3002
11419SOL     OW37975   2.334   8.238   1.856  0.3817 -0.2401 -0.1873
11419SOL    HW137976   2.413   8.292   1.886  0.7417 -1.0251  0.2856
11419SOL    HW237977   2.365   8.168   1.792  0.3864 -1.9046  1.6135
11421SOL     OW37978   2.453   6.624   0.100  0.1257 -0.8202  0.4354
11421SOL    HW137979   2.419   6.548   0.157  0.7338 -1.3137  0.1380
11421SOL    HW237980   2.476   6.590   0.009 -1.5520  0.0982 -0.3733
11422SOL     OW37981   9.857   7.947   1.798  0.2200 -0.3768 -0.3219
11422SOL    HW137982   9.905   7.859   1.801  0.0942 -0.4136  3.7026
11422SOL    HW237983   9.901   8.011   1.861 -2.3744  0.9631  0.2014
11423SOL     OW37984   3.314   8.488   1.774  0.0490 -0.5170 -0.2693
11423SOL    HW137985   3.350   8.479   1.867 -0.6077  0.7967  0.1304
11423SOL    HW237986   3.262   8.574   1.767  1.1142 -0.0130 -2.1846
11424SOL     OW37987   2.198   8.023   3.464 -0.2626  0.5165  0.8680
11424SOL    HW137988   2.166   7.936   3.427  0.1621  1.0237 -0.7198
11424SOL    HW237989   2.126   8.092   3.455 -0.0692  0.7059  0.7695
11426SOL     OW37990   8.809   7.433   0.122 -0.4105 -0.5243 -0.2048
11426SOL    HW137991   8.804   7.507   0.056  1.8110  0.3021  0.5139
11426SOL    HW237992   8.833   7.348   0.075 -0.5200 -0.2923 -0.6840
11427SOL     OW37993   2.769   5.293   3.029 -0.2593  0.3075 -0.9689
11427SOL    HW137994   2.729   5.216   2.980 -0.1616  0.0033 -0.5730
11427SOL    HW237995   2.836   5.260   3.096  1.7473  0.8827 -2.6290
11428SOL     OW37996   1.825   8.020   0.237 -0.0112  0.0731 -0.3105
11428SOL    HW137997   1.881   8.038   0.318  1.3154  0.3384 -1.2720
11428SOL    HW237998   1.870   7.950   0.181 -0.4705  0.5339 -1.2564
11429SOL     OW37999   7.060   0.293   2.786 -0.2229 -0.3408  0.1409
11429SOL    HW138000   7.059   0.256   2.693 -0.0641 -0.3375  0.1380
11429SOL    HW238001   6.970   0.334   2.807 -0.3695 -0.6494  0.1130
11430SOL     OW38002   9.357   8.446   1.376 -0.0383 -0.0068 -0.3006
11430SOL    HW138003   9.394   8.535   1.348  0.4403 -0.1371 -0.0904
11430SOL    HW238004   9.429   8.376   1.369 -0.0369 -0.1284  0.7958
11431SOL     OW38005   3.565   9.161   1.551 -0.5246  0.0123  0.2310
11431SOL    HW138006   3.490   9.193   1.609  0.3109 -0.1901  1.4275
11431SOL    HW238007   3.618   9.091   1.599 -1.3430 -2.0149 -1.7516
11432SOL     OW38008   4.865   5.117   1.220 -1.1762 -0.2880  0.2956
11432SOL    HW138009   4.819   5.029   1.225 -1.9886  0.0547 -0.8700
11432SOL    HW238010   4.799   5.189   1.197 -0.3853  0.4951  0.4114
11433SOL     OW38011   4.542   3.422   3.733  1.0251  0.1988  0.0436
11433SOL    HW138012   4.478   3.407   3.657  1.1306 -0.7686  0.1382
11433SOL    HW238013   4.635   3.431   3.698  0.8866  1.2299 -0.0629
11434SOL     OW38014   6.568   9.441   2.277 -0.4121 -0.7088 -0.4724
11434SOL    HW138015   6.652   9.493   2.260  0.6290 -1.3214  2.3717
11434SOL    HW238016   6.553   9.377   2.202  2.5938 -1.7152 -0.3091
11435SOL     OW38017   9.033   1.346   3.682  0.1944  0.1316  0.4180
11435SOL    HW138018   9.071   1.432   3.647 -1.9160  0.9774  0.1479
11435SOL    HW238019   8.979   1.302   3.610  3.2596 -2.7060 -0.2696
11436SOL     OW38020   0.733   8.706   3.109  0.3029  0.2752  0.3602
11436SOL    HW138021   0.698   8.652   3.032  0.1013 -0.0779  0.6994
11436SOL    HW238022   0.734   8.803   3.084 -1.0027  0.3047  0.3693
11437SOL     OW38023   8.220   8.676   0.062  0.4362  0.0100 -0.6561
11437SOL    HW138024   8.173   8.758   0.095  0.3545 -0.4972  0.4989
11437SOL    HW238025   8.160   8.625   0.000 -0.1608 -0.1049  0.0192
11438SOL     OW38026   3.548   7.271   0.221  0.2738  0.4697 -0.9709
11438SOL    HW138027   3.547   7.357   0.170 -0.2565  0.4421 -1.0136
11438SOL    HW238028   3.615   7.209   0.180 -0.5075  0.2644 -1.9419
11441SOL     OW38029   2.647   2.432   0.067  0.0680  0.6221  0.2597
11441SOL    HW138030   2.680   2.464   0.155 -0.5557  0.5110  0.5375
11441SOL    HW238031   2.566   2.374   0.081  1.4861 -1.4995 -0.1895
11442SOL     OW38032   7.964   6.123   1.955  0.6742  0.0044  0.6183
11442SOL    HW138033   7.993   6.062   2.029 -0.5931 -0.0793  1.0621
11442SOL    HW238034   8.032   6.195   1.941  0.1001  1.0580  3.0541
11443SOL     OW38035   9.569   8.407   0.542 -0.2563 -0.7311 -0.5497
11443SOL    HW138036   9.487   8.371   0.586 -2.2772  1.4740 -2.3648
11443SOL    HW238037   9.543   8.480   0.478  3.1378  0.0724 -1.0987
11444SOL     OW38038   4.798   6.829   2.739  0.3371  0.3955  0.0553
11444SOL    HW138039   4.883   6.782   2.764  1.7812  2.4393 -0.8851
11444SOL    HW238040   4.816   6.893   2.664 -2.0861  0.7338 -0.2757
11445SOL     OW38041   4.729   8.114   1.904  0.2431  0.4444  0.9296
11445SOL    HW138042   4.708   8.120   1.806 -1.6810  1.2320  1.3787
11445SOL    HW238043   4.821   8.075   1.915 -0.2468 -1.4449 -1.1473
11446SOL     OW38044   6.740   0.132   0.167 -0.1376 -0.1119 -0.5192
11446SOL    HW138045   6.771   0.227   0.167 -0.4187 -0.0183 -0.4022
11446SOL    HW238046   6.751   0.094   0.259  0.4481 -0.3474 -0.6916
11447SOL     OW38047   0.986   9.001   1.272 -0.3816 -0.1394 -0.0782
11447SOL    HW138048   0.958   9.092   1.301 -0.0128  0.0223 -0.2221
11447SOL    HW238049   1.060   9.009   1.205  0.3550 -0.5738  0.6837
11448SOL     OW38050   3.323   0.611   2.797 -0.1541 -0.4116 -0.3401
11448SOL    HW138051   3.271   0.695   2.810  0.6728  0.0863 -0.2362
11448SOL    HW238052   3.299   0.570   2.709  2.3372  2.0202 -2.2159
11449SOL     OW38053   0.527   6.753   3.200  0.4065 -0.6313  0.4241
11449SOL    HW138054   0.554   6.809   3.278 -1.6793  0.0520  0.6806
11449SOL    HW238055   0.458   6.687   3.229 -0.6432 -0.1389 -0.9173
11450SOL     OW38056   0.797   5.970   0.910 -0.2562 -0.0497  0.2311
11450SOL    HW138057   0.827   6.040   0.846  0.3237  1.8690  2.5055
11450SOL    HW238058   0.816   5.879   0.872  2.0725  1.0494 -1.3515
11451SOL     OW38059   9.382   7.581   1.191 -0.2699  0.1140 -0.4043
11451SOL    HW138060   9.419   7.628   1.271  0.6445  0.4394 -1.0191
11451SOL    HW238061   9.302   7.527   1.219  0.5069 -0.4158  0.8787
11453SOL     OW38062   0.383   9.937   2.631 -0.4528  0.0110 -0.5249
11453SOL    HW138063   0.439  10.019   2.617 -0.4369 -0.1986 -1.7441
11453SOL    HW238064   0.443   9.860   2.655 -0.1193 -0.4092 -2.6644
11454SOL     OW38065   9.516   3.658   3.146 -0.0746 -0.3431 -0.1089
11454SOL    HW138066   9.548   3.745   3.108 -0.3187 -0.7896 -1.3632
11454SOL    HW238067   9.593   3.598   3.163  0.0504 -0.0810  0.2441
11456SOL     OW38068   2.768   7.460   1.389  0.3658  0.1338  0.2546
11456SOL    HW138069   2.757   7.530   1.460  2.0849 -0.8397  1.5347
11456SOL    HW238070   2.679   7.423   1.364 -0.4175  1.7275  0.6484
11457SOL     OW38071   8.081   9.758   0.067  0.3250 -0.1567 -0.4964
11457SOL    HW138072   8.127   9.818   0.001 -0.8139  0.4949 -0.7066
11457SOL    HW238073   8.100   9.791   0.160  2.0266 -1.1417 -0.4694
11458SOL     OW38074   9.233   6.303   0.084  0.8359 -0.2984  1.1330
11458SOL    HW138075   9.318   6.254   0.100  2.0683  1.3273 -0.2390
11458SOL    HW238076   9.247   6.371   0.012 -1.9859 -0.9515 -0.1147
11459SOL     OW38077   4.053   2.496   0.268  0.5022 -0.6977 -0.0135
11459SOL    HW138078   4.084   2.506   0.363 -1.8173  0.4668  0.6549
11459SOL    HW238079   4.109   2.427   0.222  2.2166 -0.6733  1.9418
11460SOL     OW38080   9.772   6.866   0.322  0.2239  0.2732 -0.0190
11460SOL    HW138081   9.789   6.940   0.256  1.8422  0.0133  0.0844
11460SOL    HW238082   9.692   6.813   0.293  0.4548  0.6387 -1.3443
11461SOL     OW38083   3.936   2.454   2.464 -0.1442  0.1402  0.1657
11461SOL    HW138084   3.921   2.403   2.379  1.3369  1.0095 -0.6428
11461SOL    HW238085   3.966   2.547   2.442 -2.0933  1.1607  1.6317
11464SOL     OW38086   9.649   6.882   2.500 -0.0973  0.4939 -0.0779
11464SOL    HW138087   9.608   6.903   2.412  0.6950  0.0335 -0.5608
11464SOL    HW238088   9.716   6.809   2.490  0.0985  0.5227  0.8815
11465SOL     OW38089   9.268   6.293   1.064  0.1640  0.4955  0.3768
11465SOL    HW138090   9.223   6.219   1.014 -1.5377  1.0735  0.9986
11465SOL    HW238091   9.367   6.281   1.060 -0.0043 -0.4918 -1.5504
11466SOL     OW38092   1.150   9.685   3.570  0.9678 -0.8070  0.3042
11466SOL    HW138093   1.058   9.678   3.531  0.9861  1.8501 -0.2807
11466SOL    HW238094   1.216   9.646   3.506  0.6286  0.4768 -0.8534
11467SOL     OW38095   0.290   0.550   3.352 -0.3200  0.1394 -0.3603
11467SOL    HW138096   0.252   0.630   3.399  1.2039  0.4969  0.3053
11467SOL    HW238097   0.228   0.473   3.362 -2.1883  1.4317 -1.6568
11468SOL     OW38098   2.802   5.595   0.569  0.2330 -0.4561  0.1362
11468SOL    HW138099   2.757   5.660   0.508  1.7022  1.1777  0.7250
11468SOL    HW238100   2.896   5.580   0.538  0.3445 -1.2271  0.8156
11469SOL     OW38101   3.577   2.437   3.036  0.4426  0.5540 -0.2997
11469SOL    HW138102   3.552   2.385   2.955  0.6386  1.0166 -0.6551
11469SOL    HW238103   3.675   2.459   3.033  0.6501 -0.2045  0.4947
11470SOL     OW38104   0.817   0.948   0.705 -0.5531 -0.5696  0.1185
11470SOL    HW138105   0.843   0.915   0.614  0.5809  1.2658 -0.2396
11470SOL    HW238106   0.731   0.999   0.699  1.4501  2.8228 -0.6198
11472SOL     OW38107   2.568   4.328   1.983 -0.1511 -0.6229 -0.0365
11472SOL    HW138108   2.637   4.303   2.051  0.7723  0.8612 -0.3924
11472SOL    HW238109   2.561   4.255   1.914  1.2957 -0.6556 -0.1639
11473SOL     OW38110   0.701   3.173   0.898 -0.3638 -0.1781 -0.0468
11473SOL    HW138111   0.796   3.150   0.880 -0.1467 -0.9973  2.0153
11473SOL    HW238112   0.641   3.104   0.857  0.0641 -1.2966  1.1712
11474SOL     OW38113   9.291   6.569   2.637 -0.3098 -0.8247 -0.4248
11474SOL    HW138114   9.278   6.490   2.576 -0.3381 -0.9828 -0.2172
11474SOL    HW238115   9.364   6.548   2.703  1.3208  0.2361 -1.8818
11475SOL     OW38116   3.188   1.488   3.175  0.2138  0.1750  0.0106
11475SOL    HW138117   3.282   1.488   3.208  0.0698  1.8175  0.4499
11475SOL    HW238118   3.156   1.582   3.163 -1.5088 -0.3540  0.2710
11476SOL     OW38119   9.796   5.225   1.056 -0.0589  0.3051 -0.1739
11476SOL    HW138120   9.763   5.245   0.964 -1.2173  2.3860  0.6625
11476SOL    HW238121   9.758   5.138   1.087  1.2788 -1.0002 -2.0888
11477SOL     OW38122   9.288   0.585   3.764 -0.2837  0.3690 -0.6564
11477SOL    HW138123   9.216   0.602   3.831  0.5538  1.2103  0.0530
11477SOL    HW238124   9.251   0.596   3.672 -1.5896 -1.3532 -0.3649
11478SOL     OW38125   1.170   1.546   0.966  0.0541  0.1736 -0.2951
11478SOL    HW138126   1.250   1.534   1.025 -0.7643 -1.9856  0.4257
11478SOL    HW238127   1.097   1.591   1.018  0.8756  2.5234 -1.0713
11479SOL     OW38128   6.364   9.891   0.713 -0.2724 -0.0423 -0.3303
11479SOL    HW138129   6.419   9.875   0.795 -0.3571 -0.0384 -0.2727
11479SOL    HW238130   6.295   9.961   0.732 -0.4369 -0.2013 -0.3399
11480SOL     OW38131   9.314   6.334   3.321 -0.1663 -0.3478 -0.4088
11480SOL    HW138132   9.394   6.280   3.296 -0.5729 -0.7916 -0.7848
11480SOL    HW238133   9.231   6.280   3.304 -0.5762  0.3766 -0.7266
11481SOL     OW38134   9.203   8.875   0.504 -0.7414  0.0658  0.2603
11481SOL    HW138135   9.222   8.973   0.494  3.1146 -0.5633  0.8259
11481SOL    HW238136   9.230   8.845   0.596 -1.0049 -1.7260 -0.2379
11483SOL     OW38137   8.563   3.439   3.458  0.0684 -0.6647  0.0930
11483SOL    HW138138   8.498   3.372   3.494 -0.5577 -0.1336 -0.0558
11483SOL    HW238139   8.518   3.498   3.392 -0.0874  1.6820  2.2256
11484SOL     OW38140   9.190   5.565   2.425 -0.1611  0.5956  0.1827
11484SOL    HW138141   9.138   5.563   2.510  0.5627  1.4243  0.6520
11484SOL    HW238142   9.128   5.560   2.347 -0.9421  1.4915  0.7402
11486SOL     OW38143   9.202   4.723   3.488 -0.3678 -0.0241  0.3473
11486SOL    HW138144   9.125   4.718   3.551 -0.2239  1.9710  0.6864
11486SOL    HW238145   9.168   4.730   3.394 -0.6104  1.5555  0.5491
11488SOL     OW38146   8.770   3.289   1.279  0.2475 -0.7644 -0.0452
11488SOL    HW138147   8.705   3.356   1.314  0.7885 -0.3382  0.1482
11488SOL    HW238148   8.721   3.206   1.253 -0.3319 -0.5799  0.4382
11489SOL     OW38149   1.884   3.030   2.168 -0.1339  0.2937  0.3215
11489SOL    HW138150   1.927   3.102   2.221  1.6795  0.3887 -1.2216
11489SOL    HW238151   1.836   2.967   2.230  0.1019  1.5941  1.8556
11490SOL     OW38152   0.444   3.987   3.325  0.0752  0.1608 -0.5327
11490SOL    HW138153   0.417   4.065   3.382 -1.4875 -0.0891 -0.9218
11490SOL    HW238154   0.406   3.903   3.363 -1.0023 -0.0073 -1.9346
11491SOL     OW38155   4.544   9.360   1.210 -0.1045 -0.4005 -0.4890
11491SOL    HW138156   4.505   9.447   1.179 -0.9856 -1.2444 -1.7522
11491SOL    HW238157   4.606   9.378   1.287  0.3462  1.4453 -1.2489
11492SOL     OW38158   9.573   0.493   2.450 -0.1320 -0.5807 -0.0008
11492SOL    HW138159   9.520   0.504   2.366 -0.4900 -1.6958  0.0611
11492SOL    HW238160   9.558   0.401   2.486  1.8136 -0.8814  0.0561
11493SOL     OW38161   3.801   1.880   2.175 -0.0458 -0.4164  0.3596
11493SOL    HW138162   3.867   1.847   2.242  1.2005  0.8819 -0.2162
11493SOL    HW238163   3.766   1.803   2.122 -2.5433 -1.7799  3.7771
11494SOL     OW38164   4.202   7.731   2.169 -1.0942  0.2291 -0.3318
11494SOL    HW138165   4.167   7.813   2.124 -1.2578  0.3415  0.0041
11494SOL    HW238166   4.131   7.691   2.226 -0.7424  0.3451  0.1930
11495SOL     OW38167   0.399   1.506   3.397  0.0434  0.3678 -0.7679
11495SOL    HW138168   0.416   1.415   3.359  1.1063  1.2811 -2.5206
11495SOL    HW238169   0.460   1.572   3.354 -2.0318  2.2575 -0.8915
11496SOL     OW38170   7.245   8.339   2.071  0.1489 -0.2507  0.8590
11496SOL    HW138171   7.151   8.352   2.040  0.6765 -1.3405 -1.3177
11496SOL    HW238172   7.248   8.343   2.171 -2.0590  0.6557  0.9181
11497SOL     OW38173   8.339   9.271   2.174  0.0810  0.1672 -0.4388
11497SOL    HW138174   8.382   9.356   2.143 -0.4729  0.7681  0.4292
11497SOL    HW238175   8.248   9.264   2.134 -0.4036  0.6534  0.5756
11498SOL     OW38176   4.645   3.133   2.220  0.0064 -0.2422  0.7461
11498SOL    HW138177   4.656   3.126   2.121  1.1448 -2.2275  0.9995
11498SOL    HW238178   4.583   3.209   2.241 -0.1744  0.2544 -1.4686
11499SOL     OW38179   4.175   2.523   2.182  0.0685  0.4208 -0.4203
11499SOL    HW138180   4.188   2.432   2.223  1.7709  0.8458  0.0341
11499SOL    HW238181   4.120   2.579   2.244  1.0421  0.4565  0.4310
11500SOL     OW38182   6.463   8.173   2.790  0.1932  0.2224  0.2074
11500SOL    HW138183   6.461   8.191   2.692 -1.3898  0.8573  0.3350
11500SOL    HW238184   6.538   8.225   2.832  0.7319  0.1212 -0.6273
11501SOL     OW38185   7.061   8.147   2.438  0.5189  0.2582 -0.1046
11501SOL    HW138186   7.122   8.092   2.494 -0.6063  0.0746  0.9467
11501SOL    HW238187   7.042   8.100   2.352  0.2118 -0.6008  0.4403
11502SOL     OW38188   0.271   9.251   2.188  0.1857 -0.2473 -0.5737
11502SOL    HW138189   0.184   9.242   2.236 -0.7398 -0.9236 -2.3215
11502SOL    HW238190   0.309   9.161   2.169  0.9103  0.0265 -0.4196
11503SOL     OW38191   9.297   3.730   2.176  0.4036  0.2587 -0.3257
11503SOL    HW138192   9.205   3.692   2.165  0.5297 -0.0456 -0.3125
11503SOL    HW238193   9.290   3.822   2.215  0.0803  0.4073 -0.7257
11505SOL     OW38194   3.393   7.413   2.158  0.3124  0.7097  0.1141
11505SOL    HW138195   3.305   7.417   2.205 -0.9614  0.7204 -2.1960
11505SOL    HW238196   3.409   7.320   2.125 -0.3391  1.4056 -2.2235
11506SOL     OW38197   1.667   3.540   3.162 -0.0065  0.3407 -0.4612
11506SOL    HW138198   1.716   3.530   3.076 -0.2588  1.8571 -0.7929
11506SOL    HW238199   1.691   3.627   3.205 -0.2694 -0.1654  0.7575
11507SOL     OW38200   2.898   0.305   0.151  0.5518  0.3192  0.0376
11507SOL    HW138201   2.970   0.375   0.149 -0.7904  1.7158 -0.2791
11507SOL    HW238202   2.834   0.326   0.225  1.5204 -2.0114  1.6006
11508SOL     OW38203   7.890   1.588   3.156  0.2183  0.3138 -0.3054
11508SOL    HW138204   7.975   1.640   3.164  0.2347  0.2923 -0.3344
11508SOL    HW238205   7.813   1.645   3.182  0.4257 -0.3059  1.7841
11509SOL     OW38206   9.795   9.313   0.184 -0.1394  0.2647  0.4762
11509SOL    HW138207   9.752   9.226   0.160 -0.6461  0.0509  2.0768
11509SOL    HW238208   9.812   9.315   0.282  2.4783  0.8185  0.0420
11510SOL     OW38209   7.915   0.739   0.738 -0.0451 -0.0683 -0.1684
11510SOL    HW138210   7.999   0.687   0.754  0.6062  0.4096 -1.8995
11510SOL    HW238211   7.843   0.707   0.800  1.0691 -1.3042  0.5020
11511SOL     OW38212   4.105   9.777   0.384 -0.2043  0.3035  0.0851
11511SOL    HW138213   4.067   9.857   0.431 -0.9207  0.2862 -0.4436
11511SOL    HW238214   4.178   9.737   0.439  0.1507  1.3108  0.3643
11512SOL     OW38215   3.633   1.974   3.037  0.7033 -0.1127  0.5413
11512SOL    HW138216   3.703   2.045   3.043  0.4185  0.1648  0.5576
11512SOL    HW238217   3.542   2.016   3.033  0.3853 -0.5455  2.9137
11513SOL     OW38218   0.512   0.241   3.037 -0.2391  0.2226 -0.6140
11513SOL    HW138219   0.536   0.166   2.976 -1.0175  0.2416 -0.9423
11513SOL    HW238220   0.594   0.271   3.087  0.3216 -0.0265 -1.3805
11514SOL     OW38221   0.963   5.550   3.501  0.1591  0.1970  0.2610
11514SOL    HW138222   0.914   5.477   3.548  1.0027 -0.5276  0.0276
11514SOL    HW238223   0.949   5.541   3.402  2.1322 -1.0520  0.0591
11516SOL     OW38224   0.034   4.354   3.419 -0.8570 -0.1022  0.2989
11516SOL    HW138225   0.093   4.345   3.339  0.2244 -0.3567  1.1064
11516SOL    HW238226   0.029   4.266   3.466 -1.8435 -0.0662  0.2717
11517SOL     OW38227   0.465   0.811   2.777 -0.6549 -0.3267 -0.0245
11517SOL    HW138228   0.449   0.845   2.870 -0.2743  0.7219 -0.3354
11517SOL    HW238229   0.399   0.738   2.756 -0.1325 -1.2425  1.4113
11518SOL     OW38230   6.771   7.809   3.145 -0.1519 -0.2471  0.0767
11518SOL    HW138231   6.744   7.771   3.056  0.4362  1.3955 -0.8263
11518SOL    HW238232   6.689   7.819   3.203 -0.5156 -1.4574 -0.2182
11520SOL     OW38233   3.722   8.456   3.104  0.1244  0.1150  0.3166
11520SOL    HW138234   3.687   8.364   3.083  0.3347  0.4582 -1.6131
11520SOL    HW238235   3.645   8.518   3.120 -0.0241 -0.3335  1.3451
11521SOL     OW38236   9.524   8.090   2.867  0.5444 -0.0048  0.4738
11521SOL    HW138237   9.490   8.131   2.782  0.2628 -1.2069 -0.0063
11521SOL    HW238238   9.590   8.018   2.845  1.5826  0.6592  1.3306
11523SOL     OW38239   1.369   2.545   1.348 -0.3147 -0.4803 -0.3624
11523SOL    HW138240   1.414   2.514   1.264 -0.5285  1.5554 -1.2432
11523SOL    HW238241   1.395   2.639   1.367  0.5741 -1.2478  2.4666
11524SOL     OW38242   8.833   5.177   1.398  0.0893 -0.6465 -0.0513
11524SOL    HW138243   8.766   5.106   1.416 -1.8348  1.0260 -0.4769
11524SOL    HW238244   8.894   5.186   1.477 -0.7275 -1.6068  0.6959
11525SOL     OW38245   9.690   0.627   0.453 -0.0252  0.1721 -0.4064
11525SOL    HW138246   9.752   0.655   0.527 -0.9155  0.5363  0.2088
11525SOL    HW238247   9.690   0.696   0.381 -0.4895  0.6687  0.0641
11526SOL     OW38248   8.731   8.257   2.265  0.1203 -0.0308  0.0218
11526SOL    HW138249   8.781   8.304   2.192  2.3008  1.0184  2.1329
11526SOL    HW238250   8.777   8.171   2.287 -0.5105 -0.3293  0.1838
11528SOL     OW38251   1.270   0.849   2.486 -0.5044  0.1569 -0.0465
11528SOL    HW138252   1.366   0.877   2.483 -0.3973 -0.3308 -2.2487
11528SOL    HW238253   1.264   0.749   2.492 -0.8316 -0.0365 -3.0258
11529SOL     OW38254   2.067   4.530   2.032  0.1548  0.2928 -0.4230
11529SOL    HW138255   2.018   4.546   2.117  0.8086  2.3286 -0.4111
11529SOL    HW238256   2.162   4.506   2.052  0.5814  1.8150 -0.5999
11530SOL     OW38257   7.115   3.662   0.187  0.0434 -0.4284  0.8702
11530SOL    HW138258   7.152   3.749   0.156 -1.2580  0.1776  1.0079
11530SOL    HW238259   7.181   3.616   0.246  0.9705  0.1803  0.3066
11531SOL     OW38260   1.464   0.774   1.799  0.1551  0.6832  0.3128
11531SOL    HW138261   1.520   0.788   1.717  2.6196  1.5007  2.0538
11531SOL    HW238262   1.368   0.787   1.776  0.6731 -0.3972 -2.7171
11532SOL     OW38263   2.048   1.599   1.551  0.4490 -0.1913  0.3462
11532SOL    HW138264   2.140   1.562   1.557  0.7079  0.5149  0.7714
11532SOL    HW238265   2.037   1.672   1.618  0.1981  1.0145 -0.9849
11534SOL     OW38266   9.591   6.502   1.289  0.4846  0.0935 -0.1781
11534SOL    HW138267   9.498   6.470   1.309  0.0967  1.6659  0.6610
11534SOL    HW238268   9.586   6.579   1.225  1.2454 -0.1056 -0.4814
11535SOL     OW38269   1.534   9.210   2.315  0.1070  0.0382  0.2622
11535SOL    HW138270   1.446   9.177   2.350  0.5849 -0.2922  1.1737
11535SOL    HW238271   1.521   9.297   2.268 -0.9212 -0.6628 -0.7818
11536SOL     OW38272   1.322   5.831   3.555  0.3671 -0.5841 -0.7413
11536SOL    HW138273   1.239   5.866   3.512 -0.3687 -0.5197  0.6803
11536SOL    HW238274   1.343   5.887   3.636  0.1018 -2.4282  0.6238
11537SOL     OW38275   0.845   4.028   1.521 -1.2479  0.4949  0.5359
11537SOL    HW138276   0.770   4.016   1.587 -1.1900 -0.1806  0.4838
11537SOL    HW238277   0.931   4.000   1.563 -0.8515  2.3333  0.9667
11538SOL     OW38278   2.804   7.195   0.626  0.5045 -0.3587  0.2268
11538SOL    HW138279   2.839   7.103   0.645 -0.4588 -0.9314 -0.7270
11538SOL    HW238280   2.826   7.255   0.703 -0.3673 -1.8119  1.6614
11540SOL     OW38281   8.106   8.346   0.574 -0.4924 -0.2057  0.4196
11540SOL    HW138282   8.112   8.426   0.634 -2.8284  0.7641 -0.5793
11540SOL    HW238283   8.024   8.293   0.597  0.2698 -1.5235  0.1221
11541SOL     OW38284   0.269   6.180   1.120 -0.4161 -0.2883  0.2406
11541SOL    HW138285   0.343   6.125   1.081  0.1104  2.0920 -2.2722
11541SOL    HW238286   0.182   6.134   1.105  0.0903 -0.8393 -1.0436
11542SOL     OW38287   1.299   4.999   1.153 -0.1359 -0.3851 -0.4529
11542SOL    HW138288   1.391   4.966   1.173 -0.1102 -0.4437 -0.6747
11542SOL    HW238289   1.240   4.921   1.129  0.0502 -0.2098 -1.4728
11543SOL     OW38290   8.496   8.064   0.115 -0.0706 -0.5256  0.8549
11543SOL    HW138291   8.595   8.048   0.120 -0.0634 -0.8983 -0.2662
11543SOL    HW238292   8.469   8.130   0.184  1.2201  0.7812  0.1432
11544SOL     OW38293   0.865   5.373   1.975 -0.4660 -0.2967 -0.5946
11544SOL    HW138294   0.773   5.336   1.986 -1.1047  0.8354 -2.0101
11544SOL    HW238295   0.866   5.439   1.901  1.0755  1.1357  0.6546
11546SOL     OW38296   6.534   9.951   3.272  0.4386  0.1955 -0.1755
11546SOL    HW138297   6.607   9.884   3.259 -1.6895 -1.9262 -1.7933
11546SOL    HW238298   6.492   9.939   3.362 -0.2162 -0.9606 -0.6285
11547SOL     OW38299   1.954   4.258   1.818  0.8002 -0.0448  0.3691
11547SOL    HW138300   1.947   4.158   1.827  0.1458 -0.0495 -0.1339
11547SOL    HW238301   2.009   4.281   1.738  1.5829  0.0041  0.9108
11548SOL     OW38302   8.447   0.191   3.332  0.1597  1.1924 -0.1232
11548SOL    HW138303   8.481   0.139   3.410  1.0230  1.7983 -0.0929
11548SOL    HW238304   8.353   0.220   3.349 -0.8880 -1.6528 -0.7742
11549SOL     OW38305   9.989   0.788   2.138  0.0137  0.1869 -0.0321
11549SOL    HW138306   9.946   0.813   2.051  2.1645 -1.0772 -1.5026
11549SOL    HW238307  10.003   0.689   2.140 -0.3999  0.1576  1.9559
11550SOL     OW38308   4.463   9.659   0.516  0.3338  0.0340  0.3651
11550SOL    HW138309   4.381   9.617   0.556  1.6606 -1.9637  1.0770
11550SOL    HW238310   4.438   9.710   0.434 -1.3594 -2.1544 -0.5347
11551SOL     OW38311   2.800   0.688   0.104 -0.1579  0.0129 -0.5756
11551SOL    HW138312   2.875   0.716   0.043  0.3692 -3.5974 -1.7486
11551SOL    HW238313   2.816   0.724   0.196  2.9319 -0.5119 -0.8543
11552SOL     OW38314   5.173   8.012   2.264  0.2425 -0.7273  0.2382
11552SOL    HW138315   5.084   7.966   2.274  0.0284 -0.4645 -0.4471
11552SOL    HW238316   5.165   8.085   2.197  0.8181 -0.2754  0.6590
11555SOL     OW38317   9.954   5.955   1.403  0.2639 -0.7589  0.3845
11555SOL    HW138318  10.023   6.024   1.427  0.4400 -1.1627  1.0677
11555SOL    HW238319   9.869   6.001   1.380  0.7859 -0.2494 -0.5599
11558SOL     OW38320   8.343   6.158   1.359 -0.2757 -0.4876 -0.0885
11558SOL    HW138321   8.417   6.205   1.311 -0.0299  0.2343  0.9688
11558SOL    HW238322   8.260   6.162   1.304  0.0572  0.1255 -0.5553
11559SOL     OW38323   5.733   0.837   3.155  0.9429  0.0666  0.4191
11559SOL    HW138324   5.711   0.790   3.241  2.6527  1.5678  1.7312
11559SOL    HW238325   5.675   0.918   3.145 -0.6329 -1.2100 -0.8476
11560SOL     OW38326   1.387   8.805   1.954  0.0236 -0.0916  0.0957
11560SOL    HW138327   1.408   8.877   2.019  0.0353 -0.1712  0.1809
11560SOL    HW238328   1.462   8.738   1.953  0.0629 -0.0447 -0.0624
11561SOL     OW38329   3.750   5.600   3.125 -0.4853  0.0821  0.3648
11561SOL    HW138330   3.792   5.637   3.041 -0.0460 -1.7884 -0.2630
11561SOL    HW238331   3.746   5.501   3.119  0.2631 -0.1388  2.9036
11562SOL     OW38332   3.631   1.267   3.218 -0.1125 -0.3995  0.4492
11562SOL    HW138333   3.700   1.339   3.209  0.3031 -1.0673 -1.9337
11562SOL    HW238334   3.676   1.178   3.224 -0.7607 -0.8596 -1.3581
11563SOL     OW38335   3.335   7.146   2.636  0.2852 -0.3838 -0.1677
11563SOL    HW138336   3.353   7.121   2.732 -0.8806 -0.5824  0.0075
11563SOL    HW238337   3.264   7.216   2.633  1.1083  0.4278 -0.8436
11564SOL     OW38338   3.592   7.740   3.055 -0.6424  0.1177  0.0573
11564SOL    HW138339   3.534   7.664   3.083 -0.2960  0.7964  2.7481
11564SOL    HW238340   3.686   7.708   3.044 -0.2029  0.3590  2.6180
11565SOL     OW38341   2.652   2.351   2.288 -0.0070 -0.4081 -0.1529
11565SOL    HW138342   2.588   2.413   2.334  0.3772 -0.5540  0.5845
11565SOL    HW238343   2.601   2.288   2.229 -0.4197  0.4264 -0.6950
11567SOL     OW38344   9.977   8.791   2.964  0.3604  0.3350  0.4281
11567SOL    HW138345  10.073   8.767   2.973  0.8664  0.9449 -2.6673
11567SOL    HW238346   9.953   8.796   2.867 -2.1073  2.8631  1.0961
11568SOL     OW38347   5.123   3.233   0.955  0.4449  0.1684 -0.9918
11568SOL    HW138348   5.131   3.246   1.054  1.4618 -0.2106 -1.0225
11568SOL    HW238349   5.195   3.172   0.923  0.1847  0.3724 -1.9889
11570SOL     OW38350   0.952   8.659   0.909 -0.4225  0.2763 -0.6538
11570SOL    HW138351   1.045   8.676   0.875 -0.7166 -0.5351 -1.8857
11570SOL    HW238352   0.920   8.570   0.877 -0.5447 -0.7242  2.1756
11572SOL     OW38353   3.161   2.831   3.662  0.1205 -0.3950  0.0908
11572SOL    HW138354   3.143   2.850   3.566  1.8389  0.1805 -0.1295
11572SOL    HW238355   3.215   2.905   3.701 -1.0680 -0.3193  1.6729
11574SOL     OW38356   7.410   9.649   1.167 -0.3536  0.0583  0.2586
11574SOL    HW138357   7.337   9.700   1.120  0.9318  0.1161 -1.7551
11574SOL    HW238358   7.402   9.552   1.145 -1.5957 -0.3756  2.4757
11575SOL     OW38359   2.600   3.845   0.067 -0.2481  0.3316 -0.1257
11575SOL    HW138360   2.623   3.886  -0.022  0.9146  2.1284  0.9637
11575SOL    HW238361   2.504   3.860   0.087 -0.3871  0.4207 -0.8457
11576SOL     OW38362   0.073   0.281   0.364  0.4780  0.1220  0.7485
11576SOL    HW138363   0.059   0.192   0.408  1.8464 -0.3683  0.2117
11576SOL    HW238364   0.118   0.343   0.429  1.3594 -0.2146  0.4718
11577SOL     OW38365   1.306   4.386   3.196 -0.4817  0.4321 -0.1659
11577SOL    HW138366   1.291   4.472   3.244  1.8624  0.9527 -0.2982
11577SOL    HW238367   1.307   4.311   3.262 -0.6079  0.7459  0.1927
11580SOL     OW38368   1.190   4.322   1.414 -0.0481  0.1779 -0.3249
11580SOL    HW138369   1.265   4.256   1.420 -0.4888 -0.2243  1.3752
11580SOL    HW238370   1.226   4.414   1.408  0.5989  0.0037  0.7429
11581SOL     OW38371   9.134   6.946   3.424  0.5576  0.6461  0.6162
11581SOL    HW138372   9.176   7.007   3.357 -1.2761  0.6027 -0.6181
11581SOL    HW238373   9.192   6.940   3.505  3.0888  0.3052 -1.1531
11582SOL     OW38374   9.270   4.368   1.350 -0.0014  0.1549  0.1391
11582SOL    HW138375   9.184   4.372   1.399  0.2424  1.7462  0.4639
11582SOL    HW238376   9.346   4.368   1.415  0.2519 -0.6676 -0.1575
11584SOL     OW38377   3.182   7.616   1.821  0.1564 -0.1570 -0.3226
11584SOL    HW138378   3.170   7.532   1.767  2.9015 -2.0697  1.9218
11584SOL    HW238379   3.171   7.696   1.761 -2.5781 -2.0694 -2.4944
11585SOL     OW38380   0.368   2.042   1.939 -0.0897 -0.3980  0.4470
11585SOL    HW138381   0.313   2.024   1.858  0.0858 -0.1783  0.2785
11585SOL    HW238382   0.457   1.998   1.930 -0.6349 -1.6889  1.2053
11589SOL     OW38383   0.970   5.519   2.202 -0.5420  0.2200 -0.2218
11589SOL    HW138384   1.060   5.539   2.163 -0.6017  0.2030 -0.3673
11589SOL    HW238385   0.919   5.459   2.141 -0.5325 -0.0227  0.0114
11590SOL     OW38386   9.675   9.528   1.607 -0.2824 -0.6112 -0.0320
11590SOL    HW138387   9.653   9.621   1.578  0.9269 -0.9222 -2.0750
11590SOL    HW238388   9.600   9.491   1.661 -2.2339  0.3948 -1.9843
11591SOL     OW38389   1.705   3.641   0.535 -0.4507 -0.3562 -0.4990
11591SOL    HW138390   1.721   3.552   0.493 -0.0183 -0.1235 -0.8389
11591SOL    HW238391   1.783   3.666   0.592 -0.9812 -0.6094  0.3429
11594SOL     OW38392   2.000   2.714   2.634  0.3292  0.0006 -0.9849
11594SOL    HW138393   2.015   2.808   2.601  0.7451 -0.2075 -1.4044
11594SOL    HW238394   1.998   2.714   2.734  2.0090  0.2196 -0.9312
11595SOL     OW38395   7.580   8.255   1.231  0.8933 -0.0099  0.0168
11595SOL    HW138396   7.559   8.232   1.136  0.2442  0.6170  0.0037
11595SOL    HW238397   7.679   8.265   1.242  1.2595 -3.1478  0.1067
11596SOL     OW38398   3.553   9.308   1.170 -0.2271 -0.6465 -0.1786
11596SOL    HW138399   3.461   9.287   1.138 -0.1780  0.0932 -0.8205
11596SOL    HW238400   3.614   9.233   1.149 -0.5036 -0.7782 -0.5063
11597SOL     OW38401   1.976   1.772   1.951  0.1320  0.1825 -0.2647
11597SOL    HW138402   2.062   1.776   2.003 -0.3430  1.7545  0.4154
11597SOL    HW238403   1.991   1.811   1.860  0.2753 -0.0515 -0.3419
11598SOL     OW38404   0.157   5.059   3.410  0.8060  0.1472  0.2283
11598SOL    HW138405   0.195   5.149   3.389 -0.7815  0.8631  0.3906
11598SOL    HW238406   0.132   5.055   3.506  0.4227 -0.3045  0.1095
11599SOL     OW38407   1.667   9.108   0.928  0.2373 -0.2105 -0.0837
11599SOL    HW138408   1.701   9.105   0.834  1.7224 -1.6772  0.4755
11599SOL    HW238409   1.718   9.043   0.984 -1.5040 -0.2885  1.4635
11600SOL     OW38410   9.155   7.437   2.887 -0.4861  0.0052 -0.7181
11600SOL    HW138411   9.188   7.528   2.911  2.1115 -1.2510  0.6119
11600SOL    HW238412   9.155   7.426   2.788  2.2681  0.3356 -0.7673
11601SOL     OW38413   6.058   0.182   2.074  0.5919 -0.2686 -1.1303
11601SOL    HW138414   6.053   0.083   2.064  0.3345 -0.2596 -1.1038
11601SOL    HW238415   6.072   0.224   1.984  0.8770 -0.3397 -1.1184
11602SOL     OW38416   1.308   8.468   2.703  0.1484 -0.1337  0.4540
11602SOL    HW138417   1.362   8.394   2.743 -0.5649 -0.8101  0.1694
11602SOL    HW238418   1.291   8.448   2.607 -1.4429 -0.4038  0.7827
11603SOL     OW38419   7.874   5.585   2.917 -0.3758  0.4914 -0.3768
11603SOL    HW138420   7.835   5.665   2.872 -1.7090  0.3059  0.4401
11603SOL    HW238421   7.859   5.591   3.015  1.1240  0.1156 -0.1121
11604SOL     OW38422   2.709   3.177   2.631  0.5877 -0.0588  0.4545
11604SOL    HW138423   2.627   3.235   2.635 -0.5583 -1.5895 -0.4769
11604SOL    HW238424   2.789   3.232   2.655 -0.5850  1.6985  0.4685
11606SOL     OW38425   2.646   8.970   3.667  0.4118  0.2688 -0.3521
11606SOL    HW138426   2.600   8.892   3.625 -0.3490  0.6892 -0.3080
11606SOL    HW238427   2.732   8.939   3.710 -0.4246 -0.7516  0.6288
11607SOL     OW38428   1.754   6.263   1.755  0.1706 -0.3350 -0.0430
11607SOL    HW138429   1.711   6.224   1.674 -0.2740  0.5280 -0.2239
11607SOL    HW238430   1.784   6.356   1.736  0.6342 -0.3483  0.5923
11608SOL     OW38431   2.713   4.086   3.035 -0.0079  0.2363 -0.0525
11608SOL    HW138432   2.694   4.107   3.131 -0.3108 -1.0480  0.1787
11608SOL    HW238433   2.750   3.994   3.027 -0.0549  0.2989 -1.1793
11609SOL     OW38434   4.194   8.238   3.415 -0.2479 -0.1460  0.2272
11609SOL    HW138435   4.192   8.238   3.515 -2.2515 -0.5061  0.2108
11609SOL    HW238436   4.238   8.155   3.382 -0.2778 -0.3888  0.8052
11611SOL     OW38437   8.418   4.049   3.024  0.3581  0.6702  0.5590
11611SOL    HW138438   8.473   4.044   2.940  1.2488 -0.2445  1.1852
11611SOL    HW238439   8.426   4.141   3.063  1.6429  0.4814  0.7676
11612SOL     OW38440   0.444   5.144   1.744  0.1275  1.1862  0.1587
11612SOL    HW138441   0.395   5.073   1.694  2.3598 -0.9607  0.9048
11612SOL    HW238442   0.403   5.154   1.835  0.1998  0.3778  0.2870
11613SOL     OW38443   2.796   6.757   2.818  0.0217 -0.4436 -0.5706
11613SOL    HW138444   2.861   6.762   2.743 -0.0427 -0.4300 -0.6259
11613SOL    HW238445   2.798   6.842   2.870  0.1778 -0.5132 -0.4644
11614SOL     OW38446   0.447   3.073   1.217  0.5856 -0.2213 -0.0540
11614SOL    HW138447   0.527   3.121   1.252  0.7233 -0.8504  0.5057
11614SOL    HW238448   0.371   3.085   1.280  1.1379 -2.2535  1.0425
11615SOL     OW38449   3.860   2.569   2.804  0.0397  0.4929 -0.6447
11615SOL    HW138450   3.793   2.526   2.744  0.1629  1.0881 -1.2204
11615SOL    HW238451   3.876   2.663   2.774  0.5313  0.6141 -0.0243
11616SOL     OW38452   3.444   9.099   1.795  0.2190  0.0993 -0.3236
11616SOL    HW138453   3.379   9.090   1.719  0.3310 -0.5538 -0.3502
11616SOL    HW238454   3.414   9.172   1.856  0.5014  1.0871 -1.3634
11618SOL     OW38455   2.913   4.282   2.315  0.1821  0.8174  0.2106
11618SOL    HW138456   2.875   4.374   2.309 -0.6842  0.3625 -1.6687
11618SOL    HW238457   2.840   4.215   2.298  0.8407 -0.2119  1.3857
11619SOL     OW38458   3.012   1.327   1.797  0.0680  0.2597 -0.3598
11619SOL    HW138459   3.081   1.263   1.830 -1.1880 -0.1932  1.4409
11619SOL    HW238460   3.016   1.332   1.697  2.8345  0.4041 -0.2824
11621SOL     OW38461   1.673   4.810   1.041  0.2355  0.3284 -0.0279
11621SOL    HW138462   1.623   4.724   1.031 -1.1067  0.7042  3.0087
11621SOL    HW238463   1.631   4.880   0.983 -0.5559 -0.3048 -0.2273
11622SOL     OW38464   1.605   8.080   2.663  0.1815 -0.7003 -0.3656
11622SOL    HW138465   1.667   8.002   2.669 -0.0507 -0.9202 -0.7883
11622SOL    HW238466   1.620   8.128   2.577  0.8451  0.1670  0.2268
11624SOL     OW38467   9.175   0.914   3.625  0.1580  0.3177  0.2839
11624SOL    HW138468   9.204   0.898   3.719 -0.8157  0.2026  0.5673
11624SOL    HW238469   9.256   0.923   3.567  0.7688 -1.1112  0.8703
11625SOL     OW38470   5.174   3.042   0.415  0.2285  0.5242 -0.1428
11625SOL    HW138471   5.086   3.089   0.411  0.0620  0.1728 -0.6898
11625SOL    HW238472   5.246   3.103   0.383  0.1999  0.8315  0.3584
11626SOL     OW38473   2.123   6.591   0.305  0.4250  0.2404  0.0870
11626SOL    HW138474   2.164   6.677   0.337  1.5613  0.2161 -1.2395
11626SOL    HW238475   2.195   6.523   0.292 -0.4902 -0.9892  1.3074
11627SOL     OW38476   9.444   0.027   1.950  0.4933 -0.6268  0.1091
11627SOL    HW138477   9.493   0.113   1.933 -0.3400 -0.0789  0.3991
11627SOL    HW238478   9.384   0.039   2.030  0.2442 -1.4221  0.0407
11628SOL     OW38479   2.562   6.967   2.172  0.7437 -0.6500  0.1972
11628SOL    HW138480   2.624   6.937   2.100  0.3453 -2.8068  0.7122
11628SOL    HW238481   2.568   6.904   2.250 -0.6318  0.2355  1.0443
11629SOL     OW38482   1.237   6.938   2.357 -0.4767  0.1595 -0.9231
11629SOL    HW138483   1.181   6.981   2.428  0.8948 -0.3034  0.4795
11629SOL    HW238484   1.267   7.008   2.292 -0.1759  0.9487  0.0350
11630SOL     OW38485   5.551   7.368   2.221 -0.3492  0.1645  0.2875
11630SOL    HW138486   5.503   7.283   2.241 -2.9598  1.1264 -1.6809
11630SOL    HW238487   5.582   7.367   2.126 -1.2647  1.8253 -0.0334
11631SOL     OW38488   2.122   6.368   2.521 -0.6604  0.0745 -0.3778
11631SOL    HW138489   2.219   6.356   2.501 -0.8454  0.1694 -1.3708
11631SOL    HW238490   2.099   6.318   2.605 -0.0715 -1.2258 -0.9714
11632SOL     OW38491   0.034   1.595   1.879 -0.2623 -0.3878 -0.3150
11632SOL    HW138492  -0.032   1.525   1.908 -0.1144 -0.6425 -0.5873
11632SOL    HW238493  -0.011   1.658   1.816 -0.8663  0.7632  1.2518
11633SOL     OW38494   3.721   1.972   3.535  0.0867  0.2058  0.1380
11633SOL    HW138495   3.713   1.873   3.546  0.8739  0.2130  0.8005
11633SOL    HW238496   3.812   1.995   3.501  0.2978  0.7903  1.0955
11635SOL     OW38497   7.178   8.745   3.061  0.3831  0.0008 -0.0347
11635SOL    HW138498   7.079   8.733   3.050  0.5782 -0.1310 -1.8327
11635SOL    HW238499   7.225   8.661   3.032  1.0416  0.2192  0.3928
11636SOL     OW38500   2.420   0.552   2.122  0.3590  0.5548 -0.4319
11636SOL    HW138501   2.446   0.631   2.065 -0.7770  1.2856  0.0457
11636SOL    HW238502   2.413   0.581   2.217 -0.6113  0.0050 -0.3278
11637SOL     OW38503   8.311   1.550   0.164  0.1122  0.3512 -0.2267
11637SOL    HW138504   8.351   1.629   0.210 -1.5771  0.5191  1.0361
11637SOL    HW238505   8.211   1.555   0.171 -0.0632 -1.1301 -1.4288
11638SOL     OW38506   1.212   0.231   2.263 -0.2701  0.7935 -0.2698
11638SOL    HW138507   1.234   0.204   2.170  0.7093  2.8783 -0.6641
11638SOL    HW238508   1.253   0.166   2.327 -2.6211 -1.8055 -1.2842
11640SOL     OW38509   2.008   5.105   3.152  0.2288 -0.6062 -0.0203
11640SOL    HW138510   1.937   5.037   3.134  2.0163 -2.1199 -1.5856
11640SOL    HW238511   2.021   5.163   3.072 -0.0332  0.4414  0.6784
11641SOL     OW38512   9.629   5.738   0.832 -0.4691  0.4709  0.3847
11641SOL    HW138513   9.673   5.827   0.846 -1.0405  0.7963  0.1159
11641SOL    HW238514   9.538   5.752   0.793 -0.5393 -0.2360  0.2990
11642SOL     OW38515   2.644   7.983   1.745  0.2889 -0.7559  0.1033
11642SOL    HW138516   2.682   7.903   1.699 -1.5845 -1.8975  0.4874
11642SOL    HW238517   2.620   7.960   1.839  0.3891  0.4549  0.4344
11643SOL     OW38518   0.325   7.094   3.313  0.0726  0.2510 -0.2006
11643SOL    HW138519   0.414   7.129   3.342  0.1669 -0.2477  0.1114
11643SOL    HW238520   0.311   7.116   3.217  0.8053 -0.2232 -0.4173
11644SOL     OW38521   9.388   9.264   0.707  0.3430 -0.2700 -0.3266
11644SOL    HW138522   9.474   9.215   0.695 -0.0611 -1.0279 -0.1179
11644SOL    HW238523   9.407   9.362   0.717  1.0579 -0.2227 -2.0039
11645SOL     OW38524   8.893   1.451   1.166  0.0006 -0.3627 -0.4664
11645SOL    HW138525   8.959   1.392   1.215 -1.0019 -2.1432 -1.2171
11645SOL    HW238526   8.930   1.474   1.076  0.2531 -0.1150 -0.3000
11647SOL     OW38527   1.069   7.939   1.111  0.3720 -0.2981  0.2783
11647SOL    HW138528   1.027   7.894   1.031 -1.1473  1.2313  0.1746
11647SOL    HW238529   1.045   7.889   1.194 -0.3488 -0.3347  0.0511
11648SOL     OW38530   3.247   2.358   0.580 -0.1845  0.3296 -0.3428
11648SOL    HW138531   3.286   2.352   0.673  1.6868  0.6802 -1.0723
11648SOL    HW238532   3.320   2.345   0.513 -1.6261 -0.4871 -1.7847
11649SOL     OW38533   2.111   0.337   0.187  0.2169 -0.2397 -0.5771
11649SOL    HW138534   2.065   0.285   0.259  2.3676  0.9380  1.7247
11649SOL    HW238535   2.209   0.315   0.187  0.7321  1.8935 -1.2467
11650SOL     OW38536   3.785   7.283   2.381  0.7358 -0.0649  0.0960
11650SOL    HW138537   3.813   7.366   2.333  1.2538  1.7164  3.2803
11650SOL    HW238538   3.867   7.232   2.409  0.6630  1.0693  2.5657
11652SOL     OW38539   3.255   4.737   3.439 -0.5944  0.2833 -0.0310
11652SOL    HW138540   3.321   4.739   3.364 -0.7453  0.0405 -0.1730
11652SOL    HW238541   3.163   4.749   3.402 -0.6770  0.0746  0.1041
11653SOL     OW38542   2.085   0.438   3.118  0.7231  0.7523  0.6566
11653SOL    HW138543   2.130   0.502   3.180  1.6424  1.0126 -0.2656
11653SOL    HW238544   1.988   0.460   3.112  0.3697 -0.0289  2.9369
11654SOL     OW38545   0.081   9.671   2.072 -1.1944 -0.0083 -0.2997
11654SOL    HW138546   0.006   9.671   2.006 -3.4837  1.4028  2.1945
11654SOL    HW238547   0.101   9.765   2.100 -0.2778 -0.5750  1.0157
11655SOL     OW38548   2.530   7.453   0.248  0.4370 -0.1453 -0.9102
11655SOL    HW138549   2.464   7.497   0.188  2.7221 -0.6015 -3.8914
11655SOL    HW238550   2.595   7.521   0.281 -0.9482  0.1448  1.3033
11656SOL     OW38551   1.687   5.202   3.693  0.3053  0.4578 -0.1862
11656SOL    HW138552   1.765   5.148   3.662  0.0312 -0.3842  0.5652
11656SOL    HW238553   1.629   5.225   3.615  1.0218  0.6530 -0.6737
11657SOL     OW38554   1.517   0.954   2.460  0.0331 -0.1370 -0.3389
11657SOL    HW138555   1.476   1.017   2.394 -2.9533 -2.6979 -1.0352
11657SOL    HW238556   1.572   0.886   2.411  0.9621  0.2628  0.1533
11658SOL     OW38557   8.582   2.112   3.546 -0.4244 -0.0088 -0.0243
11658SOL    HW138558   8.561   2.038   3.482  1.2250  0.3113 -0.9480
11658SOL    HW238559   8.595   2.197   3.496  0.4237  0.3394  0.7793
11659SOL     OW38560   9.470   0.924   0.424  0.1790  0.0001 -0.1103
11659SOL    HW138561   9.496   1.018   0.400 -0.8308  0.1519 -0.6328
11659SOL    HW238562   9.539   0.860   0.391  0.4654  0.4959 -0.4706
11660SOL     OW38563   0.062   5.734   1.297  0.2466 -0.0407  0.0894
11660SOL    HW138564   0.022   5.820   1.328 -2.1078 -1.3106  0.7086
11660SOL    HW238565   0.135   5.753   1.231  0.1389  2.4276  0.6245
11661SOL     OW38566   7.871   3.661   0.337  0.0718 -0.3998  0.3681
11661SOL    HW138567   7.777   3.648   0.305  0.5115 -3.1943  0.0689
11661SOL    HW238568   7.873   3.662   0.437 -0.2055 -1.1656  0.3864
11663SOL     OW38569   1.796   5.944   2.143 -0.0918  0.7564 -0.1757
11663SOL    HW138570   1.845   5.967   2.227  0.1305  1.4670 -0.5037
11663SOL    HW238571   1.838   5.989   2.065 -1.2355  1.3426 -0.4696
  10.00000  10.00000   4.78122
