chitosan Film  in water:acetic acid 2%
10309
    1CHTO  H203    1   3.940   5.166   0.656
    1CHTO   O82    2   3.989   5.220   0.597
    1CHTO  C123    3   4.092   5.291   0.667
    1CHTO  H227    4   4.049   5.334   0.759
    1CHTO   O77    5   4.188   5.187   0.702
    1CHTO  C118    6   4.302   5.231   0.778
    1CHTO  H222    7   4.269   5.279   0.871
    1CHTO  C125    8   4.388   5.104   0.814
    1CHTO   O84    9   4.314   5.014   0.897
    1CHTO  H205   10   4.367   4.939   0.917
    1CHTO  C114   11   4.383   5.331   0.693
    1CHTO  H218   12   4.413   5.281   0.601
    1CHTO  C116   13   4.294   5.452   0.653
    1CHTO  H220   14   4.267   5.510   0.745
    1CHTO   O79   15   4.372   5.540   0.570
    1CHTO  H201   16   4.323   5.617   0.550
    1CHTO  C120   17   4.162   5.402   0.580
    1CHTO  H224   18   4.195   5.359   0.483
    1CHTO   N21   19   4.069   5.514   0.548
    1CHTO  H211   20   4.011   5.490   0.460
    1CHTO  H212   21   4.124   5.606   0.533
    1CHTO   O75   22   4.499   5.367   0.771
    1CHTO  C112   23   4.637   5.362   0.680
    1CHTO  H216   24   4.613   5.396   0.578
    1CHTO   O73   25   4.684   5.226   0.682
    1CHTO  C113   26   4.794   5.202   0.593
    1CHTO  H217   27   4.764   5.231   0.489
    1CHTO  C124   28   4.824   5.052   0.591
    1CHTO   O83   29   4.712   4.975   0.545
    1CHTO  H204   30   4.735   4.884   0.547
    1CHTO  C109   31   4.918   5.285   0.636
    1CHTO  H213   32   4.949   5.247   0.735
    1CHTO  C110   33   4.878   5.436   0.648
    1CHTO  H214   34   4.858   5.475   0.548
    1CHTO   O78   35   4.992   5.510   0.698
    1CHTO  H200   36   5.014   5.482   0.785
    1CHTO  C111   37   4.752   5.454   0.738
    1CHTO  H215   38   4.775   5.420   0.840
    1CHTO   N19   39   4.705   5.594   0.749
    1CHTO  H207   40   4.618   5.599   0.813
    1CHTO  H208   41   4.783   5.656   0.790
    1CHTO   O74   42   5.026   5.265   0.540
    1CHTO  C115   43   5.177   5.250   0.603
    1CHTO  H219   44   5.218   5.346   0.634
    1CHTO   O76   45   5.177   5.161   0.737
    1CHTO  C122   46   5.195   5.022   0.708
    1CHTO  H226   47   5.120   4.992   0.634
    1CHTO  C126   48   5.164   4.936   0.836
    1CHTO   O85   49   5.029   4.948   0.879
    1CHTO  H206   50   5.016   4.896   0.956
    1CHTO  C121   51   5.340   4.995   0.653
    1CHTO  H225   52   5.410   4.990   0.739
    1CHTO   O81   53   5.340   4.868   0.587
    1CHTO  H202   54   5.284   4.870   0.511
    1CHTO  C119   55   5.389   5.109   0.556
    1CHTO  H223   56   5.442   5.180   0.619
    1CHTO  C117   57   5.269   5.187   0.490
    1CHTO  H221   58   5.202   5.127   0.428
    1CHTO   N20   59   5.317   5.296   0.399
    1CHTO  H209   60   5.234   5.346   0.353
    1CHTO  H210   61   5.381   5.254   0.322
    1CHTO   O80   62   5.509   5.058   0.454
    1CHTO  C103   63   5.657   5.045   0.507
    1CHTO  H190   64   5.674   5.113   0.591
    1CHTO  C101   65   5.705   4.901   0.547
    1CHTO  H188   66   5.682   4.832   0.466
    1CHTO   O68   67   5.627   4.854   0.675
    1CHTO  H168   68   5.649   4.908   0.748
    1CHTO   C99   69   5.863   4.898   0.572
    1CHTO  H186   70   5.885   4.959   0.663
    1CHTO   N17   71   5.918   4.761   0.600
    1CHTO  H174   72   6.022   4.768   0.628
    1CHTO  H175   73   5.905   4.698   0.513
    1CHTO   C97   74   5.940   4.967   0.456
    1CHTO  H184   75   5.938   4.901   0.367
    1CHTO   O64   76   5.885   5.097   0.427
    1CHTO  C104   77   5.747   5.096   0.388
    1CHTO  H191   78   5.732   5.031   0.302
    1CHTO  C108   79   5.707   5.237   0.343
    1CHTO   O71   80   5.776   5.274   0.223
    1CHTO  H171   81   5.866   5.289   0.241
    1CHTO   O62   82   6.076   4.997   0.495
    1CHTO   C91   83   6.182   4.985   0.398
    1CHTO  H178   84   6.138   4.995   0.298
    1CHTO   C92   85   6.242   4.841   0.407
    1CHTO  H179   86   6.250   4.813   0.513
    1CHTO   O66   87   6.147   4.749   0.350
    1CHTO  H166   88   6.176   4.661   0.360
    1CHTO   C93   89   6.383   4.826   0.336
    1CHTO  H180   90   6.367   4.837   0.228
    1CHTO   N16   91   6.446   4.693   0.355
    1CHTO  H172   92   6.541   4.689   0.304
    1CHTO  H173   93   6.380   4.616   0.318
    1CHTO   C94   94   6.476   4.943   0.384
    1CHTO  H181   95   6.486   4.944   0.493
    1CHTO   O61   96   6.416   5.067   0.345
    1CHTO   C95   97   6.294   5.096   0.415
    1CHTO  H182   98   6.316   5.107   0.521
    1CHTO  C106   99   6.241   5.237   0.368
    1CHTO   O69  100   6.216   5.242   0.227
    1CHTO  H169  101   6.143   5.187   0.206
    1CHTO   O63  102   6.623   4.937   0.314
    1CHTO   C96  103   6.739   4.968   0.416
    1CHTO  H183  104   6.701   5.041   0.488
    1CHTO   C98  105   6.866   5.029   0.349
    1CHTO  H185  106   6.839   5.113   0.283
    1CHTO   O67  107   6.949   5.086   0.452
    1CHTO  H167  108   6.907   5.159   0.491
    1CHTO  C102  109   6.953   4.919   0.271
    1CHTO  H189  110   7.050   4.968   0.250
    1CHTO   N18  111   6.901   4.880   0.138
    1CHTO  H176  112   6.897   4.966   0.072
    1CHTO  H177  113   6.802   4.838   0.148
    1CHTO  C105  114   6.979   4.797   0.364
    1CHTO  H192  115   6.944   4.705   0.317
    1CHTO   O65  116   6.917   4.804   0.494
    1CHTO  C100  117   6.776   4.832   0.492
    1CHTO  H187  118   6.727   4.749   0.441
    1CHTO  C107  119   6.725   4.831   0.639
    1CHTO   O70  120   6.787   4.932   0.718
    1CHTO  H170  121   6.755   4.927   0.806
    1CHTO   O57  122   7.134   4.793   0.381
    1CHTO   C85  123   7.203   4.667   0.380
    1CHTO  H157  124   7.174   4.619   0.285
    1CHTO   C83  125   7.150   4.572   0.493
    1CHTO  H155  126   7.045   4.550   0.473
    1CHTO   O56  127   7.152   4.641   0.620
    1CHTO  H135  128   7.240   4.661   0.645
    1CHTO   C81  129   7.230   4.439   0.490
    1CHTO  H153  130   7.221   4.396   0.390
    1CHTO   N14  131   7.175   4.334   0.580
    1CHTO  H141  132   7.183   4.365   0.682
    1CHTO  H142  133   7.072   4.316   0.557
    1CHTO   C79  134   7.382   4.469   0.516
    1CHTO  H151  135   7.436   4.374   0.508
    1CHTO   O52  136   7.434   4.556   0.411
    1CHTO   C86  137   7.360   4.682   0.394
    1CHTO  H158  138   7.387   4.741   0.484
    1CHTO   C90  139   7.417   4.760   0.273
    1CHTO   O60  140   7.405   4.686   0.151
    1CHTO  H138  141   7.315   4.678   0.127
    1CHTO   O50  142   7.409   4.526   0.645
    1CHTO   C73  143   7.493   4.501   0.758
    1CHTO  H145  144   7.581   4.442   0.728
    1CHTO   C74  145   7.415   4.423   0.869
    1CHTO  H146  146   7.378   4.330   0.823
    1CHTO   O54  147   7.509   4.382   0.971
    1CHTO  H133  148   7.545   4.457   1.015
    1CHTO   C75  149   7.298   4.513   0.924
    1CHTO  H147  150   7.229   4.535   0.840
    1CHTO   N13  151   7.213   4.446   1.026
    1CHTO  H139  152   7.133   4.512   1.056
    1CHTO  H140  153   7.273   4.423   1.113
    1CHTO   C76  154   7.359   4.652   0.974
    1CHTO  H148  155   7.429   4.629   1.055
    1CHTO   O49  156   7.432   4.716   0.864
    1CHTO   C77  157   7.543   4.638   0.816
    1CHTO  H149  158   7.614   4.619   0.897
    1CHTO   C88  159   7.618   4.722   0.712
    1CHTO   O58  160   7.740   4.653   0.663
    1CHTO  H136  161   7.716   4.577   0.613
    1CHTO   O51  162   7.243   4.756   1.021
    1CHTO   C78  163   7.292   4.909   1.033
    1CHTO  H150  164   7.356   4.938   0.947
    1CHTO   C80  165   7.371   4.935   1.164
    1CHTO  H152  166   7.310   4.900   1.249
    1CHTO   O55  167   7.491   4.855   1.160
    1CHTO  H134  168   7.547   4.881   1.090
    1CHTO   C84  169   7.406   5.088   1.183
    1CHTO  H156  170   7.480   5.114   1.107
    1CHTO   N15  171   7.470   5.117   1.316
    1CHTO  H143  172   7.559   5.059   1.327
    1CHTO  H144  173   7.494   5.221   1.324
    1CHTO   C87  174   7.281   5.177   1.160
    1CHTO  H159  175   7.213   5.167   1.245
    1CHTO   O53  176   7.211   5.137   1.029
    1CHTO   C82  177   7.168   5.000   1.028
    1CHTO  H154  178   7.104   4.981   1.114
    1CHTO   C89  179   7.083   4.974   0.902
    1CHTO   O59  180   7.155   5.000   0.780
    1CHTO  H137  181   7.099   4.983   0.707
    1CHTO   O45  182   7.331   5.339   1.146
    1CHTO   C67  183   7.231   5.442   1.129
    1CHTO  H124  184   7.283   5.537   1.137
    1CHTO   C65  185   7.160   5.435   0.988
    1CHTO  H122  186   7.206   5.353   0.934
    1CHTO   O44  187   7.190   5.557   0.917
    1CHTO  H102  188   7.147   5.630   0.958
    1CHTO   C63  189   7.007   5.399   1.002
    1CHTO  H120  190   6.999   5.303   1.054
    1CHTO   N11  191   6.933   5.371   0.874
    1CHTO  H108  192   6.906   5.268   0.867
    1CHTO  H109  193   6.993   5.398   0.789
    1CHTO   C61  194   6.941   5.508   1.094
    1CHTO  H118  195   6.839   5.472   1.119
    1CHTO   O40  196   7.011   5.528   1.220
    1CHTO   C68  197   7.126   5.442   1.248
    1CHTO  H125  198   7.087   5.340   1.265
    1CHTO   C72  199   7.192   5.486   1.381
    1CHTO   O48  200   7.231   5.624   1.382
    1CHTO  H105  201   7.269   5.645   1.466
    1CHTO   O38  202   6.936   5.635   1.027
    1CHTO   C55  203   6.837   5.730   1.069
    1CHTO  H112  204   6.805   5.710   1.173
    1CHTO   C56  205   6.714   5.725   0.968
    1CHTO  H113  206   6.757   5.724   0.866
    1CHTO   O42  207   6.645   5.599   0.982
    1CHTO  H100  208   6.610   5.591   1.069
    1CHTO   C57  209   6.616   5.848   0.986
    1CHTO  H114  210   6.563   5.835   1.081
    1CHTO   N10  211   6.514   5.856   0.878
    1CHTO  H106  212   6.427   5.798   0.906
    1CHTO  H107  213   6.483   5.959   0.862
    1CHTO   C58  214   6.700   5.978   0.994
    1CHTO  H115  215   6.752   5.993   0.896
    1CHTO   O37  216   6.798   5.969   1.098
    1CHTO   C59  217   6.900   5.873   1.070
    1CHTO  H116  218   6.947   5.895   0.974
    1CHTO   C70  219   7.007   5.886   1.179
    1CHTO   O46  220   7.125   5.810   1.154
    1CHTO  H103  221   7.106   5.718   1.161
    1CHTO   O39  222   6.607   6.108   1.028
    1CHTO   C60  223   6.667   6.231   0.984
    1CHTO  H117  224   6.774   6.229   1.007
    1CHTO   C62  225   6.650   6.252   0.830
    1CHTO  H119  226   6.698   6.165   0.781
    1CHTO   O43  227   6.511   6.252   0.796
    1CHTO  H101  228   6.473   6.168   0.812
    1CHTO   C66  229   6.728   6.386   0.786
    1CHTO  H123  230   6.832   6.377   0.818
    1CHTO   N12  231   6.732   6.403   0.639
    1CHTO  H110  232   6.781   6.317   0.593
    1CHTO  H111  233   6.784   6.494   0.614
    1CHTO   C69  234   6.666   6.508   0.859
    1CHTO  H126  235   6.560   6.520   0.829
    1CHTO   O41  236   6.674   6.483   1.017
    1CHTO   C64  237   6.607   6.352   1.062
    1CHTO  H121  238   6.498   6.356   1.042
    1CHTO   C71  239   6.627   6.335   1.215
    1CHTO   O47  240   6.560   6.438   1.287
    1CHTO  H104  241   6.571   6.425   1.379
    1CHTO   O34  242   6.743   6.644   0.824
    1CHTO   C49  243   6.845   6.745   0.880
    1CHTO   H91  244   6.838   6.831   0.814
    1CHTO   C47  245   6.989   6.688   0.873
    1CHTO   H89  246   7.016   6.693   0.765
    1CHTO   O33  247   6.993   6.551   0.916
    1CHTO   H70  248   7.077   6.514   0.896
    1CHTO   C45  249   7.092   6.773   0.965
    1CHTO   H87  250   7.105   6.718   1.060
    1CHTO    N8  251   7.225   6.783   0.900
    1CHTO   H75  252   7.262   6.684   0.875
    1CHTO   H76  253   7.219   6.842   0.811
    1CHTO   C43  254   7.030   6.913   1.011
    1CHTO   H85  255   7.105   6.961   1.076
    1CHTO   O29  256   6.907   6.889   1.081
    1CHTO   C50  257   6.816   6.792   1.025
    1CHTO   H92  258   6.815   6.703   1.089
    1CHTO   C54  259   6.672   6.847   1.036
    1CHTO   O36  260   6.634   6.862   1.173
    1CHTO   H72  261   6.620   6.778   1.212
    1CHTO   O27  262   7.008   7.003   0.901
    1CHTO   C37  263   7.016   7.141   0.861
    1CHTO   H79  264   6.967   7.205   0.936
    1CHTO   C38  265   7.165   7.187   0.853
    1CHTO   H80  266   7.222   7.110   0.798
    1CHTO   O31  267   7.215   7.193   0.988
    1CHTO   H68  268   7.307   7.210   0.988
    1CHTO   C39  269   7.180   7.326   0.779
    1CHTO   H81  270   7.133   7.401   0.842
    1CHTO    N7  271   7.323   7.367   0.760
    1CHTO   H73  272   7.372   7.378   0.855
    1CHTO   H74  273   7.375   7.294   0.700
    1CHTO   C40  274   7.102   7.321   0.643
    1CHTO   H82  275   7.148   7.245   0.579
    1CHTO   O26  276   6.964   7.291   0.671
    1CHTO   C41  277   6.944   7.157   0.725
    1CHTO   H83  278   6.982   7.082   0.653
    1CHTO   C52  279   6.791   7.134   0.741
    1CHTO   O35  280   6.719   7.143   0.614
    1CHTO   H71  281   6.627   7.139   0.630
    1CHTO   O28  282   7.099   7.446   0.570
    1CHTO   C42  283   7.083   7.440   0.424
    1CHTO   H84  284   7.037   7.343   0.404
    1CHTO   C44  285   7.215   7.444   0.340
    1CHTO   H86  286   7.260   7.543   0.349
    1CHTO   O32  287   7.306   7.347   0.396
    1CHTO   H69  288   7.334   7.374   0.481
    1CHTO   C48  289   7.187   7.414   0.187
    1CHTO   H90  290   7.161   7.309   0.179
    1CHTO    N9  291   7.311   7.429   0.102
    1CHTO   H77  292   7.288   7.405   2.881
    1CHTO   H78  293   7.389   7.363   0.139
    1CHTO   C51  294   7.066   7.498   0.128
    1CHTO   H93  295   7.101   7.598   0.102
    1CHTO   O30  296   6.954   7.503   0.218
    1CHTO   C46  297   6.989   7.548   0.364
    1CHTO   H88  298   7.040   7.644   0.361
    1CHTO   C53  299   6.857   7.561   0.445
    1CHTO   O72  300   6.778   7.669   0.395
    1CHTO  H199  301   6.820   7.751   0.415
    1CHTO   O22  302   7.019   7.429   0.010
    1CHTO   C31  303   6.911   7.473   2.802
    1CHTO   H59  304   6.857   7.554   2.855
    1CHTO   C29  305   6.963   7.532   2.668
    1CHTO   H57  306   7.031   7.456   2.625
    1CHTO   O21  307   7.045   7.647   2.698
    1CHTO   H37  308   6.992   7.717   2.733
    1CHTO   C27  309   6.848   7.564   2.564
    1CHTO   H55  310   6.791   7.651   2.601
    1CHTO    N5  311   6.901   7.597   2.429
    1CHTO   H43  312   6.967   7.683   2.436
    1CHTO   H44  313   6.955   7.513   2.389
    1CHTO   C25  314   6.747   7.445   2.555
    1CHTO   H53  315   6.798   7.358   2.510
    1CHTO   O17  316   6.703   7.407   2.688
    1CHTO   C32  317   6.807   7.360   2.775
    1CHTO   H60  318   6.858   7.275   2.729
    1CHTO   C36  319   6.737   7.312   0.022
    1CHTO   O25  320   6.828   7.244   0.109
    1CHTO   H40  321   6.784   7.220   0.189
    1CHTO   O15  322   6.616   7.483   2.465
    1CHTO   C19  323   6.525   7.396   2.392
    1CHTO   H47  324   6.444   7.463   2.361
    1CHTO   C20  325   6.588   7.333   2.263
    1CHTO   H48  326   6.681   7.279   2.285
    1CHTO   O19  327   6.620   7.442   2.175
    1CHTO   H35  328   6.691   7.492   2.210
    1CHTO   C21  329   6.489   7.230   2.193
    1CHTO   H49  330   6.400   7.284   2.160
    1CHTO    N4  331   6.548   7.164   2.074
    1CHTO   H41  332   6.475   7.097   2.029
    1CHTO   H42  333   6.635   7.108   2.102
    1CHTO   C22  334   6.444   7.128   2.301
    1CHTO   H50  335   6.535   7.080   2.339
    1CHTO   O14  336   6.377   7.197   2.408
    1CHTO   C23  337   6.460   7.287   2.483
    1CHTO   H51  338   6.535   7.227   2.535
    1CHTO   C34  339   6.371   7.354   2.589
    1CHTO   O23  340   6.330   7.264   2.692
    1CHTO   H38  341   6.403   7.246   2.748
    1CHTO   O16  342   6.347   7.031   2.258
    1CHTO   C24  343   6.394   6.869   2.261
    1CHTO   H52  344   6.494   6.856   2.220
    1CHTO   C26  345   6.293   6.792   2.174
    1CHTO   H54  346   6.190   6.822   2.205
    1CHTO   O20  347   6.312   6.833   2.037
    1CHTO   H36  348   6.280   6.920   2.025
    1CHTO   C30  349   6.305   6.637   2.192
    1CHTO   H58  350   6.402   6.601   2.154
    1CHTO    N6  351   6.201   6.563   2.114
    1CHTO   H45  352   6.210   6.457   2.131
    1CHTO   H46  353   6.213   6.583   2.008
    1CHTO   C33  354   6.300   6.603   2.344
    1CHTO   H61  355   6.206   6.639   2.388
    1CHTO   O18  356   6.409   6.672   2.406
    1CHTO   C28  357   6.397   6.814   2.407
    1CHTO   H56  358   6.305   6.844   2.458
    1CHTO   C35  359   6.517   6.865   2.490
    1CHTO   O24  360   6.643   6.839   2.428
    1CHTO   H39  361   6.659   6.746   2.426
    1CHTO    O9  362   6.304   6.462   2.373
    1CHTO   C13  363   6.267   6.425   2.528
    1CHTO   H26  364   6.181   6.489   2.559
    1CHTO   C11  365   6.393   6.448   2.622
    1CHTO   H24  366   6.409   6.557   2.630
    1CHTO    O8  367   6.510   6.392   2.561
    1CHTO    H3  368   6.505   6.299   2.558
    1CHTO    C9  369   6.361   6.393   2.763
    1CHTO   H22  370   6.268   6.443   2.794
    1CHTO    N2  371   6.460   6.429   2.867
    1CHTO   H10  372   6.473   6.536   2.871
    1CHTO   H11  373   6.554   6.381   2.847
    1CHTO    C7  374   6.333   6.239   2.753
    1CHTO   H20  375   6.305   6.209   2.857
    1CHTO    O4  376   6.221   6.213   2.666
    1CHTO   C14  377   6.212   6.275   2.536
    1CHTO   H27  378   6.104   6.280   2.514
    1CHTO   C18  379   6.276   6.183   2.429
    1CHTO   O13  380   6.200   6.062   2.413
    1CHTO    H7  381   6.115   6.083   2.380
    1CHTO    O2  382   6.466   6.150   2.700
    1CHTO    C1  383   6.506   6.045   2.789
    1CHTO   H14  384   6.443   6.045   2.880
    1CHTO    C2  385   6.659   6.054   2.833
    1CHTO   H15  386   6.717   6.060   2.739
    1CHTO    O6  387   6.679   6.175   0.027
    1CHTO    H1  388   6.629   6.172   0.106
    1CHTO    C3  389   6.704   5.925   0.036
    1CHTO   H16  390   6.653   5.930   0.133
    1CHTO    N1  391   6.852   5.921   0.064
    1CHTO    H8  392   6.870   5.921   0.170
    1CHTO    H9  393   6.902   6.005   0.018
    1CHTO    C4  394   6.653   5.792   2.850
    1CHTO   H17  395   6.716   5.770   2.763
    1CHTO    O1  396   6.515   5.801   2.812
    1CHTO    C5  397   6.483   5.907   2.721
    1CHTO   H18  398   6.546   5.901   2.632
    1CHTO   C16  399   6.335   5.886   2.679
    1CHTO   O11  400   6.319   5.763   2.607
    1CHTO    H5  401   6.229   5.754   2.581
    1CHTO    O3  402   6.655   5.681   0.062
    1CHTO    C6  403   6.656   5.548   0.000
    1CHTO   H19  404   6.637   5.550   2.775
    1CHTO    C8  405   6.795   5.482   0.023
    1CHTO   H21  406   6.818   5.486   0.130
    1CHTO    O7  407   6.891   5.560   2.832
    1CHTO    H2  408   6.978   5.532   2.853
    1CHTO   C12  409   6.795   5.330   2.860
    1CHTO   H25  410   6.785   5.330   2.749
    1CHTO    N3  411   6.926   5.264   0.008
    1CHTO   H12  412   6.925   5.161   2.856
    1CHTO   H13  413   6.945   5.267   0.115
    1CHTO   C15  414   6.672   5.256   0.040
    1CHTO   H28  415   6.682   5.243   0.148
    1CHTO   O10  416   6.647   5.117   2.857
    1CHTO    H4  417   6.578   5.072   0.019
    1CHTO    O5  418   6.550   5.326   0.009
    1CHTO   C10  419   6.544   5.459   0.063
    1CHTO   H23  420   6.556   5.453   0.172
    1CHTO   C17  421   6.401   5.508   0.034
    1CHTO   O12  422   6.368   5.627   0.105
    1CHTO    H6  423   6.419   5.699   0.072
    2CHTO  H203  424   4.281   3.328   1.690
    2CHTO   O82  425   4.304   3.371   1.610
    2CHTO  C123  426   4.252   3.505   1.609
    2CHTO  H227  427   4.295   3.560   1.694
    2CHTO   O77  428   4.303   3.559   1.484
    2CHTO  C118  429   4.271   3.698   1.464
    2CHTO  H222  430   4.308   3.756   1.550
    2CHTO  C125  431   4.344   3.747   1.335
    2CHTO   O84  432   4.484   3.761   1.356
    2CHTO  H205  433   4.501   3.833   1.413
    2CHTO  C114  434   4.119   3.716   1.452
    2CHTO  H218  435   4.084   3.662   1.364
    2CHTO  C116  436   4.045   3.657   1.576
    2CHTO  H220  437   4.063   3.724   1.664
    2CHTO   O79  438   3.904   3.660   1.550
    2CHTO  H201  439   3.856   3.634   1.626
    2CHTO  C120  440   4.094   3.510   1.610
    2CHTO  H224  441   4.054   3.444   1.530
    2CHTO   N21  442   4.037   3.460   1.738
    2CHTO  H211  443   4.104   3.388   1.784
    2CHTO  H212  444   4.020   3.542   1.806
    2CHTO   O75  445   4.102   3.858   1.434
    2CHTO  C112  446   3.954   3.911   1.384
    2CHTO  H216  447   3.883   3.901   1.467
    2CHTO   O73  448   3.915   3.833   1.270
    2CHTO  C113  449   3.786   3.866   1.216
    2CHTO  H217  450   3.710   3.855   1.297
    2CHTO  C124  451   3.751   3.765   1.106
    2CHTO   O83  452   3.844   3.764   0.998
    2CHTO  H204  453   3.819   3.699   0.935
    2CHTO  C109  454   3.786   4.013   1.165
    2CHTO  H213  455   3.860   4.019   1.085
    2CHTO  C110  456   3.827   4.109   1.282
    2CHTO  H214  457   3.750   4.106   1.359
    2CHTO   O78  458   3.833   4.243   1.230
    2CHTO  H200  459   3.747   4.274   1.208
    2CHTO  C111  460   3.963   4.063   1.342
    2CHTO  H215  461   4.040   4.070   1.263
    2CHTO   N19  462   4.010   4.147   1.455
    2CHTO  H207  463   3.938   4.145   1.535
    2CHTO  H208  464   4.026   4.248   1.422
    2CHTO   O74  465   3.654   4.050   1.113
    2CHTO  C115  466   3.655   4.088   0.955
    2CHTO  H219  467   3.756   4.083   0.913
    2CHTO   O76  468   3.572   3.985   0.871
    2CHTO  C122  469   3.433   3.986   0.905
    2CHTO  H226  470   3.423   3.948   1.007
    2CHTO  C126  471   3.361   3.881   0.813
    2CHTO   O85  472   3.222   3.867   0.843
    2CHTO  H206  473   3.183   3.804   0.785
    2CHTO  C121  474   3.368   4.131   0.892
    2CHTO  H225  475   3.286   4.127   0.817
    2CHTO   O81  476   3.308   4.168   1.017
    2CHTO  H202  477   3.373   4.175   1.084
    2CHTO  C119  478   3.473   4.237   0.846
    2CHTO  H223  479   3.505   4.205   0.747
    2CHTO  C117  480   3.600   4.236   0.939
    2CHTO  H221  481   3.582   4.270   1.041
    2CHTO   N20  482   3.704   4.330   0.885
    2CHTO  H209  483   3.724   4.409   0.956
    2CHTO  H210  484   3.796   4.277   0.862
    2CHTO   O80  485   3.405   4.380   0.813
    2CHTO  C103  486   3.424   4.446   0.668
    2CHTO  H190  487   3.529   4.459   0.645
    2CHTO  C101  488   3.354   4.372   0.547
    2CHTO  H188  489   3.253   4.343   0.578
    2CHTO   O68  490   3.434   4.241   0.514
    2CHTO  H168  491   3.435   4.185   0.589
    2CHTO   C99  492   3.343   4.466   0.418
    2CHTO  H186  493   3.445   4.488   0.381
    2CHTO   N17  494   3.268   4.404   0.304
    2CHTO  H174  495   3.312   4.308   0.279
    2CHTO  H175  496   3.270   4.470   0.218
    2CHTO   C97  497   3.283   4.604   0.458
    2CHTO  H184  498   3.179   4.588   0.491
    2CHTO   O64  499   3.364   4.663   0.561
    2CHTO  C104  500   3.362   4.591   0.685
    2CHTO  H191  501   3.261   4.582   0.724
    2CHTO  C108  502   3.441   4.671   0.790
    2CHTO   O71  503   3.380   4.797   0.816
    2CHTO  H171  504   3.429   4.844   0.881
    2CHTO   O62  505   3.287   4.701   0.350
    2CHTO   C91  506   3.192   4.809   0.354
    2CHTO  H178  507   3.124   4.794   0.438
    2CHTO   C92  508   3.104   4.805   0.225
    2CHTO  H179  509   3.171   4.814   0.138
    2CHTO   O66  510   3.043   4.675   0.214
    2CHTO  H166  511   2.986   4.659   0.286
    2CHTO   C93  512   2.994   4.918   0.224
    2CHTO  H180  513   2.914   4.883   0.291
    2CHTO   N16  514   2.929   4.934   0.091
    2CHTO  H172  515   2.823   4.920   0.099
    2CHTO  H173  516   2.952   5.030   0.047
    2CHTO   C94  517   3.049   5.056   0.281
    2CHTO  H181  518   3.026   5.140   0.215
    2CHTO   O61  519   3.193   5.057   0.294
    2CHTO   C95  520   3.259   4.952   0.367
    2CHTO  H182  521   3.361   4.943   0.329
    2CHTO  C106  522   3.275   4.992   0.518
    2CHTO   O69  523   3.361   5.106   0.532
    2CHTO  H169  524   3.319   5.182   0.498
    2CHTO   O63  525   2.982   5.084   0.424
    2CHTO   C96  526   2.861   5.196   0.428
    2CHTO  H183  527   2.826   5.200   0.531
    2CHTO   C98  528   2.738   5.165   0.338
    2CHTO  H185  529   2.769   5.152   0.234
    2CHTO   O67  530   2.688   5.037   0.380
    2CHTO  H167  531   2.616   5.011   0.326
    2CHTO  C102  532   2.625   5.279   0.351
    2CHTO  H189  533   2.588   5.273   0.454
    2CHTO   N18  534   2.506   5.259   0.263
    2CHTO  H176  535   2.416   5.253   0.323
    2CHTO  H177  536   2.497   5.338   0.190
    2CHTO  C105  537   2.689   5.420   0.332
    2CHTO  H192  538   2.713   5.436   0.227
    2CHTO   O65  539   2.810   5.436   0.410
    2CHTO  C100  540   2.914   5.340   0.390
    2CHTO  H187  541   2.945   5.341   0.284
    2CHTO  C107  542   3.033   5.387   0.478
    2CHTO   O70  543   3.154   5.316   0.448
    2CHTO  H170  544   3.147   5.228   0.479
    2CHTO   O57  545   2.575   5.532   0.387
    2CHTO   C85  546   2.561   5.666   0.336
    2CHTO  H157  547   2.507   5.720   0.417
    2CHTO   C83  548   2.464   5.668   0.214
    2CHTO  H155  549   2.367   5.632   0.248
    2CHTO   O56  550   2.508   5.574   0.114
    2CHTO  H135  551   2.589   5.603   0.076
    2CHTO   C81  552   2.447   5.814   0.162
    2CHTO  H153  553   2.413   5.876   0.246
    2CHTO   N14  554   2.341   5.830   0.059
    2CHTO  H141  555   2.300   5.735   0.031
    2CHTO  H142  556   2.263   5.893   0.095
    2CHTO   C79  557   2.587   5.869   0.115
    2CHTO  H151  558   2.573   5.974   0.087
    2CHTO   O52  559   2.680   5.869   0.228
    2CHTO   C86  560   2.696   5.740   0.296
    2CHTO  H158  561   2.755   5.679   0.225
    2CHTO   C90  562   2.786   5.760   0.421
    2CHTO   O60  563   2.920   5.795   0.384
    2CHTO  H138  564   2.962   5.722   0.343
    2CHTO   O50  565   2.644   5.799   0.003
    2CHTO   C73  566   2.678   5.831   2.749
    2CHTO  H145  567   2.638   5.930   2.722
    2CHTO   C74  568   2.618   5.725   2.652
    2CHTO  H146  569   2.509   5.725   2.667
    2CHTO   O54  570   2.641   5.769   2.517
    2CHTO  H133  571   2.602   5.709   2.456
    2CHTO   C75  572   2.681   5.584   2.685
    2CHTO  H147  573   2.653   5.556   2.787
    2CHTO   N13  574   2.630   5.474   2.600
    2CHTO  H139  575   2.654   5.493   2.496
    2CHTO  H140  576   2.676   5.380   2.629
    2CHTO   C76  577   2.841   5.594   2.681
    2CHTO  H148  578   2.873   5.607   2.578
    2CHTO   O49  579   2.890   5.706   2.763
    2CHTO   C77  580   2.833   5.834   2.732
    2CHTO  H149  581   2.857   5.861   2.629
    2CHTO   C88  582   2.902   5.939   2.820
    2CHTO   O58  583   2.856   6.077   2.786
    2CHTO  H136  584   2.884   6.100   2.700
    2CHTO   O51  585   2.905   5.462   2.750
    2CHTO   C78  586   3.062   5.458   2.742
    2CHTO  H150  587   3.103   5.554   2.702
    2CHTO   C80  588   3.107   5.342   2.651
    2CHTO  H152  589   3.060   5.248   2.687
    2CHTO   O55  590   3.055   5.370   2.519
    2CHTO  H134  591   3.068   5.296   2.463
    2CHTO   C84  592   3.265   5.326   2.650
    2CHTO  H156  593   3.307   5.416   2.606
    2CHTO   N15  594   3.312   5.210   2.568
    2CHTO  H143  595   3.280   5.223   2.466
    2CHTO  H144  596   3.271   5.119   2.606
    2CHTO   C87  597   3.316   5.316   2.796
    2CHTO  H159  598   3.282   5.224   2.842
    2CHTO   O53  599   3.262   5.439   2.875
    2CHTO   C82  600   3.120   5.439   0.002
    2CHTO  H154  601   3.084   5.347   0.048
    2CHTO   C89  602   3.082   5.554   0.098
    2CHTO   O59  603   2.944   5.553   0.134
    2CHTO  H137  604   2.891   5.575   0.059
    2CHTO   O45  605   3.485   5.321   2.803
    2CHTO   C67  606   3.534   5.339   0.056
    2CHTO  H124  607   3.459   5.391   0.115
    2CHTO   C65  608   3.566   5.202   0.125
    2CHTO  H122  609   3.611   5.139   0.049
    2CHTO   O44  610   3.439   5.147   0.164
    2CHTO  H102  611   3.405   5.193   0.238
    2CHTO   C63  612   3.678   5.216   0.238
    2CHTO  H120  613   3.776   5.211   0.189
    2CHTO   N11  614   3.688   5.102   0.335
    2CHTO  H108  615   3.777   5.045   0.318
    2CHTO  H109  616   3.688   5.139   0.436
    2CHTO   C61  617   3.669   5.359   0.301
    2CHTO  H118  618   3.749   5.367   0.377
    2CHTO   O40  619   3.695   5.463   0.202
    2CHTO   C68  620   3.661   5.432   0.062
    2CHTO  H125  621   3.748   5.381   0.015
    2CHTO   C72  622   3.640   5.564   2.866
    2CHTO   O48  623   3.757   5.646   2.865
    2CHTO  H105  624   3.739   5.726   2.821
    2CHTO   O38  625   3.540   5.382   0.362
    2CHTO   C55  626   3.526   5.488   0.458
    2CHTO  H112  627   3.612   5.557   0.451
    2CHTO   C56  628   3.512   5.425   0.603
    2CHTO  H113  629   3.442   5.341   0.594
    2CHTO   O42  630   3.639   5.368   0.643
    2CHTO  H100  631   3.661   5.297   0.586
    2CHTO   C57  632   3.459   5.529   0.710
    2CHTO  H114  633   3.538   5.603   0.727
    2CHTO   N10  634   3.427   5.466   0.841
    2CHTO  H106  635   3.349   5.521   0.892
    2CHTO  H107  636   3.515   5.464   0.903
    2CHTO   C58  637   3.336   5.601   0.650
    2CHTO  H115  638   3.255   5.526   0.632
    2CHTO   O37  639   3.371   5.666   0.527
    2CHTO   C59  640   3.401   5.573   0.421
    2CHTO  H116  641   3.315   5.509   0.403
    2CHTO   C70  642   3.426   5.656   0.294
    2CHTO   O46  643   3.316   5.738   0.256
    2CHTO  H103  644   3.244   5.684   0.228
    2CHTO   O39  645   3.280   5.719   0.745
    2CHTO   C60  646   3.139   5.742   0.730
    2CHTO  H117  647   3.104   5.696   0.637
    2CHTO   C62  648   3.060   5.676   0.847
    2CHTO  H119  649   3.081   5.567   0.841
    2CHTO   O43  650   3.110   5.726   0.973
    2CHTO  H101  651   3.198   5.698   0.987
    2CHTO   C66  652   2.903   5.701   0.827
    2CHTO  H123  653   2.874   5.662   0.729
    2CHTO   N12  654   2.819   5.630   0.927
    2CHTO  H110  655   2.753   5.560   0.878
    2CHTO  H111  656   2.880   5.581   1.002
    2CHTO   C69  657   2.877   5.854   0.826
    2CHTO  H126  658   2.909   5.897   0.923
    2CHTO   O41  659   2.959   5.917   0.711
    2CHTO   C64  660   3.109   5.894   0.719
    2CHTO  H121  661   3.150   5.947   0.808
    2CHTO   C71  662   3.170   5.957   0.591
    2CHTO   O47  663   3.313   5.960   0.595
    2CHTO  H104  664   3.342   6.022   0.659
    2CHTO   O34  665   2.722   5.889   0.803
    2CHTO   C49  666   2.643   6.019   0.838
    2CHTO   H91  667   2.558   5.988   0.899
    2CHTO   C47  668   2.592   6.084   0.707
    2CHTO   H89  669   2.524   6.166   0.737
    2CHTO   O33  670   2.516   5.985   0.635
    2CHTO   H70  671   2.476   6.024   0.560
    2CHTO   C45  672   2.717   6.142   0.624
    2CHTO   H87  673   2.788   6.060   0.606
    2CHTO    N8  674   2.677   6.199   0.493
    2CHTO   H75  675   2.611   6.284   0.508
    2CHTO   H76  676   2.627   6.124   0.434
    2CHTO   C43  677   2.797   6.248   0.716
    2CHTO   H85  678   2.886   6.277   0.660
    2CHTO   O29  679   2.833   6.188   0.843
    2CHTO   C50  680   2.729   6.121   0.918
    2CHTO   H92  681   2.779   6.063   0.997
    2CHTO   C54  682   2.642   6.220   1.000
    2CHTO   O36  683   2.720   6.293   1.095
    2CHTO   H72  684   2.747   6.235   1.164
    2CHTO   O27  685   2.723   6.369   0.739
    2CHTO   C37  686   2.726   6.512   0.736
    2CHTO   H79  687   2.781   6.548   0.648
    2CHTO   C38  688   2.581   6.569   0.727
    2CHTO   H80  689   2.521   6.523   0.808
    2CHTO   O31  690   2.527   6.526   0.601
    2CHTO   H68  691   2.436   6.549   0.595
    2CHTO   C39  692   2.577   6.726   0.741
    2CHTO   H81  693   2.622   6.767   0.651
    2CHTO    N7  694   2.437   6.781   0.749
    2CHTO   H73  695   2.440   6.889   0.757
    2CHTO   H74  696   2.386   6.740   0.835
    2CHTO   C40  697   2.666   6.775   0.863
    2CHTO   H82  698   2.616   6.753   0.957
    2CHTO   O26  699   2.796   6.715   0.856
    2CHTO   C41  700   2.794   6.569   0.864
    2CHTO   H83  701   2.738   6.537   0.953
    2CHTO   C52  702   2.940   6.522   0.879
    2CHTO   O35  703   3.000   6.569   1.002
    2CHTO   H71  704   3.084   6.529   1.013
    2CHTO   O28  705   2.688   6.918   0.856
    2CHTO   C42  706   2.766   6.995   0.954
    2CHTO   H84  707   2.748   7.098   0.923
    2CHTO   C44  708   2.921   6.975   0.950
    2CHTO   H86  709   2.943   6.872   0.976
    2CHTO   O32  710   2.964   7.001   0.815
    2CHTO   H69  711   2.932   6.933   0.758
    2CHTO   C48  712   2.996   7.068   1.055
    2CHTO   H90  713   2.984   7.172   1.023
    2CHTO    N9  714   3.144   7.043   1.057
    2CHTO   H77  715   3.186   7.061   0.959
    2CHTO   H78  716   3.191   7.107   1.130
    2CHTO   C51  717   2.930   7.051   1.197
    2CHTO   H93  718   2.948   6.949   1.231
    2CHTO   O30  719   2.790   7.081   1.186
    2CHTO   C46  720   2.715   6.983   1.100
    2CHTO   H88  721   2.733   6.881   1.137
    2CHTO   C53  722   2.564   7.017   1.112
    2CHTO   O72  723   2.517   6.999   1.246
    2CHTO  H199  724   2.555   7.064   1.302
    2CHTO   O22  725   2.982   7.146   1.293
    2CHTO   C31  726   2.963   7.132   1.439
    2CHTO   H59  727   3.003   7.226   1.483
    2CHTO   C29  728   2.816   7.119   1.485
    2CHTO   H57  729   2.774   7.030   1.436
    2CHTO   O21  730   2.743   7.233   1.436
    2CHTO   H37  731   2.741   7.233   1.342
    2CHTO   C27  732   2.802   7.104   1.642
    2CHTO   H55  733   2.826   7.201   1.688
    2CHTO    N5  734   2.663   7.068   1.681
    2CHTO   H43  735   2.660   6.979   1.742
    2CHTO   H44  736   2.616   7.150   1.734
    2CHTO   C25  737   2.907   7.002   1.700
    2CHTO   H53  738   2.876   6.899   1.676
    2CHTO   O17  739   3.040   7.024   1.645
    2CHTO   C32  740   3.047   7.017   1.502
    2CHTO   H60  741   3.007   6.921   1.468
    2CHTO   C36  742   3.197   7.022   1.461
    2CHTO   O25  743   3.260   7.143   1.505
    2CHTO   H40  744   3.351   7.140   1.485
    2CHTO   O15  745   2.917   7.018   1.856
    2CHTO   C19  746   2.980   6.987   1.983
    2CHTO   H47  747   2.959   6.879   1.997
    2CHTO   C20  748   3.134   7.009   1.986
    2CHTO   H48  749   3.161   7.113   1.960
    2CHTO   O19  750   3.190   6.923   1.885
    2CHTO   H35  751   3.282   6.939   1.876
    2CHTO   C21  752   3.197   6.976   2.128
    2CHTO   H49  753   3.190   6.869   2.144
    2CHTO    N4  754   3.342   7.011   2.137
    2CHTO   H41  755   3.360   7.085   2.213
    2CHTO   H42  756   3.400   6.923   2.159
    2CHTO   C22  757   3.113   7.043   2.241
    2CHTO   H50  758   3.127   7.151   2.237
    2CHTO   O14  759   2.974   7.011   2.225
    2CHTO   C23  760   2.914   7.060   2.104
    2CHTO   H51  761   2.930   7.168   2.100
    2CHTO   C34  762   2.764   7.033   2.116
    2CHTO   O23  763   2.690   7.104   2.017
    2CHTO   H38  764   2.598   7.085   2.026
    2CHTO   O16  765   3.145   6.991   2.372
    2CHTO   C24  766   3.116   7.099   2.494
    2CHTO   H52  767   3.066   7.189   2.458
    2CHTO   C26  768   3.251   7.137   2.558
    2CHTO   H54  769   3.304   7.044   2.586
    2CHTO   O20  770   3.330   7.204   2.458
    2CHTO   H36  771   3.417   7.220   2.491
    2CHTO   C30  772   3.232   7.225   2.686
    2CHTO   H58  773   3.198   7.326   2.657
    2CHTO    N6  774   3.361   7.245   2.757
    2CHTO   H45  775   3.401   7.150   2.789
    2CHTO   H46  776   3.346   7.308   2.844
    2CHTO   C33  777   3.122   7.167   2.780
    2CHTO   H61  778   3.159   7.075   2.828
    2CHTO   O18  779   3.004   7.135   2.704
    2CHTO   C28  780   3.023   7.036   2.602
    2CHTO   H56  781   3.071   6.947   2.643
    2CHTO   C35  782   2.884   6.999   2.548
    2CHTO   O24  783   2.885   6.881   2.467
    2CHTO   H39  784   2.799   6.866   2.432
    2CHTO    O9  785   3.092   7.258   0.007
    2CHTO   C13  786   2.994   7.198   0.118
    2CHTO   H26  787   2.962   7.097   0.086
    2CHTO   C11  788   2.871   7.296   0.136
    2CHTO   H24  789   2.818   7.299   0.039
    2CHTO    O8  790   2.915   7.430   0.165
    2CHTO    H3  791   2.965   7.465   0.093
    2CHTO    C9  792   2.776   7.234   0.241
    2CHTO   H22  793   2.749   7.135   0.202
    2CHTO    N2  794   2.647   7.306   0.251
    2CHTO   H10  795   2.662   7.404   0.294
    2CHTO   H11  796   2.578   7.249   0.312
    2CHTO    C7  797   2.851   7.214   0.379
    2CHTO   H20  798   2.782   7.147   0.435
    2CHTO    O4  799   2.977   7.145   0.364
    2CHTO   C14  800   3.069   7.176   0.257
    2CHTO   H27  801   3.135   7.088   0.246
    2CHTO   C18  802   3.160   7.294   0.303
    2CHTO   O13  803   3.271   7.316   0.216
    2CHTO    H7  804   3.240   7.345   0.132
    2CHTO    O2  805   2.875   7.353   0.467
    2CHTO    C1  806   2.843   7.337   0.607
    2CHTO   H14  807   2.858   7.231   0.636
    2CHTO    C2  808   2.694   7.379   0.644
    2CHTO   H15  809   2.680   7.480   0.602
    2CHTO    O6  810   2.603   7.287   0.581
    2CHTO    H1  811   2.605   7.298   0.488
    2CHTO    C3  812   2.670   7.381   0.803
    2CHTO   H16  813   2.671   7.277   0.839
    2CHTO    N1  814   2.536   7.439   0.839
    2CHTO    H8  815   2.457   7.379   0.795
    2CHTO    H9  816   2.528   7.540   0.803
    2CHTO    C4  817   2.788   7.453   0.878
    2CHTO   H17  818   2.782   7.561   0.859
    2CHTO    O1  819   2.915   7.402   0.834
    2CHTO    C5  820   2.942   7.421   0.694
    2CHTO   H18  821   2.928   7.526   0.669
    2CHTO   C16  822   3.091   7.383   0.668
    2CHTO   O11  823   3.119   7.246   0.700
    2CHTO    H5  824   3.207   7.226   0.675
    2CHTO    O3  825   2.785   7.425   1.020
    2CHTO    C6  826   2.817   7.536   1.111
    2CHTO   H19  827   2.852   7.625   1.059
    2CHTO    C8  828   2.690   7.575   1.194
    2CHTO   H21  829   2.647   7.483   1.235
    2CHTO    O7  830   2.596   7.635   1.103
    2CHTO    H2  831   2.562   7.571   1.044
    2CHTO   C12  832   2.724   7.673   1.313
    2CHTO   H25  833   2.751   7.770   1.266
    2CHTO    N3  834   2.605   7.699   1.400
    2CHTO   H12  835   2.571   7.607   1.445
    2CHTO   H13  836   2.629   7.771   1.476
    2CHTO   C15  837   2.849   7.620   1.393
    2CHTO   H28  838   2.825   7.530   1.450
    2CHTO   O10  839   2.909   7.727   1.488
    2CHTO    H4  840   2.847   7.749   1.555
    2CHTO    O5  841   2.958   7.596   1.304
    2CHTO   C10  842   2.931   7.492   1.208
    2CHTO   H23  843   2.902   7.402   1.260
    2CHTO   C17  844   3.062   7.463   1.133
    2CHTO   O12  845   3.160   7.410   1.223
    2CHTO    H6  846   3.241   7.400   1.178
    3CHTO  H203  847   6.924   2.398   2.055
    3CHTO   O82  848   6.842   2.353   2.053
    3CHTO  C123  849   6.863   2.213   2.027
    3CHTO  H227  850   6.932   2.203   1.941
    3CHTO   O77  851   6.926   2.165   2.149
    3CHTO  C118  852   6.966   2.027   2.144
    3CHTO  H222  853   7.032   2.010   2.057
    3CHTO  C125  854   7.046   1.994   2.276
    3CHTO   O84  855   7.168   2.067   2.282
    3CHTO  H205  856   7.229   2.034   2.218
    3CHTO  C114  857   6.841   1.938   2.130
    3CHTO  H218  858   6.778   1.953   2.218
    3CHTO  C116  859   6.756   1.978   2.005
    3CHTO  H220  860   6.811   1.948   1.913
    3CHTO   O79  861   6.633   1.903   2.005
    3CHTO  H201  862   6.582   1.924   2.080
    3CHTO  C120  863   6.728   2.134   2.002
    3CHTO  H224  864   6.657   2.155   2.084
    3CHTO   N21  865   6.661   2.177   1.876
    3CHTO  H211  866   6.692   2.115   1.793
    3CHTO  H212  867   6.680   2.281   1.855
    3CHTO   O75  868   6.893   1.804   2.128
    3CHTO  C112  869   6.785   1.684   2.159
    3CHTO  H216  870   6.719   1.672   2.072
    3CHTO   O73  871   6.711   1.720   2.277
    3CHTO  C113  872   6.598   1.634   2.300
    3CHTO  H217  873   6.532   1.636   2.210
    3CHTO  C124  874   6.519   1.696   2.416
    3CHTO   O83  875   6.395   1.630   2.443
    3CHTO  H204  876   6.334   1.645   2.373
    3CHTO  C109  877   6.646   1.489   2.329
    3CHTO  H213  878   6.689   1.489   2.430
    3CHTO  C110  879   6.751   1.438   2.225
    3CHTO  H214  880   6.698   1.406   2.136
    3CHTO   O78  881   6.814   1.320   2.279
    3CHTO  H200  882   6.872   1.283   2.215
    3CHTO  C111  883   6.857   1.547   2.188
    3CHTO  H215  884   6.924   1.562   2.274
    3CHTO   N19  885   6.943   1.509   2.073
    3CHTO  H207  886   6.916   1.412   2.034
    3CHTO  H208  887   7.047   1.507   2.103
    3CHTO   O74  888   6.530   1.399   2.327
    3CHTO  C115  889   6.516   1.301   2.449
    3CHTO  H219  890   6.590   1.321   2.526
    3CHTO   O76  891   6.378   1.318   2.520
    3CHTO  C122  892   6.269   1.305   2.427
    3CHTO  H226  893   6.267   1.394   2.365
    3CHTO  C126  894   6.134   1.306   2.508
    3CHTO   O85  895   6.115   1.428   2.581
    3CHTO  H206  896   6.105   1.500   2.521
    3CHTO  C121  897   6.280   1.174   2.336
    3CHTO  H225  898   6.184   1.119   2.340
    3CHTO   O81  899   6.301   1.211   2.199
    3CHTO  H202  900   6.227   1.260   2.167
    3CHTO  C119  901   6.393   1.080   2.387
    3CHTO  H223  902   6.365   1.054   2.489
    3CHTO  C117  903   6.533   1.154   2.393
    3CHTO  H221  904   6.581   1.166   2.296
    3CHTO   N20  905   6.632   1.075   2.474
    3CHTO  H209  906   6.645   0.977   2.432
    3CHTO  H210  907   6.598   1.067   2.577
    3CHTO   O80  908   6.395   0.938   2.317
    3CHTO  C103  909   6.319   0.817   2.383
    3CHTO  H190  910   6.329   0.819   2.492
    3CHTO  C101  911   6.165   0.806   2.347
    3CHTO  H188  912   6.154   0.831   2.241
    3CHTO   O68  913   6.087   0.911   2.429
    3CHTO  H168  914   6.091   0.891   2.521
    3CHTO   C99  915   6.106   0.658   2.371
    3CHTO  H186  916   6.099   0.640   2.480
    3CHTO   N17  917   5.966   0.642   2.316
    3CHTO  H174  918   5.896   0.625   2.396
    3CHTO  H175  919   5.962   0.563   2.242
    3CHTO   C97  920   6.203   0.550   2.316
    3CHTO  H184  921   6.206   0.558   2.206
    3CHTO   O64  922   6.333   0.569   2.374
    3CHTO  C104  923   6.398   0.690   2.332
    3CHTO  H191  924   6.406   0.695   2.223
    3CHTO  C108  925   6.542   0.691   2.385
    3CHTO   O71  926   6.618   0.580   2.335
    3CHTO  H171  927   6.591   0.502   2.378
    3CHTO   O62  928   6.165   0.417   2.355
    3CHTO   C91  929   6.225   0.307   2.283
    3CHTO  H178  930   6.310   0.345   2.226
    3CHTO   C92  931   6.123   0.250   2.179
    3CHTO  H179  932   6.028   0.230   2.231
    3CHTO   O66  933   6.093   0.352   2.082
    3CHTO  H166  934   6.048   0.424   2.123
    3CHTO   C93  935   6.174   0.119   2.105
    3CHTO  H180  936   6.250   0.150   2.032
    3CHTO   N16  937   6.069   0.050   2.027
    3CHTO  H172  938   5.974   0.102   2.034
    3CHTO  H173  939   6.099   0.042   1.923
    3CHTO   C94  940   6.242   0.019   2.207
    3CHTO  H181  941   6.168   9.970   2.271
    3CHTO   O61  942   6.334   0.087   2.292
    3CHTO   C95  943   6.276   0.190   2.373
    3CHTO  H182  944   6.194   0.148   2.431
    3CHTO  C106  945   6.384   0.241   2.476
    3CHTO   O69  946   6.428   0.135   2.561
    3CHTO  H169  947   6.494   0.167   2.619
    3CHTO   O63  948   6.334   9.910   2.128
    3CHTO   C96  949   6.304   9.751   2.149
    3CHTO  H183  950   6.395   9.699   2.119
    3CHTO   C98  951   6.188   9.696   2.061
    3CHTO  H185  952   6.096   9.754   2.081
    3CHTO   O67  953   6.222   9.722   1.924
    3CHTO  H167  954   6.298   9.674   1.898
    3CHTO  C102  955   6.163   9.539   2.085
    3CHTO  H189  956   6.250   9.488   2.041
    3CHTO   N18  957   6.044   9.484   2.015
    3CHTO  H176  958   5.955   9.536   2.046
    3CHTO  H177  959   6.056   9.495   1.908
    3CHTO  C105  960   6.160   9.507   2.237
    3CHTO  H192  961   6.066   9.542   2.280
    3CHTO   O65  962   6.267   9.569   2.311
    3CHTO  C100  963   6.275   9.712   2.299
    3CHTO  H187  964   6.178   9.755   2.330
    3CHTO  C107  965   6.384   9.764   2.396
    3CHTO   O70  966   6.349   9.736   2.533
    3CHTO  H170  967   6.279   9.793   2.559
    3CHTO   O57  968   6.175   9.341   2.246
    3CHTO   C85  969   6.121   9.254   2.348
    3CHTO  H157  970   6.151   9.153   2.314
    3CHTO   C83  971   5.965   9.251   2.346
    3CHTO  H155  972   5.933   9.224   2.245
    3CHTO   O56  973   5.912   9.383   2.372
    3CHTO  H135  974   5.819   9.383   2.359
    3CHTO   C81  975   5.917   9.142   2.446
    3CHTO  H153  976   5.963   9.048   2.417
    3CHTO   N14  977   5.771   9.115   2.435
    3CHTO  H141  978   5.745   9.093   2.334
    3CHTO  H142  979   5.745   9.032   2.497
    3CHTO   C79  980   5.965   9.178   2.592
    3CHTO  H151  981   5.940   9.093   2.656
    3CHTO   O52  982   6.111   9.193   2.596
    3CHTO   C86  983   6.168   9.283   2.496
    3CHTO  H158  984   6.136   9.384   2.528
    3CHTO   C90  985   6.322   9.282   2.506
    3CHTO   O60  986   6.375   9.151   2.488
    3CHTO  H138  987   6.469   9.153   2.498
    3CHTO   O50  988   5.904   9.295   2.648
    3CHTO   C73  989   5.871   9.372   2.764
    3CHTO  H145  990   5.950   9.364   2.840
    3CHTO   C74  991   5.736   9.324   2.827
    3CHTO  H146  992   5.749   9.219   2.855
    3CHTO   O54  993   5.715   9.397   0.068
    3CHTO  H133  994   5.637   9.367   0.110
    3CHTO   C75  995   5.621   9.343   2.720
    3CHTO  H147  996   5.640   9.272   2.638
    3CHTO   N13  997   5.485   9.306   2.768
    3CHTO  H139  998   5.483   9.202   2.798
    3CHTO  H140  999   5.459   9.367   2.854
    3CHTO   C76 1000   5.623   9.490   2.656
    3CHTO  H148 1001   5.580   9.560   2.728
    3CHTO   O49 1002   5.758   9.536   2.620
    3CHTO   C77 1003   5.856   9.522   2.724
    3CHTO  H149 1004   5.826   9.580   2.811
    3CHTO   C88 1005   5.991   9.580   2.679
    3CHTO   O58 1006   5.984   9.723   2.662
    3CHTO  H136 1007   5.974   9.765   2.746
    3CHTO   O51 1008   5.544   9.485   2.516
    3CHTO   C78 1009   5.509   9.624   2.458
    3CHTO  H150 1010   5.578   9.702   2.495
    3CHTO   C80 1011   5.364   9.662   2.497
    3CHTO  H152 1012   5.297   9.579   2.467
    3CHTO   O55 1013   5.359   9.674   2.640
    3CHTO  H134 1014   5.370   9.590   2.681
    3CHTO   C84 1015   5.317   9.796   2.427
    3CHTO  H156 1016   5.373   9.877   2.474
    3CHTO   N15 1017   5.171   9.825   2.451
    3CHTO  H143 1018   5.127   9.751   2.514
    3CHTO  H144 1019   5.117   9.829   2.359
    3CHTO   C87 1020   5.352   9.797   2.276
    3CHTO  H159 1021   5.282   9.733   2.221
    3CHTO   O53 1022   5.495   9.748   2.251
    3CHTO   C82 1023   5.523   9.618   2.305
    3CHTO  H154 1024   5.455   9.545   2.262
    3CHTO   C89 1025   5.666   9.576   2.264
    3CHTO   O59 1026   5.680   9.565   2.122
    3CHTO  H137 1027   5.674   9.650   2.082
    3CHTO   O45 1028   5.338   9.952   2.213
    3CHTO   C67 1029   5.453   0.037   2.234
    3CHTO  H124 1030   5.516   9.995   2.312
    3CHTO   C65 1031   5.538   0.050   2.102
    3CHTO  H122 1032   5.468   0.033   2.019
    3CHTO   O44 1033   5.634   9.943   2.104
    3CHTO  H102 1034   5.677   9.936   2.021
    3CHTO   C63 1035   5.594   0.196   2.078
    3CHTO  H120 1036   5.512   0.259   2.044
    3CHTO   N11 1037   5.691   0.212   1.964
    3CHTO  H108 1038   5.783   0.162   1.988
    3CHTO  H109 1039   5.710   0.316   1.947
    3CHTO   C61 1040   5.641   0.255   2.216
    3CHTO  H118 1041   5.673   0.359   2.195
    3CHTO   O40 1042   5.529   0.264   2.309
    3CHTO   C68 1043   5.411   0.180   2.286
    3CHTO  H125 1044   5.346   0.229   2.211
    3CHTO   C72 1045   5.331   0.174   2.418
    3CHTO   O48 1046   5.283   0.302   2.460
    3CHTO  H105 1047   5.217   0.332   2.400
    3CHTO   O38 1048   5.753   0.182   2.271
    3CHTO   C55 1049   5.775   0.176   2.413
    3CHTO  H112 1050   5.681   0.149   2.464
    3CHTO   C56 1051   5.835   0.312   2.470
    3CHTO  H113 1052   5.922   0.337   2.408
    3CHTO   O42 1053   5.740   0.418   2.452
    3CHTO  H100 1054   5.778   0.500   2.474
    3CHTO   C57 1055   5.876   0.298   2.623
    3CHTO  H114 1056   5.783   0.292   2.680
    3CHTO   N10 1057   5.950   0.417   2.675
    3CHTO  H106 1058   6.009   0.462   2.596
    3CHTO  H107 1059   6.014   0.390   2.757
    3CHTO   C58 1060   5.957   0.168   2.646
    3CHTO  H115 1061   6.058   0.179   2.600
    3CHTO   O37 1062   5.892   0.053   2.589
    3CHTO   C59 1063   5.874   0.061   2.446
    3CHTO  H116 1064   5.970   0.079   2.398
    3CHTO   C70 1065   5.820   9.927   2.395
    3CHTO   O46 1066   5.919   9.824   2.397
    3CHTO  H103 1067   5.881   9.744   2.365
    3CHTO   O39 1068   5.972   0.142   2.811
    3CHTO   C60 1069   6.046   0.023   2.845
    3CHTO  H117 1070   6.013   9.941   2.781
    3CHTO   C62 1071   6.199   0.042   2.824
    3CHTO  H119 1072   6.213   0.071   2.718
    3CHTO   O43 1073   6.247   0.151   0.025
    3CHTO  H101 1074   6.237   0.130   0.116
    3CHTO   C66 1075   6.274   9.902   2.850
    3CHTO  H123 1076   6.236   9.830   2.778
    3CHTO   N12 1077   6.420   9.911   2.824
    3CHTO  H110 1078   6.465   9.983   0.009
    3CHTO  H111 1079   6.465   9.814   2.834
    3CHTO   C69 1080   6.242   9.846   0.109
    3CHTO  H126 1081   6.293   9.907   0.188
    3CHTO   O41 1082   6.085   9.848   0.135
    3CHTO   C64 1083   6.019   9.980   0.110
    3CHTO  H121 1084   6.060   0.056   0.180
    3CHTO   C71 1085   5.868   9.962   0.141
    3CHTO   O47 1086   5.800   0.088   0.151
    3CHTO  H104 1087   5.830   0.134   0.227
    3CHTO   O34 1088   6.290   9.695   0.122
    3CHTO   C49 1089   6.401   9.590   0.105
    3CHTO   H91 1090   6.463   9.626   0.022
    3CHTO   C47 1091   6.339   9.453   0.065
    3CHTO   H89 1092   6.316   9.463   2.838
    3CHTO   O33 1093   6.216   9.429   0.136
    3CHTO   H70 1094   6.152   9.493   0.114
    3CHTO   C45 1095   6.440   9.331   0.094
    3CHTO   H87 1096   6.419   9.294   0.196
    3CHTO    N8 1097   6.416   9.218   0.000
    3CHTO   H75 1098   6.445   9.247   2.782
    3CHTO   H76 1099   6.473   9.132   0.031
    3CHTO   C43 1100   6.592   9.382   0.102
    3CHTO   H85 1101   6.655   9.294   0.119
    3CHTO   O29 1102   6.604   9.478   0.209
    3CHTO   C50 1103   6.493   9.570   0.229
    3CHTO   H92 1104   6.431   9.533   0.312
    3CHTO   C54 1105   6.549   9.704   0.281
    3CHTO   O36 1106   6.609   9.688   0.410
    3CHTO   H72 1107   6.543   9.672   0.474
    3CHTO   O27 1108   6.636   9.441   2.861
    3CHTO   C37 1109   6.721   9.451   2.746
    3CHTO   H79 1110   6.826   9.434   2.775
    3CHTO   C38 1111   6.684   9.344   2.639
    3CHTO   H80 1112   6.576   9.347   2.623
    3CHTO   O31 1113   6.719   9.215   2.693
    3CHTO   H68 1114   6.663   9.194   2.766
    3CHTO   C39 1115   6.758   9.369   2.501
    3CHTO   H81 1116   6.864   9.350   2.517
    3CHTO    N7 1117   6.712   9.274   2.392
    3CHTO   H73 1118   6.797   9.219   2.353
    3CHTO   H74 1119   6.662   9.327   2.313
    3CHTO   C40 1120   6.744   9.520   2.457
    3CHTO   H82 1121   6.641   9.542   2.429
    3CHTO   O26 1122   6.789   9.604   2.565
    3CHTO   C41 1123   6.709   9.594   2.686
    3CHTO   H83 1124   6.604   9.616   2.663
    3CHTO   C52 1125   6.760   9.701   2.785
    3CHTO   O35 1126   6.747   9.838   2.731
    3CHTO   H71 1127   6.777   9.900   2.795
    3CHTO   O28 1128   6.831   9.551   2.346
    3CHTO   C42 1129   6.820   9.675   2.268
    3CHTO   H84 1130   6.906   9.670   2.201
    3CHTO   C44 1131   6.836   9.810   2.347
    3CHTO   H86 1132   6.753   9.818   2.417
    3CHTO   O32 1133   6.959   9.801   2.422
    3CHTO   H69 1134   7.033   9.797   2.364
    3CHTO   C48 1135   6.833   9.935   2.251
    3CHTO   H90 1136   6.922   9.932   2.189
    3CHTO    N9 1137   6.842   0.065   2.327
    3CHTO   H77 1138   6.936   0.071   2.380
    3CHTO   H78 1139   6.760   0.074   2.396
    3CHTO   C51 1140   6.707   9.931   2.156
    3CHTO   H93 1141   6.617   9.949   2.216
    3CHTO   O30 1142   6.701   9.805   2.087
    3CHTO   C46 1143   6.693   9.682   2.179
    3CHTO   H88 1144   6.606   9.693   2.243
    3CHTO   C53 1145   6.676   9.557   2.090
    3CHTO   O72 1146   6.785   9.539   1.998
    3CHTO  H199 1147   6.785   9.608   1.935
    3CHTO   O22 1148   6.720   0.028   2.051
    3CHTO   C31 1149   6.605   0.103   1.997
    3CHTO   H59 1150   6.514   0.055   2.038
    3CHTO   C29 1151   6.602   0.251   2.042
    3CHTO   H57 1152   6.700   0.294   2.016
    3CHTO   O21 1153   6.592   0.254   2.185
    3CHTO   H37 1154   6.606   0.341   2.217
    3CHTO   C27 1155   6.488   0.336   1.973
    3CHTO   H55 1156   6.391   0.304   2.014
    3CHTO    N5 1157   6.503   0.482   1.998
    3CHTO   H43 1158   6.420   0.535   1.955
    3CHTO   H44 1159   6.507   0.500   2.104
    3CHTO   C25 1160   6.483   0.305   1.819
    3CHTO   H53 1161   6.574   0.345   1.771
    3CHTO   O17 1162   6.478   0.161   1.795
    3CHTO   C32 1163   6.594   0.091   1.842
    3CHTO   H60 1164   6.683   0.134   1.797
    3CHTO   C36 1165   6.583   9.943   1.797
    3CHTO   O25 1166   6.590   9.932   1.654
    3CHTO   H40 1167   6.675   9.956   1.624
    3CHTO   O15 1168   6.362   0.367   1.753
    3CHTO   C19 1169   6.272   0.423   1.655
    3CHTO   H47 1170   6.270   0.348   1.574
    3CHTO   C20 1171   6.127   0.443   1.709
    3CHTO   H48 1172   6.128   0.500   1.804
    3CHTO   O19 1173   6.075   0.313   1.740
    3CHTO   H35 1174   6.121   0.275   1.812
    3CHTO   C21 1175   6.032   0.518   1.607
    3CHTO   H49 1176   6.007   0.450   1.527
    3CHTO    N4 1177   5.903   0.559   1.670
    3CHTO   H41 1178   5.840   0.606   1.595
    3CHTO   H42 1179   5.921   0.630   1.749
    3CHTO   C22 1180   6.107   0.638   1.542
    3CHTO   H50 1181   6.121   0.716   1.618
    3CHTO   O14 1182   6.234   0.598   1.490
    3CHTO   C23 1183   6.326   0.554   1.591
    3CHTO   H51 1184   6.335   0.635   1.666
    3CHTO   C34 1185   6.463   0.534   1.527
    3CHTO   O23 1186   6.515   0.658   1.478
    3CHTO   H38 1187   6.599   0.644   1.438
    3CHTO   O16 1188   6.035   0.691   1.429
    3CHTO   C24 1189   6.088   0.838   1.385
    3CHTO   H52 1190   6.189   0.857   1.421
    3CHTO   C26 1191   5.993   0.945   1.443
    3CHTO   H54 1192   5.889   0.923   1.409
    3CHTO   O20 1193   5.998   0.936   1.586
    3CHTO   H36 1194   5.937   0.996   1.624
    3CHTO   C30 1195   6.033   1.087   1.391
    3CHTO   H58 1196   6.132   1.113   1.431
    3CHTO    N6 1197   5.940   1.193   1.441
    3CHTO   H45 1198   5.892   1.244   1.359
    3CHTO   H46 1199   5.865   1.152   1.506
    3CHTO   C33 1200   6.045   1.086   1.235
    3CHTO   H61 1201   5.946   1.067   1.192
    3CHTO   O18 1202   6.134   0.980   1.195
    3CHTO   C28 1203   6.091   0.848   1.231
    3CHTO   H56 1204   5.992   0.827   1.191
    3CHTO   C35 1205   6.191   0.746   1.172
    3CHTO   O24 1206   6.195   0.750   1.029
    3CHTO   H39 1207   6.262   0.692   0.998
    3CHTO    O9 1208   6.087   1.213   1.181
    3CHTO   C13 1209   6.242   1.256   1.208
    3CHTO   H26 1210   6.301   1.164   1.231
    3CHTO   C11 1211   6.251   1.361   1.326
    3CHTO   H24 1212   6.218   1.311   1.418
    3CHTO    O8 1213   6.161   1.471   1.303
    3CHTO    H3 1214   6.162   1.529   1.376
    3CHTO    C9 1215   6.400   1.401   1.343
    3CHTO   H22 1216   6.454   1.307   1.360
    3CHTO    N2 1217   6.426   1.482   1.465
    3CHTO   H10 1218   6.390   1.431   1.552
    3CHTO   H11 1219   6.379   1.579   1.455
    3CHTO    C7 1220   6.453   1.465   1.210
    3CHTO   H20 1221   6.562   1.476   1.228
    3CHTO    O4 1222   6.432   1.380   1.095
    3CHTO   C14 1223   6.306   1.313   1.074
    3CHTO   H27 1224   6.328   1.227   1.009
    3CHTO   C18 1225   6.208   1.405   0.996
    3CHTO   O13 1226   6.259   1.437   0.867
    3CHTO    H7 1227   6.196   1.489   0.821
    3CHTO    O2 1228   6.388   1.610   1.183
    3CHTO    C1 1229   6.441   1.691   1.077
    3CHTO   H14 1230   6.409   1.647   0.979
    3CHTO    C2 1231   6.599   1.707   1.075
    3CHTO   H15 1232   6.629   1.723   1.180
    3CHTO    O6 1233   6.659   1.586   1.026
    3CHTO    H1 1234   6.645   1.516   1.087
    3CHTO    C3 1235   6.649   1.831   0.985
    3CHTO   H16 1236   6.635   1.805   0.879
    3CHTO    N1 1237   6.796   1.861   1.003
    3CHTO    H8 1238   6.841   1.791   1.073
    3CHTO    H9 1239   6.811   1.962   1.038
    3CHTO    C4 1240   6.558   1.956   1.010
    3CHTO   H17 1241   6.574   1.992   1.111
    3CHTO    O1 1242   6.420   1.921   0.990
    3CHTO    C5 1243   6.370   1.829   1.088
    3CHTO   H18 1244   6.387   1.869   1.188
    3CHTO   C16 1245   6.217   1.820   1.064
    3CHTO   O11 1246   6.148   1.760   1.174
    3CHTO    H5 1247   6.056   1.758   1.156
    3CHTO    O3 1248   6.582   2.061   0.914
    3CHTO    C6 1249   6.558   2.197   0.963
    3CHTO   H19 1250   6.505   2.199   1.058
    3CHTO    C8 1251   6.694   2.272   0.980
    3CHTO   H21 1252   6.750   2.264   0.887
    3CHTO    O7 1253   6.766   2.207   1.086
    3CHTO    H2 1254   6.795   2.123   1.059
    3CHTO   C12 1255   6.670   2.426   1.011
    3CHTO   H25 1256   6.626   2.430   1.113
    3CHTO    N3 1257   6.799   2.502   1.017
    3CHTO   H12 1258   6.851   2.495   0.922
    3CHTO   H13 1259   6.862   2.464   1.096
    3CHTO   C15 1260   6.567   2.487   0.910
    3CHTO   H28 1261   6.610   2.496   0.809
    3CHTO   O10 1262   6.514   2.625   0.955
    3CHTO    H4 1263   6.479   2.620   1.041
    3CHTO    O5 1264   6.447   2.408   0.905
    3CHTO   C10 1265   6.469   2.273   0.861
    3CHTO   H23 1266   6.518   2.276   0.764
    3CHTO   C17 1267   6.332   2.205   0.842
    3CHTO   O12 1268   6.260   2.261   0.732
    3CHTO    H6 1269   6.301   2.238   0.651
    4CHTO  H203 1270   5.527   6.460   0.078
    4CHTO   O82 1271   5.597   6.499   0.127
    4CHTO  C123 1272   5.578   6.641   0.135
    4CHTO  H227 1273   5.483   6.662   0.186
    4CHTO   O77 1274   5.689   6.684   0.220
    4CHTO  C118 1275   5.691   6.823   0.253
    4CHTO  H222 1276   5.596   6.852   0.301
    4CHTO  C125 1277   5.808   6.844   0.356
    4CHTO   O84 1278   5.806   6.973   0.416
    4CHTO  H205 1279   5.878   6.981   0.476
    4CHTO  C114 1280   5.711   6.905   0.123
    4CHTO  H218 1281   5.808   6.880   0.081
    4CHTO  C116 1282   5.602   6.870   0.016
    4CHTO  H220 1283   5.504   6.913   0.049
    4CHTO   O79 1284   5.634   6.937   2.774
    4CHTO  H201 1285   5.715   6.905   2.740
    4CHTO  C120 1286   5.587   6.714   2.877
    4CHTO  H224 1287   5.678   6.681   2.823
    4CHTO   N21 1288   5.472   6.680   2.789
    4CHTO  H211 1289   5.382   6.669   2.848
    4CHTO  H212 1290   5.493   6.590   2.734
    4CHTO   O75 1291   5.708   7.042   0.164
    4CHTO  C112 1292   5.802   7.141   0.073
    4CHTO  H216 1293   5.805   7.103   2.851
    4CHTO   O73 1294   5.933   7.145   0.132
    4CHTO  C113 1295   6.028   7.220   0.055
    4CHTO  H217 1296   6.036   7.174   2.836
    4CHTO  C124 1297   6.166   7.203   0.121
    4CHTO   O83 1298   6.173   7.253   0.255
    4CHTO  H204 1299   6.260   7.245   0.287
    4CHTO  C109 1300   5.987   7.369   0.041
    4CHTO  H213 1301   5.993   7.414   0.141
    4CHTO  C110 1302   5.840   7.379   2.869
    4CHTO  H214 1303   5.839   7.347   2.765
    4CHTO   O78 1304   5.797   7.517   2.871
    4CHTO  H200 1305   5.797   7.550   0.077
    4CHTO  C111 1306   5.744   7.288   0.070
    4CHTO  H215 1307   5.742   7.325   0.174
    4CHTO   N19 1308   5.603   7.287   0.022
    4CHTO  H207 1309   5.590   7.353   2.820
    4CHTO  H208 1310   5.536   7.316   0.102
    4CHTO   O74 1311   6.082   7.437   2.835
    4CHTO  C115 1312   6.102   7.597   2.859
    4CHTO  H219 1313   6.006   7.648   2.872
    4CHTO   O76 1314   6.178   7.626   0.107
    4CHTO  C122 1315   6.312   7.576   0.102
    4CHTO  H226 1316   6.307   7.469   0.079
    4CHTO  C126 1317   6.376   7.585   0.245
    4CHTO   O85 1318   6.379   7.719   0.298
    4CHTO  H206 1319   6.291   7.748   0.315
    4CHTO  C121 1320   6.400   7.649   2.875
    4CHTO  H225 1321   6.462   7.726   0.043
    4CHTO   O81 1322   6.489   7.552   2.819
    4CHTO  H202 1323   6.553   7.594   2.765
    4CHTO  C119 1324   6.316   7.719   2.762
    4CHTO  H223 1325   6.298   7.820   2.799
    4CHTO  C117 1326   6.176   7.653   2.730
    4CHTO  H221 1327   6.183   7.566   2.664
    4CHTO   N20 1328   6.089   7.749   2.654
    4CHTO  H209 1329   5.999   7.700   2.621
    4CHTO  H210 1330   6.065   7.834   2.717
    4CHTO   O80 1331   6.402   7.748   2.629
    4CHTO  C103 1332   6.484   7.878   2.614
    4CHTO  H190 1333   6.421   7.966   2.630
    4CHTO  C101 1334   6.616   7.890   2.700
    4CHTO  H188 1335   6.663   7.792   2.704
    4CHTO   O68 1336   6.577   7.931   2.845
    4CHTO  H168 1337   6.522   7.865   0.001
    4CHTO   C99 1338   6.721   7.995   2.638
    4CHTO  H186 1339   6.681   8.097   2.649
    4CHTO   N17 1340   6.855   7.993   2.707
    4CHTO  H174 1341   6.917   8.072   2.668
    4CHTO  H175 1342   6.841   8.004   2.813
    4CHTO   C97 1343   6.736   7.971   2.485
    4CHTO  H184 1344   6.782   7.872   2.469
    4CHTO   O64 1345   6.607   7.981   2.423
    4CHTO  C104 1346   6.519   7.874   2.459
    4CHTO  H191 1347   6.565   7.778   2.436
    4CHTO  C108 1348   6.392   7.883   2.372
    4CHTO   O71 1349   6.324   8.008   2.385
    4CHTO  H171 1350   6.287   8.015   2.471
    4CHTO   O62 1351   6.815   8.073   2.418
    4CHTO   C91 1352   6.858   8.039   2.284
    4CHTO  H178 1353   6.811   7.946   2.254
    4CHTO   C92 1354   7.012   8.012   2.282
    4CHTO  H179 1355   7.065   8.101   2.320
    4CHTO   O66 1356   7.042   7.907   2.376
    4CHTO  H166 1357   7.030   7.937   2.464
    4CHTO   C93 1358   7.063   7.974   2.137
    4CHTO  H180 1359   7.021   7.875   2.113
    4CHTO   N16 1360   7.210   7.959   2.128
    4CHTO  H172 1361   7.259   8.051   2.156
    4CHTO  H173 1362   7.244   7.877   2.191
    4CHTO   C94 1363   7.010   8.078   2.032
    4CHTO  H181 1364   7.056   8.176   2.044
    4CHTO   O61 1365   6.868   8.096   2.046
    4CHTO   C95 1366   6.827   8.147   2.173
    4CHTO  H182 1367   6.882   8.239   2.194
    4CHTO  C106 1368   6.675   8.184   2.163
    4CHTO   O69 1369   6.629   8.253   2.280
    4CHTO  H169 1370   6.631   8.196   2.354
    4CHTO   O63 1371   7.036   8.022   1.882
    4CHTO   C96 1372   7.029   8.132   1.764
    4CHTO  H183 1373   7.068   8.082   1.675
    4CHTO   C98 1374   7.109   8.263   1.784
    4CHTO  H185 1375   7.073   8.314   1.874
    4CHTO   O67 1376   7.247   8.232   1.810
    4CHTO  H167 1377   7.255   8.185   1.891
    4CHTO  C102 1378   7.100   8.361   1.656
    4CHTO  H189 1379   7.191   8.342   1.597
    4CHTO   N18 1380   7.104   8.506   1.688
    4CHTO  H176 1381   7.020   8.533   1.751
    4CHTO  H177 1382   7.101   8.564   1.597
    4CHTO  C105 1383   6.979   8.323   1.564
    4CHTO  H192 1384   6.950   8.409   1.504
    4CHTO   O65 1385   6.862   8.277   1.635
    4CHTO  C100 1386   6.879   8.173   1.734
    4CHTO  H187 1387   6.836   8.212   1.828
    4CHTO  C107 1388   6.796   8.050   1.693
    4CHTO   O70 1389   6.656   8.075   1.706
    4CHTO  H170 1390   6.628   8.138   1.643
    4CHTO   O57 1391   7.041   8.213   1.469
    4CHTO   C85 1392   6.995   8.194   1.335
    4CHTO  H157 1393   6.942   8.288   1.305
    4CHTO   C83 1394   6.887   8.081   1.331
    4CHTO  H155 1395   6.800   8.116   1.387
    4CHTO   O56 1396   6.936   7.964   1.399
    4CHTO  H135 1397   7.009   7.927   1.353
    4CHTO   C81 1398   6.844   8.055   1.183
    4CHTO  H153 1399   6.808   8.149   1.142
    4CHTO   N14 1400   6.729   7.963   1.171
    4CHTO  H141 1401   6.757   7.864   1.203
    4CHTO  H142 1402   6.696   7.958   1.070
    4CHTO   C79 1403   6.970   8.010   1.099
    4CHTO  H151 1404   6.937   8.000   0.995
    4CHTO   O52 1405   7.071   8.116   1.101
    4CHTO   C86 1406   7.112   8.159   1.234
    4CHTO  H158 1407   7.172   8.074   1.272
    4CHTO   C90 1408   7.211   8.278   1.223
    4CHTO   O60 1409   7.152   8.392   1.159
    4CHTO  H138 1410   7.141   8.374   1.067
    4CHTO   O50 1411   7.027   7.885   1.141
    4CHTO   C73 1412   7.112   7.797   1.064
    4CHTO  H145 1413   7.184   7.857   1.006
    4CHTO   C74 1414   7.026   7.712   0.965
    4CHTO  H146 1415   6.968   7.782   0.904
    4CHTO   O54 1416   7.117   7.646   0.875
    4CHTO  H133 1417   7.069   7.598   0.810
    4CHTO   C75 1418   6.933   7.613   1.046
    4CHTO  H147 1419   6.863   7.673   1.106
    4CHTO   N13 1420   6.848   7.527   0.961
    4CHTO  H139 1421   6.787   7.463   1.023
    4CHTO  H140 1422   6.784   7.588   0.899
    4CHTO   C76 1423   7.020   7.527   1.150
    4CHTO  H148 1424   7.083   7.457   1.093
    4CHTO   O49 1425   7.104   7.614   1.232
    4CHTO   C77 1426   7.191   7.701   1.158
    4CHTO  H149 1427   7.257   7.639   1.097
    4CHTO   C88 1428   7.285   7.774   1.255
    4CHTO   O58 1429   7.212   7.843   1.366
    4CHTO  H136 1430   7.162   7.914   1.331
    4CHTO   O51 1431   6.923   7.452   1.257
    4CHTO   C78 1432   6.982   7.318   1.336
    4CHTO  H150 1433   6.927   7.305   1.432
    4CHTO   C80 1434   7.133   7.326   1.367
    4CHTO  H152 1435   7.188   7.339   1.271
    4CHTO   O55 1436   7.152   7.441   1.450
    4CHTO  H134 1437   7.140   7.520   1.400
    4CHTO   C84 1438   7.183   7.194   1.439
    4CHTO  H156 1439   7.134   7.190   1.536
    4CHTO   N15 1440   7.332   7.197   1.465
    4CHTO  H143 1441   7.382   7.117   1.415
    4CHTO  H144 1442   7.351   7.190   1.570
    4CHTO   C87 1443   7.140   7.068   1.360
    4CHTO  H159 1444   7.200   7.058   1.268
    4CHTO   O53 1445   6.988   7.074   1.325
    4CHTO   C82 1446   6.951   7.192   1.252
    4CHTO  H154 1447   7.006   7.196   1.158
    4CHTO   C89 1448   6.801   7.185   1.215
    4CHTO   O59 1449   6.718   7.167   1.331
    4CHTO  H137 1450   6.628   7.160   1.305
    4CHTO   O45 1451   7.163   6.938   1.452
    4CHTO   C67 1452   7.144   6.810   1.388
    4CHTO  H124 1453   7.138   6.820   1.280
    4CHTO   C65 1454   7.263   6.716   1.425
    4CHTO  H122 1455   7.353   6.773   1.403
    4CHTO   O44 1456   7.260   6.598   1.343
    4CHTO  H102 1457   7.339   6.548   1.357
    4CHTO   C63 1458   7.264   6.693   1.581
    4CHTO  H120 1459   7.274   6.790   1.629
    4CHTO   N11 1460   7.385   6.622   1.633
    4CHTO  H108 1461   7.387   6.626   1.740
    4CHTO  H109 1462   7.474   6.669   1.595
    4CHTO   C61 1463   7.126   6.635   1.632
    4CHTO  H118 1464   7.125   6.658   1.739
    4CHTO   O40 1465   7.008   6.701   1.574
    4CHTO   C68 1466   7.007   6.749   1.435
    4CHTO  H125 1467   6.933   6.832   1.432
    4CHTO   C72 1468   6.954   6.639   1.339
    4CHTO   O48 1469   6.815   6.614   1.355
    4CHTO  H105 1470   6.800   6.571   1.437
    4CHTO   O38 1471   7.109   6.492   1.614
    4CHTO   C55 1472   7.043   6.426   1.725
    4CHTO  H112 1473   6.974   6.496   1.774
    4CHTO   C56 1474   7.149   6.365   1.827
    4CHTO  H113 1475   7.217   6.301   1.769
    4CHTO   O42 1476   7.229   6.471   1.882
    4CHTO  H100 1477   7.299   6.435   1.934
    4CHTO   C57 1478   7.078   6.283   1.942
    4CHTO  H114 1479   7.032   6.358   2.007
    4CHTO   N10 1480   7.173   6.208   2.029
    4CHTO  H106 1481   7.192   6.110   1.989
    4CHTO  H107 1482   7.266   6.261   2.039
    4CHTO   C58 1483   6.967   6.190   1.888
    4CHTO  H115 1484   7.013   6.099   1.841
    4CHTO   O37 1485   6.883   6.256   1.791
    4CHTO   C59 1486   6.953   6.308   1.677
    4CHTO  H116 1487   7.013   6.229   1.631
    4CHTO   C70 1488   6.849   6.352   1.573
    4CHTO   O46 1489   6.761   6.455   1.620
    4CHTO  H103 1490   6.700   6.477   1.552
    4CHTO   O39 1491   6.872   6.146   2.015
    4CHTO   C60 1492   6.750   6.075   1.987
    4CHTO  H117 1493   6.711   6.105   1.890
    4CHTO   C62 1494   6.770   5.920   1.986
    4CHTO  H119 1495   6.837   5.898   1.900
    4CHTO   O43 1496   6.837   5.880   2.107
    4CHTO  H101 1497   6.925   5.912   2.108
    4CHTO   C66 1498   6.628   5.847   1.964
    4CHTO  H123 1499   6.586   5.881   1.870
    4CHTO   N12 1500   6.640   5.700   1.953
    4CHTO  H110 1501   6.704   5.674   1.870
    4CHTO  H111 1502   6.542   5.655   1.942
    4CHTO   C69 1503   6.531   5.891   2.077
    4CHTO  H126 1504   6.571   5.860   2.176
    4CHTO   O41 1505   6.516   6.044   2.073
    4CHTO   C64 1506   6.643   6.117   2.093
    4CHTO  H121 1507   6.683   6.096   2.195
    4CHTO   C71 1508   6.614   6.269   2.084
    4CHTO   O47 1509   6.526   6.312   2.188
    4CHTO  H104 1510   6.439   6.279   2.172
    4CHTO   O34 1511   6.391   5.829   2.060
    4CHTO   C49 1512   6.253   5.883   2.031
    4CHTO   H91 1513   6.226   5.948   2.115
    4CHTO   C47 1514   6.157   5.762   2.026
    4CHTO   H89 1515   6.055   5.805   2.012
    4CHTO   O33 1516   6.160   5.691   2.151
    4CHTO   H70 1517   6.094   5.624   2.151
    4CHTO   C45 1518   6.196   5.666   1.901
    4CHTO   H87 1519   6.283   5.605   1.931
    4CHTO    N8 1520   6.083   5.574   1.869
    4CHTO   H75 1521   6.111   5.472   1.892
    4CHTO   H76 1522   5.994   5.601   1.924
    4CHTO   C43 1523   6.251   5.756   1.777
    4CHTO   H85 1524   6.359   5.759   1.792
    4CHTO   O29 1525   6.193   5.887   1.783
    4CHTO   C50 1526   6.243   5.962   1.896
    4CHTO   H92 1527   6.344   5.998   1.870
    4CHTO   C54 1528   6.161   6.092   1.907
    4CHTO   O36 1529   6.218   6.183   2.002
    4CHTO   H72 1530   6.169   6.263   2.002
    4CHTO   O27 1531   6.234   5.698   1.646
    4CHTO   C37 1532   6.328   5.686   1.538
    4CHTO   H79 1533   6.277   5.644   1.450
    4CHTO   C38 1534   6.383   5.827   1.496
    4CHTO   H80 1535   6.400   5.886   1.588
    4CHTO   O31 1536   6.280   5.893   1.420
    4CHTO   H68 1537   6.263   5.846   1.341
    4CHTO   C39 1538   6.519   5.820   1.415
    4CHTO   H81 1539   6.499   5.778   1.317
    4CHTO    N7 1540   6.582   5.955   1.393
    4CHTO   H73 1541   6.513   6.019   1.339
    4CHTO   H74 1542   6.674   5.945   1.337
    4CHTO   C40 1543   6.615   5.721   1.490
    4CHTO   H82 1544   6.628   5.759   1.592
    4CHTO   O26 1545   6.552   5.593   1.488
    4CHTO   C41 1546   6.441   5.588   1.582
    4CHTO   H83 1547   6.477   5.614   1.682
    4CHTO   C52 1548   6.389   5.442   1.588
    4CHTO   O35 1549   6.491   5.348   1.638
    4CHTO   H71 1550   6.455   5.262   1.642
    4CHTO   O28 1551   6.747   5.704   1.432
    4CHTO   C42 1552   6.853   5.648   1.516
    4CHTO   H84 1553   6.939   5.645   1.449
    4CHTO   C44 1554   6.831   5.501   1.566
    4CHTO   H86 1555   6.736   5.496   1.619
    4CHTO   O32 1556   6.820   5.418   1.449
    4CHTO   H69 1557   6.797   5.331   1.473
    4CHTO   C48 1558   6.943   5.450   1.666
    4CHTO   H90 1559   7.037   5.439   1.612
    4CHTO    N9 1560   6.912   5.314   1.722
    4CHTO   H77 1561   6.991   5.282   1.787
    4CHTO   H78 1562   6.818   5.317   1.776
    4CHTO   C51 1563   6.963   5.558   1.778
    4CHTO   H93 1564   6.867   5.569   1.830
    4CHTO   O30 1565   7.003   5.681   1.716
    4CHTO   C46 1566   6.892   5.742   1.636
    4CHTO   H88 1567   6.807   5.754   1.702
    4CHTO   C53 1568   6.938   5.882   1.588
    4CHTO   O72 1569   7.058   5.876   1.509
    4CHTO  H199 1570   7.131   5.853   1.564
    4CHTO   O22 1571   7.068   5.528   1.871
    4CHTO   C31 1572   7.056   5.584   2.007
    4CHTO   H59 1573   6.984   5.669   1.999
    4CHTO   C29 1574   7.000   5.486   2.112
    4CHTO   H57 1575   7.071   5.402   2.122
    4CHTO   O21 1576   6.876   5.430   2.063
    4CHTO   H37 1577   6.891   5.379   1.986
    4CHTO   C27 1578   6.983   5.556   2.252
    4CHTO   H55 1579   6.904   5.632   2.244
    4CHTO    N5 1580   6.944   5.461   2.360
    4CHTO   H43 1581   6.927   5.514   2.452
    4CHTO   H44 1582   6.854   5.408   2.331
    4CHTO   C25 1583   7.115   5.633   2.290
    4CHTO   H53 1584   7.194   5.561   2.313
    4CHTO   O17 1585   7.161   5.717   2.181
    4CHTO   C32 1586   7.188   5.646   2.059
    4CHTO   H60 1587   7.260   5.566   2.078
    4CHTO   C36 1588   7.251   5.745   1.957
    4CHTO   O25 1589   7.377   5.793   2.003
    4CHTO   H40 1590   7.440   5.724   2.003
    4CHTO   O15 1591   7.093   5.723   2.413
    4CHTO   C19 1592   7.130   5.855   2.461
    4CHTO   H47 1593   7.140   5.841   2.570
    4CHTO   C20 1594   7.264   5.911   2.405
    4CHTO   H48 1595   7.259   5.928   2.296
    4CHTO   O19 1596   7.365   5.812   2.431
    4CHTO   H35 1597   7.446   5.836   2.390
    4CHTO   C21 1598   7.302   6.048   2.474
    4CHTO   H49 1599   7.327   6.029   2.578
    4CHTO    N4 1600   7.423   6.113   2.414
    4CHTO   H41 1601   7.508   6.048   2.425
    4CHTO   H42 1602   7.407   6.132   2.309
    4CHTO   C22 1603   7.180   6.145   2.474
    4CHTO   H50 1604   7.166   6.188   2.375
    4CHTO   O14 1605   7.060   6.079   2.517
    4CHTO   C23 1606   7.020   5.964   2.442
    4CHTO   H51 1607   7.009   5.993   2.336
    4CHTO   C34 1608   6.882   5.922   2.496
    4CHTO   O23 1609   6.819   5.824   2.412
    4CHTO   H38 1610   6.733   5.807   2.443
    4CHTO   O16 1611   7.201   6.249   2.572
    4CHTO   C24 1612   7.090   6.361   2.576
    4CHTO   H52 1613   7.035   6.367   2.482
    4CHTO   C26 1614   7.162   6.496   2.603
    4CHTO   H54 1615   7.240   6.512   2.525
    4CHTO   O20 1616   7.069   6.604   2.587
    4CHTO   H36 1617   7.042   6.611   2.497
    4CHTO   C30 1618   7.222   6.505   2.747
    4CHTO   H58 1619   7.195   6.602   2.792
    4CHTO    N6 1620   7.371   6.504   2.745
    4CHTO   H45 1621   7.410   6.419   2.799
    4CHTO   H46 1622   7.410   6.594   2.789
    4CHTO   C33 1623   7.161   6.398   2.843
    4CHTO   H61 1624   7.207   6.300   2.824
    4CHTO   O18 1625   7.020   6.388   2.814
    4CHTO   C28 1626   6.987   6.326   2.689
    4CHTO   H56 1627   6.986   6.218   2.703
    4CHTO   C35 1628   6.843   6.367   2.650
    4CHTO   O24 1629   6.794   6.296   2.535
    4CHTO   H39 1630   6.783   6.206   2.556
    4CHTO    O9 1631   7.184   6.426   0.100
    4CHTO   C13 1632   7.300   6.333   0.172
    4CHTO   H26 1633   7.390   6.335   0.108
    4CHTO   C11 1634   7.246   6.184   0.193
    4CHTO   H24 1635   7.240   6.136   0.094
    4CHTO    O8 1636   7.113   6.187   0.249
    4CHTO    H3 1637   7.114   6.226   0.334
    4CHTO    C9 1638   7.349   6.108   0.281
    4CHTO   H22 1639   7.446   6.119   0.229
    4CHTO    N2 1640   7.327   5.962   0.283
    4CHTO   H10 1641   7.411   5.913   0.332
    4CHTO   H11 1642   7.235   5.939   0.336
    4CHTO    C7 1643   7.362   6.179   0.423
    4CHTO   H20 1644   7.472   6.184   0.439
    4CHTO    O4 1645   7.309   6.313   0.424
    4CHTO   C14 1646   7.348   6.395   0.312
    4CHTO   H27 1647   7.459   6.401   0.312
    4CHTO   C18 1648   7.295   6.538   0.339
    4CHTO   O13 1649   7.340   6.631   0.240
    4CHTO    H7 1650   7.434   6.640   0.245
    4CHTO    O2 1651   7.293   6.095   0.550
    4CHTO    C1 1652   7.354   6.122   0.678
    4CHTO   H14 1653   7.390   6.228   0.679
    4CHTO    C2 1654   7.476   6.027   0.712
    4CHTO   H15 1655   7.439   5.924   0.703
    4CHTO    O6 1656   7.582   6.048   0.617
    4CHTO    H1 1657   7.555   6.020   0.531
    4CHTO    C3 1658   7.528   6.053   0.862
    4CHTO   H16 1659   7.573   6.154   0.866
    4CHTO    N1 1660   7.635   5.956   0.904
    4CHTO    H8 1661   7.598   5.855   0.897
    4CHTO    H9 1662   7.722   5.967   0.840
    4CHTO    C4 1663   7.408   6.056   0.963
    4CHTO   H17 1664   7.370   5.954   0.977
    4CHTO    O1 1665   7.303   6.143   0.918
    4CHTO    C5 1666   7.247   6.110   0.790
    4CHTO   H18 1667   7.210   6.007   0.791
    4CHTO   C16 1668   7.127   6.205   0.766
    4CHTO   O11 1669   7.021   6.179   0.859
    4CHTO    H5 1670   6.949   6.237   0.843
    4CHTO    O3 1671   7.448   6.113   1.090
    4CHTO    C6 1672   7.375   6.066   1.208
    4CHTO   H19 1673   7.285   6.011   1.182
    4CHTO    C8 1674   7.466   5.974   1.294
    4CHTO   H21 1675   7.561   6.025   1.311
    4CHTO    O7 1676   7.489   5.853   1.218
    4CHTO    H2 1677   7.546   5.871   1.146
    4CHTO   C12 1678   7.400   5.942   1.435
    4CHTO   H25 1679   7.311   5.880   1.414
    4CHTO    N3 1680   7.492   5.861   1.522
    4CHTO   H12 1681   7.583   5.916   1.541
    4CHTO   H13 1682   7.513   5.766   1.476
    4CHTO   C15 1683   7.353   6.076   1.502
    4CHTO   H28 1684   7.437   6.140   1.530
    4CHTO   O10 1685   7.263   6.054   1.626
    4CHTO    H4 1686   7.311   6.007   1.692
    4CHTO    O5 1687   7.265   6.148   1.414
    4CHTO   C10 1688   7.329   6.190   1.292
    4CHTO   H23 1689   7.415   6.250   1.317
    4CHTO   C17 1690   7.231   6.281   1.215
    4CHTO   O12 1691   7.110   6.215   1.179
    4CHTO    H6 1692   7.061   6.192   1.256
    5CHTO  H203 1693   6.888   3.383   2.737
    5CHTO   O82 1694   6.850   3.298   2.741
    5CHTO  C123 1695   6.776   3.280   2.862
    5CHTO  H227 1696   6.836   3.319   0.064
    5CHTO   O77 1697   6.657   3.364   2.843
    5CHTO  C118 1698   6.572   3.372   0.076
    5CHTO  H222 1699   6.630   3.405   0.164
    5CHTO  C125 1700   6.463   3.481   0.044
    5CHTO   O84 1701   6.400   3.530   0.162
    5CHTO  H205 1702   6.357   3.459   0.207
    5CHTO  C114 1703   6.512   3.232   0.102
    5CHTO  H218 1704   6.455   3.202   0.014
    5CHTO  C116 1705   6.625   3.127   0.123
    5CHTO  H220 1706   6.676   3.147   0.220
    5CHTO   O79 1707   6.567   2.996   0.136
    5CHTO  H201 1708   6.522   2.972   0.057
    5CHTO  C120 1709   6.732   3.131   0.005
    5CHTO  H224 1710   6.680   3.092   2.797
    5CHTO   N21 1711   6.848   3.042   0.032
    5CHTO  H211 1712   6.869   3.035   0.138
    5CHTO  H212 1713   6.936   3.076   2.860
    5CHTO   O75 1714   6.425   3.248   0.215
    5CHTO  C112 1715   6.299   3.138   0.223
    5CHTO  H216 1716   6.341   3.036   0.217
    5CHTO   O73 1717   6.210   3.165   0.113
    5CHTO  C113 1718   6.101   3.072   0.105
    5CHTO  H217 1719   6.142   2.968   0.104
    5CHTO  C124 1720   6.029   3.091   2.853
    5CHTO   O83 1721   5.969   3.220   2.838
    5CHTO  H204 1722   5.927   3.226   2.754
    5CHTO  C109 1723   6.008   3.089   0.229
    5CHTO  H213 1724   5.968   3.191   0.226
    5CHTO  C110 1725   6.092   3.067   0.359
    5CHTO  H214 1726   6.119   2.961   0.365
    5CHTO   O78 1727   6.009   3.096   0.473
    5CHTO  H200 1728   5.983   3.186   0.473
    5CHTO  C111 1729   6.222   3.154   0.359
    5CHTO  H215 1730   6.194   3.259   0.368
    5CHTO   N19 1731   6.314   3.124   0.472
    5CHTO  H207 1732   6.326   3.212   0.535
    5CHTO  H208 1733   6.279   3.041   0.531
    5CHTO   O74 1734   5.897   2.994   0.226
    5CHTO  C115 1735   5.751   3.056   0.187
    5CHTO  H219 1736   5.755   3.165   0.178
    5CHTO   O76 1737   5.703   3.007   0.046
    5CHTO  C122 1738   5.696   2.863   0.041
    5CHTO  H226 1739   5.797   2.825   0.049
    5CHTO  C126 1740   5.644   2.820   2.781
    5CHTO   O85 1741   5.735   2.853   2.676
    5CHTO  H206 1742   5.741   2.947   2.668
    5CHTO  C121 1743   5.605   2.803   0.157
    5CHTO  H225 1744   5.525   2.742   0.110
    5CHTO   O81 1745   5.684   2.714   0.237
    5CHTO  H202 1746   5.628   2.667   0.297
    5CHTO  C119 1747   5.540   2.914   0.245
    5CHTO  H223 1748   5.474   2.969   0.176
    5CHTO  C117 1749   5.648   3.015   0.300
    5CHTO  H221 1750   5.710   2.975   0.380
    5CHTO   N20 1751   5.580   3.135   0.362
    5CHTO  H209 1752   5.616   3.227   0.318
    5CHTO  H210 1753   5.594   3.135   0.469
    5CHTO   O80 1754   5.432   2.857   0.353
    5CHTO  C103 1755   5.324   2.748   0.307
    5CHTO  H190 1756   5.329   2.734   0.199
    5CHTO  C101 1757   5.334   2.608   0.376
    5CHTO  H188 1758   5.333   2.621   0.484
    5CHTO   O68 1759   5.468   2.543   0.335
    5CHTO  H168 1760   5.479   2.462   0.381
    5CHTO   C99 1761   5.210   2.515   0.333
    5CHTO  H186 1762   5.218   2.493   0.224
    5CHTO   N17 1763   5.207   2.382   0.403
    5CHTO  H174 1764   5.128   2.321   0.362
    5CHTO  H175 1765   5.303   2.333   0.392
    5CHTO   C97 1766   5.076   2.591   0.351
    5CHTO  H184 1767   5.051   2.597   0.458
    5CHTO   O64 1768   5.080   2.722   0.290
    5CHTO  C104 1769   5.183   2.809   0.339
    5CHTO  H191 1770   5.173   2.823   0.447
    5CHTO  C108 1771   5.163   2.949   0.277
    5CHTO   O71 1772   5.174   2.947   0.134
    5CHTO  H171 1773   5.101   2.901   0.097
    5CHTO   O62 1774   4.970   2.523   0.280
    5CHTO   C91 1775   4.834   2.562   0.308
    5CHTO  H178 1776   4.836   2.648   0.375
    5CHTO   C92 1777   4.763   2.446   0.387
    5CHTO  H179 1778   4.823   2.420   0.476
    5CHTO   O66 1779   4.639   2.495   0.437
    5CHTO  H166 1780   4.653   2.562   0.502
    5CHTO   C93 1781   4.733   2.320   0.296
    5CHTO  H180 1782   4.641   2.272   0.335
    5CHTO   N16 1783   4.837   2.214   0.305
    5CHTO  H172 1784   4.809   2.129   0.244
    5CHTO  H173 1785   4.932   2.254   0.272
    5CHTO   C94 1786   4.707   2.363   0.146
    5CHTO  H181 1787   4.799   2.363   0.087
    5CHTO   O61 1788   4.655   2.497   0.141
    5CHTO   C95 1789   4.751   2.598   0.176
    5CHTO  H182 1790   4.821   2.610   0.093
    5CHTO  C106 1791   4.677   2.736   0.192
    5CHTO   O69 1792   4.615   2.776   0.070
    5CHTO  H169 1793   4.680   2.797   0.006
    5CHTO   O63 1794   4.603   2.266   0.081
    5CHTO   C96 1795   4.594   2.284   2.807
    5CHTO  H183 1796   4.663   2.363   2.776
    5CHTO   C98 1797   4.452   2.324   2.757
    5CHTO  H185 1798   4.377   2.257   2.801
    5CHTO   O67 1799   4.423   2.455   2.810
    5CHTO  H167 1800   4.481   2.519   2.774
    5CHTO  C102 1801   4.441   2.322   2.596
    5CHTO  H189 1802   4.507   2.402   2.560
    5CHTO   N18 1803   4.306   2.353   2.541
    5CHTO  H176 1804   4.311   2.439   2.477
    5CHTO  H177 1805   4.236   2.372   2.621
    5CHTO  C105 1806   4.496   2.186   2.545
    5CHTO  H192 1807   4.431   2.105   2.578
    5CHTO   O65 1808   4.629   2.161   2.593
    5CHTO  C100 1809   4.640   2.151   2.736
    5CHTO  H187 1810   4.576   2.069   2.771
    5CHTO  C107 1811   4.786   2.114   2.773
    5CHTO   O70 1812   4.879   2.217   2.735
    5CHTO  H170 1813   4.884   2.223   2.641
    5CHTO   O57 1814   4.501   2.192   2.381
    5CHTO   C85 1815   4.460   2.075   2.307
    5CHTO  H157 1816   4.370   2.036   2.359
    5CHTO   C83 1817   4.568   1.963   2.319
    5CHTO  H155 1818   4.573   1.931   2.424
    5CHTO   O56 1819   4.698   2.018   2.287
    5CHTO  H135 1820   4.765   1.953   2.302
    5CHTO   C81 1821   4.527   1.842   2.231
    5CHTO  H153 1822   4.427   1.810   2.263
    5CHTO   N14 1823   4.612   1.721   2.250
    5CHTO  H141 1824   4.696   1.743   2.313
    5CHTO  H142 1825   4.556   1.642   2.295
    5CHTO   C79 1826   4.518   1.886   2.081
    5CHTO  H151 1827   4.484   1.800   2.023
    5CHTO   O52 1828   4.414   1.989   2.067
    5CHTO   C86 1829   4.432   2.106   2.154
    5CHTO  H158 1830   4.517   2.160   2.109
    5CHTO   C90 1831   4.310   2.201   2.140
    5CHTO   O60 1832   4.189   2.136   2.179
    5CHTO  H138 1833   4.117   2.196   2.171
    5CHTO   O50 1834   4.642   1.933   2.025
    5CHTO   C73 1835   4.715   1.953   1.903
    5CHTO  H145 1836   4.647   1.980   1.821
    5CHTO   C74 1837   4.793   1.823   1.864
    5CHTO  H146 1838   4.718   1.743   1.854
    5CHTO   O54 1839   4.849   1.843   1.733
    5CHTO  H133 1840   4.893   1.765   1.704
    5CHTO   C75 1841   4.900   1.791   1.975
    5CHTO  H147 1842   4.847   1.769   2.069
    5CHTO   N13 1843   4.982   1.670   1.948
    5CHTO  H139 1844   4.918   1.583   1.940
    5CHTO  H140 1845   5.035   1.682   1.855
    5CHTO   C76 1846   4.992   1.920   2.003
    5CHTO  H148 1847   5.055   1.936   1.916
    5CHTO   O49 1848   4.910   2.039   2.028
    5CHTO   C77 1849   4.818   2.069   1.922
    5CHTO  H149 1850   4.873   2.083   1.829
    5CHTO   C88 1851   4.749   2.203   1.951
    5CHTO   O58 1852   4.848   2.315   1.953
    5CHTO  H136 1853   4.883   2.328   1.867
    5CHTO   O51 1854   5.076   1.899   2.137
    5CHTO   C78 1855   5.172   2.019   2.173
    5CHTO  H150 1856   5.138   2.114   2.125
    5CHTO   C80 1857   5.316   1.988   2.126
    5CHTO  H152 1858   5.345   1.888   2.165
    5CHTO   O55 1859   5.315   1.982   1.982
    5CHTO  H134 1860   5.266   1.908   1.953
    5CHTO   C84 1861   5.419   2.097   2.179
    5CHTO  H156 1862   5.395   2.192   2.131
    5CHTO   N15 1863   5.561   2.063   2.144
    5CHTO  H143 1864   5.627   2.139   2.180
    5CHTO  H144 1865   5.572   2.057   2.038
    5CHTO   C87 1866   5.401   2.114   2.332
    5CHTO  H159 1867   5.430   2.021   2.383
    5CHTO   O53 1868   5.256   2.147   2.363
    5CHTO   C82 1869   5.168   2.040   2.325
    5CHTO  H154 1870   5.196   1.948   2.376
    5CHTO   C89 1871   5.024   2.075   2.371
    5CHTO   O59 1872   5.015   2.070   2.514
    5CHTO  H137 1873   5.066   2.139   2.552
    5CHTO   O45 1874   5.487   2.238   2.391
    5CHTO   C67 1875   5.548   2.212   2.518
    5CHTO  H124 1876   5.515   2.116   2.559
    5CHTO   C65 1877   5.705   2.211   2.506
    5CHTO  H122 1878   5.727   2.188   2.401
    5CHTO   O44 1879   5.758   2.106   2.588
    5CHTO  H102 1880   5.743   2.125   2.679
    5CHTO   C63 1881   5.763   2.354   2.534
    5CHTO  H120 1882   5.708   2.426   2.473
    5CHTO   N11 1883   5.904   2.378   2.491
    5CHTO  H108 1884   5.929   2.481   2.503
    5CHTO  H109 1885   5.917   2.349   2.389
    5CHTO   C61 1886   5.731   2.390   2.685
    5CHTO  H118 1887   5.732   2.500   2.693
    5CHTO   O40 1888   5.598   2.346   2.728
    5CHTO   C68 1889   5.500   2.322   2.623
    5CHTO  H125 1890   5.482   2.418   2.570
    5CHTO   C72 1891   5.365   2.281   2.688
    5CHTO   O48 1892   5.311   2.383   2.773
    5CHTO  H105 1893   5.284   2.456   2.721
    5CHTO   O38 1894   5.824   2.331   2.779
    5CHTO   C55 1895   5.832   2.389   0.028
    5CHTO  H112 1896   5.736   2.438   0.053
    5CHTO   C56 1897   5.954   2.491   0.036
    5CHTO  H113 1898   6.041   2.439   2.877
    5CHTO   O42 1899   5.928   2.602   2.830
    5CHTO  H100 1900   6.001   2.660   2.828
    5CHTO   C57 1901   5.982   2.540   0.184
    5CHTO  H114 1902   5.899   2.604   0.213
    5CHTO   N10 1903   6.106   2.620   0.196
    5CHTO  H106 1904   6.150   2.610   0.294
    5CHTO  H107 1905   6.085   2.724   0.177
    5CHTO   C58 1906   5.984   2.417   0.280
    5CHTO  H115 1907   6.073   2.354   0.255
    5CHTO   O37 1908   5.865   2.338   0.264
    5CHTO   C59 1909   5.851   2.277   0.135
    5CHTO  H116 1910   5.938   2.216   0.112
    5CHTO   C70 1911   5.729   2.185   0.144
    5CHTO   O46 1912   5.713   2.099   0.030
    5CHTO  H103 1913   5.782   2.036   0.027
    5CHTO   O39 1914   5.995   2.466   0.444
    5CHTO   C60 1915   5.870   2.505   0.504
    5CHTO  H117 1916   5.803   2.544   0.427
    5CHTO   C62 1917   5.799   2.384   0.573
    5CHTO  H119 1918   5.789   2.305   0.496
    5CHTO   O43 1919   5.882   2.332   0.679
    5CHTO  H101 1920   5.960   2.293   0.643
    5CHTO   C66 1921   5.654   2.430   0.621
    5CHTO  H123 1922   5.599   2.468   0.535
    5CHTO   N12 1923   5.572   2.317   0.673
    5CHTO  H110 1924   5.622   2.270   0.756
    5CHTO  H111 1925   5.552   2.247   0.594
    5CHTO   C69 1926   5.663   2.547   0.722
    5CHTO  H126 1927   5.707   2.511   0.819
    5CHTO   O41 1928   5.754   2.664   0.664
    5CHTO   C64 1929   5.890   2.618   0.609
    5CHTO  H121 1930   5.952   2.580   0.692
    5CHTO   C71 1931   5.964   2.740   0.549
    5CHTO   O47 1932   5.888   2.802   0.445
    5CHTO  H104 1933   5.935   2.876   0.412
    5CHTO   O34 1934   5.522   2.604   0.749
    5CHTO   C49 1935   5.452   2.691   0.841
    5CHTO   H91 1936   5.526   2.762   0.880
    5CHTO   C47 1937   5.394   2.606   0.957
    5CHTO   H89 1938   5.355   2.678   1.031
    5CHTO   O33 1939   5.500   2.530   1.017
    5CHTO   H70 1940   5.560   2.587   1.061
    5CHTO   C45 1941   5.274   2.515   0.900
    5CHTO   H87 1942   5.312   2.455   0.816
    5CHTO    N8 1943   5.221   2.422   1.003
    5CHTO   H75 1944   5.115   2.438   1.020
    5CHTO   H76 1945   5.237   2.319   0.973
    5CHTO   C43 1946   5.161   2.610   0.837
    5CHTO   H85 1947   5.085   2.544   0.794
    5CHTO   O29 1948   5.220   2.695   0.736
    5CHTO   C50 1949   5.339   2.770   0.768
    5CHTO   H92 1950   5.382   2.804   0.673
    5CHTO   C54 1951   5.306   2.903   0.841
    5CHTO   O36 1952   5.225   2.989   0.760
    5CHTO   H72 1953   5.210   3.069   0.805
    5CHTO   O27 1954   5.093   2.690   0.935
    5CHTO   C37 1955   5.006   2.724   1.044
    5CHTO   H79 1956   5.036   2.671   1.135
    5CHTO   C38 1957   5.014   2.877   1.074
    5CHTO   H80 1958   5.010   2.931   0.978
    5CHTO   O31 1959   5.142   2.902   1.135
    5CHTO   H68 1960   5.211   2.888   1.073
    5CHTO   C39 1961   4.896   2.928   1.167
    5CHTO   H81 1962   4.913   2.887   1.267
    5CHTO    N7 1963   4.896   3.078   1.180
    5CHTO   H73 1964   4.989   3.111   1.223
    5CHTO   H74 1965   4.813   3.109   1.243
    5CHTO   C40 1966   4.758   2.873   1.116
    5CHTO   H82 1967   4.736   2.916   1.018
    5CHTO   O26 1968   4.768   2.730   1.110
    5CHTO   C41 1969   4.860   2.683   1.008
    5CHTO   H83 1970   4.833   2.727   0.911
    5CHTO   C52 1971   4.841   2.530   0.996
    5CHTO   O35 1972   4.865   2.456   1.125
    5CHTO   H71 1973   4.798   2.478   1.187
    5CHTO   O28 1974   4.645   2.913   1.198
    5CHTO   C42 1975   4.549   2.823   1.263
    5CHTO   H84 1976   4.477   2.892   1.306
    5CHTO   C44 1977   4.606   2.740   1.383
    5CHTO   H86 1978   4.695   2.687   1.350
    5CHTO   O32 1979   4.648   2.837   1.482
    5CHTO   H69 1980   4.688   2.793   1.554
    5CHTO   C48 1981   4.503   2.634   1.439
    5CHTO   H90 1982   4.417   2.687   1.481
    5CHTO    N9 1983   4.563   2.554   1.552
    5CHTO   H77 1984   4.504   2.566   1.642
    5CHTO   H78 1985   4.569   2.449   1.525
    5CHTO   C51 1986   4.456   2.548   1.317
    5CHTO   H93 1987   4.547   2.512   1.267
    5CHTO   O30 1988   4.380   2.635   1.232
    5CHTO   C46 1989   4.470   2.733   1.160
    5CHTO   H88 1990   4.540   2.675   1.101
    5CHTO   C53 1991   4.384   2.820   1.065
    5CHTO   O72 1992   4.282   2.893   1.134
    5CHTO  H199 1993   4.232   2.943   1.073
    5CHTO   O22 1994   4.368   2.437   1.346
    5CHTO   C31 1995   4.390   2.310   1.272
    5CHTO   H59 1996   4.304   2.245   1.298
    5CHTO   C29 1997   4.388   2.328   1.117
    5CHTO   H57 1998   4.442   2.421   1.095
    5CHTO   O21 1999   4.252   2.353   1.078
    5CHTO   H37 2000   4.200   2.275   1.087
    5CHTO   C27 2001   4.456   2.211   1.036
    5CHTO   H55 2002   4.392   2.121   1.044
    5CHTO    N5 2003   4.471   2.244   0.892
    5CHTO   H43 2004   4.535   2.331   0.880
    5CHTO   H44 2005   4.512   2.160   0.838
    5CHTO   C25 2006   4.593   2.179   1.103
    5CHTO   H53 2007   4.653   2.272   1.107
    5CHTO   O17 2008   4.566   2.133   1.238
    5CHTO   C32 2009   4.518   2.235   1.326
    5CHTO   H60 2010   4.598   2.308   1.342
    5CHTO   C36 2011   4.491   2.162   1.461
    5CHTO   O25 2012   4.436   2.247   1.562
    5CHTO   H40 2013   4.348   2.271   1.539
    5CHTO   O15 2014   4.678   2.067   1.028
    5CHTO   C19 2015   4.812   2.031   1.070
    5CHTO   H47 2016   4.841   2.109   1.142
    5CHTO   C20 2017   4.822   1.893   1.141
    5CHTO   H48 2018   4.794   1.811   1.074
    5CHTO   O19 2019   4.728   1.894   1.251
    5CHTO   H35 2020   4.753   1.959   1.314
    5CHTO   C21 2021   4.969   1.866   1.193
    5CHTO   H49 2022   4.990   1.937   1.273
    5CHTO    N4 2023   4.986   1.730   1.253
    5CHTO   H41 2024   4.893   1.674   1.250
    5CHTO   H42 2025   5.019   1.738   1.355
    5CHTO   C22 2026   5.073   1.894   1.081
    5CHTO   H50 2027   5.071   1.812   1.009
    5CHTO   O14 2028   5.050   2.019   1.013
    5CHTO   C23 2029   4.918   2.035   0.957
    5CHTO   H51 2030   4.903   1.955   0.883
    5CHTO   C34 2031   4.910   2.169   0.882
    5CHTO   O23 2032   4.992   2.171   0.765
    5CHTO   H38 2033   4.979   2.252   0.719
    5CHTO   O16 2034   5.204   1.910   1.140
    5CHTO   C24 2035   5.326   1.849   1.057
    5CHTO   H52 2036   5.304   1.841   0.951
    5CHTO   C26 2037   5.363   1.711   1.114
    5CHTO   H54 2038   5.369   1.719   1.225
    5CHTO   O20 2039   5.255   1.619   1.085
    5CHTO   H36 2040   5.246   1.607   0.992
    5CHTO   C30 2041   5.500   1.657   1.062
    5CHTO   H58 2042   5.487   1.627   0.957
    5CHTO    N6 2043   5.543   1.535   1.135
    5CHTO   H45 2044   5.470   1.456   1.121
    5CHTO   H46 2045   5.553   1.556   1.240
    5CHTO   C33 2046   5.610   1.768   1.065
    5CHTO   H61 2047   5.632   1.792   1.170
    5CHTO   O18 2048   5.559   1.887   1.003
    5CHTO   C28 2049   5.447   1.945   1.071
    5CHTO   H56 2050   5.469   1.958   1.177
    5CHTO   C35 2051   5.415   2.084   1.010
    5CHTO   O24 2052   5.523   2.176   1.027
    5CHTO   H39 2053   5.500   2.258   0.987
    5CHTO    O9 2054   5.736   1.728   1.008
    5CHTO   C13 2055   5.739   1.685   0.849
    5CHTO   H26 2056   5.647   1.626   0.827
    5CHTO   C11 2057   5.870   1.602   0.819
    5CHTO   H24 2058   5.866   1.511   0.881
    5CHTO    O8 2059   5.989   1.674   0.857
    5CHTO    H3 2060   5.989   1.690   0.949
    5CHTO    C9 2061   5.866   1.560   0.670
    5CHTO   H22 2062   5.774   1.500   0.659
    5CHTO    N2 2063   5.974   1.465   0.633
    5CHTO   H10 2064   5.956   1.426   0.533
    5CHTO   H11 2065   6.070   1.514   0.638
    5CHTO    C7 2066   5.854   1.686   0.575
    5CHTO   H20 2067   5.823   1.642   0.478
    5CHTO    O4 2068   5.750   1.778   0.615
    5CHTO   C14 2069   5.730   1.811   0.753
    5CHTO   H27 2070   5.626   1.851   0.760
    5CHTO   C18 2071   5.825   1.927   0.796
    5CHTO   O13 2072   5.795   2.049   0.727
    5CHTO    H7 2073   5.818   2.041   0.637
    5CHTO    O2 2074   5.993   1.770   0.552
    5CHTO    C1 2075   6.017   1.802   0.414
    5CHTO   H14 2076   5.921   1.826   0.364
    5CHTO    C2 2077   6.088   1.684   0.333
    5CHTO   H15 2078   6.171   1.650   0.396
    5CHTO    O6 2079   5.993   1.578   0.316
    5CHTO    H1 2080   6.035   1.503   0.278
    5CHTO    C3 2081   6.142   1.733   0.190
    5CHTO   H16 2082   6.056   1.758   0.126
    5CHTO    N1 2083   6.222   1.626   0.120
    5CHTO    H8 2084   6.178   1.604   0.024
    5CHTO    H9 2085   6.325   1.655   0.108
    5CHTO    C4 2086   6.221   1.867   0.208
    5CHTO   H17 2087   6.309   1.848   0.270
    5CHTO    O1 2088   6.137   1.966   0.270
    5CHTO    C5 2089   6.103   1.933   0.406
    5CHTO   H18 2090   6.194   1.917   0.464
    5CHTO   C16 2091   6.026   2.053   0.466
    5CHTO   O11 2092   6.109   2.170   0.473
    5CHTO    H5 2093   6.178   2.157   0.536
    5CHTO    O3 2094   6.262   1.921   0.080
    5CHTO    C6 2095   6.365   2.025   0.083
    5CHTO   H19 2096   6.362   2.086   0.173
    5CHTO    C8 2097   6.508   1.964   0.069
    5CHTO   H21 2098   6.510   1.900   2.862
    5CHTO    O7 2099   6.534   1.883   0.186
    5CHTO    H2 2100   6.615   1.838   0.177
    5CHTO   C12 2101   6.617   2.078   0.052
    5CHTO   H25 2102   6.618   2.134   0.148
    5CHTO    N3 2103   6.756   2.023   0.034
    5CHTO   H12 2104   6.796   2.051   2.819
    5CHTO   H13 2105   6.757   1.916   0.045
    5CHTO   C15 2106   6.572   2.177   2.820
    5CHTO   H28 2107   6.579   2.131   2.721
    5CHTO   O10 2108   6.652   2.308   2.820
    5CHTO    H4 2109   6.742   2.290   2.801
    5CHTO    O5 2110   6.438   2.225   2.843
    5CHTO   C10 2111   6.340   2.121   2.845
    5CHTO   H23 2112   6.345   2.065   2.752
    5CHTO   C17 2113   6.200   2.185   2.852
    5CHTO   O12 2114   6.170   2.258   2.733
    5CHTO    H6 2115   6.157   2.198   2.661
    6CHTO  H203 2116   3.909   4.050   0.713
    6CHTO   O82 2117   3.946   3.995   0.779
    6CHTO  C123 2118   4.071   4.049   0.824
    6CHTO  H227 2119   4.131   4.077   0.736
    6CHTO   O77 2120   4.034   4.169   0.899
    6CHTO  C118 2121   4.146   4.248   0.942
    6CHTO  H222 2122   4.205   4.278   0.854
    6CHTO  C125 2123   4.091   4.376   1.013
    6CHTO   O84 2124   4.027   4.462   0.918
    6CHTO  H205 2125   3.998   4.540   0.962
    6CHTO  C114 2126   4.235   4.167   1.038
    6CHTO  H218 2127   4.178   4.146   1.129
    6CHTO  C116 2128   4.277   4.030   0.976
    6CHTO  H220 2129   4.350   4.048   0.895
    6CHTO   O79 2130   4.347   3.953   1.076
    6CHTO  H201 2131   4.290   3.934   1.148
    6CHTO  C120 2132   4.151   3.952   0.919
    6CHTO  H224 2133   4.088   3.923   1.006
    6CHTO   N21 2134   4.193   3.827   0.849
    6CHTO  H211 2135   4.197   3.746   0.920
    6CHTO  H212 2136   4.123   3.803   0.770
    6CHTO   O75 2137   4.345   4.255   1.069
    6CHTO  C112 2138   4.407   4.233   1.219
    6CHTO  H216 2139   4.385   4.131   1.253
    6CHTO   O73 2140   4.348   4.332   1.305
    6CHTO  C113 2141   4.386   4.318   1.443
    6CHTO  H217 2142   4.358   4.216   1.478
    6CHTO  C124 2143   4.303   4.419   1.523
    6CHTO   O83 2144   4.312   4.403   1.665
    6CHTO  H204 2145   4.398   4.426   1.694
    6CHTO  C109 2146   4.539   4.341   1.459
    6CHTO  H213 2147   4.559   4.446   1.433
    6CHTO  C110 2148   4.618   4.246   1.363
    6CHTO  H214 2149   4.607   4.144   1.401
    6CHTO   O78 2150   4.758   4.278   1.370
    6CHTO  H200 2151   4.773   4.366   1.340
    6CHTO  C111 2152   4.564   4.253   1.217
    6CHTO  H215 2153   4.584   4.353   1.177
    6CHTO   N19 2154   4.627   4.156   1.124
    6CHTO  H207 2155   4.700   4.094   1.176
    6CHTO  H208 2156   4.676   4.208   1.043
    6CHTO   O74 2157   4.581   4.316   1.597
    6CHTO  C115 2158   4.670   4.433   1.665
    6CHTO  H219 2159   4.679   4.520   1.599
    6CHTO   O76 2160   4.604   4.487   1.796
    6CHTO  C122 2161   4.577   4.383   1.891
    6CHTO  H226 2162   4.486   4.332   1.859
    6CHTO  C126 2163   4.542   4.449   2.029
    6CHTO   O85 2164   4.650   4.528   2.083
    6CHTO  H206 2165   4.625   4.563   2.166
    6CHTO  C121 2166   4.695   4.278   1.906
    6CHTO  H225 2167   4.710   4.257   2.014
    6CHTO   O81 2168   4.659   4.153   1.845
    6CHTO  H202 2169   4.723   4.087   1.864
    6CHTO  C119 2170   4.828   4.335   1.848
    6CHTO  H223 2171   4.846   4.427   1.904
    6CHTO  C117 2172   4.814   4.372   1.695
    6CHTO  H221 2173   4.822   4.287   1.627
    6CHTO   N20 2174   4.925   4.465   1.654
    6CHTO  H209 2175   4.886   4.555   1.609
    6CHTO  H210 2176   4.992   4.415   1.586
    6CHTO   O80 2177   4.961   4.248   1.885
    6CHTO  C103 2178   5.056   4.293   2.011
    6CHTO  H190 2179   5.141   4.224   2.019
    6CHTO  C101 2180   5.113   4.440   2.010
    6CHTO  H188 2181   5.030   4.510   1.995
    6CHTO   O68 2182   5.209   4.456   1.893
    6CHTO  H168 2183   5.164   4.444   1.812
    6CHTO   C99 2184   5.183   4.475   2.150
    6CHTO  H186 2185   5.268   4.405   2.167
    6CHTO   N17 2186   5.237   4.615   2.161
    6CHTO  H174 2187   5.222   4.670   2.069
    6CHTO  H175 2188   5.342   4.613   2.188
    6CHTO   C97 2189   5.081   4.447   2.263
    6CHTO  H184 2190   4.995   4.515   2.249
    6CHTO   O64 2191   5.041   4.309   2.259
    6CHTO  C104 2192   4.968   4.271   2.141
    6CHTO  H191 2193   4.877   4.329   2.132
    6CHTO  C108 2194   4.926   4.124   2.155
    6CHTO   O71 2195   4.835   4.106   2.264
    6CHTO  H171 2196   4.880   4.118   2.345
    6CHTO   O62 2197   5.135   4.455   2.396
    6CHTO   C91 2198   5.054   4.514   2.501
    6CHTO  H178 2199   5.078   4.621   2.500
    6CHTO   C92 2200   5.108   4.459   2.638
    6CHTO  H179 2201   5.218   4.468   2.641
    6CHTO   O66 2202   5.061   4.545   2.743
    6CHTO  H166 2203   4.967   4.545   2.746
    6CHTO   C93 2204   5.059   4.311   2.668
    6CHTO  H180 2205   5.059   4.299   2.778
    6CHTO   N16 2206   5.152   4.207   2.619
    6CHTO  H172 2207   5.115   4.109   2.644
    6CHTO  H173 2208   5.164   4.216   2.512
    6CHTO   C94 2209   4.913   4.288   2.614
    6CHTO  H181 2210   4.913   4.244   2.514
    6CHTO   O61 2211   4.843   4.413   2.602
    6CHTO   C95 2212   4.894   4.494   2.494
    6CHTO  H182 2213   4.865   4.448   2.400
    6CHTO  C106 2214   4.818   4.632   2.499
    6CHTO   O69 2215   4.851   4.715   2.387
    6CHTO  H169 2216   4.814   4.679   2.309
    6CHTO   O63 2217   4.834   4.199   2.712
    6CHTO   C96 2218   4.752   4.086   2.640
    6CHTO  H183 2219   4.808   4.053   2.552
    6CHTO   C98 2220   4.611   4.130   2.592
    6CHTO  H185 2221   4.557   4.178   2.675
    6CHTO   O67 2222   4.627   4.233   2.492
    6CHTO  H167 2223   4.664   4.310   2.530
    6CHTO  C102 2224   4.524   4.008   2.532
    6CHTO  H189 2225   4.571   3.982   2.437
    6CHTO   N18 2226   4.383   4.042   2.500
    6CHTO  H176 2227   4.333   3.956   2.458
    6CHTO  H177 2228   4.380   4.123   2.429
    6CHTO  C105 2229   4.534   3.885   2.627
    6CHTO  H192 2230   4.476   3.904   2.717
    6CHTO   O65 2231   4.670   3.856   2.667
    6CHTO  C100 2232   4.738   3.961   2.735
    6CHTO  H187 2233   4.680   3.990   2.825
    6CHTO  C107 2234   4.875   3.905   2.781
    6CHTO   O70 2235   4.943   3.992   2.872
    6CHTO  H170 2236   4.897   3.995   0.072
    6CHTO   O57 2237   4.468   3.755   2.543
    6CHTO   C85 2238   4.551   3.649   2.491
    6CHTO  H157 2239   4.621   3.622   2.572
    6CHTO   C83 2240   4.639   3.702   2.373
    6CHTO  H155 2241   4.702   3.782   2.412
    6CHTO   O56 2242   4.554   3.761   2.273
    6CHTO  H135 2243   4.605   3.802   2.206
    6CHTO   C81 2244   4.730   3.587   2.321
    6CHTO  H153 2245   4.792   3.553   2.404
    6CHTO   N14 2246   4.829   3.634   2.220
    6CHTO  H141 2247   4.887   3.714   2.259
    6CHTO  H142 2248   4.777   3.667   2.132
    6CHTO   C79 2249   4.643   3.466   2.271
    6CHTO  H151 2250   4.711   3.384   2.249
    6CHTO   O52 2251   4.555   3.419   2.379
    6CHTO   C86 2252   4.470   3.522   2.439
    6CHTO  H158 2253   4.398   3.550   2.358
    6CHTO   C90 2254   4.386   3.457   2.551
    6CHTO   O60 2255   4.282   3.545   2.598
    6CHTO  H138 2256   4.232   3.501   2.664
    6CHTO   O50 2257   4.566   3.494   2.153
    6CHTO   C73 2258   4.473   3.421   2.071
    6CHTO  H145 2259   4.385   3.391   2.131
    6CHTO   C74 2260   4.538   3.293   2.010
    6CHTO  H146 2261   4.574   3.232   2.095
    6CHTO   O54 2262   4.435   3.215   1.946
    6CHTO  H133 2263   4.400   3.262   1.873
    6CHTO   C75 2264   4.656   3.335   1.914
    6CHTO  H147 2265   4.731   3.389   1.973
    6CHTO   N13 2266   4.727   3.219   1.854
    6CHTO  H139 2267   4.832   3.222   1.879
    6CHTO  H140 2268   4.717   3.219   1.746
    6CHTO   C76 2269   4.600   3.437   1.804
    6CHTO  H148 2270   4.527   3.383   1.744
    6CHTO   O49 2271   4.533   3.551   1.868
    6CHTO   C77 2272   4.424   3.512   1.954
    6CHTO  H149 2273   4.349   3.459   1.897
    6CHTO   C88 2274   4.354   3.638   2.007
    6CHTO   O58 2275   4.292   3.711   1.899
    6CHTO  H136 2276   4.358   3.751   1.845
    6CHTO   O51 2277   4.723   3.495   1.710
    6CHTO   C78 2278   4.786   3.638   1.746
    6CHTO  H150 2279   4.749   3.676   1.844
    6CHTO   C80 2280   4.749   3.739   1.636
    6CHTO  H152 2281   4.773   3.694   1.537
    6CHTO   O55 2282   4.606   3.758   1.643
    6CHTO  H134 2283   4.577   3.813   1.573
    6CHTO   C84 2284   4.827   3.876   1.651
    6CHTO  H156 2285   4.793   3.924   1.743
    6CHTO   N15 2286   4.800   3.970   1.538
    6CHTO  H143 2287   4.695   3.992   1.534
    6CHTO  H144 2288   4.853   4.062   1.553
    6CHTO   C87 2289   4.979   3.847   1.665
    6CHTO  H159 2290   5.017   3.804   1.573
    6CHTO   O53 2291   5.000   3.750   1.783
    6CHTO   C82 2292   4.939   3.623   1.758
    6CHTO  H154 2293   4.980   3.579   1.667
    6CHTO   C89 2294   4.973   3.526   1.873
    6CHTO   O59 2295   5.114   3.502   1.883
    6CHTO  H137 2296   5.156   3.577   1.921
    6CHTO   O45 2297   5.062   3.982   1.700
    6CHTO   C67 2298   5.202   3.973   1.666
    6CHTO  H124 2299   5.234   3.869   1.666
    6CHTO   C65 2300   5.229   4.036   1.526
    6CHTO  H122 2301   5.154   3.993   1.459
    6CHTO   O44 2302   5.360   3.998   1.480
    6CHTO  H102 2303   5.372   4.026   1.391
    6CHTO   C63 2304   5.198   4.190   1.531
    6CHTO  H120 2305   5.094   4.203   1.559
    6CHTO   N11 2306   5.201   4.260   1.398
    6CHTO  H108 2307   5.302   4.264   1.361
    6CHTO  H109 2308   5.139   4.209   1.328
    6CHTO   C61 2309   5.283   4.261   1.644
    6CHTO  H118 2310   5.233   4.358   1.658
    6CHTO   O40 2311   5.274   4.191   1.772
    6CHTO   C68 2312   5.286   4.045   1.779
    6CHTO  H125 2313   5.242   4.014   1.877
    6CHTO   C72 2314   5.435   4.002   1.782
    6CHTO   O48 2315   5.454   3.861   1.798
    6CHTO  H105 2316   5.545   3.841   1.794
    6CHTO   O38 2317   5.423   4.281   1.614
    6CHTO   C55 2318   5.479   4.410   1.653
    6CHTO  H112 2319   5.405   4.470   1.706
    6CHTO   C56 2320   5.534   4.485   1.524
    6CHTO  H113 2321   5.600   4.414   1.470
    6CHTO   O42 2322   5.424   4.511   1.435
    6CHTO  H100 2323   5.455   4.547   1.354
    6CHTO   C57 2324   5.612   4.618   1.560
    6CHTO  H114 2325   5.538   4.689   1.595
    6CHTO   N10 2326   5.681   4.680   1.444
    6CHTO  H106 2327   5.613   4.748   1.394
    6CHTO  H107 2328   5.768   4.735   1.475
    6CHTO   C58 2329   5.713   4.592   1.675
    6CHTO  H115 2330   5.799   4.532   1.637
    6CHTO   O37 2331   5.651   4.522   1.785
    6CHTO   C59 2332   5.597   4.393   1.754
    6CHTO  H116 2333   5.675   4.329   1.712
    6CHTO   C70 2334   5.550   4.332   1.886
    6CHTO   O46 2335   5.658   4.304   1.976
    6CHTO  H103 2336   5.710   4.233   1.942
    6CHTO   O39 2337   5.763   4.734   1.740
    6CHTO   C60 2338   5.905   4.746   1.757
    6CHTO  H117 2339   5.956   4.656   1.722
    6CHTO   C62 2340   5.960   4.866   1.673
    6CHTO  H119 2341   5.936   4.842   1.567
    6CHTO   O43 2342   5.890   4.986   1.710
    6CHTO  H101 2343   5.918   5.057   1.656
    6CHTO   C66 2344   6.120   4.877   1.690
    6CHTO  H123 2345   6.165   4.784   1.656
    6CHTO   N12 2346   6.179   4.983   1.603
    6CHTO  H110 2347   6.102   5.034   1.546
    6CHTO  H111 2348   6.237   5.053   1.661
    6CHTO   C69 2349   6.157   4.894   1.840
    6CHTO  H126 2350   6.117   4.990   1.879
    6CHTO   O41 2351   6.094   4.772   1.922
    6CHTO   C64 2352   5.942   4.764   1.907
    6CHTO  H121 2353   5.897   4.859   1.942
    6CHTO   C71 2354   5.885   4.652   1.997
    6CHTO   O47 2355   5.934   4.522   1.960
    6CHTO  H104 2356   5.896   4.457   2.016
    6CHTO   O34 2357   6.317   4.892   1.863
    6CHTO   C49 2358   6.444   4.984   1.844
    6CHTO   H91 2359   6.417   5.063   1.773
    6CHTO   C47 2360   6.559   4.898   1.787
    6CHTO   H89 2361   6.642   4.968   1.764
    6CHTO   O33 2362   6.513   4.839   1.664
    6CHTO   H70 2363   6.583   4.791   1.624
    6CHTO   C45 2364   6.604   4.791   1.898
    6CHTO   H87 2365   6.517   4.728   1.923
    6CHTO    N8 2366   6.711   4.701   1.847
    6CHTO   H75 2367   6.678   4.652   1.756
    6CHTO   H76 2368   6.801   4.758   1.827
    6CHTO   C43 2369   6.644   4.864   2.037
    6CHTO   H85 2370   6.655   4.784   2.110
    6CHTO   O29 2371   6.541   4.957   2.076
    6CHTO   C50 2372   6.488   5.050   1.978
    6CHTO   H92 2373   6.400   5.097   2.022
    6CHTO   C54 2374   6.584   5.170   1.951
    6CHTO   O36 2375   6.613   5.244   2.070
    6CHTO   H72 2376   6.536   5.292   2.097
    6CHTO   O27 2377   6.771   4.932   2.033
    6CHTO   C37 2378   6.885   4.927   2.121
    6CHTO   H79 2379   6.887   4.831   2.174
    6CHTO   C38 2380   7.017   4.938   2.039
    6CHTO   H80 2381   7.010   5.026   1.974
    6CHTO   O31 2382   7.027   4.820   1.956
    6CHTO   H68 2383   6.962   4.823   1.888
    6CHTO   C39 2384   7.144   4.951   2.132
    6CHTO   H81 2385   7.156   4.856   2.184
    6CHTO    N7 2386   7.271   4.976   2.056
    6CHTO   H73 2387   7.355   4.983   2.124
    6CHTO   H74 2388   7.263   5.068   1.999
    6CHTO   C40 2389   7.121   5.062   2.242
    6CHTO   H82 2390   7.124   5.162   2.197
    6CHTO   O26 2391   6.997   5.038   2.311
    6CHTO   C41 2392   6.879   5.042   2.226
    6CHTO   H83 2393   6.876   5.139   2.173
    6CHTO   C52 2394   6.756   5.036   2.319
    6CHTO   O35 2395   6.750   4.913   2.403
    6CHTO   H71 2396   6.742   4.838   2.349
    6CHTO   O28 2397   7.220   5.055   2.347
    6CHTO   C42 2398   7.235   5.163   2.444
    6CHTO   H84 2399   7.139   5.215   2.446
    6CHTO   C44 2400   7.342   5.272   2.409
    6CHTO   H86 2401   7.439   5.223   2.398
    6CHTO   O32 2402   7.306   5.328   2.281
    6CHTO   H69 2403   7.318   5.264   2.213
    6CHTO   C48 2404   7.355   5.383   2.521
    6CHTO   H90 2405   7.263   5.443   2.520
    6CHTO    N9 2406   7.467   5.480   2.490
    6CHTO   H77 2407   7.474   5.554   2.569
    6CHTO   H78 2408   7.449   5.528   2.395
    6CHTO   C51 2409   7.370   5.317   2.663
    6CHTO   H93 2410   7.465   5.263   2.665
    6CHTO   O30 2411   7.259   5.228   2.684
    6CHTO   C46 2412   7.260   5.110   2.588
    6CHTO   H88 2413   7.358   5.062   2.591
    6CHTO   C53 2414   7.152   5.010   2.632
    6CHTO   O72 2415   7.185   4.952   2.758
    6CHTO  H199 2416   7.126   4.882   2.777
    6CHTO   O22 2417   7.371   5.417   2.768
    6CHTO   C31 2418   7.289   5.422   0.009
    6CHTO   H59 2419   7.187   5.390   2.862
    6CHTO   C29 2420   7.335   5.329   0.123
    6CHTO   H57 2421   7.441   5.353   0.143
    6CHTO   O21 2422   7.333   5.193   0.076
    6CHTO   H37 2423   7.245   5.164   0.061
    6CHTO   C27 2424   7.252   5.348   0.256
    6CHTO   H55 2425   7.149   5.314   0.238
    6CHTO    N5 2426   7.307   5.269   0.370
    6CHTO   H43 2427   7.332   5.332   0.454
    6CHTO   H44 2428   7.237   5.193   0.400
    6CHTO   C25 2429   7.243   5.502   0.290
    6CHTO   H53 2430   7.344   5.539   0.312
    6CHTO   O17 2431   7.189   5.575   0.176
    6CHTO   C32 2432   7.274   5.569   0.060
    6CHTO   H60 2433   7.373   5.607   0.086
    6CHTO   C36 2434   7.215   5.660   2.832
    6CHTO   O25 2435   7.216   5.798   2.870
    6CHTO   H40 2436   7.157   5.812   0.059
    6CHTO   O15 2437   7.151   5.528   0.417
    6CHTO   C19 2438   7.040   5.603   0.472
    6CHTO   H47 2439   7.035   5.570   0.577
    6CHTO   C20 2440   7.059   5.758   0.470
    6CHTO   H48 2441   7.077   5.796   0.368
    6CHTO   O19 2442   7.175   5.787   0.550
    6CHTO   H35 2443   7.253   5.758   0.506
    6CHTO   C21 2444   6.932   5.834   0.527
    6CHTO   H49 2445   6.923   5.812   0.634
    6CHTO    N4 2446   6.943   5.982   0.516
    6CHTO   H41 2447   7.029   6.017   0.571
    6CHTO   H42 2448   6.953   6.010   0.412
    6CHTO   C22 2449   6.804   5.779   0.458
    6CHTO   H50 2450   6.809   5.805   0.352
    6CHTO   O14 2451   6.797   5.636   0.473
    6CHTO   C23 2452   6.903   5.564   0.408
    6CHTO   H51 2453   6.900   5.589   0.301
    6CHTO   C34 2454   6.876   5.414   0.425
    6CHTO   O23 2455   6.753   5.375   0.364
    6CHTO   H38 2456   6.681   5.410   0.413
    6CHTO   O16 2457   6.682   5.826   0.519
    6CHTO   C24 2458   6.566   5.857   0.410
    6CHTO   H52 2459   6.595   5.826   0.309
    6CHTO   C26 2460   6.539   6.009   0.410
    6CHTO   H54 2461   6.511   6.039   0.514
    6CHTO   O20 2462   6.659   6.079   0.374
    6CHTO   H36 2463   6.723   6.071   0.442
    6CHTO   C30 2464   6.422   6.047   0.314
    6CHTO   H58 2465   6.455   6.034   0.211
    6CHTO    N6 2466   6.381   6.190   0.327
    6CHTO   H45 2467   6.436   6.240   0.405
    6CHTO   H46 2468   6.397   6.242   0.234
    6CHTO   C33 2469   6.299   5.951   0.332
    6CHTO   H61 2470   6.246   5.976   0.425
    6CHTO   O18 2471   6.341   5.814   0.339
    6CHTO   C28 2472   6.434   5.782   0.443
    6CHTO   H56 2473   6.398   5.816   0.540
    6CHTO   C35 2474   6.452   5.628   0.445
    6CHTO   O24 2475   6.524   5.581   0.560
    6CHTO   H39 2476   6.614   5.606   0.554
    6CHTO    O9 2477   6.204   5.972   0.225
    6CHTO   C13 2478   6.053   5.933   0.260
    6CHTO   H26 2479   6.036   5.953   0.368
    6CHTO   C11 2480   6.028   5.781   0.224
    6CHTO   H24 2481   6.095   5.720   0.286
    6CHTO    O8 2482   6.061   5.758   0.086
    6CHTO    H3 2483   6.051   5.667   0.065
    6CHTO    C9 2484   5.880   5.748   0.262
    6CHTO   H22 2485   5.874   5.766   0.371
    6CHTO    N2 2486   5.850   5.604   0.249
    6CHTO   H10 2487   5.754   5.583   0.293
    6CHTO   H11 2488   5.850   5.576   0.144
    6CHTO    C7 2489   5.779   5.849   0.191
    6CHTO   H20 2490   5.727   5.896   0.277
    6CHTO    O4 2491   5.846   5.952   0.115
    6CHTO   C14 2492   5.948   6.026   0.183
    6CHTO   H27 2493   5.898   6.092   0.258
    6CHTO   C18 2494   6.013   6.120   0.078
    6CHTO   O13 2495   6.067   6.047   2.849
    6CHTO    H7 2496   5.997   6.009   2.799
    6CHTO    O2 2497   5.667   5.778   0.092
    6CHTO    C1 2498   5.536   5.836   0.103
    6CHTO   H14 2499   5.539   5.926   0.169
    6CHTO    C2 2500   5.429   5.735   0.161
    6CHTO   H15 2501   5.435   5.645   0.099
    6CHTO    O6 2502   5.466   5.702   0.296
    6CHTO    H1 2503   5.411   5.634   0.329
    6CHTO    C3 2504   5.281   5.798   0.155
    6CHTO   H16 2505   5.275   5.880   0.229
    6CHTO    N1 2506   5.175   5.698   0.193
    6CHTO    H8 2507   5.178   5.614   0.126
    6CHTO    H9 2508   5.191   5.664   0.295
    6CHTO    C4 2509   5.253   5.865   0.015
    6CHTO   H17 2510   5.239   5.786   2.822
    6CHTO    O1 2511   5.361   5.951   2.860
    6CHTO    C5 2512   5.488   5.886   2.846
    6CHTO   H18 2513   5.479   5.799   2.780
    6CHTO   C16 2514   5.586   5.986   2.781
    6CHTO   O11 2515   5.542   6.022   2.650
    6CHTO    H5 2516   5.467   6.078   2.655
    6CHTO    O3 2517   5.136   5.950   0.021
    6CHTO    C6 2518   5.068   6.000   2.782
    6CHTO   H19 2519   4.985   6.066   2.811
    6CHTO    C8 2520   5.160   6.085   2.689
    6CHTO   H21 2521   5.241   6.022   2.652
    6CHTO    O7 2522   5.213   6.193   2.768
    6CHTO    H2 2523   5.276   6.242   2.718
    6CHTO   C12 2524   5.077   6.139   2.565
    6CHTO   H25 2525   5.005   6.213   2.605
    6CHTO    N3 2526   5.165   6.213   2.468
    6CHTO   H12 2527   5.211   6.297   2.517
    6CHTO   H13 2528   5.106   6.247   2.384
    6CHTO   C15 2529   4.996   6.022   2.497
    6CHTO   H28 2530   5.060   5.958   2.435
    6CHTO   O10 2531   4.881   6.074   2.414
    6CHTO    H4 2532   4.914   6.127   2.344
    6CHTO    O5 2533   4.925   5.942   2.593
    6CHTO   C10 2534   5.005   5.885   2.697
    6CHTO   H23 2535   5.084   5.825   2.652
    6CHTO   C17 2536   4.917   5.791   2.781
    6CHTO   O12 2537   4.874   5.679   2.703
    6CHTO    H6 2538   4.821   5.623   2.756
    7CHTO  H203 2539   4.565   0.949   0.598
    7CHTO   O82 2540   4.575   0.893   0.523
    7CHTO  C123 2541   4.672   0.947   0.431
    7CHTO  H227 2542   4.683   0.877   0.347
    7CHTO   O77 2543   4.611   1.071   0.385
    7CHTO  C118 2544   4.686   1.138   0.282
    7CHTO  H222 2545   4.701   1.070   0.197
    7CHTO  C125 2546   4.603   1.262   0.233
    7CHTO   O84 2547   4.480   1.222   0.171
    7CHTO  H205 2548   4.422   1.186   0.236
    7CHTO  C114 2549   4.823   1.181   0.338
    7CHTO  H218 2550   4.807   1.253   0.418
    7CHTO  C116 2551   4.902   1.061   0.398
    7CHTO  H220 2552   4.937   0.995   0.315
    7CHTO   O79 2553   5.020   1.111   0.463
    7CHTO  H201 2554   5.072   1.039   0.495
    7CHTO  C120 2555   4.811   0.977   0.498
    7CHTO  H224 2556   4.797   1.041   0.588
    7CHTO   N21 2557   4.879   0.853   0.544
    7CHTO  H211 2558   4.937   0.872   0.633
    7CHTO  H212 2559   4.941   0.812   0.466
    7CHTO   O75 2560   4.888   1.247   0.227
    7CHTO  C112 2561   5.016   1.346   0.264
    7CHTO  H216 2562   5.104   1.283   0.284
    7CHTO   O73 2563   4.979   1.425   0.378
    7CHTO  C113 2564   5.086   1.508   0.426
    7CHTO  H217 2565   5.175   1.445   0.447
    7CHTO  C124 2566   5.040   1.569   0.559
    7CHTO   O83 2567   5.141   1.645   0.627
    7CHTO  H204 2568   5.104   1.683   0.705
    7CHTO  C109 2569   5.121   1.615   0.318
    7CHTO  H213 2570   5.033   1.680   0.308
    7CHTO  C110 2571   5.154   1.546   0.181
    7CHTO  H214 2572   5.251   1.498   0.190
    7CHTO   O78 2573   5.167   1.647   0.080
    7CHTO  H200 2574   5.087   1.695   0.069
    7CHTO  C111 2575   5.046   1.441   0.142
    7CHTO  H215 2576   4.952   1.494   0.118
    7CHTO   N19 2577   5.083   1.362   0.021
    7CHTO  H207 2578   5.097   1.428   2.819
    7CHTO  H208 2579   5.004   1.292   2.880
    7CHTO   O74 2580   5.234   1.695   0.363
    7CHTO  C115 2581   5.235   1.842   0.313
    7CHTO  H219 2582   5.150   1.863   0.247
    7CHTO   O76 2583   5.219   1.946   0.436
    7CHTO  C122 2584   5.334   1.944   0.523
    7CHTO  H226 2585   5.345   1.843   0.562
    7CHTO  C126 2586   5.305   2.035   0.647
    7CHTO   O85 2587   5.205   1.979   0.732
    7CHTO  H206 2588   5.121   1.983   0.690
    7CHTO  C121 2589   5.463   1.986   0.443
    7CHTO  H225 2590   5.445   2.083   0.392
    7CHTO   O81 2591   5.577   2.003   0.528
    7CHTO  H202 2592   5.595   1.924   0.575
    7CHTO  C119 2593   5.488   1.875   0.336
    7CHTO  H223 2594   5.578   1.903   0.281
    7CHTO  C117 2595   5.369   1.863   0.232
    7CHTO  H221 2596   5.374   1.777   0.166
    7CHTO   N20 2597   5.358   1.982   0.140
    7CHTO  H209 2598   5.342   2.072   0.197
    7CHTO  H210 2599   5.449   1.990   0.081
    7CHTO   O80 2600   5.533   1.739   0.402
    7CHTO  C103 2601   5.543   1.609   0.317
    7CHTO  H190 2602   5.449   1.588   0.267
    7CHTO  C101 2603   5.659   1.602   0.211
    7CHTO  H188 2604   5.752   1.632   0.259
    7CHTO   O68 2605   5.630   1.704   0.096
    7CHTO  H168 2606   5.551   1.680   0.051
    7CHTO   C99 2607   5.677   1.453   0.154
    7CHTO  H186 2608   5.586   1.427   0.096
    7CHTO   N17 2609   5.794   1.438   0.061
    7CHTO  H174 2610   5.795   1.339   0.019
    7CHTO  H175 2611   5.886   1.458   0.114
    7CHTO   C97 2612   5.683   1.351   0.272
    7CHTO  H184 2613   5.778   1.369   0.325
    7CHTO   O64 2614   5.569   1.367   0.358
    7CHTO  C104 2615   5.565   1.495   0.423
    7CHTO  H191 2616   5.658   1.513   0.477
    7CHTO  C108 2617   5.455   1.493   0.530
    7CHTO   O71 2618   5.484   1.399   0.635
    7CHTO  H171 2619   5.556   1.430   0.686
    7CHTO   O62 2620   5.681   1.210   0.235
    7CHTO   C91 2621   5.591   1.154   0.136
    7CHTO  H178 2622   5.587   1.223   0.052
    7CHTO   C92 2623   5.443   1.142   0.189
    7CHTO  H179 2624   5.409   1.237   0.232
    7CHTO   O66 2625   5.358   1.120   0.075
    7CHTO  H166 2626   5.358   1.196   0.019
    7CHTO   C93 2627   5.422   1.021   0.288
    7CHTO  H180 2628   5.315   0.994   0.283
    7CHTO   N16 2629   5.447   1.055   0.430
    7CHTO  H172 2630   5.548   1.090   0.442
    7CHTO  H173 2631   5.376   1.130   0.462
    7CHTO   C94 2632   5.507   0.895   0.243
    7CHTO  H181 2633   5.598   0.884   0.301
    7CHTO   O61 2634   5.548   0.906   0.105
    7CHTO   C95 2635   5.642   1.013   0.082
    7CHTO  H182 2636   5.736   0.988   0.131
    7CHTO  C106 2637   5.673   1.016   2.810
    7CHTO   O69 2638   5.778   1.108   2.779
    7CHTO  H169 2639   5.750   1.196   2.798
    7CHTO   O63 2640   5.419   0.768   0.254
    7CHTO   C96 2641   5.471   0.667   0.361
    7CHTO  H183 2642   5.486   0.723   0.454
    7CHTO   C98 2643   5.606   0.596   0.326
    7CHTO  H185 2644   5.683   0.670   0.301
    7CHTO   O67 2645   5.654   0.529   0.443
    7CHTO  H167 2646   5.593   0.463   0.471
    7CHTO  C102 2647   5.589   0.487   0.208
    7CHTO  H189 2648   5.671   0.416   0.221
    7CHTO   N18 2649   5.605   0.541   0.070
    7CHTO  H176 2650   5.704   0.582   0.059
    7CHTO  H177 2651   5.532   0.618   0.051
    7CHTO  C105 2652   5.454   0.410   0.224
    7CHTO  H192 2653   5.380   0.448   0.152
    7CHTO   O65 2654   5.397   0.425   0.355
    7CHTO  C100 2655   5.355   0.560   0.384
    7CHTO  H187 2656   5.272   0.583   0.317
    7CHTO  C107 2657   5.297   0.565   0.528
    7CHTO   O70 2658   5.392   0.523   0.626
    7CHTO  H170 2659   5.355   0.530   0.712
    7CHTO   O57 2660   5.488   0.257   0.192
    7CHTO   C85 2661   5.380   0.170   0.153
    7CHTO  H157 2662   5.317   0.230   0.083
    7CHTO   C83 2663   5.288   0.140   0.276
    7CHTO  H155 2664   5.248   0.234   0.313
    7CHTO   O56 2665   5.368   0.085   0.382
    7CHTO  H135 2666   5.317   0.074   0.460
    7CHTO   C81 2667   5.169   0.050   0.231
    7CHTO  H153 2668   5.116   0.102   0.151
    7CHTO   N14 2669   5.067   0.031   0.337
    7CHTO  H141 2670   5.100   0.072   0.430
    7CHTO  H142 2671   4.975   0.077   0.309
    7CHTO   C79 2672   5.223   9.914   0.172
    7CHTO  H151 2673   5.137   9.861   0.130
    7CHTO   O52 2674   5.315   9.940   0.060
    7CHTO   C86 2675   5.425   0.033   0.089
    7CHTO  H158 2676   5.491   9.976   0.158
    7CHTO   C90 2677   5.507   0.057   2.842
    7CHTO   O60 2678   5.572   9.938   2.797
    7CHTO  H138 2679   5.508   9.875   2.770
    7CHTO   O50 2680   5.286   9.828   0.269
    7CHTO   C73 2681   5.337   9.695   0.254
    7CHTO  H145 2682   5.410   9.691   0.172
    7CHTO   C74 2683   5.222   9.594   0.222
    7CHTO  H146 2684   5.172   9.629   0.130
    7CHTO   O54 2685   5.282   9.467   0.189
    7CHTO  H133 2686   5.324   9.430   0.264
    7CHTO   C75 2687   5.122   9.588   0.344
    7CHTO  H147 2688   5.077   9.687   0.358
    7CHTO   N13 2689   5.007   9.496   0.322
    7CHTO  H139 2690   4.941   9.499   0.408
    7CHTO  H140 2691   5.042   9.395   0.310
    7CHTO   C76 2692   5.203   9.553   0.478
    7CHTO  H148 2693   5.241   9.451   0.469
    7CHTO   O49 2694   5.315   9.646   0.497
    7CHTO   C77 2695   5.407   9.651   0.387
    7CHTO  H149 2696   5.452   9.552   0.372
    7CHTO   C88 2697   5.523   9.744   0.425
    7CHTO   O58 2698   5.631   9.743   0.320
    7CHTO  H136 2699   5.597   9.777   0.239
    7CHTO   O51 2700   5.110   9.573   0.607
    7CHTO   C78 2701   5.166   9.500   0.736
    7CHTO  H150 2702   5.274   9.476   0.724
    7CHTO   C80 2703   5.088   9.370   0.763
    7CHTO  H152 2704   4.979   9.393   0.765
    7CHTO   O55 2705   5.114   9.282   0.652
    7CHTO  H134 2706   5.072   9.314   0.574
    7CHTO   C84 2707   5.130   9.305   0.902
    7CHTO  H156 2708   5.237   9.282   0.897
    7CHTO   N15 2709   5.058   9.177   0.931
    7CHTO  H143 2710   5.078   9.105   0.854
    7CHTO  H144 2711   5.091   9.137   1.025
    7CHTO   C87 2712   5.107   9.411   1.012
    7CHTO  H159 2713   5.002   9.439   1.014
    7CHTO   O53 2714   5.196   9.535   0.977
    7CHTO   C82 2715   5.154   9.598   0.855
    7CHTO  H154 2716   5.051   9.632   0.865
    7CHTO   C89 2717   5.242   9.725   0.832
    7CHTO   O59 2718   5.381   9.694   0.822
    7CHTO  H137 2719   5.430   9.773   0.811
    7CHTO   O45 2720   5.151   9.357   1.167
    7CHTO   C67 2721   5.157   9.463   1.264
    7CHTO  H124 2722   5.212   9.546   1.220
    7CHTO   C65 2723   5.014   9.514   1.306
    7CHTO  H122 2724   4.948   9.428   1.300
    7CHTO   O44 2725   4.975   9.610   1.207
    7CHTO  H102 2726   4.886   9.636   1.220
    7CHTO   C63 2727   5.009   9.561   1.457
    7CHTO  H120 2728   5.003   9.472   1.521
    7CHTO   N11 2729   4.885   9.634   1.500
    7CHTO  H108 2730   4.886   9.648   1.606
    7CHTO  H109 2731   4.880   9.728   1.451
    7CHTO   C61 2732   5.144   9.632   1.492
    7CHTO  H118 2733   5.139   9.662   1.599
    7CHTO   O40 2734   5.257   9.540   1.481
    7CHTO   C68 2735   5.240   9.423   1.393
    7CHTO  H125 2736   5.184   9.345   1.450
    7CHTO   C72 2737   5.378   9.364   1.359
    7CHTO   O48 2738   5.445   9.312   1.474
    7CHTO  H105 2739   5.526   9.273   1.449
    7CHTO   O38 2740   5.169   9.748   1.409
    7CHTO   C55 2741   5.249   9.853   1.465
    7CHTO  H112 2742   5.303   9.817   1.553
    7CHTO   C56 2743   5.156   9.978   1.500
    7CHTO  H113 2744   5.099   0.002   1.409
    7CHTO   O42 2745   5.059   9.939   1.599
    7CHTO  H100 2746   5.101   9.914   1.679
    7CHTO   C57 2747   5.241   0.103   1.547
    7CHTO  H114 2748   5.281   0.077   1.646
    7CHTO   N10 2749   5.160   0.226   1.564
    7CHTO  H106 2750   5.204   0.290   1.640
    7CHTO  H107 2751   5.153   0.281   1.471
    7CHTO   C58 2752   5.360   0.127   1.451
    7CHTO  H115 2753   5.322   0.166   1.354
    7CHTO   O37 2754   5.434   0.005   1.428
    7CHTO   C59 2755   5.359   9.901   1.365
    7CHTO  H116 2756   5.315   9.937   1.272
    7CHTO   C70 2757   5.459   9.790   1.331
    7CHTO   O46 2758   5.408   9.696   1.237
    7CHTO  H103 2759   5.472   9.628   1.223
    7CHTO   O39 2760   5.468   0.232   1.516
    7CHTO   C60 2761   5.572   0.272   1.424
    7CHTO  H117 2762   5.578   0.201   1.342
    7CHTO   C62 2763   5.543   0.412   1.364
    7CHTO  H119 2764   5.445   0.404   1.313
    7CHTO   O43 2765   5.533   0.509   1.470
    7CHTO  H101 2766   5.512   0.593   1.434
    7CHTO   C66 2767   5.657   0.445   1.256
    7CHTO  H123 2768   5.657   0.367   1.180
    7CHTO   N12 2769   5.631   0.572   1.183
    7CHTO  H110 2770   5.536   0.566   1.131
    7CHTO  H111 2771   5.631   0.655   1.252
    7CHTO   C69 2772   5.797   0.445   1.323
    7CHTO  H126 2773   5.805   0.532   1.393
    7CHTO   O41 2774   5.820   0.312   1.403
    7CHTO   C64 2775   5.710   0.270   1.495
    7CHTO  H121 2776   5.706   0.340   1.582
    7CHTO   C71 2777   5.746   0.130   1.551
    7CHTO   O47 2778   5.752   0.032   1.447
    7CHTO  H104 2779   5.772   9.948   1.485
    7CHTO   O34 2780   5.912   0.459   1.216
    7CHTO   C49 2781   6.035   0.386   1.154
    7CHTO   H91 2782   6.091   0.461   1.100
    7CHTO   C47 2783   5.988   0.276   1.057
    7CHTO   H89 2784   6.079   0.242   1.002
    7CHTO   O33 2785   5.898   0.336   0.962
    7CHTO   H70 2786   5.876   0.275   0.895
    7CHTO   C45 2787   5.923   0.152   1.137
    7CHTO   H87 2788   5.839   0.191   1.196
    7CHTO    N8 2789   5.871   0.046   1.047
    7CHTO   H75 2790   5.898   0.066   0.944
    7CHTO   H76 2791   5.763   0.040   1.055
    7CHTO   C43 2792   6.028   0.094   1.246
    7CHTO   H85 2793   5.971   0.024   1.308
    7CHTO   O29 2794   6.084   0.201   1.326
    7CHTO   C50 2795   6.127   0.325   1.264
    7CHTO   H92 2796   6.129   0.398   1.346
    7CHTO   C54 2797   6.276   0.322   1.221
    7CHTO   O36 2798   6.304   0.231   1.113
    7CHTO   H72 2799   6.293   0.143   1.142
    7CHTO   O27 2800   6.134   0.016   1.189
    7CHTO   C37 2801   6.193   9.888   1.215
    7CHTO   H79 2802   6.160   9.852   1.314
    7CHTO   C38 2803   6.147   9.782   1.109
    7CHTO   H80 2804   6.145   9.831   1.011
    7CHTO   O31 2805   6.012   9.745   1.142
    7CHTO   H68 2806   5.977   9.688   1.077
    7CHTO   C39 2807   6.241   9.655   1.100
    7CHTO   H81 2808   6.230   9.598   1.192
    7CHTO    N7 2809   6.207   9.563   0.986
    7CHTO   H73 2810   6.213   9.617   0.893
    7CHTO   H74 2811   6.108   9.523   1.001
    7CHTO   C40 2812   6.390   9.705   1.095
    7CHTO   H82 2813   6.400   9.769   1.007
    7CHTO   O26 2814   6.415   9.776   1.217
    7CHTO   C41 2815   6.348   9.905   1.219
    7CHTO   H83 2816   6.380   9.964   1.132
    7CHTO   C52 2817   6.393   9.979   1.346
    7CHTO   O35 2818   6.539   0.012   1.344
    7CHTO   H71 2819   6.589   9.932   1.346
    7CHTO   O28 2820   6.491   9.601   1.086
    7CHTO   C42 2821   6.625   9.636   1.038
    7CHTO   H84 2822   6.681   9.543   1.050
    7CHTO   C44 2823   6.702   9.744   1.123
    7CHTO   H86 2824   6.638   9.831   1.134
    7CHTO   O32 2825   6.723   9.687   1.253
    7CHTO   H69 2826   6.641   9.680   1.299
    7CHTO   C48 2827   6.837   9.793   1.056
    7CHTO   H90 2828   6.908   9.711   1.053
    7CHTO    N9 2829   6.902   9.902   1.137
    7CHTO   H77 2830   6.837   9.988   1.143
    7CHTO   H78 2831   6.997   9.930   1.092
    7CHTO   C51 2832   6.803   9.838   0.909
    7CHTO   H93 2833   6.720   9.909   0.916
    7CHTO   O30 2834   6.765   9.719   0.837
    7CHTO   C46 2835   6.626   9.670   0.884
    7CHTO   H88 2836   6.555   9.750   0.865
    7CHTO   C53 2837   6.587   9.547   0.799
    7CHTO   O72 2838   6.679   9.438   0.813
    7CHTO  H199 2839   6.762   9.461   0.774
    7CHTO   O22 2840   6.913   9.898   0.838
    7CHTO   C31 2841   6.902   9.967   0.707
    7CHTO   H59 2842   6.975   0.051   0.711
    7CHTO   C29 2843   6.945   9.877   0.589
    7CHTO   H57 2844   6.885   9.785   0.595
    7CHTO   O21 2845   7.082   9.838   0.613
    7CHTO   H37 2846   7.111   9.778   0.547
    7CHTO   C27 2847   6.924   9.944   0.448
    7CHTO   H55 2848   6.990   0.032   0.441
    7CHTO    N5 2849   6.956   9.853   0.335
    7CHTO   H43 2850   6.888   9.769   0.334
    7CHTO   H44 2851   6.950   9.907   0.241
    7CHTO   C25 2852   6.776   9.997   0.441
    7CHTO   H53 2853   6.708   9.912   0.456
    7CHTO   O17 2854   6.756   0.093   0.548
    7CHTO   C32 2855   6.762   0.034   0.679
    7CHTO   H60 2856   6.684   9.959   0.688
    7CHTO   C36 2857   6.733   0.149   0.780
    7CHTO   O25 2858   6.598   0.196   0.768
    7CHTO   H40 2859   6.539   0.130   0.798
    7CHTO   O15 2860   6.741   0.065   0.305
    7CHTO   C19 2861   6.702   0.188   0.236
    7CHTO   H47 2862   6.742   0.268   0.300
    7CHTO   C20 2863   6.763   0.200   0.094
    7CHTO   H48 2864   6.732   0.116   0.029
    7CHTO   O19 2865   6.907   0.192   0.109
    7CHTO   H35 2866   6.932   0.105   0.135
    7CHTO   C21 2867   6.722   0.335   0.023
    7CHTO   H49 2868   6.770   0.418   0.077
    7CHTO    N4 2869   6.770   0.344   2.764
    7CHTO   H41 2870   6.878   0.334   2.762
    7CHTO   H42 2871   6.742   0.439   2.721
    7CHTO   C22 2872   6.569   0.357   0.035
    7CHTO   H50 2873   6.519   0.282   2.855
    7CHTO   O14 2874   6.525   0.340   0.171
    7CHTO   C23 2875   6.548   0.210   0.228
    7CHTO   H51 2876   6.499   0.136   0.163
    7CHTO   C34 2877   6.479   0.209   0.364
    7CHTO   O23 2878   6.468   0.077   0.418
    7CHTO   H38 2879   6.426   0.081   0.502
    7CHTO   O16 2880   6.531   0.489   2.871
    7CHTO   C24 2881   6.462   0.600   0.090
    7CHTO   H52 2882   6.461   0.567   0.194
    7CHTO   C26 2883   6.317   0.626   0.043
    7CHTO   H54 2884   6.320   0.651   2.816
    7CHTO   O20 2885   6.243   0.504   0.059
    7CHTO   H36 2886   6.273   0.439   2.880
    7CHTO   C30 2887   6.252   0.746   0.119
    7CHTO   H58 2888   6.236   0.719   0.225
    7CHTO    N6 2889   6.118   0.780   0.064
    7CHTO   H45 2890   6.052   0.694   0.072
    7CHTO   H46 2891   6.075   0.862   0.119
    7CHTO   C33 2892   6.349   0.869   0.119
    7CHTO   H61 2893   6.360   0.906   0.015
    7CHTO   O18 2894   6.478   0.829   0.167
    7CHTO   C28 2895   6.545   0.731   0.086
    7CHTO   H56 2896   6.553   0.765   2.865
    7CHTO   C35 2897   6.686   0.708   0.143
    7CHTO   O24 2898   6.766   0.826   0.140
    7CHTO   H39 2899   6.849   0.809   0.180
    7CHTO    O9 2900   6.297   0.981   0.194
    7CHTO   C13 2901   6.343   1.129   0.137
    7CHTO   H26 2902   6.310   1.135   0.031
    7CHTO   C11 2903   6.501   1.148   0.150
    7CHTO   H24 2904   6.549   1.095   0.067
    7CHTO    O8 2905   6.549   1.091   0.274
    7CHTO    H3 2906   6.537   0.998   0.273
    7CHTO    C9 2907   6.532   1.300   0.141
    7CHTO   H22 2908   6.477   1.336   0.052
    7CHTO    N2 2909   6.674   1.332   0.112
    7CHTO   H10 2910   6.684   1.377   0.015
    7CHTO   H11 2911   6.736   1.244   0.120
    7CHTO    C7 2912   6.471   1.371   0.268
    7CHTO   H20 2913   6.455   1.476   0.235
    7CHTO    O4 2914   6.346   1.313   0.311
    7CHTO   C14 2915   6.265   1.247   0.211
    7CHTO   H27 2916   6.237   1.323   0.135
    7CHTO   C18 2917   6.134   1.197   0.274
    7CHTO   O13 2918   6.056   1.302   0.330
    7CHTO    H7 2919   6.023   1.358   0.262
    7CHTO    O2 2920   6.575   1.369   0.399
    7CHTO    C1 2921   6.579   1.485   0.485
    7CHTO   H14 2922   6.630   1.455   0.579
    7CHTO    C2 2923   6.438   1.548   0.524
    7CHTO   H15 2924   6.388   1.576   0.430
    7CHTO    O6 2925   6.361   1.448   0.592
    7CHTO    H1 2926   6.402   1.423   0.673
    7CHTO    C3 2927   6.461   1.679   0.614
    7CHTO   H16 2928   6.515   1.652   0.706
    7CHTO    N1 2929   6.332   1.745   0.656
    7CHTO    H8 2930   6.353   1.832   0.716
    7CHTO    H9 2931   6.273   1.675   0.713
    7CHTO    C4 2932   6.557   1.776   0.536
    7CHTO   H17 2933   6.508   1.807   0.443
    7CHTO    O1 2934   6.681   1.710   0.506
    7CHTO    C5 2935   6.670   1.595   0.421
    7CHTO   H18 2936   6.627   1.624   0.325
    7CHTO   C16 2937   6.814   1.542   0.398
    7CHTO   O11 2938   6.894   1.638   0.327
    7CHTO    H5 2939   6.915   1.710   0.384
    7CHTO    O3 2940   6.593   1.892   0.613
    7CHTO    C6 2941   6.644   2.005   0.534
    7CHTO   H19 2942   6.681   1.975   0.436
    7CHTO    C8 2943   6.532   2.112   0.514
    7CHTO   H21 2944   6.486   2.132   0.610
    7CHTO    O7 2945   6.434   2.053   0.426
    7CHTO    H2 2946   6.361   2.111   0.417
    7CHTO   C12 2947   6.591   2.247   0.455
    7CHTO   H25 2948   6.623   2.224   0.351
    7CHTO    N3 2949   6.485   2.353   0.446
    7CHTO   H12 2950   6.446   2.375   0.544
    7CHTO   H13 2951   6.525   2.442   0.400
    7CHTO   C15 2952   6.717   2.291   0.537
    7CHTO   H28 2953   6.691   2.324   0.638
    7CHTO   O10 2954   6.797   2.403   0.468
    7CHTO    H4 2955   6.746   2.482   0.466
    7CHTO    O5 2956   6.814   2.185   0.543
    7CHTO   C10 2957   6.766   2.068   0.610
    7CHTO   H23 2958   6.735   2.096   0.711
    7CHTO   C17 2959   6.883   1.969   0.625
    7CHTO   O12 2960   6.937   1.929   0.498
    7CHTO    H6 2961   6.875   1.877   0.451
    8CHTO  H203 2962   7.476   7.652   1.957
    8CHTO   O82 2963   7.394   7.639   2.000
    8CHTO  C123 2964   7.294   7.598   1.906
    8CHTO  H227 2965   7.327   7.505   1.857
    8CHTO   O77 2966   7.178   7.572   1.991
    8CHTO  C118 2967   7.064   7.520   1.921
    8CHTO  H222 2968   7.092   7.429   1.866
    8CHTO  C125 2969   6.953   7.485   2.026
    8CHTO   O84 2970   6.996   7.382   2.115
    8CHTO  H205 2971   6.926   7.360   2.174
    8CHTO  C114 2972   7.014   7.627   1.821
    8CHTO  H218 2973   6.986   7.716   1.877
    8CHTO  C116 2974   7.128   7.669   1.723
    8CHTO  H220 2975   7.149   7.584   1.655
    8CHTO   O79 2976   7.078   7.776   1.640
    8CHTO  H201 2977   7.013   7.744   1.581
    8CHTO  C120 2978   7.259   7.710   1.800
    8CHTO  H224 2979   7.236   7.806   1.853
    8CHTO   N21 2980   7.372   7.736   1.707
    8CHTO  H211 2981   7.371   7.840   1.677
    8CHTO  H212 2982   7.466   7.711   1.753
    8CHTO   O75 2983   6.900   7.568   1.755
    8CHTO  C112 2984   6.779   7.673   1.744
    8CHTO  H216 2985   6.821   7.773   1.727
    8CHTO   O73 2986   6.705   7.666   1.867
    8CHTO  C113 2987   6.609   7.772   1.880
    8CHTO  H217 2988   6.661   7.869   1.871
    8CHTO  C124 2989   6.548   7.765   2.020
    8CHTO   O83 2990   6.644   7.786   2.124
    8CHTO  H204 2991   6.676   7.874   2.121
    8CHTO  C109 2992   6.500   7.759   1.770
    8CHTO  H213 2993   6.439   7.671   1.795
    8CHTO  C110 2994   6.563   7.742   1.627
    8CHTO  H214 2995   6.599   7.839   1.594
    8CHTO   O78 2996   6.459   7.705   1.535
    8CHTO  H200 2997   6.422   7.621   1.558
    8CHTO  C111 2998   6.681   7.639   1.626
    8CHTO  H215 2999   6.640   7.539   1.642
    8CHTO   N19 3000   6.753   7.636   1.496
    8CHTO  H207 3001   6.796   7.732   1.474
    8CHTO  H208 3002   6.831   7.561   1.499
    8CHTO   O74 3003   6.416   7.878   1.773
    8CHTO  C115 3004   6.262   7.854   1.756
    8CHTO  H219 3005   6.240   7.749   1.733
    8CHTO   O76 3006   6.181   7.887   1.891
    8CHTO  C122 3007   6.188   8.026   1.927
    8CHTO  H226 3008   6.293   8.050   1.948
    8CHTO  C126 3009   6.112   8.046   2.063
    8CHTO   O85 3010   5.973   8.011   2.056
    8CHTO  H206 3011   5.965   7.918   2.046
    8CHTO  C121 3012   6.133   8.118   1.812
    8CHTO  H225 3013   6.028   8.090   1.792
    8CHTO   O81 3014   6.133   8.256   1.850
    8CHTO  H202 3015   6.090   8.308   1.785
    8CHTO  C119 3016   6.218   8.093   1.682
    8CHTO  H223 3017   6.175   8.155   1.603
    8CHTO  C117 3018   6.214   7.943   1.635
    8CHTO  H221 3019   6.282   7.918   1.554
    8CHTO   N20 3020   6.079   7.900   1.585
    8CHTO  H209 3021   6.006   7.908   1.664
    8CHTO  H210 3022   6.083   7.798   1.550
    8CHTO   O80 3023   6.366   8.147   1.689
    8CHTO  C103 3024   6.395   8.299   1.665
    8CHTO  H190 3025   6.303   8.353   1.644
    8CHTO  C101 3026   6.474   8.371   1.780
    8CHTO  H188 3027   6.564   8.314   1.802
    8CHTO   O68 3028   6.387   8.375   1.909
    8CHTO  H168 3029   6.310   8.427   1.894
    8CHTO   C99 3030   6.518   8.518   1.734
    8CHTO  H186 3031   6.427   8.580   1.720
    8CHTO   N17 3032   6.604   8.591   1.835
    8CHTO  H174 3033   6.551   8.676   1.875
    8CHTO  H175 3034   6.636   8.524   1.913
    8CHTO   C97 3035   6.588   8.514   1.595
    8CHTO  H184 3036   6.687   8.468   1.607
    8CHTO   O64 3037   6.507   8.443   1.499
    8CHTO  C104 3038   6.483   8.306   1.533
    8CHTO  H191 3039   6.577   8.254   1.551
    8CHTO  C108 3040   6.417   8.234   1.415
    8CHTO   O71 3041   6.504   8.231   1.301
    8CHTO  H171 3042   6.463   8.184   1.232
    8CHTO   O62 3043   6.597   8.646   1.537
    8CHTO   C91 3044   6.725   8.690   1.490
    8CHTO  H178 3045   6.802   8.625   1.532
    8CHTO   C92 3046   6.752   8.832   1.550
    8CHTO  H179 3047   6.741   8.828   1.659
    8CHTO   O66 3048   6.890   8.866   1.528
    8CHTO  H166 3049   6.910   8.868   1.436
    8CHTO   C93 3050   6.661   8.944   1.485
    8CHTO  H180 3051   6.715   9.040   1.496
    8CHTO   N16 3052   6.532   8.964   1.555
    8CHTO  H172 3053   6.475   8.872   1.555
    8CHTO  H173 3054   6.550   8.998   1.656
    8CHTO   C94 3055   6.639   8.917   1.331
    8CHTO  H181 3056   6.543   8.868   1.312
    8CHTO   O61 3057   6.739   8.828   1.278
    8CHTO   C95 3058   6.737   8.694   1.331
    8CHTO  H182 3059   6.652   8.641   1.289
    8CHTO  C106 3060   6.865   8.618   1.283
    8CHTO   O69 3061   6.867   8.602   1.141
    8CHTO  H169 3062   6.800   8.542   1.114
    8CHTO   O63 3063   6.646   9.054   1.254
    8CHTO   C96 3064   6.564   9.054   1.120
    8CHTO  H183 3065   6.508   8.961   1.113
    8CHTO   C98 3066   6.650   9.066   0.992
    8CHTO  H185 3067   6.707   9.161   0.993
    8CHTO   O67 3068   6.748   8.961   0.994
    8CHTO  H167 3069   6.811   8.976   1.062
    8CHTO  C102 3070   6.557   9.057   0.862
    8CHTO  H189 3071   6.518   8.954   0.863
    8CHTO   N18 3072   6.626   9.072   0.731
    8CHTO  H176 3073   6.732   9.087   0.745
    8CHTO  H177 3074   6.609   8.985   0.670
    8CHTO  C105 3075   6.435   9.153   0.876
    8CHTO  H192 3076   6.437   9.227   0.795
    8CHTO   O65 3077   6.428   9.232   0.997
    8CHTO  C100 3078   6.460   9.172   1.125
    8CHTO  H187 3079   6.505   9.253   1.186
    8CHTO  C107 3080   6.331   9.128   1.198
    8CHTO   O70 3081   6.247   9.240   1.229
    8CHTO  H170 3082   6.168   9.210   1.270
    8CHTO   O57 3083   6.306   9.057   0.855
    8CHTO   C85 3084   6.187   9.113   0.798
    8CHTO  H157 3085   6.217   9.207   0.748
    8CHTO   C83 3086   6.091   9.156   0.913
    8CHTO  H155 3087   6.141   9.233   0.972
    8CHTO   O56 3088   6.066   9.045   1.002
    8CHTO  H135 3089   6.146   9.019   1.044
    8CHTO   C81 3090   5.962   9.218   0.852
    8CHTO  H153 3091   5.992   9.299   0.785
    8CHTO   N14 3092   5.875   9.283   0.953
    8CHTO  H141 3093   5.931   9.357   1.006
    8CHTO  H142 3094   5.792   9.330   0.905
    8CHTO   C79 3095   5.888   9.108   0.765
    8CHTO  H151 3096   5.803   9.157   0.717
    8CHTO   O52 3097   5.976   9.063   0.657
    8CHTO   C86 3098   6.109   9.016   0.700
    8CHTO  H158 3099   6.089   8.918   0.749
    8CHTO   C90 3100   6.196   8.986   0.576
    8CHTO   O60 3101   6.137   8.883   0.496
    8CHTO  H138 3102   6.179   8.880   0.412
    8CHTO   O50 3103   5.839   8.996   0.840
    8CHTO   C73 3104   5.737   8.895   0.840
    8CHTO  H145 3105   5.734   8.844   0.743
    8CHTO   C74 3106   5.597   8.956   0.870
    8CHTO  H146 3107   5.576   9.030   0.790
    8CHTO   O54 3108   5.498   8.852   0.855
    8CHTO  H133 3109   5.511   8.785   0.919
    8CHTO   C75 3110   5.597   9.022   1.013
    8CHTO  H147 3111   5.667   9.106   1.012
    8CHTO   N13 3112   5.467   9.083   1.052
    8CHTO  H139 3113   5.475   9.128   1.150
    8CHTO  H140 3114   5.390   9.006   1.056
    8CHTO   C76 3115   5.651   8.917   1.121
    8CHTO  H148 3116   5.574   8.841   1.136
    8CHTO   O49 3117   5.776   8.854   1.080
    8CHTO   C77 3118   5.770   8.790   0.951
    8CHTO  H149 3119   5.692   8.713   0.951
    8CHTO   C88 3120   5.902   8.717   0.927
    8CHTO   O58 3121   5.895   8.634   0.805
    8CHTO  H136 3122   5.976   8.587   0.794
    8CHTO   O51 3123   5.689   8.993   1.255
    8CHTO   C78 3124   5.706   8.896   1.375
    8CHTO  H150 3125   5.724   8.792   1.341
    8CHTO   C80 3126   5.579   8.897   1.463
    8CHTO  H152 3127   5.558   9.003   1.493
    8CHTO   O55 3128   5.470   8.850   1.381
    8CHTO  H134 3129   5.451   8.913   1.314
    8CHTO   C84 3130   5.595   8.808   1.592
    8CHTO  H156 3131   5.601   8.704   1.559
    8CHTO   N15 3132   5.477   8.817   1.684
    8CHTO  H143 3133   5.491   8.753   1.769
    8CHTO  H144 3134   5.388   8.787   1.632
    8CHTO   C87 3135   5.727   8.841   1.665
    8CHTO  H159 3136   5.719   8.938   1.714
    8CHTO   O53 3137   5.846   8.843   1.564
    8CHTO   C82 3138   5.828   8.938   1.459
    8CHTO  H154 3139   5.814   9.038   1.500
    8CHTO   C89 3140   5.955   8.943   1.371
    8CHTO   O59 3141   6.068   8.991   1.444
    8CHTO  H137 3142   6.057   9.082   1.464
    8CHTO   O45 3143   5.758   8.722   1.781
    8CHTO   C67 3144   5.860   8.743   1.880
    8CHTO  H124 3145   5.844   8.669   1.958
    8CHTO   C65 3146   6.005   8.723   1.821
    8CHTO  H122 3147   5.999   8.742   1.714
    8CHTO   O44 3148   6.036   8.583   1.840
    8CHTO  H102 3149   6.115   8.562   1.793
    8CHTO   C63 3150   6.109   8.828   1.875
    8CHTO  H120 3151   6.088   8.924   1.827
    8CHTO   N11 3152   6.252   8.805   1.836
    8CHTO  H108 3153   6.288   8.717   1.884
    8CHTO  H109 3154   6.312   8.889   1.866
    8CHTO   C61 3155   6.085   8.849   2.028
    8CHTO  H118 3156   6.155   8.926   2.063
    8CHTO   O40 3157   5.951   8.898   2.058
    8CHTO   C68 3158   5.848   8.883   1.955
    8CHTO  H125 3159   5.859   8.967   1.882
    8CHTO   C72 3160   5.709   8.900   2.022
    8CHTO   O48 3161   5.689   9.032   2.075
    8CHTO  H105 3162   5.681   9.093   2.004
    8CHTO   O38 3163   6.101   8.726   2.102
    8CHTO   C55 3164   6.192   8.727   2.213
    8CHTO  H112 3165   6.279   8.792   2.191
    8CHTO   C56 3166   6.237   8.577   2.241
    8CHTO  H113 3167   6.242   8.528   2.142
    8CHTO   O42 3168   6.370   8.569   2.294
    8CHTO  H100 3169   6.432   8.600   2.231
    8CHTO   C57 3170   6.138   8.499   2.339
    8CHTO  H114 3171   6.181   8.503   2.439
    8CHTO   N10 3172   6.128   8.354   2.306
    8CHTO  H106 3173   6.139   8.338   2.200
    8CHTO  H107 3174   6.032   8.314   2.338
    8CHTO   C58 3175   6.000   8.570   2.342
    8CHTO  H115 3176   5.956   8.567   2.239
    8CHTO   O37 3177   6.012   8.707   2.385
    8CHTO   C59 3178   6.119   8.790   2.336
    8CHTO  H116 3179   6.077   8.886   2.308
    8CHTO   C70 3180   6.219   8.819   2.450
    8CHTO   O46 3181   6.160   8.890   2.559
    8CHTO  H103 3182   6.100   8.835   2.604
    8CHTO   O39 3183   5.898   8.499   2.448
    8CHTO   C60 3184   5.760   8.502   2.405
    8CHTO  H117 3185   5.749   8.563   2.315
    8CHTO   C62 3186   5.709   8.358   2.371
    8CHTO  H119 3187   5.776   8.320   2.290
    8CHTO   O43 3188   5.725   8.273   2.487
    8CHTO  H101 3189   5.699   8.185   2.466
    8CHTO   C66 3190   5.558   8.366   2.317
    8CHTO  H123 3191   5.556   8.432   2.231
    8CHTO   N12 3192   5.508   8.235   2.269
    8CHTO  H110 3193   5.571   8.198   2.190
    8CHTO  H111 3194   5.406   8.244   2.236
    8CHTO   C69 3195   5.467   8.428   2.426
    8CHTO  H126 3196   5.462   8.361   2.514
    8CHTO   O41 3197   5.526   8.569   2.471
    8CHTO   C64 3198   5.671   8.566   2.515
    8CHTO  H121 3199   5.682   8.507   2.608
    8CHTO   C71 3200   5.717   8.711   2.544
    8CHTO   O47 3201   5.648   8.764   2.657
    8CHTO  H104 3202   5.671   8.855   2.669
    8CHTO   O34 3203   5.322   8.450   2.371
    8CHTO   C49 3204   5.212   8.546   2.412
    8CHTO   H91 3205   5.208   8.545   2.521
    8CHTO   C47 3206   5.078   8.496   2.353
    8CHTO   H89 3207   4.999   8.560   2.396
    8CHTO   O33 3208   5.058   8.361   2.398
    8CHTO   H70 3209   4.974   8.330   2.369
    8CHTO   C45 3210   5.080   8.511   2.192
    8CHTO   H87 3211   5.162   8.449   2.154
    8CHTO    N8 3212   4.953   8.464   2.131
    8CHTO   H75 3213   4.960   8.468   2.024
    8CHTO   H76 3214   4.933   8.362   2.162
    8CHTO   C43 3215   5.118   8.662   2.148
    8CHTO   H85 3216   5.137   8.657   2.041
    8CHTO   O29 3217   5.235   8.707   2.220
    8CHTO   C50 3218   5.240   8.690   2.363
    8CHTO   H92 3219   5.342   8.717   2.395
    8CHTO   C54 3220   5.152   8.794   2.439
    8CHTO   O36 3221   5.199   8.928   2.417
    8CHTO   H72 3222   5.144   8.988   2.464
    8CHTO   O27 3223   5.012   8.758   2.165
    8CHTO   C37 3224   4.965   8.861   2.076
    8CHTO   H79 3225   4.979   8.831   1.971
    8CHTO   C38 3226   4.812   8.886   2.096
    8CHTO   H80 3227   4.794   8.907   2.202
    8CHTO   O31 3228   4.745   8.763   2.061
    8CHTO   H68 3229   4.653   8.770   2.081
    8CHTO   C39 3230   4.760   9.007   2.008
    8CHTO   H81 3231   4.770   8.978   1.903
    8CHTO    N7 3232   4.615   9.039   2.033
    8CHTO   H73 3233   4.603   9.139   2.072
    8CHTO   H74 3234   4.558   9.027   1.942
    8CHTO   C40 3235   4.852   9.134   2.031
    8CHTO   H82 3236   4.833   9.174   2.130
    8CHTO   O26 3237   4.990   9.099   2.013
    8CHTO   C41 3238   5.042   8.995   2.100
    8CHTO   H83 3239   5.030   9.026   2.205
    8CHTO   C52 3240   5.194   8.986   2.070
    8CHTO   O35 3241   5.224   8.943   1.930
    8CHTO   H71 3242   5.194   8.855   1.917
    8CHTO   O28 3243   4.831   9.244   1.939
    8CHTO   C42 3244   4.829   9.254   1.791
    8CHTO   H84 3245   4.845   9.360   1.775
    8CHTO   C44 3246   4.692   9.221   1.724
    8CHTO   H86 3247   4.670   9.115   1.738
    8CHTO   O32 3248   4.593   9.299   1.792
    8CHTO   H69 3249   4.507   9.277   1.761
    8CHTO   C48 3250   4.696   9.250   1.568
    8CHTO   H90 3251   4.719   9.355   1.554
    8CHTO    N9 3252   4.565   9.226   1.499
    8CHTO   H77 3253   4.489   9.193   1.569
    8CHTO   H78 3254   4.532   9.316   1.448
    8CHTO   C51 3255   4.812   9.164   1.506
    8CHTO   H93 3256   4.790   9.058   1.524
    8CHTO   O30 3257   4.934   9.204   1.568
    8CHTO   C46 3258   4.944   9.178   1.715
    8CHTO   H88 3259   4.936   9.071   1.734
    8CHTO   C53 3260   5.085   9.229   1.753
    8CHTO   O72 3261   5.187   9.150   1.690
    8CHTO  H199 3262   5.272   9.180   1.718
    8CHTO   O22 3263   4.836   9.190   1.367
    8CHTO   C31 3264   4.890   9.084   1.279
    8CHTO   H59 3265   4.927   9.136   1.188
    8CHTO   C29 3266   5.010   9.004   1.336
    8CHTO   H57 3267   4.979   8.963   1.433
    8CHTO   O21 3268   5.117   9.097   1.363
    8CHTO   H37 3269   5.153   9.130   1.283
    8CHTO   C27 3270   5.056   8.885   1.242
    8CHTO   H55 3271   5.104   8.927   1.153
    8CHTO    N5 3272   5.154   8.797   1.311
    8CHTO   H43 3273   5.191   8.722   1.242
    8CHTO   H44 3274   5.109   8.750   1.396
    8CHTO   C25 3275   4.932   8.802   1.193
    8CHTO   H53 3276   4.887   8.749   1.279
    8CHTO   O17 3277   4.831   8.891   1.136
    8CHTO   C32 3278   4.779   8.987   1.230
    8CHTO   H60 3279   4.737   8.934   1.316
    8CHTO   C36 3280   4.662   9.063   1.161
    8CHTO   O25 3281   4.706   9.134   1.045
    8CHTO   H40 3282   4.634   9.179   1.007
    8CHTO   O15 3283   4.973   8.694   1.080
    8CHTO   C19 3284   5.015   8.693   0.941
    8CHTO   H47 3285   4.993   8.591   0.908
    8CHTO   C20 3286   4.934   8.792   0.850
    8CHTO   H48 3287   4.940   8.895   0.887
    8CHTO   O19 3288   4.796   8.750   0.856
    8CHTO   H35 3289   4.761   8.766   0.942
    8CHTO   C21 3290   4.986   8.791   0.700
    8CHTO   H49 3291   4.963   8.694   0.656
    8CHTO    N4 3292   4.918   8.893   0.615
    8CHTO   H41 3293   4.870   8.846   0.531
    8CHTO   H42 3294   4.987   8.968   0.580
    8CHTO   C22 3295   5.141   8.804   0.698
    8CHTO   H50 3296   5.168   8.904   0.733
    8CHTO   O14 3297   5.202   8.705   0.782
    8CHTO   C23 3298   5.168   8.714   0.921
    8CHTO   H51 3299   5.202   8.812   0.957
    8CHTO   C34 3300   5.247   8.606   0.997
    8CHTO   O23 3301   5.388   8.629   0.996
    8CHTO   H38 3302   5.408   8.703   1.051
    8CHTO   O16 3303   5.193   8.781   0.565
    8CHTO   C24 3304   5.346   8.826   0.548
    8CHTO   H52 3305   5.397   8.834   0.643
    8CHTO   C26 3306   5.352   8.963   0.477
    8CHTO   H54 3307   5.293   8.956   0.382
    8CHTO   O20 3308   5.290   9.061   0.561
    8CHTO   H36 3309   5.336   9.070   0.642
    8CHTO   C30 3310   5.500   9.002   0.441
    8CHTO   H58 3311   5.555   9.024   0.534
    8CHTO    N6 3312   5.505   9.126   0.359
    8CHTO   H45 3313   5.454   9.111   0.265
    8CHTO   H46 3314   5.607   9.154   0.340
    8CHTO   C33 3315   5.574   8.883   0.373
    8CHTO   H61 3316   5.531   8.866   0.272
    8CHTO   O18 3317   5.557   8.763   0.451
    8CHTO   C28 3318   5.422   8.720   0.465
    8CHTO   H56 3319   5.374   8.710   0.367
    8CHTO   C35 3320   5.421   8.581   0.534
    8CHTO   O24 3321   5.483   8.579   0.663
    8CHTO   H39 3322   5.576   8.587   0.653
    8CHTO    O9 3323   5.714   8.912   0.351
    8CHTO   C13 3324   5.786   8.813   0.241
    8CHTO   H26 3325   5.716   8.801   0.156
    8CHTO   C11 3326   5.822   8.674   0.309
    8CHTO   H24 3327   5.727   8.624   0.335
    8CHTO    O8 3328   5.894   8.698   0.432
    8CHTO    H3 3329   5.909   8.617   0.476
    8CHTO    C9 3330   5.898   8.588   0.206
    8CHTO   H22 3331   5.829   8.578   0.120
    8CHTO    N2 3332   5.917   8.448   0.253
    8CHTO   H10 3333   5.857   8.380   0.194
    8CHTO   H11 3334   6.021   8.420   0.247
    8CHTO    C7 3335   6.028   8.664   0.154
    8CHTO   H20 3336   6.013   8.666   0.044
    8CHTO    O4 3337   6.035   8.800   0.201
    8CHTO   C14 3338   5.917   8.880   0.178
    8CHTO   H27 3339   5.903   8.889   0.069
    8CHTO   C18 3340   5.944   9.023   0.232
    8CHTO   O13 3341   6.052   9.086   0.162
    8CHTO    H7 3342   6.070   9.169   0.201
    8CHTO    O2 3343   6.173   8.590   0.189
    8CHTO    C1 3344   6.256   8.570   0.074
    8CHTO   H14 3345   6.211   8.617   2.866
    8CHTO    C2 3346   6.282   8.417   0.042
    8CHTO   H15 3347   6.328   8.374   0.132
    8CHTO    O6 3348   6.155   8.353   0.018
    8CHTO    H1 3349   6.167   8.261   0.008
    8CHTO    C3 3350   6.380   8.401   2.798
    8CHTO   H16 3351   6.323   8.433   2.709
    8CHTO    N1 3352   6.422   8.259   2.774
    8CHTO    H8 3353   6.389   8.226   2.676
    8CHTO    H9 3354   6.383   8.193   2.850
    8CHTO    C4 3355   6.503   8.499   2.807
    8CHTO   H17 3356   6.578   8.456   2.875
    8CHTO    O1 3357   6.467   8.631   2.851
    8CHTO    C5 3358   6.395   8.638   0.093
    8CHTO   H18 3359   6.449   8.586   0.172
    8CHTO   C16 3360   6.386   8.789   0.130
    8CHTO   O11 3361   6.342   8.808   0.265
    8CHTO    H5 3362   6.408   8.778   0.325
    8CHTO    O3 3363   6.559   8.517   2.676
    8CHTO    C6 3364   6.694   8.573   2.669
    8CHTO   H19 3365   6.728   8.615   2.764
    8CHTO    C8 3366   6.796   8.462   2.626
    8CHTO   H21 3367   6.758   8.415   2.534
    8CHTO    O7 3368   6.800   8.364   2.731
    8CHTO    H2 3369   6.719   8.316   2.735
    8CHTO   C12 3370   6.938   8.524   2.597
    8CHTO   H25 3371   6.978   8.559   2.695
    8CHTO    N3 3372   7.034   8.420   2.546
    8CHTO   H12 3373   7.132   8.464   2.531
    8CHTO   H13 3374   6.998   8.378   2.453
    8CHTO   C15 3375   6.925   8.648   2.501
    8CHTO   H28 3376   6.897   8.618   2.400
    8CHTO   O10 3377   7.053   8.734   2.496
    8CHTO    H4 3378   7.122   8.684   2.457
    8CHTO    O5 3379   6.830   8.742   2.553
    8CHTO   C10 3380   6.697   8.689   2.565
    8CHTO   H23 3381   6.666   8.651   2.468
    8CHTO   C17 3382   6.601   8.804   2.600
    8CHTO   O12 3383   6.635   8.867   2.724
    8CHTO    H6 3384   6.572   8.935   2.743
    9CHTO  H203 3385   6.652   3.296   1.906
    9CHTO   O82 3386   6.577   3.250   1.939
    9CHTO  C123 3387   6.524   3.162   1.839
    9CHTO  H227 3388   6.438   3.108   1.883
    9CHTO   O77 3389   6.477   3.253   1.735
    9CHTO  C118 3390   6.407   3.186   1.628
    9CHTO  H222 3391   6.325   3.125   1.670
    9CHTO  C125 3392   6.347   3.295   1.533
    9CHTO   O84 3393   6.248   3.374   1.600
    9CHTO  H205 3394   6.289   3.428   1.665
    9CHTO  C114 3395   6.505   3.093   1.554
    9CHTO  H218 3396   6.586   3.154   1.513
    9CHTO  C116 3397   6.569   2.990   1.652
    9CHTO  H220 3398   6.491   2.917   1.683
    9CHTO   O79 3399   6.669   2.915   1.580
    9CHTO  H201 3400   6.629   2.859   1.516
    9CHTO  C120 3401   6.630   3.062   1.779
    9CHTO  H224 3402   6.719   3.118   1.743
    9CHTO   N21 3403   6.679   2.965   1.880
    9CHTO  H211 3404   6.600   2.936   1.948
    9CHTO  H212 3405   6.722   2.877   1.833
    9CHTO   O75 3406   6.428   3.033   1.449
    9CHTO  C112 3407   6.506   3.022   1.304
    9CHTO  H216 3408   6.601   2.967   1.319
    9CHTO   O73 3409   6.531   3.156   1.258
    9CHTO  C113 3410   6.601   3.165   1.133
    9CHTO  H217 3411   6.700   3.115   1.145
    9CHTO  C124 3412   6.629   3.314   1.106
    9CHTO   O83 3413   6.511   3.394   1.098
    9CHTO  H204 3414   6.535   3.484   1.086
    9CHTO  C109 3415   6.520   3.099   1.019
    9CHTO  H213 3416   6.427   3.158   1.008
    9CHTO  C110 3417   6.480   2.953   1.058
    9CHTO  H214 3418   6.569   2.890   1.055
    9CHTO   O78 3419   6.390   2.904   0.956
    9CHTO  H200 3420   6.373   2.813   0.970
    9CHTO  C111 3421   6.416   2.947   1.199
    9CHTO  H215 3422   6.319   2.998   1.196
    9CHTO   N19 3423   6.390   2.808   1.246
    9CHTO  H207 3424   6.322   2.759   1.178
    9CHTO  H208 3425   6.482   2.752   1.250
    9CHTO   O74 3426   6.593   3.107   0.891
    9CHTO  C115 3427   6.714   3.005   0.874
    9CHTO  H219 3428   6.754   2.973   0.970
    9CHTO   O76 3429   6.668   2.870   0.799
    9CHTO  C122 3430   6.626   2.894   0.664
    9CHTO  H226 3431   6.542   2.964   0.666
    9CHTO  C126 3432   6.569   2.760   0.604
    9CHTO   O85 3433   6.451   2.716   0.671
    9CHTO  H206 3434   6.422   2.635   0.633
    9CHTO  C121 3435   6.745   2.952   0.580
    9CHTO  H225 3436   6.830   2.879   0.586
    9CHTO   O81 3437   6.709   2.967   0.442
    9CHTO  H202 3438   6.785   2.989   0.391
    9CHTO  C119 3439   6.791   3.088   0.642
    9CHTO  H223 3440   6.882   3.115   0.587
    9CHTO  C117 3441   6.829   3.080   0.795
    9CHTO  H221 3442   6.838   3.176   0.846
    9CHTO   N20 3443   6.961   3.012   0.818
    9CHTO  H209 3444   7.040   3.066   0.766
    9CHTO  H210 3445   6.958   2.910   0.783
    9CHTO   O80 3446   6.698   3.207   0.607
    9CHTO  C103 3447   6.763   3.346   0.570
    9CHTO  H190 3448   6.846   3.367   0.637
    9CHTO  C101 3449   6.812   3.363   0.421
    9CHTO  H188 3450   6.728   3.347   0.354
    9CHTO   O68 3451   6.921   3.255   0.389
    9CHTO  H168 3452   6.996   3.268   0.444
    9CHTO   C99 3453   6.868   3.511   0.400
    9CHTO  H186 3454   6.957   3.525   0.465
    9CHTO   N17 3455   6.914   3.539   0.260
    9CHTO  H174 3456   6.830   3.537   0.192
    9CHTO  H175 3457   6.964   3.635   0.255
    9CHTO   C97 3458   6.764   3.617   0.448
    9CHTO  H184 3459   6.682   3.625   0.375
    9CHTO   O64 3460   6.716   3.586   0.580
    9CHTO  C104 3461   6.654   3.458   0.597
    9CHTO  H191 3462   6.570   3.444   0.529
    9CHTO  C108 3463   6.596   3.452   0.739
    9CHTO   O71 3464   6.501   3.346   0.754
    9CHTO  H171 3465   6.424   3.365   0.704
    9CHTO   O62 3466   6.826   3.745   0.473
    9CHTO   C91 3467   6.803   3.852   0.380
    9CHTO  H178 3468   6.820   3.813   0.279
    9CHTO   C92 3469   6.914   3.960   0.404
    9CHTO  H179 3470   7.013   3.912   0.409
    9CHTO   O66 3471   6.921   4.046   0.288
    9CHTO  H166 3472   6.839   4.091   0.276
    9CHTO   C93 3473   6.887   4.050   0.531
    9CHTO  H180 3474   6.949   4.141   0.519
    9CHTO   N16 3475   6.933   3.990   0.658
    9CHTO  H172 3476   7.040   3.972   0.655
    9CHTO  H173 3477   6.880   3.897   0.677
    9CHTO   C94 3478   6.735   4.094   0.538
    9CHTO  H181 3479   6.682   4.043   0.619
    9CHTO   O61 3480   6.664   4.061   0.417
    9CHTO   C95 3481   6.659   3.920   0.388
    9CHTO  H182 3482   6.602   3.870   0.467
    9CHTO  C106 3483   6.579   3.899   0.255
    9CHTO   O69 3484   6.443   3.943   0.270
    9CHTO  H169 3485   6.397   3.930   0.189
    9CHTO   O63 3486   6.729   4.248   0.557
    9CHTO   C96 3487   6.606   4.298   0.642
    9CHTO  H183 3488   6.590   4.227   0.723
    9CHTO   C98 3489   6.472   4.310   0.562
    9CHTO  H185 3490   6.492   4.363   0.468
    9CHTO   O67 3491   6.431   4.178   0.523
    9CHTO  H167 3492   6.413   4.125   0.599
    9CHTO  C102 3493   6.355   4.383   0.645
    9CHTO  H189 3494   6.326   4.312   0.724
    9CHTO   N18 3495   6.231   4.409   0.567
    9CHTO  H176 3496   6.158   4.457   0.630
    9CHTO  H177 3497   6.254   4.472   0.482
    9CHTO  C105 3498   6.412   4.511   0.712
    9CHTO  H192 3499   6.433   4.585   0.635
    9CHTO   O65 3500   6.532   4.485   0.786
    9CHTO  C100 3501   6.642   4.436   0.708
    9CHTO  H187 3502   6.665   4.510   0.629
    9CHTO  C107 3503   6.763   4.428   0.805
    9CHTO   O70 3504   6.887   4.408   0.736
    9CHTO  H170 3505   6.911   4.487   0.690
    9CHTO   O57 3506   6.303   4.563   0.816
    9CHTO   C85 3507   6.252   4.697   0.813
    9CHTO  H157 3508   6.199   4.708   0.717
    9CHTO   C83 3509   6.370   4.802   0.809
    9CHTO  H155 3510   6.423   4.789   0.715
    9CHTO   O56 3511   6.464   4.772   0.914
    9CHTO  H135 3512   6.505   4.689   0.898
    9CHTO   C81 3513   6.311   4.946   0.815
    9CHTO  H153 3514   6.243   4.958   0.731
    9CHTO   N14 3515   6.414   5.052   0.794
    9CHTO  H141 3516   6.466   5.035   0.702
    9CHTO  H142 3517   6.367   5.148   0.791
    9CHTO   C79 3518   6.230   4.964   0.948
    9CHTO  H151 3519   6.186   5.064   0.945
    9CHTO   O52 3520   6.118   4.869   0.950
    9CHTO   C86 3521   6.158   4.729   0.937
    9CHTO  H158 3522   6.209   4.706   1.032
    9CHTO   C90 3523   6.028   4.643   0.937
    9CHTO   O60 3524   6.054   4.502   0.937
    9CHTO  H138 3525   6.095   4.477   1.017
    9CHTO   O50 3526   6.308   4.950   1.067
    9CHTO   C73 3527   6.308   4.993   1.204
    9CHTO  H145 3528   6.205   4.997   1.242
    9CHTO   C74 3529   6.373   5.134   1.216
    9CHTO  H146 3530   6.316   5.202   1.151
    9CHTO   O54 3531   6.352   5.181   1.351
    9CHTO  H133 3532   6.384   5.268   1.360
    9CHTO   C75 3533   6.526   5.127   1.175
    9CHTO  H147 3534   6.532   5.097   1.069
    9CHTO   N13 3535   6.598   5.257   1.182
    9CHTO  H139 3536   6.532   5.336   1.215
    9CHTO  H140 3537   6.681   5.251   1.251
    9CHTO   C76 3538   6.597   5.012   1.260
    9CHTO  H148 3539   6.596   5.042   1.365
    9CHTO   O49 3540   6.526   4.885   1.245
    9CHTO   C77 3541   6.389   4.891   1.290
    9CHTO  H149 3542   6.386   4.921   1.394
    9CHTO   C88 3543   6.329   4.750   1.285
    9CHTO   O58 3544   6.407   4.657   1.369
    9CHTO  H136 3545   6.375   4.569   1.357
    9CHTO   O51 3546   6.743   4.979   1.208
    9CHTO   C78 3547   6.823   4.899   1.318
    9CHTO  H150 3548   6.754   4.855   1.394
    9CHTO   C80 3549   6.923   4.992   1.389
    9CHTO  H152 3550   6.991   5.037   1.313
    9CHTO   O55 3551   6.846   5.098   1.450
    9CHTO  H134 3552   6.903   5.161   1.489
    9CHTO   C84 3553   7.008   4.913   1.496
    9CHTO  H156 3554   6.940   4.881   1.575
    9CHTO   N15 3555   7.113   4.999   1.562
    9CHTO  H143 3556   7.067   5.081   1.612
    9CHTO  H144 3557   7.168   4.941   1.633
    9CHTO   C87 3558   7.071   4.786   1.432
    9CHTO  H159 3559   7.150   4.815   1.363
    9CHTO   O53 3560   6.962   4.704   1.356
    9CHTO   C82 3561   6.898   4.781   1.253
    9CHTO  H154 3562   6.973   4.817   1.183
    9CHTO   C89 3563   6.803   4.688   1.173
    9CHTO   O59 3564   6.704   4.626   1.255
    9CHTO  H137 3565   6.649   4.572   1.202
    9CHTO   O45 3566   7.132   4.691   1.548
    9CHTO   C67 3567   7.218   4.586   1.501
    9CHTO  H124 3568   7.164   4.528   1.425
    9CHTO   C65 3569   7.350   4.642   1.438
    9CHTO  H122 3570   7.356   4.747   1.466
    9CHTO   O44 3571   7.335   4.632   1.296
    9CHTO  H102 3572   7.407   4.674   1.253
    9CHTO   C63 3573   7.480   4.577   1.500
    9CHTO  H120 3574   7.490   4.610   1.603
    9CHTO   N11 3575   7.610   4.623   1.441
    9CHTO  H108 3576   7.619   4.590   1.340
    9CHTO  H109 3577   7.616   4.730   1.444
    9CHTO   C61 3578   7.461   4.421   1.504
    9CHTO  H118 3579   7.548   4.381   1.559
    9CHTO   O40 3580   7.342   4.380   1.578
    9CHTO   C68 3581   7.247   4.484   1.618
    9CHTO  H125 3582   7.288   4.538   1.706
    9CHTO   C72 3583   7.116   4.415   1.665
    9CHTO   O48 3584   7.135   4.331   1.779
    9CHTO  H105 3585   7.188   4.257   1.755
    9CHTO   O38 3586   7.452   4.363   1.372
    9CHTO   C55 3587   7.490   4.225   1.363
    9CHTO  H112 3588   7.493   4.179   1.463
    9CHTO   C56 3589   7.630   4.212   1.288
    9CHTO  H113 3590   7.621   4.267   1.194
    9CHTO   O42 3591   7.732   4.279   1.366
    9CHTO  H100 3592   7.714   4.371   1.371
    9CHTO   C57 3593   7.668   4.061   1.262
    9CHTO  H114 3594   7.694   4.019   1.359
    9CHTO   N10 3595   7.787   4.045   1.175
    9CHTO  H106 3596   7.838   3.953   1.198
    9CHTO  H107 3597   7.759   4.044   1.070
    9CHTO   C58 3598   7.546   3.981   1.206
    9CHTO  H115 3599   7.530   4.009   1.099
    9CHTO   O37 3600   7.426   4.006   1.281
    9CHTO   C59 3601   7.385   4.144   1.283
    9CHTO  H116 3602   7.377   4.181   1.181
    9CHTO   C70 3603   7.245   4.152   1.345
    9CHTO   O46 3604   7.238   4.100   1.479
    9CHTO  H103 3605   7.288   4.155   1.537
    9CHTO   O39 3606   7.577   3.821   1.218
    9CHTO   C60 3607   7.470   3.733   1.180
    9CHTO  H117 3608   7.375   3.787   1.178
    9CHTO   C62 3609   7.494   3.674   1.038
    9CHTO  H119 3610   7.495   3.762   0.969
    9CHTO   O43 3611   7.624   3.611   1.032
    9CHTO  H101 3612   7.627   3.538   1.090
    9CHTO   C66 3613   7.373   3.576   0.999
    9CHTO  H123 3614   7.279   3.631   1.008
    9CHTO   N12 3615   7.380   3.530   0.858
    9CHTO  H110 3616   7.472   3.475   0.841
    9CHTO  H111 3617   7.294   3.470   0.834
    9CHTO   C69 3618   7.369   3.459   1.101
    9CHTO  H126 3619   7.464   3.402   1.097
    9CHTO   O41 3620   7.350   3.519   1.244
    9CHTO   C64 3621   7.456   3.619   1.287
    9CHTO  H121 3622   7.554   3.568   1.299
    9CHTO   C71 3623   7.411   3.675   1.425
    9CHTO   O47 3624   7.511   3.758   1.485
    9CHTO  H104 3625   7.520   3.838   1.437
    9CHTO   O34 3626   7.250   3.359   1.072
    9CHTO   C49 3627   7.114   3.302   1.107
    9CHTO   H91 3628   7.099   3.217   1.042
    9CHTO   C47 3629   7.004   3.408   1.081
    9CHTO   H89 3630   6.908   3.355   1.094
    9CHTO   O33 3631   7.014   3.451   0.944
    9CHTO   H70 3632   7.094   3.499   0.930
    9CHTO   C45 3633   7.016   3.528   1.188
    9CHTO   H87 3634   7.116   3.572   1.178
    9CHTO    N8 3635   6.916   3.635   1.164
    9CHTO   H75 3636   6.926   3.673   1.063
    9CHTO   H76 3637   6.816   3.596   1.178
    9CHTO   C43 3638   7.009   3.469   1.338
    9CHTO   H85 3639   7.032   3.553   1.404
    9CHTO   O29 3640   7.105   3.361   1.354
    9CHTO   C50 3641   7.108   3.255   1.256
    9CHTO   H92 3642   7.200   3.198   1.275
    9CHTO   C54 3643   6.996   3.151   1.283
    9CHTO   O36 3644   7.004   3.038   1.196
    9CHTO   H72 3645   6.936   2.976   1.218
    9CHTO   O27 3646   6.878   3.423   1.377
    9CHTO   C37 3647   6.805   3.415   1.500
    9CHTO   H79 3648   6.735   3.330   1.496
    9CHTO   C38 3649   6.898   3.391   1.623
    9CHTO   H80 3650   6.982   3.463   1.618
    9CHTO   O31 3651   6.952   3.258   1.611
    9CHTO   H68 3652   7.015   3.242   1.678
    9CHTO   C39 3653   6.824   3.409   1.762
    9CHTO   H81 3654   6.754   3.326   1.772
    9CHTO    N7 3655   6.916   3.405   1.881
    9CHTO   H73 3656   6.889   3.323   1.947
    9CHTO   H74 3657   7.019   3.395   1.850
    9CHTO   C40 3658   6.738   3.541   1.762
    9CHTO   H82 3659   6.805   3.627   1.759
    9CHTO   O26 3660   6.651   3.538   1.647
    9CHTO   C41 3661   6.722   3.545   1.520
    9CHTO   H83 3662   6.789   3.632   1.520
    9CHTO   C52 3663   6.617   3.565   1.409
    9CHTO   O35 3664   6.543   3.691   1.424
    9CHTO   H71 3665   6.479   3.699   1.356
    9CHTO   O28 3666   6.653   3.554   1.878
    9CHTO   C42 3667   6.552   3.660   1.891
    9CHTO   H84 3668   6.533   3.663   1.998
    9CHTO   C44 3669   6.413   3.626   1.824
    9CHTO   H86 3670   6.431   3.591   1.722
    9CHTO   O32 3671   6.356   3.517   1.897
    9CHTO   H69 3672   6.407   3.438   1.884
    9CHTO   C48 3673   6.316   3.750   1.813
    9CHTO   H90 3674   6.285   3.780   1.914
    9CHTO    N9 3675   6.189   3.717   1.739
    9CHTO   H77 3676   6.125   3.804   1.735
    9CHTO   H78 3677   6.138   3.636   1.788
    9CHTO   C51 3678   6.397   3.867   1.748
    9CHTO   H93 3679   6.441   3.829   1.655
    9CHTO   O30 3680   6.498   3.903   1.843
    9CHTO   C46 3681   6.607   3.802   1.850
    9CHTO   H88 3682   6.655   3.797   1.753
    9CHTO   C53 3683   6.706   3.858   1.955
    9CHTO   O72 3684   6.824   3.778   1.968
    9CHTO  H199 3685   6.881   3.817   2.032
    9CHTO   O22 3686   6.322   3.987   1.723
    9CHTO   C31 3687   6.367   4.084   1.619
    9CHTO   H59 3688   6.290   4.163   1.617
    9CHTO   C29 3689   6.502   4.153   1.650
    9CHTO   H57 3690   6.578   4.074   1.660
    9CHTO   O21 3691   6.490   4.217   1.778
    9CHTO   H37 3692   6.574   4.249   1.806
    9CHTO   C27 3693   6.546   4.252   1.535
    9CHTO   H55 3694   6.474   4.335   1.530
    9CHTO    N5 3695   6.681   4.310   1.558
    9CHTO   H43 3696   6.705   4.380   1.480
    9CHTO   H44 3697   6.755   4.231   1.561
    9CHTO   C25 3698   6.539   4.175   1.398
    9CHTO   H53 3699   6.610   4.091   1.402
    9CHTO   O17 3700   6.405   4.124   1.379
    9CHTO   C32 3701   6.367   4.023   1.475
    9CHTO   H60 3702   6.439   3.942   1.471
    9CHTO   C36 3703   6.228   3.970   1.435
    9CHTO   O25 3704   6.232   3.904   1.307
    9CHTO   H40 3705   6.147   3.870   1.287
    9CHTO   O15 3706   6.575   4.268   1.272
    9CHTO   C19 3707   6.565   4.221   1.134
    9CHTO   H47 3708   6.620   4.297   1.077
    9CHTO   C20 3709   6.630   4.081   1.109
    9CHTO   H48 3710   6.588   4.004   1.175
    9CHTO   O19 3711   6.770   4.094   1.139
    9CHTO   H35 3712   6.783   4.105   1.231
    9CHTO   C21 3713   6.609   4.031   0.959
    9CHTO   H49 3714   6.668   4.094   0.893
    9CHTO    N4 3715   6.656   3.891   0.938
    9CHTO   H41 3716   6.735   3.888   0.864
    9CHTO   H42 3717   6.692   3.847   1.030
    9CHTO   C22 3718   6.460   4.049   0.921
    9CHTO   H50 3719   6.400   3.984   0.985
    9CHTO   O14 3720   6.421   4.186   0.941
    9CHTO   C23 3721   6.419   4.224   1.079
    9CHTO   H51 3722   6.354   4.152   1.132
    9CHTO   C34 3723   6.354   4.363   1.088
    9CHTO   O23 3724   6.320   4.397   1.223
    9CHTO   H38 3725   6.398   4.410   1.273
    9CHTO   O16 3726   6.432   4.026   0.781
    9CHTO   C24 3727   6.319   3.911   0.755
    9CHTO   H52 3728   6.306   3.846   0.842
    9CHTO   C26 3729   6.362   3.825   0.635
    9CHTO   H54 3730   6.378   3.893   0.547
    9CHTO   O20 3731   6.489   3.765   0.666
    9CHTO   H36 3732   6.481   3.705   0.738
    9CHTO   C30 3733   6.254   3.719   0.598
    9CHTO   H58 3734   6.249   3.643   0.678
    9CHTO    N6 3735   6.290   3.645   0.474
    9CHTO   H45 3736   6.213   3.572   0.451
    9CHTO   H46 3737   6.384   3.594   0.487
    9CHTO   C33 3738   6.111   3.783   0.590
    9CHTO   H61 3739   6.104   3.844   0.499
    9CHTO   O18 3740   6.086   3.868   0.704
    9CHTO   C28 3741   6.180   3.974   0.725
    9CHTO   H56 3742   6.189   4.036   0.636
    9CHTO   C35 3743   6.129   4.062   0.841
    9CHTO   O24 3744   6.123   3.993   0.967
    9CHTO   H39 3745   6.055   3.927   0.963
    9CHTO    O9 3746   6.010   3.681   0.578
    9CHTO   C13 3747   5.903   3.698   0.457
    9CHTO   H26 3748   5.960   3.722   0.364
    9CHTO   C11 3749   5.798   3.813   0.492
    9CHTO   H24 3750   5.850   3.910   0.485
    9CHTO    O8 3751   5.752   3.798   0.627
    9CHTO    H3 3752   5.707   3.716   0.638
    9CHTO    C9 3753   5.684   3.807   0.386
    9CHTO   H22 3754   5.734   3.813   0.288
    9CHTO    N2 3755   5.595   3.926   0.387
    9CHTO   H10 3756   5.539   3.928   0.479
    9CHTO   H11 3757   5.654   4.016   0.376
    9CHTO    C7 3758   5.610   3.666   0.395
    9CHTO   H20 3759   5.597   3.637   0.288
    9CHTO    O4 3760   5.689   3.566   0.463
    9CHTO   C14 3761   5.827   3.561   0.426
    9CHTO   H27 3762   5.833   3.541   0.316
    9CHTO   C18 3763   5.887   3.437   0.497
    9CHTO   O13 3764   6.022   3.415   0.457
    9CHTO    H7 3765   6.057   3.342   0.503
    9CHTO    O2 3766   5.460   3.673   0.467
    9CHTO    C1 3767   5.394   3.547   0.487
    9CHTO   H14 3768   5.469   3.468   0.509
    9CHTO    C2 3769   5.306   3.500   0.363
    9CHTO   H15 3770   5.241   3.584   0.339
    9CHTO    O6 3771   5.393   3.472   0.252
    9CHTO    H1 3772   5.435   3.550   0.223
    9CHTO    C3 3773   5.218   3.370   0.401
    9CHTO   H16 3774   5.285   3.284   0.413
    9CHTO    N1 3775   5.120   3.335   0.293
    9CHTO    H8 3776   5.054   3.419   0.275
    9CHTO    H9 3777   5.173   3.311   0.202
    9CHTO    C4 3778   5.147   3.389   0.541
    9CHTO   H17 3779   5.067   3.463   0.531
    9CHTO    O1 3780   5.243   3.430   0.639
    9CHTO    C5 3781   5.304   3.557   0.613
    9CHTO   H18 3782   5.228   3.633   0.595
    9CHTO   C16 3783   5.382   3.593   0.742
    9CHTO   O11 3784   5.435   3.725   0.741
    9CHTO    H5 3785   5.365   3.788   0.752
    9CHTO    O3 3786   5.098   3.265   0.595
    9CHTO    C6 3787   4.960   3.263   0.647
    9CHTO   H19 3788   4.900   3.346   0.611
    9CHTO    C8 3789   4.892   3.130   0.599
    9CHTO   H21 3790   4.957   3.047   0.625
    9CHTO    O7 3791   4.878   3.137   0.456
    9CHTO    H2 3792   4.962   3.132   0.415
    9CHTO   C12 3793   4.752   3.108   0.670
    9CHTO   H25 3794   4.684   3.187   0.630
    9CHTO    N3 3795   4.690   2.975   0.634
    9CHTO   H12 3796   4.596   2.990   0.584
    9CHTO   H13 3797   4.757   2.917   0.572
    9CHTO   C15 3798   4.767   3.128   0.824
    9CHTO   H28 3799   4.827   3.049   0.869
    9CHTO   O10 3800   4.631   3.138   0.899
    9CHTO    H4 3801   4.585   3.057   0.893
    9CHTO    O5 3802   4.825   3.256   0.853
    9CHTO   C10 3803   4.959   3.270   0.803
    9CHTO   H23 3804   5.020   3.190   0.844
    9CHTO   C17 3805   5.014   3.402   0.860
    9CHTO   O12 3806   4.940   3.517   0.816
    9CHTO    H6 3807   4.954   3.530   0.724
   10CHTO  H203 3808   3.384   6.272   2.205
   10CHTO   O82 3809   3.340   6.269   2.287
   10CHTO  C123 3810   3.412   6.346   2.385
   10CHTO  H227 3811   3.419   6.451   2.350
   10CHTO   O77 3812   3.328   6.338   2.503
   10CHTO  C118 3813   3.374   6.418   2.613
   10CHTO  H222 3814   3.382   6.522   2.579
   10CHTO  C125 3815   3.267   6.412   2.727
   10CHTO   O84 3816   3.242   6.278   2.772
   10CHTO  H205 3817   3.179   6.279   2.841
   10CHTO  C114 3818   3.512   6.370   2.661
   10CHTO  H218 3819   3.502   6.268   2.699
   10CHTO  C116 3820   3.614   6.367   2.544
   10CHTO  H220 3821   3.638   6.472   2.514
   10CHTO   O79 3822   3.738   6.311   2.592
   10CHTO  H201 3823   3.726   6.221   2.618
   10CHTO  C120 3824   3.555   6.288   2.419
   10CHTO  H224 3825   3.545   6.182   2.451
   10CHTO   N21 3826   3.645   6.292   2.302
   10CHTO  H211 3827   3.631   6.203   2.242
   10CHTO  H212 3828   3.749   6.298   2.333
   10CHTO   O75 3829   3.550   6.460   2.767
   10CHTO  C112 3830   3.593   6.386   0.026
   10CHTO  H216 3831   3.652   6.296   0.003
   10CHTO   O73 3832   3.472   6.353   0.096
   10CHTO  C113 3833   3.491   6.289   0.223
   10CHTO  H217 3834   3.549   6.196   0.208
   10CHTO  C124 3835   3.353   6.246   0.277
   10CHTO   O83 3836   3.259   6.354   0.288
   10CHTO  H204 3837   3.236   6.386   0.203
   10CHTO  C109 3838   3.568   6.383   0.321
   10CHTO  H213 3839   3.505   6.472   0.337
   10CHTO  C110 3840   3.703   6.424   0.256
   10CHTO  H214 3841   3.767   6.336   0.249
   10CHTO   O78 3842   3.770   6.517   0.343
   10CHTO  H200 3843   3.719   6.596   0.353
   10CHTO  C111 3844   3.681   6.484   0.113
   10CHTO  H215 3845   3.624   6.577   0.123
   10CHTO   N19 3846   3.807   6.517   0.042
   10CHTO  H207 3847   3.866   6.428   0.027
   10CHTO  H208 3848   3.784   6.562   2.828
   10CHTO   O74 3849   3.591   6.316   0.449
   10CHTO  C115 3850   3.510   6.377   0.583
   10CHTO  H219 3851   3.569   6.452   0.636
   10CHTO   O76 3852   3.373   6.451   0.541
   10CHTO  C122 3853   3.287   6.493   0.648
   10CHTO  H226 3854   3.192   6.520   0.604
   10CHTO  C126 3855   3.342   6.625   0.715
   10CHTO   O85 3856   3.343   6.736   0.625
   10CHTO  H206 3857   3.406   6.721   0.557
   10CHTO  C121 3858   3.262   6.379   0.755
   10CHTO  H225 3859   3.212   6.426   0.842
   10CHTO   O81 3860   3.169   6.283   0.702
   10CHTO  H202 3861   3.207   6.238   0.629
   10CHTO  C119 3862   3.393   6.312   0.802
   10CHTO  H223 3863   3.451   6.390   0.851
   10CHTO  C117 3864   3.480   6.259   0.682
   10CHTO  H221 3865   3.434   6.182   0.621
   10CHTO   N20 3866   3.610   6.199   0.730
   10CHTO  H209 3867   3.614   6.094   0.705
   10CHTO  H210 3868   3.623   6.212   0.836
   10CHTO   O80 3869   3.370   6.208   0.924
   10CHTO  C103 3870   3.344   6.264   1.075
   10CHTO  H190 3871   3.403   6.206   1.146
   10CHTO  C101 3872   3.370   6.417   1.104
   10CHTO  H188 3873   3.313   6.477   1.033
   10CHTO   O68 3874   3.519   6.446   1.081
   10CHTO  H168 3875   3.570   6.400   1.144
   10CHTO   C99 3876   3.322   6.455   1.252
   10CHTO  H186 3877   3.381   6.396   1.325
   10CHTO   N17 3878   3.342   6.601   1.286
   10CHTO  H174 3879   3.412   6.611   1.367
   10CHTO  H175 3880   3.248   6.648   1.310
   10CHTO   C97 3881   3.174   6.410   1.269
   10CHTO  H184 3882   3.113   6.470   1.201
   10CHTO   O64 3883   3.162   6.269   1.242
   10CHTO  C104 3884   3.192   6.233   1.106
   10CHTO  H191 3885   3.130   6.287   1.035
   10CHTO  C108 3886   3.161   6.084   1.085
   10CHTO   O71 3887   3.022   6.058   1.104
   10CHTO  H171 3888   3.005   5.966   1.092
   10CHTO   O62 3889   3.127   6.425   1.405
   10CHTO   C91 3890   2.984   6.429   1.421
   10CHTO  H178 3891   2.937   6.384   1.333
   10CHTO   C92 3892   2.933   6.577   1.429
   10CHTO  H179 3893   2.987   6.628   1.511
   10CHTO   O66 3894   2.971   6.646   1.308
   10CHTO  H166 3895   2.929   6.607   1.234
   10CHTO   C93 3896   2.777   6.583   1.453
   10CHTO  H180 3897   2.729   6.542   1.363
   10CHTO   N16 3898   2.724   6.721   1.468
   10CHTO  H172 3899   2.771   6.769   1.552
   10CHTO  H173 3900   2.743   6.777   1.377
   10CHTO   C94 3901   2.739   6.493   1.576
   10CHTO  H181 3902   2.783   6.531   1.669
   10CHTO   O61 3903   2.789   6.360   1.557
   10CHTO   C95 3904   2.932   6.350   1.547
   10CHTO  H182 3905   2.977   6.392   1.638
   10CHTO  C106 3906   2.972   6.199   1.541
   10CHTO   O69 3907   2.935   6.131   1.661
   10CHTO  H169 3908   2.956   6.040   1.653
   10CHTO   O63 3909   2.578   6.480   1.592
   10CHTO   C96 3910   2.537   6.429   1.736
   10CHTO  H183 3911   2.625   6.434   1.801
   10CHTO   C98 3912   2.483   6.283   1.742
   10CHTO  H185 3913   2.400   6.272   1.671
   10CHTO   O67 3914   2.587   6.196   1.694
   10CHTO  H167 3915   2.556   6.108   1.690
   10CHTO  C102 3916   2.438   6.241   1.891
   10CHTO  H189 3917   2.531   6.231   1.948
   10CHTO   N18 3918   2.370   6.110   1.902
   10CHTO  H176 3919   2.363   6.061   1.805
   10CHTO  H177 3920   2.422   6.046   1.971
   10CHTO  C105 3921   2.355   6.355   1.958
   10CHTO  H192 3922   2.253   6.353   1.919
   10CHTO   O65 3923   2.411   6.486   1.936
   10CHTO  C100 3924   2.427   6.523   1.799
   10CHTO  H187 3925   2.331   6.508   1.746
   10CHTO  C107 3926   2.463   6.673   1.796
   10CHTO   O70 3927   2.447   6.729   1.665
   10CHTO  H170 3928   2.356   6.732   1.642
   10CHTO   O57 3929   2.356   6.322   2.120
   10CHTO   C85 3930   2.319   6.427   2.211
   10CHTO  H157 3931   2.264   6.503   2.151
   10CHTO   C83 3932   2.449   6.499   2.261
   10CHTO  H155 3933   2.502   6.538   2.174
   10CHTO   O56 3934   2.537   6.403   2.323
   10CHTO  H135 3935   2.564   6.338   2.261
   10CHTO   C81 3936   2.409   6.618   2.352
   10CHTO  H153 3937   2.344   6.684   2.294
   10CHTO   N14 3938   2.524   6.704   2.391
   10CHTO  H141 3939   2.575   6.738   2.303
   10CHTO  H142 3940   2.592   6.648   2.451
   10CHTO   C79 3941   2.326   6.566   2.476
   10CHTO  H151 3942   2.288   6.654   2.528
   10CHTO   O52 3943   2.208   6.490   2.432
   10CHTO   C86 3944   2.236   6.381   2.337
   10CHTO  H158 3945   2.290   6.305   2.397
   10CHTO   C90 3946   2.100   6.317   2.298
   10CHTO   O60 3947   2.117   6.198   2.220
   10CHTO  H138 3948   2.148   6.220   2.134
   10CHTO   O50 3949   2.402   6.488   2.570
   10CHTO   C73 3950   2.374   6.432   2.699
   10CHTO  H145 3951   2.297   6.354   2.690
   10CHTO   C74 3952   2.323   6.541   2.798
   10CHTO  H146 3953   2.232   6.585   2.754
   10CHTO   O54 3954   2.282   6.476   0.038
   10CHTO  H133 3955   2.246   6.539   0.097
   10CHTO   C75 3956   2.436   6.649   2.819
   10CHTO  H147 3957   2.457   6.696   2.721
   10CHTO   N13 3958   2.396   6.761   0.026
   10CHTO  H139 3959   2.459   6.765   0.114
   10CHTO  H140 3960   2.403   6.855   2.856
   10CHTO   C76 3961   2.571   6.577   2.866
   10CHTO  H148 3962   2.556   6.538   0.085
   10CHTO   O49 3963   2.607   6.467   2.776
   10CHTO   C77 3964   2.505   6.368   2.756
   10CHTO  H149 3965   2.482   6.319   2.851
   10CHTO   C88 3966   2.561   6.258   2.665
   10CHTO   O58 3967   2.463   6.147   2.647
   10CHTO  H136 3968   2.496   6.085   2.584
   10CHTO   O51 3969   2.691   6.681   2.857
   10CHTO   C78 3970   2.821   6.641   0.053
   10CHTO  H150 3971   2.815   6.535   0.088
   10CHTO   C80 3972   2.841   6.733   0.175
   10CHTO  H152 3973   2.824   6.839   0.143
   10CHTO   O55 3974   2.738   6.699   0.271
   10CHTO  H134 3975   2.654   6.723   0.239
   10CHTO   C84 3976   2.987   6.720   0.235
   10CHTO  H156 3977   3.000   6.617   0.270
   10CHTO   N15 3978   3.010   6.809   0.354
   10CHTO  H143 3979   2.942   6.783   0.432
   10CHTO  H144 3980   2.995   6.911   0.326
   10CHTO   C87 3981   3.087   6.747   0.121
   10CHTO  H159 3982   3.066   6.846   0.078
   10CHTO   O53 3983   3.065   6.638   0.017
   10CHTO   C82 3984   2.938   6.650   2.834
   10CHTO  H154 3985   2.933   6.745   2.781
   10CHTO   C89 3986   2.924   6.539   2.728
   10CHTO   O59 3987   2.930   6.407   2.784
   10CHTO  H137 3988   2.921   6.343   2.715
   10CHTO   O45 3989   3.247   6.738   0.168
   10CHTO   C67 3990   3.327   6.849   0.122
   10CHTO  H124 3991   3.264   6.927   0.079
   10CHTO   C65 3992   3.411   6.911   0.238
   10CHTO  H122 3993   3.355   6.892   0.330
   10CHTO   O44 3994   3.421   7.054   0.219
   10CHTO  H102 3995   3.470   7.073   0.142
   10CHTO   C63 3996   3.548   6.837   0.252
   10CHTO  H120 3997   3.529   6.730   0.254
   10CHTO   N11 3998   3.621   6.858   0.381
   10CHTO  H108 3999   3.706   6.793   0.385
   10CHTO  H109 4000   3.556   6.836   0.463
   10CHTO   C61 4001   3.633   6.864   0.119
   10CHTO  H118 4002   3.698   6.777   0.106
   10CHTO   O40 4003   3.549   6.873   2.881
   10CHTO   C68 4004   3.422   6.799   0.004
   10CHTO  H125 4005   3.444   6.691   0.017
   10CHTO   C72 4006   3.349   6.814   2.750
   10CHTO   O48 4007   3.423   6.761   2.640
   10CHTO  H105 4008   3.373   6.772   2.561
   10CHTO   O38 4009   3.710   6.987   0.122
   10CHTO   C55 4010   3.847   6.978   0.075
   10CHTO  H112 4011   3.854   6.902   2.878
   10CHTO   C56 4012   3.944   6.945   0.197
   10CHTO  H113 4013   3.915   7.012   0.280
   10CHTO   O42 4014   3.919   6.811   0.243
   10CHTO  H100 4015   3.968   6.793   0.321
   10CHTO   C57 4016   4.097   6.963   0.162
   10CHTO  H114 4017   4.125   6.880   0.097
   10CHTO   N10 4018   4.185   6.957   0.282
   10CHTO  H106 4019   4.214   6.855   0.301
   10CHTO  H107 4020   4.275   7.016   0.267
   10CHTO   C58 4021   4.119   7.095   0.084
   10CHTO  H115 4022   4.102   7.182   0.153
   10CHTO   O37 4023   4.030   7.104   2.854
   10CHTO   C59 4024   3.891   7.112   0.008
   10CHTO  H116 4025   3.875   7.196   0.075
   10CHTO   C70 4026   3.815   7.138   2.759
   10CHTO   O46 4027   3.676   7.166   2.779
   10CHTO  H103 4028   3.666   7.250   2.819
   10CHTO   O39 4029   4.273   7.101   0.023
   10CHTO   C60 4030   4.311   7.231   2.856
   10CHTO  H117 4031   4.221   7.286   2.827
   10CHTO   C62 4032   4.384   7.316   0.082
   10CHTO  H119 4033   4.312   7.330   0.165
   10CHTO   O43 4034   4.498   7.243   0.132
   10CHTO  H101 4035   4.470   7.168   0.180
   10CHTO   C66 4036   4.423   7.460   0.021
   10CHTO  H123 4037   4.332   7.508   2.866
   10CHTO   N12 4038   4.479   7.553   0.122
   10CHTO  H110 4039   4.405   7.571   0.199
   10CHTO  H111 4040   4.569   7.511   0.164
   10CHTO   C69 4041   4.518   7.440   2.781
   10CHTO  H126 4042   4.611   7.389   2.814
   10CHTO   O41 4043   4.444   7.353   2.674
   10CHTO   C64 4044   4.398   7.216   2.728
   10CHTO  H121 4045   4.486   7.154   2.753
   10CHTO   C71 4046   4.320   7.142   2.616
   10CHTO   O47 4047   4.206   7.215   2.570
   10CHTO  H104 4048   4.141   7.220   2.638
   10CHTO   O34 4049   4.560   7.577   2.712
   10CHTO   C49 4050   4.525   7.693   2.616
   10CHTO   H91 4051   4.485   7.647   2.525
   10CHTO   C47 4052   4.655   7.769   2.585
   10CHTO   H89 4053   4.630   7.844   2.507
   10CHTO   O33 4054   4.751   7.677   2.530
   10CHTO   H70 4055   4.777   7.614   2.595
   10CHTO   C45 4056   4.705   7.844   2.719
   10CHTO   H87 4057   4.713   7.769   2.800
   10CHTO    N8 4058   4.837   7.910   2.704
   10CHTO   H75 4059   4.832   7.987   2.628
   10CHTO   H76 4060   4.912   7.836   2.676
   10CHTO   C43 4061   4.590   7.946   2.767
   10CHTO   H85 4062   4.624   7.988   2.862
   10CHTO   O29 4063   4.464   7.877   2.781
   10CHTO   C50 4064   4.419   7.790   2.676
   10CHTO   H92 4065   4.339   7.727   2.718
   10CHTO   C54 4066   4.345   7.869   2.564
   10CHTO   O36 4067   4.228   7.935   2.614
   10CHTO   H72 4068   4.163   7.872   2.637
   10CHTO   O27 4069   4.577   8.058   2.678
   10CHTO   C37 4070   4.530   8.189   2.639
   10CHTO   H79 4071   4.443   8.179   2.572
   10CHTO   C38 4072   4.486   8.273   2.762
   10CHTO   H80 4073   4.569   8.274   2.834
   10CHTO   O31 4074   4.374   8.204   2.821
   10CHTO   H68 4075   4.349   8.247   0.019
   10CHTO   C39 4076   4.449   8.421   2.720
   10CHTO   H81 4077   4.358   8.415   2.660
   10CHTO    N7 4078   4.417   8.507   2.839
   10CHTO   H73 4079   4.490   8.586   2.850
   10CHTO   H74 4080   4.319   8.550   2.829
   10CHTO   C40 4081   4.561   8.485   2.629
   10CHTO   H82 4082   4.646   8.520   2.687
   10CHTO   O26 4083   4.601   8.396   2.523
   10CHTO   C41 4084   4.644   8.262   2.563
   10CHTO   H83 4085   4.733   8.269   2.627
   10CHTO   C52 4086   4.682   8.185   2.434
   10CHTO   O35 4087   4.790   8.247   2.360
   10CHTO   H71 4088   4.870   8.240   2.409
   10CHTO   O28 4089   4.511   8.592   2.546
   10CHTO   C42 4090   4.503   8.734   2.583
   10CHTO   H84 4091   4.508   8.737   2.691
   10CHTO   C44 4092   4.367   8.801   2.543
   10CHTO   H86 4093   4.356   8.795   2.434
   10CHTO   O32 4094   4.262   8.723   2.603
   10CHTO   H69 4095   4.179   8.754   2.574
   10CHTO   C48 4096   4.360   8.954   2.585
   10CHTO   H90 4097   4.359   8.958   2.694
   10CHTO    N9 4098   4.234   9.022   2.539
   10CHTO   H77 4099   4.170   8.953   2.486
   10CHTO   H78 4100   4.182   9.064   2.623
   10CHTO   C51 4101   4.490   9.028   2.535
   10CHTO   H93 4102   4.487   9.030   2.426
   10CHTO   O30 4103   4.605   8.959   2.585
   10CHTO   C46 4104   4.620   8.821   2.528
   10CHTO   H88 4105   4.615   8.826   2.419
   10CHTO   C53 4106   4.760   8.773   2.572
   10CHTO   O72 4107   4.798   8.654   2.503
   10CHTO  H199 4108   4.884   8.628   2.530
   10CHTO   O22 4109   4.498   9.163   2.587
   10CHTO   C31 4110   4.605   9.259   2.550
   10CHTO   H59 4111   4.567   9.359   2.582
   10CHTO   C29 4112   4.738   9.237   2.625
   10CHTO   H57 4113   4.772   9.134   2.605
   10CHTO   O21 4114   4.712   9.245   2.766
   10CHTO   H37 4115   4.657   9.174   2.794
   10CHTO   C27 4116   4.851   9.337   2.578
   10CHTO   H55 4117   4.820   9.439   2.605
   10CHTO    N5 4118   4.983   9.309   2.643
   10CHTO   H43 4119   5.016   9.395   2.699
   10CHTO   H44 4120   5.057   9.280   2.570
   10CHTO   C25 4121   4.860   9.330   2.422
   10CHTO   H53 4122   4.888   9.228   2.392
   10CHTO   O17 4123   4.731   9.364   2.363
   10CHTO   C32 4124   4.628   9.270   2.395
   10CHTO   H60 4125   4.656   9.172   2.357
   10CHTO   C36 4126   4.499   9.315   2.321
   10CHTO   O25 4127   4.457   9.447   2.360
   10CHTO   H40 4128   4.519   9.510   2.329
   10CHTO   O15 4129   4.966   9.429   2.364
   10CHTO   C19 4130   5.022   9.420   2.230
   10CHTO   H47 4131   4.991   9.321   2.195
   10CHTO   C20 4132   4.967   9.527   2.131
   10CHTO   H48 4133   4.983   9.630   2.169
   10CHTO   O19 4134   4.824   9.507   2.121
   10CHTO   H35 4135   4.805   9.423   2.083
   10CHTO   C21 4136   5.036   9.516   1.990
   10CHTO   H49 4137   5.009   9.421   1.946
   10CHTO    N4 4138   4.992   9.621   1.894
   10CHTO   H41 4139   5.012   9.719   1.934
   10CHTO   H42 4140   4.886   9.612   1.875
   10CHTO   C22 4141   5.190   9.515   2.011
   10CHTO   H50 4142   5.218   9.609   2.057
   10CHTO   O14 4143   5.227   9.405   2.096
   10CHTO   C23 4144   5.178   9.419   2.230
   10CHTO   H51 4145   5.219   9.512   2.272
   10CHTO   C34 4146   5.232   9.302   2.314
   10CHTO   O23 4147   5.374   9.303   2.323
   10CHTO   H38 4148   5.403   9.375   2.375
   10CHTO   O16 4149   5.263   9.494   1.888
   10CHTO   C24 4150   5.406   9.561   1.890
   10CHTO   H52 4151   5.446   9.570   1.992
   10CHTO   C26 4152   5.397   9.701   1.827
   10CHTO   H54 4153   5.350   9.691   1.726
   10CHTO   O20 4154   5.310   9.783   1.908
   10CHTO   H36 4155   5.292   9.864   1.864
   10CHTO   C30 4156   5.538   9.764   1.810
   10CHTO   H58 4157   5.582   9.783   1.909
   10CHTO    N6 4158   5.531   9.897   1.743
   10CHTO   H45 4159   5.629   9.940   1.735
   10CHTO   H46 4160   5.490   9.886   1.643
   10CHTO   C33 4161   5.633   9.665   1.737
   10CHTO   H61 4162   5.598   9.650   1.634
   10CHTO   O18 4163   5.632   9.538   1.805
   10CHTO   C28 4164   5.505   9.472   1.811
   10CHTO   H56 4165   5.466   9.455   1.710
   10CHTO   C35 4166   5.529   9.335   1.880
   10CHTO   O24 4167   5.415   9.249   1.879
   10CHTO   H39 4168   5.437   9.168   1.921
   10CHTO    O9 4169   5.768   9.717   1.725
   10CHTO   C13 4170   5.838   9.695   1.579
   10CHTO   H26 4171   5.775   9.748   1.504
   10CHTO   C11 4172   5.851   9.540   1.547
   10CHTO   H24 4173   5.750   9.502   1.524
   10CHTO    O8 4174   5.899   9.469   1.663
   10CHTO    H3 4175   5.985   9.499   1.686
   10CHTO    C9 4176   5.941   9.523   1.422
   10CHTO   H22 4177   5.895   9.585   1.344
   10CHTO    N2 4178   5.937   9.386   1.364
   10CHTO   H10 4179   5.835   9.357   1.345
   10CHTO   H11 4180   5.985   9.316   1.432
   10CHTO    C7 4181   6.086   9.581   1.452
   10CHTO   H20 4182   6.108   9.641   1.362
   10CHTO    O4 4183   6.089   9.669   1.567
   10CHTO   C14 4184   5.982   9.765   1.571
   10CHTO   H27 4185   5.986   9.825   1.477
   10CHTO   C18 4186   6.008   9.863   1.688
   10CHTO   O13 4187   6.128   9.938   1.666
   10CHTO    H7 4188   6.142   9.996   1.739
   10CHTO    O2 4189   6.209   9.463   1.466
   10CHTO    C1 4190   6.293   9.462   1.583
   10CHTO   H14 4191   6.248   9.521   1.665
   10CHTO    C2 4192   6.439   9.518   1.554
   10CHTO   H15 4193   6.475   9.465   1.465
   10CHTO    O6 4194   6.430   9.658   1.526
   10CHTO    H1 4195   6.386   9.672   1.444
   10CHTO    C3 4196   6.539   9.489   1.678
   10CHTO   H16 4197   6.508   9.552   1.763
   10CHTO    N1 4198   6.682   9.525   1.647
   10CHTO    H8 4199   6.746   9.439   1.653
   10CHTO    H9 4200   6.690   9.569   1.549
   10CHTO    C4 4201   6.523   9.340   1.727
   10CHTO   H17 4202   6.564   9.273   1.650
   10CHTO    O1 4203   6.385   9.309   1.752
   10CHTO    C5 4204   6.302   9.316   1.635
   10CHTO   H18 4205   6.343   9.253   1.556
   10CHTO   C16 4206   6.162   9.262   1.674
   10CHTO   O11 4207   6.170   9.124   1.710
   10CHTO    H5 4208   6.086   9.095   1.741
   10CHTO    O3 4209   6.589   9.316   1.854
   10CHTO    C6 4210   6.616   9.174   1.883
   10CHTO   H19 4211   6.565   9.107   1.814
   10CHTO    C8 4212   6.769   9.145   1.874
   10CHTO   H21 4213   6.822   9.215   1.939
   10CHTO    O7 4214   6.808   9.167   1.737
   10CHTO    H2 4215   6.807   9.258   1.717
   10CHTO   C12 4216   6.801   8.997   1.921
   10CHTO   H25 4217   6.753   8.930   1.846
   10CHTO    N3 4218   6.948   8.969   1.918
   10CHTO   H12 4219   6.969   8.886   1.852
   10CHTO   H13 4220   6.986   8.948   2.017
   10CHTO   C15 4221   6.734   8.971   2.061
   10CHTO   H28 4222   6.782   9.028   2.140
   10CHTO   O10 4223   6.733   8.820   2.099
   10CHTO    H4 4224   6.700   8.809   2.186
   10CHTO    O5 4225   6.594   9.001   2.056
   10CHTO   C10 4226   6.565   9.139   2.026
   10CHTO   H23 4227   6.614   9.203   2.100
   10CHTO   C17 4228   6.413   9.159   2.040
   10CHTO   O12 4229   6.369   9.126   2.172
   10CHTO    H6 4230   6.374   9.034   2.186
   11CHTO  H203 4231   4.827   4.745   2.028
   11CHTO   O82 4232   4.892   4.718   1.966
   11CHTO  C123 4233   4.980   4.828   1.937
   11CHTO  H227 4234   5.031   4.859   2.030
   11CHTO   O77 4235   5.077   4.769   1.845
   11CHTO  C118 4236   5.178   4.859   1.798
   11CHTO  H222 4237   5.229   4.905   1.884
   11CHTO  C125 4238   5.284   4.776   1.716
   11CHTO   O84 4239   5.225   4.709   1.603
   11CHTO  H205 4240   5.292   4.665   1.554
   11CHTO  C114 4241   5.110   4.970   1.713
   11CHTO  H218 4242   5.052   4.922   1.635
   11CHTO  C116 4243   5.008   5.048   1.801
   11CHTO  H220 4244   5.062   5.104   1.880
   11CHTO   O79 4245   4.943   5.145   1.718
   11CHTO  H201 4246   4.886   5.199   1.769
   11CHTO  C120 4247   4.905   4.949   1.869
   11CHTO  H224 4248   4.840   4.911   1.787
   11CHTO   N21 4249   4.816   5.020   1.965
   11CHTO  H211 4250   4.860   5.022   2.063
   11CHTO  H212 4251   4.793   5.120   1.930
   11CHTO   O75 4252   5.215   5.048   1.652
   11CHTO  C112 4253   5.293   5.162   1.745
   11CHTO  H216 4254   5.319   5.117   1.842
   11CHTO   O73 4255   5.204   5.274   1.761
   11CHTO  C113 4256   5.253   5.373   1.852
   11CHTO  H217 4257   5.280   5.324   1.947
   11CHTO  C124 4258   5.136   5.469   1.880
   11CHTO   O83 4259   5.161   5.561   1.986
   11CHTO  H204 4260   5.228   5.622   1.961
   11CHTO  C109 4261   5.378   5.442   1.791
   11CHTO  H213 4262   5.345   5.493   1.699
   11CHTO  C110 4263   5.485   5.333   1.757
   11CHTO  H214 4264   5.527   5.295   1.851
   11CHTO   O78 4265   5.594   5.395   1.685
   11CHTO  H200 4266   5.640   5.455   1.740
   11CHTO  C111 4267   5.424   5.214   1.675
   11CHTO  H215 4268   5.396   5.252   1.576
   11CHTO   N19 4269   5.518   5.101   1.653
   11CHTO  H207 4270   5.615   5.122   1.695
   11CHTO  H208 4271   5.528   5.081   1.547
   11CHTO   O74 4272   5.433   5.541   1.884
   11CHTO  C115 4273   5.485   5.679   1.813
   11CHTO  H219 4274   5.495   5.667   1.705
   11CHTO   O76 4275   5.383   5.793   1.831
   11CHTO  C122 4276   5.365   5.826   1.969
   11CHTO  H226 4277   5.334   5.736   2.021
   11CHTO  C126 4278   5.244   5.925   1.980
   11CHTO   O85 4279   5.207   5.952   2.116
   11CHTO  H206 4280   5.169   5.876   2.154
   11CHTO  C121 4281   5.498   5.883   2.035
   11CHTO  H225 4282   5.487   5.992   2.050
   11CHTO   O81 4283   5.514   5.823   2.164
   11CHTO  H202 4284   5.527   5.730   2.156
   11CHTO  C119 4285   5.625   5.858   1.946
   11CHTO  H223 4286   5.620   5.933   1.867
   11CHTO  C117 4287   5.625   5.715   1.879
   11CHTO  H221 4288   5.645   5.633   1.948
   11CHTO   N20 4289   5.736   5.707   1.777
   11CHTO  H209 4290   5.716   5.774   1.695
   11CHTO  H210 4291   5.746   5.605   1.742
   11CHTO   O80 4292   5.769   5.898   2.022
   11CHTO  C103 4293   5.806   6.053   2.055
   11CHTO  H190 4294   5.915   6.062   2.061
   11CHTO  C101 4295   5.756   6.164   1.955
   11CHTO  H188 4296   5.648   6.157   1.945
   11CHTO   O68 4297   5.821   6.139   1.815
   11CHTO  H168 4298   5.914   6.147   1.821
   11CHTO   C99 4299   5.791   6.310   2.014
   11CHTO  H186 4300   5.902   6.319   2.025
   11CHTO   N17 4301   5.747   6.423   1.926
   11CHTO  H174 4302   5.780   6.517   1.968
   11CHTO  H175 4303   5.786   6.410   1.827
   11CHTO   C97 4304   5.733   6.322   2.158
   11CHTO  H184 4305   5.624   6.315   2.150
   11CHTO   O64 4306   5.787   6.216   2.240
   11CHTO  C104 4307   5.751   6.083   2.199
   11CHTO  H191 4308   5.643   6.069   2.200
   11CHTO  C108 4309   5.807   5.982   2.300
   11CHTO   O71 4310   5.750   6.001   2.430
   11CHTO  H171 4311   5.785   5.938   2.490
   11CHTO   O62 4312   5.771   6.444   2.226
   11CHTO   C91 4313   5.686   6.484   2.335
   11CHTO  H178 4314   5.585   6.448   2.314
   11CHTO   C92 4315   5.675   6.641   2.340
   11CHTO  H179 4316   5.653   6.679   2.239
   11CHTO   O66 4317   5.560   6.676   2.419
   11CHTO  H166 4318   5.569   6.643   2.507
   11CHTO   C93 4319   5.801   6.711   2.405
   11CHTO  H180 4320   5.768   6.810   2.439
   11CHTO   N16 4321   5.908   6.737   2.305
   11CHTO  H172 4322   5.931   6.843   2.301
   11CHTO  H173 4323   5.997   6.680   2.327
   11CHTO   C94 4324   5.854   6.630   2.530
   11CHTO  H181 4325   5.946   6.574   2.507
   11CHTO   O61 4326   5.759   6.532   2.575
   11CHTO   C95 4327   5.731   6.429   2.478
   11CHTO  H182 4328   5.821   6.368   2.466
   11CHTO  C106 4329   5.623   6.332   2.539
   11CHTO   O69 4330   5.499   6.399   2.565
   11CHTO  H169 4331   5.459   6.425   2.484
   11CHTO   O63 4332   5.881   6.731   2.649
   11CHTO   C96 4333   5.997   6.682   2.750
   11CHTO  H183 4334   6.064   6.616   2.695
   11CHTO   C98 4335   5.947   6.607   2.876
   11CHTO  H185 4336   5.867   6.665   0.042
   11CHTO   O67 4337   5.884   6.484   2.833
   11CHTO  H167 4338   5.807   6.503   2.783
   11CHTO  C102 4339   6.063   6.576   0.100
   11CHTO  H189 4340   6.125   6.498   0.055
   11CHTO   N18 4341   6.017   6.519   0.230
   11CHTO  H176 4342   5.911   6.497   0.226
   11CHTO  H177 4343   6.035   6.588   0.311
   11CHTO  C105 4344   6.154   6.702   0.119
   11CHTO  H192 4345   6.101   6.775   0.181
   11CHTO   O65 4346   6.190   6.765   2.877
   11CHTO  C100 4347   6.080   6.807   2.795
   11CHTO  H187 4348   6.016   6.875   2.853
   11CHTO  C107 4349   6.134   6.884   2.673
   11CHTO   O70 4350   6.207   7.001   2.711
   11CHTO  H170 4351   6.289   6.977   2.749
   11CHTO   O57 4352   6.288   6.650   0.193
   11CHTO   C85 4353   6.359   6.735   0.285
   11CHTO  H157 4354   6.280   6.785   0.346
   11CHTO   C83 4355   6.433   6.849   0.209
   11CHTO  H155 4356   6.358   6.913   0.161
   11CHTO   O56 4357   6.513   6.794   0.103
   11CHTO  H135 4358   6.458   6.755   0.038
   11CHTO   C81 4359   6.513   6.934   0.312
   11CHTO  H153 4360   6.442   6.971   0.387
   11CHTO   N14 4361   6.569   7.058   0.253
   11CHTO  H141 4362   6.614   7.118   0.329
   11CHTO  H142 4363   6.644   7.033   0.180
   11CHTO   C79 4364   6.620   6.845   0.386
   11CHTO  H151 4365   6.666   6.908   0.462
   11CHTO   O52 4366   6.553   6.737   0.456
   11CHTO   C86 4367   6.462   6.655   0.375
   11CHTO  H158 4368   6.530   6.593   0.313
   11CHTO   C90 4369   6.387   6.556   0.468
   11CHTO   O60 4370   6.306   6.623   0.566
   11CHTO  H138 4371   6.362   6.670   0.625
   11CHTO   O50 4372   6.725   6.793   0.301
   11CHTO   C73 4373   6.854   6.741   0.335
   11CHTO  H145 4374   6.845   6.666   0.415
   11CHTO   C74 4375   6.949   6.854   0.386
   11CHTO  H146 4376   6.901   6.899   0.474
   11CHTO   O54 4377   7.071   6.794   0.434
   11CHTO  H133 4378   7.118   6.753   0.364
   11CHTO   C75 4379   6.970   6.959   0.270
   11CHTO  H147 4380   6.873   7.007   0.249
   11CHTO   N13 4381   7.060   7.071   0.306
   11CHTO  H139 4382   7.069   7.140   0.223
   11CHTO  H140 4383   7.019   7.125   0.391
   11CHTO   C76 4384   7.017   6.888   0.134
   11CHTO  H148 4385   7.123   6.862   0.142
   11CHTO   O49 4386   6.939   6.768   0.103
   11CHTO   C77 4387   6.922   6.675   0.211
   11CHTO  H149 4388   7.020   6.637   0.240
   11CHTO   C88 4389   6.845   6.551   0.163
   11CHTO   O58 4390   6.723   6.586   0.095
   11CHTO  H136 4391   6.742   6.627   0.013
   11CHTO   O51 4392   6.985   6.992   0.007
   11CHTO   C78 4393   7.047   6.948   2.747
   11CHTO  H150 4394   7.103   6.852   2.756
   11CHTO   C80 4395   7.143   7.057   2.697
   11CHTO  H152 4396   7.088   7.154   2.692
   11CHTO   O55 4397   7.248   7.070   2.795
   11CHTO  H134 4398   7.305   7.141   2.773
   11CHTO   C84 4399   7.202   7.023   2.554
   11CHTO  H156 4400   7.265   6.934   2.564
   11CHTO   N15 4401   7.289   7.132   2.498
   11CHTO  H143 4402   7.371   7.150   2.565
   11CHTO  H144 4403   7.327   7.103   2.403
   11CHTO   C87 4404   7.087   6.987   2.455
   11CHTO  H159 4405   7.031   7.076   2.427
   11CHTO   O53 4406   6.992   6.882   2.521
   11CHTO   C82 4407   6.935   6.928   2.644
   11CHTO  H154 4408   6.879   7.020   2.627
   11CHTO   C89 4409   6.832   6.821   2.690
   11CHTO   O59 4410   6.743   6.872   2.790
   11CHTO  H137 4411   6.791   6.888   2.869
   11CHTO   O45 4412   7.151   6.919   2.318
   11CHTO   C67 4413   7.059   6.895   2.210
   11CHTO  H124 4414   6.962   6.865   2.252
   11CHTO   C65 4415   7.038   7.023   2.121
   11CHTO  H122 4416   7.115   7.094   2.151
   11CHTO   O44 4417   6.909   7.078   2.155
   11CHTO  H102 4418   6.840   7.025   2.119
   11CHTO   C63 4419   7.066   6.996   1.968
   11CHTO  H120 4420   7.172   6.976   1.955
   11CHTO   N11 4421   7.046   7.112   1.875
   11CHTO  H108 4422   7.079   7.086   1.776
   11CHTO  H109 4423   7.101   7.196   1.909
   11CHTO   C61 4424   6.991   6.864   1.924
   11CHTO  H118 4425   7.026   6.841   1.822
   11CHTO   O40 4426   7.024   6.749   2.006
   11CHTO   C68 4427   7.108   6.771   2.124
   11CHTO  H125 4428   7.212   6.790   2.089
   11CHTO   C72 4429   7.113   6.640   2.208
   11CHTO   O48 4430   6.985   6.599   2.257
   11CHTO  H105 4431   6.954   6.661   2.320
   11CHTO   O38 4432   6.847   6.878   1.925
   11CHTO   C55 4433   6.776   6.793   1.833
   11CHTO  H112 4434   6.842   6.713   1.796
   11CHTO   C56 4435   6.716   6.879   1.714
   11CHTO  H113 4436   6.654   6.958   1.759
   11CHTO   O42 4437   6.823   6.946   1.644
   11CHTO  H100 4438   6.865   7.008   1.700
   11CHTO   C57 4439   6.631   6.788   1.618
   11CHTO  H114 4440   6.702   6.724   1.566
   11CHTO   N10 4441   6.558   6.866   1.513
   11CHTO  H106 4442   6.545   6.805   1.425
   11CHTO  H107 4443   6.462   6.898   1.549
   11CHTO   C58 4444   6.532   6.698   1.698
   11CHTO  H115 4445   6.447   6.761   1.735
   11CHTO   O37 4446   6.595   6.632   1.809
   11CHTO   C59 4447   6.659   6.720   1.904
   11CHTO  H116 4448   6.586   6.792   1.942
   11CHTO   C70 4449   6.707   6.637   2.023
   11CHTO   O46 4450   6.803   6.536   1.988
   11CHTO  H103 4451   6.829   6.489   2.065
   11CHTO   O39 4452   6.479   6.579   1.603
   11CHTO   C60 4453   6.348   6.529   1.636
   11CHTO  H117 4454   6.335   6.532   1.744
   11CHTO   C62 4455   6.236   6.615   1.571
   11CHTO  H119 4456   6.243   6.716   1.618
   11CHTO   O43 4457   6.262   6.628   1.430
   11CHTO  H101 4458   6.198   6.685   1.391
   11CHTO   C66 4459   6.092   6.550   1.604
   11CHTO  H123 4460   6.081   6.542   1.712
   11CHTO   N12 4461   5.980   6.636   1.558
   11CHTO  H110 4462   5.983   6.732   1.609
   11CHTO  H111 4463   5.984   6.649   1.451
   11CHTO   C69 4464   6.087   6.407   1.544
   11CHTO  H126 4465   6.109   6.411   1.435
   11CHTO   O41 4466   6.197   6.324   1.616
   11CHTO   C64 4467   6.339   6.379   1.593
   11CHTO  H121 4468   6.366   6.371   1.486
   11CHTO   C71 4469   6.439   6.294   1.675
   11CHTO   O47 4470   6.434   6.157   1.634
   11CHTO  H104 4471   6.497   6.107   1.684
   11CHTO   O34 4472   5.946   6.334   1.564
   11CHTO   C49 4473   5.869   6.229   1.475
   11CHTO   H91 4474   5.771   6.220   1.523
   11CHTO   C47 4475   5.937   6.091   1.479
   11CHTO   H89 4476   5.916   6.052   1.582
   11CHTO   O33 4477   6.079   6.103   1.464
   11CHTO   H70 4478   6.121   6.022   1.483
   11CHTO   C45 4479   5.882   5.991   1.364
   11CHTO   H87 4480   5.957   5.990   1.283
   11CHTO    N8 4481   5.871   5.853   1.416
   11CHTO   H75 4482   5.944   5.789   1.369
   11CHTO   H76 4483   5.772   5.814   1.400
   11CHTO   C43 4484   5.751   6.049   1.291
   11CHTO   H85 4485   5.726   5.978   1.212
   11CHTO   O29 4486   5.783   6.179   1.239
   11CHTO   C50 4487   5.846   6.274   1.327
   11CHTO   H92 4488   5.944   6.300   1.285
   11CHTO   C54 4489   5.767   6.407   1.320
   11CHTO   O36 4490   5.632   6.392   1.365
   11CHTO   H72 4491   5.631   6.377   1.458
   11CHTO   O27 4492   5.636   6.056   1.377
   11CHTO   C37 4493   5.528   6.008   1.458
   11CHTO   H79 4494   5.566   5.940   1.536
   11CHTO   C38 4495   5.455   6.126   1.530
   11CHTO   H80 4496   5.424   6.199   1.454
   11CHTO   O31 4497   5.549   6.188   1.620
   11CHTO   H68 4498   5.616   6.232   1.572
   11CHTO   C39 4499   5.328   6.077   1.610
   11CHTO   H81 4500   5.364   6.018   1.694
   11CHTO    N7 4501   5.245   6.188   1.669
   11CHTO   H73 4502   5.145   6.190   1.627
   11CHTO   H74 4503   5.293   6.284   1.654
   11CHTO   C40 4504   5.238   5.980   1.522
   11CHTO   H82 4505   5.178   6.037   1.450
   11CHTO   O26 4506   5.318   5.879   1.458
   11CHTO   C41 4507   5.424   5.931   1.372
   11CHTO   H83 4508   5.381   5.999   1.296
   11CHTO   C52 4509   5.486   5.810   1.298
   11CHTO   O35 4510   5.391   5.747   1.208
   11CHTO   H71 4511   5.432   5.676   1.163
   11CHTO   O28 4512   5.153   5.900   1.606
   11CHTO   C42 4513   5.019   5.859   1.564
   11CHTO   H84 4514   5.019   5.870   1.455
   11CHTO   C44 4515   4.903   5.949   1.617
   11CHTO   H86 4516   4.909   5.954   1.726
   11CHTO   O32 4517   4.926   6.082   1.567
   11CHTO   H69 4518   4.918   6.084   1.473
   11CHTO   C48 4519   4.760   5.894   1.578
   11CHTO   H90 4520   4.749   5.899   1.470
   11CHTO    N9 4521   4.649   5.979   1.635
   11CHTO   H77 4522   4.586   5.922   1.702
   11CHTO   H78 4523   4.590   6.021   1.555
   11CHTO   C51 4524   4.751   5.743   1.623
   11CHTO   H93 4525   4.765   5.738   1.731
   11CHTO   O30 4526   4.852   5.670   1.552
   11CHTO   C46 4527   4.993   5.709   1.594
   11CHTO   H88 4528   5.004   5.691   1.702
   11CHTO   C53 4529   5.091   5.619   1.516
   11CHTO   O72 4530   5.070   5.480   1.543
   11CHTO  H199 4531   4.987   5.453   1.510
   11CHTO   O22 4532   4.628   5.679   1.583
   11CHTO   C31 4533   4.543   5.606   1.681
   11CHTO   H59 4534   4.575   5.641   1.782
   11CHTO   C29 4535   4.393   5.637   1.667
   11CHTO   H57 4536   4.361   5.605   1.567
   11CHTO   O21 4537   4.375   5.780   1.674
   11CHTO   H37 4538   4.287   5.803   1.653
   11CHTO   C27 4539   4.307   5.560   1.776
   11CHTO   H55 4540   4.336   5.596   1.875
   11CHTO    N5 4541   4.161   5.582   1.759
   11CHTO   H43 4542   4.107   5.532   1.839
   11CHTO   H44 4543   4.128   5.544   1.663
   11CHTO   C25 4544   4.342   5.408   1.771
   11CHTO   H53 4545   4.308   5.365   1.674
   11CHTO   O17 4546   4.486   5.388   1.782
   11CHTO   C32 4547   4.565   5.451   1.680
   11CHTO   H60 4548   4.536   5.412   1.583
   11CHTO   C36 4549   4.712   5.409   1.705
   11CHTO   O25 4550   4.760   5.450   1.834
   11CHTO   H40 4551   4.763   5.543   1.840
   11CHTO   O15 4552   4.272   5.328   1.891
   11CHTO   C19 4553   4.281   5.186   1.921
   11CHTO   H47 4554   4.306   5.139   1.825
   11CHTO   C20 4555   4.389   5.149   2.027
   11CHTO   H48 4556   4.366   5.192   2.125
   11CHTO   O19 4557   4.515   5.203   1.984
   11CHTO   H35 4558   4.513   5.297   1.984
   11CHTO   C21 4559   4.401   4.993   2.046
   11CHTO   H49 4560   4.441   4.950   1.954
   11CHTO    N4 4561   4.493   4.952   2.156
   11CHTO   H41 4562   4.539   5.038   2.202
   11CHTO   H42 4563   4.570   4.887   2.117
   11CHTO   C22 4564   4.259   4.931   2.065
   11CHTO   H50 4565   4.223   4.951   2.166
   11CHTO   O14 4566   4.163   4.979   1.969
   11CHTO   C23 4567   4.146   5.122   1.968
   11CHTO   H51 4568   4.118   5.154   2.069
   11CHTO   C34 4569   4.029   5.152   1.874
   11CHTO   O23 4570   3.987   5.288   1.883
   11CHTO   H38 4571   3.913   5.302   1.827
   11CHTO   O16 4572   4.266   4.790   2.037
   11CHTO   C24 4573   4.185   4.697   2.128
   11CHTO   H52 4574   4.094   4.746   2.166
   11CHTO   C26 4575   4.273   4.651   2.246
   11CHTO   H54 4576   4.376   4.633   2.207
   11CHTO   O20 4577   4.282   4.760   2.340
   11CHTO   H36 4578   4.345   4.740   2.407
   11CHTO   C30 4579   4.223   4.520   2.315
   11CHTO   H58 4580   4.132   4.541   2.374
   11CHTO    N6 4581   4.323   4.467   2.412
   11CHTO   H45 4582   4.416   4.445   2.361
   11CHTO   H46 4583   4.342   4.540   2.489
   11CHTO   C33 4584   4.183   4.416   2.207
   11CHTO   H61 4585   4.271   4.391   2.146
   11CHTO   O18 4586   4.084   4.477   2.122
   11CHTO   C28 4587   4.138   4.580   2.038
   11CHTO   H56 4588   4.224   4.542   1.982
   11CHTO   C35 4589   4.030   4.627   1.938
   11CHTO   O24 4590   3.989   4.525   1.847
   11CHTO   H39 4591   4.059   4.503   1.789
   11CHTO    O9 4592   4.135   4.291   2.261
   11CHTO   C13 4593   4.159   4.150   2.171
   11CHTO   H26 4594   4.237   4.092   2.224
   11CHTO   C11 4595   4.197   4.172   2.018
   11CHTO   H24 4596   4.296   4.220   2.014
   11CHTO    O8 4597   4.104   4.261   1.952
   11CHTO    H3 4598   4.135   4.282   1.866
   11CHTO    C9 4599   4.207   4.033   1.949
   11CHTO   H22 4600   4.279   3.976   2.010
   11CHTO    N2 4601   4.264   4.036   1.812
   11CHTO   H10 4602   4.278   4.138   1.778
   11CHTO   H11 4603   4.358   3.982   1.809
   11CHTO    C7 4604   4.067   3.962   1.958
   11CHTO   H20 4605   4.083   3.861   1.917
   11CHTO    O4 4606   4.021   3.950   2.095
   11CHTO   C14 4607   4.027   4.063   2.185
   11CHTO   H27 4608   4.028   4.019   2.287
   11CHTO   C18 4609   3.898   4.148   2.175
   11CHTO   O13 4610   3.783   4.074   2.217
   11CHTO    H7 4611   3.706   4.127   2.208
   11CHTO    O2 4612   3.955   4.038   1.870
   11CHTO    C1 4613   3.821   3.985   1.858
   11CHTO   H14 4614   3.763   4.018   1.947
   11CHTO    C2 4615   3.807   3.826   1.846
   11CHTO   H15 4616   3.882   3.795   1.771
   11CHTO    O6 4617   3.837   3.765   1.972
   11CHTO    H1 4618   3.928   3.779   1.994
   11CHTO    C3 4619   3.660   3.784   1.797
   11CHTO   H16 4620   3.588   3.810   1.876
   11CHTO    N1 4621   3.646   3.636   1.771
   11CHTO    H8 4622   3.739   3.585   1.791
   11CHTO    H9 4623   3.568   3.595   1.833
   11CHTO    C4 4624   3.620   3.871   1.672
   11CHTO   H17 4625   3.688   3.848   1.590
   11CHTO    O1 4626   3.626   4.010   1.707
   11CHTO    C5 4627   3.758   4.057   1.736
   11CHTO   H18 4628   3.822   4.037   1.649
   11CHTO   C16 4629   3.751   4.210   1.759
   11CHTO   O11 4630   3.708   4.279   1.641
   11CHTO    H5 4631   3.615   4.268   1.630
   11CHTO    O3 4632   3.483   3.851   1.631
   11CHTO    C6 4633   3.457   3.871   1.488
   11CHTO   H19 4634   3.542   3.916   1.436
   11CHTO    C8 4635   3.427   3.733   1.421
   11CHTO   H21 4636   3.353   3.681   1.481
   11CHTO    O7 4637   3.550   3.658   1.420
   11CHTO    H2 4638   3.572   3.631   1.507
   11CHTO   C12 4639   3.369   3.753   1.274
   11CHTO   H25 4640   3.451   3.797   1.214
   11CHTO    N3 4641   3.332   3.621   1.210
   11CHTO   H12 4642   3.353   3.538   1.276
   11CHTO   H13 4643   3.385   3.610   1.117
   11CHTO   C15 4644   3.250   3.854   1.280
   11CHTO   H28 4645   3.167   3.815   1.339
   11CHTO   O10 4646   3.198   3.897   1.142
   11CHTO    H4 4647   3.120   3.947   1.151
   11CHTO    O5 4648   3.296   3.979   1.335
   11CHTO   C10 4649   3.337   3.969   1.472
   11CHTO   H23 4650   3.253   3.934   1.532
   11CHTO   C17 4651   3.371   4.111   1.521
   11CHTO   O12 4652   3.478   4.171   1.448
   11CHTO    H6 4653   3.452   4.185   1.359
   12CHTO  H203 4654   5.358   1.131   2.665
   12CHTO   O82 4655   5.331   1.063   2.607
   12CHTO  C123 4656   5.285   0.949   2.682
   12CHTO  H227 4657   5.359   0.925   2.760
   12CHTO   O77 4658   5.161   0.996   2.743
   12CHTO  C118 4659   5.095   0.899   2.826
   12CHTO  H222 4660   5.165   0.863   0.021
   12CHTO  C125 4661   4.974   0.971   0.016
   12CHTO   O84 4662   4.877   1.023   2.806
   12CHTO  H205 4663   4.832   0.952   2.764
   12CHTO  C114 4664   5.050   0.779   2.739
   12CHTO  H218 4665   4.987   0.817   2.659
   12CHTO  C116 4666   5.174   0.714   2.669
   12CHTO  H220 4667   5.239   0.666   2.746
   12CHTO   O79 4668   5.128   0.610   2.581
   12CHTO  H201 4669   5.201   0.562   2.547
   12CHTO  C120 4670   5.256   0.824   2.590
   12CHTO  H224 4671   5.192   0.854   2.504
   12CHTO   N21 4672   5.382   0.767   2.532
   12CHTO  H211 4673   5.408   0.820   2.442
   12CHTO  H212 4674   5.462   0.772   2.604
   12CHTO   O75 4675   4.967   0.699   2.827
   12CHTO  C112 4676   5.006   0.543   2.868
   12CHTO  H216 4677   5.113   0.537   0.012
   12CHTO   O73 4678   4.973   0.460   2.755
   12CHTO  C113 4679   4.991   0.319   2.778
   12CHTO  H217 4680   5.093   0.302   2.818
   12CHTO  C124 4681   4.981   0.243   2.645
   12CHTO   O83 4682   4.852   0.252   2.583
   12CHTO  H204 4683   4.855   0.210   2.499
   12CHTO  C109 4684   4.886   0.274   0.001
   12CHTO  H213 4685   4.787   0.304   2.845
   12CHTO  C110 4686   4.917   0.349   0.135
   12CHTO  H214 4687   5.014   0.316   0.172
   12CHTO   O78 4688   4.819   0.311   0.234
   12CHTO  H200 4689   4.733   0.337   0.207
   12CHTO  C111 4690   4.918   0.503   0.112
   12CHTO  H215 4691   4.815   0.535   0.090
   12CHTO   N19 4692   4.962   0.580   0.231
   12CHTO  H207 4693   5.062   0.550   0.260
   12CHTO  H208 4694   4.894   0.564   0.313
   12CHTO   O74 4695   4.889   0.129   0.019
   12CHTO  C115 4696   4.741   0.064   0.018
   12CHTO  H219 4697   4.665   0.137   0.046
   12CHTO   O76 4698   4.699   0.015   2.754
   12CHTO  C122 4699   4.775   9.902   2.709
   12CHTO  H226 4700   4.879   9.935   2.699
   12CHTO  C126 4701   4.727   9.866   2.564
   12CHTO   O85 4702   4.802   9.759   2.506
   12CHTO  H206 4703   4.769   9.740   2.421
   12CHTO  C121 4704   4.764   9.779   2.808
   12CHTO  H225 4705   4.713   9.695   2.757
   12CHTO   O81 4706   4.897   9.733   2.841
   12CHTO  H202 4707   4.893   9.653   0.007
   12CHTO  C119 4708   4.685   9.814   0.056
   12CHTO  H223 4709   4.583   9.835   0.023
   12CHTO  C117 4710   4.741   9.944   0.123
   12CHTO  H221 4711   4.844   9.937   0.158
   12CHTO   N20 4712   4.661   9.981   0.245
   12CHTO  H209 4713   4.665   9.900   0.317
   12CHTO  H210 4714   4.559   0.002   0.218
   12CHTO   O80 4715   4.662   9.687   0.150
   12CHTO  C103 4716   4.519   9.619   0.159
   12CHTO  H190 4717   4.445   9.691   0.198
   12CHTO  C101 4718   4.462   9.554   0.027
   12CHTO  H188 4719   4.541   9.495   2.863
   12CHTO   O68 4720   4.421   9.668   2.810
   12CHTO  H168 4721   4.397   9.631   2.727
   12CHTO   C99 4722   4.338   9.457   0.059
   12CHTO  H186 4723   4.254   9.517   0.100
   12CHTO   N17 4724   4.285   9.384   2.820
   12CHTO  H174 4725   4.360   9.317   2.781
   12CHTO  H175 4726   4.195   9.331   2.846
   12CHTO   C97 4727   4.378   9.358   0.172
   12CHTO  H184 4728   4.460   9.294   0.135
   12CHTO   O64 4729   4.417   9.433   0.289
   12CHTO  C104 4730   4.538   9.508   0.270
   12CHTO  H191 4731   4.621   9.443   0.241
   12CHTO  C108 4732   4.577   9.570   0.404
   12CHTO   O71 4733   4.615   9.470   0.499
   12CHTO  H171 4734   4.638   9.511   0.580
   12CHTO   O62 4735   4.268   9.279   0.222
   12CHTO   C91 4736   4.299   9.140   0.246
   12CHTO  H178 4737   4.340   9.100   0.154
   12CHTO   C92 4738   4.165   9.063   0.272
   12CHTO  H179 4739   4.091   9.089   0.194
   12CHTO   O66 4740   4.191   8.923   0.253
   12CHTO  H166 4741   4.213   8.905   0.163
   12CHTO   C93 4742   4.107   9.082   0.417
   12CHTO  H180 4743   4.040   8.997   0.436
   12CHTO   N16 4744   4.021   9.202   0.431
   12CHTO  H172 4745   3.936   9.194   0.364
   12CHTO  H173 4746   4.078   9.291   0.408
   12CHTO   C94 4747   4.222   9.081   0.526
   12CHTO  H181 4748   4.245   9.181   0.563
   12CHTO   O61 4749   4.345   9.030   0.472
   12CHTO   C95 4750   4.401   9.112   0.367
   12CHTO  H182 4751   4.431   9.207   0.410
   12CHTO  C106 4752   4.533   9.044   0.318
   12CHTO   O69 4753   4.510   8.911   0.268
   12CHTO  H169 4754   4.592   8.873   0.243
   12CHTO   O63 4755   4.178   8.990   0.648
   12CHTO   C96 4756   4.285   8.986   0.769
   12CHTO  H183 4757   4.333   9.084   0.773
   12CHTO   C98 4758   4.397   8.878   0.754
   12CHTO  H185 4759   4.445   8.886   0.655
   12CHTO   O67 4760   4.501   8.903   0.849
   12CHTO  H167 4761   4.545   8.984   0.829
   12CHTO  C102 4762   4.341   8.730   0.776
   12CHTO  H189 4763   4.431   8.666   0.786
   12CHTO   N18 4764   4.264   8.672   0.664
   12CHTO  H176 4765   4.257   8.742   0.582
   12CHTO  H177 4766   4.309   8.580   0.630
   12CHTO  C105 4767   4.263   8.722   0.911
   12CHTO  H192 4768   4.205   8.629   0.913
   12CHTO   O65 4769   4.169   8.829   0.934
   12CHTO  C100 4770   4.202   8.967   0.903
   12CHTO  H187 4771   4.106   9.018   0.889
   12CHTO  C107 4772   4.267   9.031   1.029
   12CHTO   O70 4773   4.290   9.172   1.014
   12CHTO  H170 4774   4.208   9.217   1.009
   12CHTO   O57 4775   4.381   8.707   1.023
   12CHTO   C85 4776   4.344   8.682   1.160
   12CHTO  H157 4777   4.240   8.715   1.170
   12CHTO   C83 4778   4.429   8.774   1.253
   12CHTO  H155 4779   4.413   8.878   1.223
   12CHTO   O56 4780   4.569   8.747   1.232
   12CHTO  H135 4781   4.595   8.773   1.146
   12CHTO   C81 4782   4.382   8.757   1.400
   12CHTO  H153 4783   4.275   8.779   1.404
   12CHTO   N14 4784   4.441   8.856   1.493
   12CHTO  H141 4785   4.517   8.914   1.445
   12CHTO  H142 4786   4.483   8.809   1.579
   12CHTO   C79 4787   4.402   8.607   1.445
   12CHTO  H151 4788   4.353   8.597   1.542
   12CHTO   O52 4789   4.332   8.516   1.354
   12CHTO   C86 4790   4.365   8.534   1.212
   12CHTO  H158 4791   4.471   8.502   1.203
   12CHTO   C90 4792   4.283   8.434   1.127
   12CHTO   O60 4793   4.314   8.299   1.164
   12CHTO  H138 4794   4.267   8.240   1.108
   12CHTO   O50 4795   4.540   8.567   1.458
   12CHTO   C73 4796   4.585   8.489   1.570
   12CHTO  H145 4797   4.499   8.438   1.618
   12CHTO   C74 4798   4.650   8.583   1.677
   12CHTO  H146 4799   4.578   8.664   1.698
   12CHTO   O54 4800   4.665   8.510   1.800
   12CHTO  H133 4801   4.581   8.490   1.837
   12CHTO   C75 4802   4.786   8.640   1.620
   12CHTO  H147 4803   4.766   8.692   1.525
   12CHTO   N13 4804   4.852   8.739   1.709
   12CHTO  H139 4805   4.786   8.824   1.723
   12CHTO  H140 4806   4.943   8.774   1.664
   12CHTO   C76 4807   4.879   8.514   1.587
   12CHTO  H148 4808   4.886   8.454   1.678
   12CHTO   O49 4809   4.814   8.434   1.483
   12CHTO   C77 4810   4.687   8.379   1.525
   12CHTO  H149 4811   4.704   8.310   1.607
   12CHTO   C88 4812   4.630   8.294   1.410
   12CHTO   O58 4813   4.716   8.177   1.381
   12CHTO  H136 4814   4.715   8.118   1.454
   12CHTO   O51 4815   5.025   8.553   1.532
   12CHTO   C78 4816   5.137   8.451   1.587
   12CHTO  H150 4817   5.093   8.350   1.606
   12CHTO   C80 4818   5.198   8.504   1.719
   12CHTO  H152 4819   5.239   8.606   1.701
   12CHTO   O55 4820   5.092   8.514   1.816
   12CHTO  H134 4821   5.033   8.584   1.792
   12CHTO   C84 4822   5.313   8.410   1.773
   12CHTO  H156 4823   5.268   8.314   1.798
   12CHTO   N15 4824   5.378   8.462   1.898
   12CHTO  H143 4825   5.424   8.557   1.880
   12CHTO  H144 4826   5.453   8.393   1.932
   12CHTO   C87 4827   5.418   8.386   1.661
   12CHTO  H159 4828   5.472   8.478   1.642
   12CHTO   O53 4829   5.345   8.338   1.533
   12CHTO   C82 4830   5.249   8.432   1.482
   12CHTO  H154 4831   5.297   8.527   1.457
   12CHTO   C89 4832   5.196   8.372   1.349
   12CHTO   O59 4833   5.105   8.458   1.280
   12CHTO  H137 4834   5.076   8.416   1.202
   12CHTO   O45 4835   5.525   8.262   1.705
   12CHTO   C67 4836   5.660   8.268   1.652
   12CHTO  H124 4837   5.708   8.174   1.679
   12CHTO   C65 4838   5.666   8.284   1.496
   12CHTO  H122 4839   5.566   8.267   1.458
   12CHTO   O44 4840   5.753   8.184   1.442
   12CHTO  H102 4841   5.718   8.098   1.457
   12CHTO   C63 4842   5.703   8.432   1.457
   12CHTO  H120 4843   5.636   8.499   1.510
   12CHTO   N11 4844   5.675   8.473   1.315
   12CHTO  H108 4845   5.651   8.387   1.256
   12CHTO  H109 4846   5.760   8.523   1.274
   12CHTO   C61 4847   5.848   8.463   1.514
   12CHTO  H118 4848   5.861   8.572   1.511
   12CHTO   O40 4849   5.863   8.422   1.653
   12CHTO   C68 4850   5.743   8.382   1.727
   12CHTO  H125 4851   5.680   8.472   1.742
   12CHTO   C72 4852   5.791   8.336   1.868
   12CHTO   O48 4853   5.684   8.304   1.957
   12CHTO  H105 4854   5.637   8.382   1.981
   12CHTO   O38 4855   5.958   8.396   1.448
   12CHTO   C55 4856   6.014   8.456   1.329
   12CHTO  H112 4857   5.951   8.539   1.294
   12CHTO   C56 4858   6.032   8.344   1.217
   12CHTO  H113 4859   6.101   8.269   1.257
   12CHTO   O42 4860   5.907   8.277   1.194
   12CHTO  H100 4861   5.919   8.206   1.134
   12CHTO   C57 4862   6.089   8.409   1.085
   12CHTO  H114 4863   6.010   8.473   1.046
   12CHTO   N10 4864   6.119   8.310   0.979
   12CHTO  H106 4865   6.219   8.272   0.989
   12CHTO  H107 4866   6.049   8.227   0.983
   12CHTO   C58 4867   6.213   8.498   1.114
   12CHTO  H115 4868   6.303   8.433   1.130
   12CHTO   O37 4869   6.194   8.583   1.229
   12CHTO   C59 4870   6.155   8.518   1.351
   12CHTO  H116 4871   6.227   8.441   1.377
   12CHTO   C70 4872   6.155   8.621   1.465
   12CHTO   O46 4873   6.285   8.675   1.490
   12CHTO  H103 4874   6.280   8.737   1.560
   12CHTO   O39 4875   6.238   8.605   0.989
   12CHTO   C60 4876   6.328   8.566   0.884
   12CHTO  H117 4877   6.370   8.468   0.905
   12CHTO   C62 4878   6.251   8.559   0.748
   12CHTO  H119 4879   6.174   8.480   0.759
   12CHTO   O43 4880   6.184   8.684   0.725
   12CHTO  H101 4881   6.132   8.678   0.647
   12CHTO   C66 4882   6.351   8.518   0.629
   12CHTO  H123 4883   6.399   8.424   0.654
   12CHTO   N12 4884   6.279   8.493   0.500
   12CHTO  H110 4885   6.317   8.558   0.422
   12CHTO  H111 4886   6.173   8.505   0.512
   12CHTO   C69 4887   6.462   8.626   0.618
   12CHTO  H126 4888   6.416   8.725   0.595
   12CHTO   O41 4889   6.537   8.633   0.755
   12CHTO   C64 4890   6.447   8.666   0.875
   12CHTO  H121 4891   6.406   8.769   0.864
   12CHTO   C71 4892   6.536   8.661   1.001
   12CHTO   O47 4893   6.468   8.708   1.117
   12CHTO  H104 4894   6.526   8.707   1.190
   12CHTO   O34 4895   6.565   8.592   0.503
   12CHTO   C49 4896   6.714   8.569   0.492
   12CHTO   H91 4897   6.763   8.662   0.520
   12CHTO   C47 4898   6.747   8.534   0.345
   12CHTO   H89 4899   6.859   8.530   0.342
   12CHTO   O33 4900   6.703   8.638   0.257
   12CHTO   H70 4901   6.736   8.623   0.170
   12CHTO   C45 4902   6.683   8.391   0.302
   12CHTO   H87 4903   6.586   8.410   0.254
   12CHTO    N8 4904   6.772   8.325   0.202
   12CHTO   H75 4905   6.865   8.378   0.190
   12CHTO   H76 4906   6.721   8.318   0.106
   12CHTO   C43 4907   6.648   8.303   0.432
   12CHTO   H85 4908   6.553   8.343   0.468
   12CHTO   O29 4909   6.752   8.317   0.530
   12CHTO   C50 4910   6.765   8.452   0.582
   12CHTO   H92 4911   6.710   8.456   0.677
   12CHTO   C54 4912   6.912   8.476   0.625
   12CHTO   O36 4913   6.951   8.388   0.731
   12CHTO   H72 4914   7.040   8.405   0.754
   12CHTO   O27 4915   6.619   8.164   0.404
   12CHTO   C37 4916   6.538   8.064   0.466
   12CHTO   H79 4917   6.551   7.968   0.415
   12CHTO   C38 4918   6.579   8.042   0.615
   12CHTO   H80 4919   6.584   8.141   0.665
   12CHTO   O31 4920   6.711   7.984   0.615
   12CHTO   H68 4921   6.775   8.047   0.587
   12CHTO   C39 4922   6.476   7.951   0.693
   12CHTO   H81 4923   6.482   7.851   0.650
   12CHTO    N7 4924   6.508   7.939   0.839
   12CHTO   H73 4925   6.507   8.036   0.885
   12CHTO   H74 4926   6.604   7.892   0.852
   12CHTO   C40 4927   6.329   8.004   0.669
   12CHTO   H82 4928   6.319   8.103   0.715
   12CHTO   O26 4929   6.305   8.008   0.528
   12CHTO   C41 4930   6.388   8.105   0.457
   12CHTO   H83 4931   6.375   8.204   0.503
   12CHTO   C52 4932   6.341   8.113   0.310
   12CHTO   O35 4933   6.205   8.169   0.298
   12CHTO   H71 4934   6.205   8.259   0.324
   12CHTO   O28 4935   6.225   7.916   0.720
   12CHTO   C42 4936   6.120   7.965   0.810
   12CHTO   H84 4937   6.150   8.067   0.836
   12CHTO   C44 4938   6.106   7.888   0.946
   12CHTO   H86 4939   6.074   7.786   0.926
   12CHTO   O32 4940   6.236   7.886   1.008
   12CHTO   H69 4941   6.294   7.831   0.958
   12CHTO   C48 4942   5.998   7.956   1.041
   12CHTO   H90 4943   6.032   8.056   1.064
   12CHTO    N9 4944   5.985   7.887   1.175
   12CHTO   H77 4945   5.885   7.848   1.188
   12CHTO   H78 4946   6.010   7.955   1.255
   12CHTO   C51 4947   5.861   7.968   0.964
   12CHTO   H93 4948   5.823   7.867   0.944
   12CHTO   O30 4949   5.883   8.042   0.843
   12CHTO   C46 4950   5.978   7.976   0.744
   12CHTO   H88 4951   5.941   7.876   0.719
   12CHTO   C53 4952   5.975   8.067   0.619
   12CHTO   O72 4953   6.023   8.001   0.502
   12CHTO  H199 4954   5.958   7.941   0.471
   12CHTO   O22 4955   5.764   8.045   1.038
   12CHTO   C31 4956   5.624   8.056   0.993
   12CHTO   H59 4957   5.623   8.029   0.885
   12CHTO   C29 4958   5.527   7.959   1.064
   12CHTO   H57 4959   5.532   7.980   1.173
   12CHTO   O21 4960   5.574   7.824   1.046
   12CHTO   H37 4961   5.657   7.812   1.089
   12CHTO   C27 4962   5.377   7.977   1.015
   12CHTO   H55 4963   5.372   7.945   0.910
   12CHTO    N5 4964   5.281   7.896   1.094
   12CHTO   H43 4965   5.182   7.906   1.052
   12CHTO   H44 4966   5.281   7.929   1.197
   12CHTO   C25 4967   5.338   8.129   1.016
   12CHTO   H53 4968   5.332   8.164   1.121
   12CHTO   O17 4969   5.438   8.209   0.947
   12CHTO   C32 4970   5.570   8.202   1.003
   12CHTO   H60 4971   5.567   8.231   1.108
   12CHTO   C36 4972   5.662   8.300   0.926
   12CHTO   O25 4973   5.621   8.436   0.949
   12CHTO   H40 4974   5.682   8.494   0.906
   12CHTO   O15 4975   5.195   8.152   0.946
   12CHTO   C19 4976   5.115   8.260   0.889
   12CHTO   H47 4977   5.142   8.347   0.951
   12CHTO   C20 4978   5.148   8.292   0.740
   12CHTO   H48 4979   5.147   8.201   0.678
   12CHTO   O19 4980   5.283   8.342   0.738
   12CHTO   H35 4981   5.312   8.353   0.649
   12CHTO   C21 4982   5.050   8.398   0.675
   12CHTO   H49 4983   5.075   8.496   0.713
   12CHTO    N4 4984   5.065   8.407   0.527
   12CHTO   H41 4985   5.167   8.434   0.502
   12CHTO   H42 4986   4.998   8.481   0.487
   12CHTO   C22 4987   4.903   8.372   0.716
   12CHTO   H50 4988   4.865   8.283   0.665
   12CHTO   O14 4989   4.892   8.354   0.858
   12CHTO   C23 4990   4.962   8.239   0.908
   12CHTO   H51 4991   4.926   8.151   0.854
   12CHTO   C34 4992   4.926   8.221   1.056
   12CHTO   O23 4993   4.786   8.194   1.073
   12CHTO   H38 4994   4.765   8.110   1.038
   12CHTO   O16 4995   4.819   8.486   0.688
   12CHTO   C24 4996   4.656   8.459   0.659
   12CHTO   H52 4997   4.600   8.552   0.658
   12CHTO   C26 4998   4.596   8.369   0.769
   12CHTO   H54 4999   4.661   8.279   0.780
   12CHTO   O20 5000   4.601   8.444   0.892
   12CHTO   H36 5001   4.573   8.390   0.964
   12CHTO   C30 5002   4.452   8.322   0.733
   12CHTO   H58 5003   4.383   8.407   0.734
   12CHTO    N6 5004   4.402   8.226   0.835
   12CHTO   H45 5005   4.300   8.197   0.811
   12CHTO   H46 5006   4.464   8.138   0.837
   12CHTO   C33 5007   4.450   8.263   0.588
   12CHTO   H61 5008   4.514   8.173   0.584
   12CHTO   O18 5009   4.502   8.361   0.497
   12CHTO   C28 5010   4.640   8.396   0.518
   12CHTO   H56 5011   4.702   8.307   0.511
   12CHTO   C35 5012   4.684   8.494   0.407
   12CHTO   O24 5013   4.607   8.615   0.404
   12CHTO   H39 5014   4.639   8.671   0.335
   12CHTO    O9 5015   4.318   8.218   0.548
   12CHTO   C13 5016   4.317   8.097   0.433
   12CHTO   H26 5017   4.404   8.113   0.366
   12CHTO   C11 5018   4.179   8.104   0.354
   12CHTO   H24 5019   4.184   8.191   0.287
   12CHTO    O8 5020   4.070   8.127   0.445
   12CHTO    H3 5021   4.060   8.054   0.503
   12CHTO    C9 5022   4.162   7.976   0.266
   12CHTO   H22 5023   4.251   7.974   0.201
   12CHTO    N2 5024   4.047   7.980   0.173
   12CHTO   H10 5025   4.053   8.068   0.111
   12CHTO   H11 5026   4.047   7.891   0.112
   12CHTO    C7 5027   4.165   7.850   0.360
   12CHTO   H20 5028   4.152   7.763   0.292
   12CHTO    O4 5029   4.294   7.841   0.423
   12CHTO   C14 5030   4.341   7.954   0.501
   12CHTO   H27 5031   4.451   7.940   0.509
   12CHTO   C18 5032   4.284   7.944   0.645
   12CHTO   O13 5033   4.337   7.831   0.716
   12CHTO    H7 5034   4.304   7.830   0.803
   12CHTO    O2 5035   4.047   7.851   0.477
   12CHTO    C1 5036   3.929   7.773   0.457
   12CHTO   H14 5037   3.918   7.745   0.350
   12CHTO    C2 5038   3.799   7.853   0.502
   12CHTO   H15 5039   3.821   7.893   0.602
   12CHTO    O6 5040   3.779   7.962   0.411
   12CHTO    H1 5041   3.708   8.016   0.441
   12CHTO    C3 5042   3.670   7.757   0.510
   12CHTO   H16 5043   3.642   7.725   0.408
   12CHTO    N1 5044   3.550   7.828   0.568
   12CHTO    H8 5045   3.465   7.762   0.570
   12CHTO    H9 5046   3.573   7.861   0.669
   12CHTO    C4 5047   3.705   7.626   0.588
   12CHTO   H17 5048   3.726   7.651   0.693
   12CHTO    O1 5049   3.820   7.563   0.529
   12CHTO    C5 5050   3.941   7.640   0.539
   12CHTO   H18 5051   3.957   7.667   0.643
   12CHTO   C16 5052   4.058   7.550   0.492
   12CHTO   O11 5053   4.041   7.503   0.358
   12CHTO    H5 5054   4.044   7.575   0.298
   12CHTO    O3 5055   3.600   7.527   0.581
   12CHTO    C6 5056   3.611   7.420   0.681
   12CHTO   H19 5057   3.711   7.413   0.725
   12CHTO    C8 5058   3.509   7.443   0.797
   12CHTO   H21 5059   3.409   7.452   0.754
   12CHTO    O7 5060   3.545   7.566   0.862
   12CHTO    H2 5061   3.527   7.639   0.806
   12CHTO   C12 5062   3.512   7.321   0.897
   12CHTO   H25 5063   3.611   7.323   0.946
   12CHTO    N3 5064   3.410   7.337   1.006
   12CHTO   H12 5065   3.339   7.256   1.005
   12CHTO   H13 5066   3.459   7.343   1.102
   12CHTO   C15 5067   3.498   7.186   0.818
   12CHTO   H28 5068   3.398   7.173   0.777
   12CHTO   O10 5069   3.534   7.061   0.905
   12CHTO    H4 5070   3.618   7.072   0.945
   12CHTO    O5 5071   3.595   7.178   0.712
   12CHTO   C10 5072   3.583   7.282   0.613
   12CHTO   H23 5073   3.482   7.280   0.572
   12CHTO   C17 5074   3.680   7.247   0.500
   12CHTO   O12 5075   3.659   7.328   0.384
   12CHTO    H6 5076   3.719   7.303   0.317
   13CHTO  H203 5077   7.624   3.953   2.634
   13CHTO   O82 5078   7.536   3.947   2.602
   13CHTO  C123 5079   7.460   4.062   2.641
   13CHTO  H227 5080   7.508   4.152   2.599
   13CHTO   O77 5081   7.331   4.040   2.577
   13CHTO  C118 5082   7.237   4.147   2.595
   13CHTO  H222 5083   7.281   4.242   2.562
   13CHTO  C125 5084   7.110   4.117   2.507
   13CHTO   O84 5085   7.142   4.117   2.368
   13CHTO  H205 5086   7.194   4.041   2.347
   13CHTO  C114 5087   7.201   4.156   2.744
   13CHTO  H218 5088   7.157   4.061   2.776
   13CHTO  C116 5089   7.329   4.180   2.831
   13CHTO  H220 5090   7.367   4.283   2.810
   13CHTO   O79 5091   7.293   4.179   0.088
   13CHTO  H201 5092   7.262   4.094   0.113
   13CHTO  C120 5093   7.441   4.073   2.798
   13CHTO  H224 5094   7.405   3.976   2.838
   13CHTO   N21 5095   7.570   4.104   2.866
   13CHTO  H211 5096   7.582   4.211   2.877
   13CHTO  H212 5097   7.573   4.055   0.080
   13CHTO   O75 5098   7.106   4.263   2.754
   13CHTO  C112 5099   6.981   4.233   2.855
   13CHTO  H216 5100   7.015   4.166   0.054
   13CHTO   O73 5101   6.877   4.172   2.776
   13CHTO  C113 5102   6.754   4.148   2.846
   13CHTO  H217 5103   6.774   4.083   0.052
   13CHTO  C124 5104   6.658   4.070   2.754
   13CHTO   O83 5105   6.624   4.139   2.633
   13CHTO  H204 5106   6.700   4.147   2.579
   13CHTO  C109 5107   6.694   4.283   0.011
   13CHTO  H213 5108   6.681   4.345   2.803
   13CHTO  C110 5109   6.795   4.353   0.107
   13CHTO  H214 5110   6.807   4.291   0.196
   13CHTO   O78 5111   6.741   4.479   0.149
   13CHTO  H200 5112   6.730   4.537   0.076
   13CHTO  C111 5113   6.933   4.370   0.035
   13CHTO  H215 5114   6.919   4.440   2.834
   13CHTO   N19 5115   7.038   4.427   0.124
   13CHTO  H207 5116   7.120   4.359   0.137
   13CHTO  H208 5117   7.074   4.521   0.083
   13CHTO   O74 5118   6.564   4.263   0.075
   13CHTO  C115 5119   6.453   4.389   0.051
   13CHTO  H219 5120   6.459   4.464   0.129
   13CHTO   O76 5121   6.481   4.467   2.797
   13CHTO  C122 5122   6.388   4.571   2.763
   13CHTO  H226 5123   6.411   4.601   2.660
   13CHTO  C126 5124   6.412   4.698   2.851
   13CHTO   O85 5125   6.544   4.752   2.839
   13CHTO  H206 5126   6.554   4.792   2.755
   13CHTO  C121 5127   6.238   4.522   2.768
   13CHTO  H225 5128   6.173   4.612   2.762
   13CHTO   O81 5129   6.211   4.441   2.653
   13CHTO  H202 5130   6.216   4.493   2.575
   13CHTO  C119 5131   6.204   4.444   0.017
   13CHTO  H223 5132   6.208   4.517   0.097
   13CHTO  C117 5133   6.307   4.330   0.050
   13CHTO  H221 5134   6.311   4.247   2.861
   13CHTO   N20 5135   6.277   4.267   0.183
   13CHTO  H209 5136   6.348   4.187   0.203
   13CHTO  H210 5137   6.177   4.227   0.183
   13CHTO   O80 5138   6.050   4.400   0.020
   13CHTO  C103 5139   5.948   4.475   0.113
   13CHTO  H190 5140   5.990   4.488   0.213
   13CHTO  C101 5141   5.896   4.614   0.061
   13CHTO  H188 5142   5.867   4.604   2.838
   13CHTO   O68 5143   6.012   4.718   0.069
   13CHTO  H168 5144   5.986   4.799   0.031
   13CHTO   C99 5145   5.767   4.663   0.143
   13CHTO  H186 5146   5.797   4.683   0.248
   13CHTO   N17 5147   5.707   4.790   0.090
   13CHTO  H174 5148   5.667   4.774   2.873
   13CHTO  H175 5149   5.630   4.826   0.158
   13CHTO   C97 5150   5.661   4.549   0.151
   13CHTO  H184 5151   5.619   4.531   0.050
   13CHTO   O64 5152   5.723   4.430   0.205
   13CHTO  C104 5153   5.828   4.375   0.125
   13CHTO  H191 5154   5.792   4.349   0.025
   13CHTO  C108 5155   5.874   4.242   0.188
   13CHTO   O71 5156   5.771   4.143   0.185
   13CHTO  H171 5157   5.703   4.165   0.246
   13CHTO   O62 5158   5.557   4.574   0.248
   13CHTO   C91 5159   5.420   4.582   0.202
   13CHTO  H178 5160   5.419   4.613   0.098
   13CHTO   C92 5161   5.350   4.697   0.283
   13CHTO  H179 5162   5.366   4.679   0.391
   13CHTO   O66 5163   5.420   4.820   0.255
   13CHTO  H166 5164   5.386   4.890   0.308
   13CHTO   C93 5165   5.196   4.712   0.250
   13CHTO  H180 5166   5.188   4.749   0.147
   13CHTO   N16 5167   5.126   4.812   0.335
   13CHTO  H172 5168   5.022   4.817   0.308
   13CHTO  H173 5169   5.173   4.909   0.323
   13CHTO   C94 5170   5.126   4.571   0.259
   13CHTO  H181 5171   5.126   4.532   0.361
   13CHTO   O61 5172   5.196   4.477   0.177
   13CHTO   C95 5173   5.331   4.451   0.218
   13CHTO  H182 5174   5.332   4.418   0.322
   13CHTO  C106 5175   5.381   4.330   0.131
   13CHTO   O69 5176   5.491   4.263   0.194
   13CHTO  H169 5177   5.567   4.320   0.194
   13CHTO   O63 5178   4.979   4.579   0.202
   13CHTO   C96 5179   4.869   4.512   0.291
   13CHTO  H183 5180   4.891   4.536   0.395
   13CHTO   C98 5181   4.863   4.356   0.277
   13CHTO  H185 5182   4.890   4.329   0.174
   13CHTO   O67 5183   4.967   4.300   0.360
   13CHTO  H167 5184   5.051   4.325   0.328
   13CHTO  C102 5185   4.720   4.292   0.314
   13CHTO  H189 5186   4.708   4.304   0.422
   13CHTO   N18 5187   4.706   4.147   0.287
   13CHTO  H176 5188   4.609   4.112   0.320
   13CHTO  H177 5189   4.719   4.127   0.182
   13CHTO  C105 5190   4.612   4.378   0.242
   13CHTO  H192 5191   4.636   4.382   0.135
   13CHTO   O65 5192   4.617   4.511   0.296
   13CHTO  C100 5193   4.733   4.584   0.254
   13CHTO  H187 5194   4.728   4.595   0.145
   13CHTO  C107 5195   4.727   4.726   0.316
   13CHTO   O70 5196   4.612   4.798   0.273
   13CHTO  H170 5197   4.619   4.819   0.182
   13CHTO   O57 5198   4.462   4.316   0.261
   13CHTO   C85 5199   4.360   4.363   0.170
   13CHTO  H157 5200   4.414   4.385   0.075
   13CHTO   C83 5201   4.306   4.502   0.218
   13CHTO  H155 5202   4.387   4.575   0.210
   13CHTO   O56 5203   4.272   4.495   0.358
   13CHTO  H135 5204   4.348   4.478   0.410
   13CHTO   C81 5205   4.190   4.546   0.125
   13CHTO  H153 5206   4.226   4.544   0.022
   13CHTO   N14 5207   4.147   4.687   0.147
   13CHTO  H141 5208   4.042   4.692   0.168
   13CHTO  H142 5209   4.168   4.746   0.060
   13CHTO   C79 5210   4.073   4.442   0.137
   13CHTO  H151 5211   3.994   4.474   0.068
   13CHTO   O52 5212   4.118   4.311   0.089
   13CHTO   C86 5213   4.242   4.260   0.148
   13CHTO  H158 5214   4.210   4.214   0.244
   13CHTO   C90 5215   4.294   4.143   0.060
   13CHTO   O60 5216   4.199   4.036   0.050
   13CHTO  H138 5217   4.195   3.990   0.132
   13CHTO   O50 5218   4.017   4.432   0.269
   13CHTO   C73 5219   3.898   4.369   0.318
   13CHTO  H145 5220   3.895   4.264   0.286
   13CHTO   C74 5221   3.772   4.442   0.263
   13CHTO  H146 5222   3.779   4.440   0.153
   13CHTO   O54 5223   3.656   4.363   0.297
   13CHTO  H133 5224   3.579   4.402   0.261
   13CHTO   C75 5225   3.769   4.590   0.319
   13CHTO  H147 5226   3.861   4.641   0.288
   13CHTO   N13 5227   3.657   4.672   0.267
   13CHTO  H139 5228   3.665   4.680   0.159
   13CHTO  H140 5229   3.562   4.625   0.291
   13CHTO   C76 5230   3.770   4.583   0.479
   13CHTO  H148 5231   3.680   4.529   0.509
   13CHTO   O49 5232   3.887   4.508   0.524
   13CHTO   C77 5233   3.897   4.373   0.475
   13CHTO  H149 5234   3.812   4.315   0.511
   13CHTO   C88 5235   4.022   4.311   0.538
   13CHTO   O58 5236   4.039   4.170   0.498
   13CHTO  H136 5237   4.115   4.135   0.540
   13CHTO   O51 5238   3.774   4.741   0.549
   13CHTO   C78 5239   3.914   4.798   0.613
   13CHTO  H150 5240   3.899   4.904   0.643
   13CHTO   C80 5241   4.029   4.794   0.510
   13CHTO  H152 5242   4.033   4.693   0.463
   13CHTO   O55 5243   3.994   4.889   0.407
   13CHTO  H134 5244   4.057   4.885   0.337
   13CHTO   C84 5245   4.169   4.825   0.577
   13CHTO  H156 5246   4.163   4.925   0.622
   13CHTO   N15 5247   4.284   4.829   0.480
   13CHTO  H143 5248   4.250   4.809   0.380
   13CHTO  H144 5249   4.359   4.758   0.506
   13CHTO   C87 5250   4.187   4.722   0.691
   13CHTO  H159 5251   4.178   4.620   0.652
   13CHTO   O53 5252   4.077   4.751   0.793
   13CHTO   C82 5253   3.946   4.720   0.743
   13CHTO  H154 5254   3.939   4.613   0.726
   13CHTO   C89 5255   3.841   4.755   0.853
   13CHTO   O59 5256   3.848   4.892   0.895
   13CHTO  H137 5257   3.929   4.908   0.940
   13CHTO   O45 5258   4.324   4.737   0.772
   13CHTO   C67 5259   4.428   4.646   0.732
   13CHTO  H124 5260   4.415   4.613   0.629
   13CHTO   C65 5261   4.565   4.719   0.745
   13CHTO  H122 5262   4.550   4.817   0.699
   13CHTO   O44 5263   4.666   4.647   0.672
   13CHTO  H102 5264   4.746   4.696   0.672
   13CHTO   C63 5265   4.594   4.747   0.897
   13CHTO  H120 5266   4.509   4.802   0.939
   13CHTO   N11 5267   4.707   4.841   0.923
   13CHTO  H108 5268   4.711   4.866   1.027
   13CHTO  H109 5269   4.799   4.796   0.893
   13CHTO   C61 5270   4.601   4.610   0.976
   13CHTO  H118 5271   4.603   4.637   1.082
   13CHTO   O40 5272   4.481   4.531   0.955
   13CHTO   C68 5273   4.424   4.513   0.821
   13CHTO  H125 5274   4.317   4.489   0.836
   13CHTO   C72 5275   4.489   4.390   0.752
   13CHTO   O48 5276   4.428   4.357   0.627
   13CHTO  H105 5277   4.341   4.325   0.641
   13CHTO   O38 5278   4.714   4.526   0.940
   13CHTO   C55 5279   4.833   4.504   1.020
   13CHTO  H112 5280   4.833   4.396   1.039
   13CHTO   C56 5281   4.845   4.588   1.156
   13CHTO  H113 5282   4.821   4.693   1.132
   13CHTO   O42 5283   4.744   4.544   1.249
   13CHTO  H100 5284   4.745   4.598   1.325
   13CHTO   C57 5285   4.989   4.579   1.220
   13CHTO  H114 5286   5.002   4.478   1.256
   13CHTO   N10 5287   5.008   4.672   1.335
   13CHTO  H106 5288   4.914   4.687   1.387
   13CHTO  H107 5289   5.081   4.631   1.403
   13CHTO   C58 5290   5.094   4.607   1.110
   13CHTO  H115 5291   5.080   4.711   1.071
   13CHTO   O37 5292   5.079   4.513   1.003
   13CHTO   C59 5293   4.957   4.529   0.928
   13CHTO  H116 5294   4.954   4.628   0.884
   13CHTO   C70 5295   4.966   4.425   0.815
   13CHTO   O46 5296   4.867   4.441   0.712
   13CHTO  H103 5297   4.782   4.426   0.747
   13CHTO   O39 5298   5.249   4.588   1.165
   13CHTO   C60 5299   5.342   4.675   1.098
   13CHTO  H117 5300   5.314   4.684   0.993
   13CHTO   C62 5301   5.341   4.818   1.161
   13CHTO  H119 5302   5.237   4.855   1.150
   13CHTO   O43 5303   5.371   4.809   1.302
   13CHTO  H101 5304   5.364   4.894   1.341
   13CHTO   C66 5305   5.440   4.913   1.079
   13CHTO  H123 5306   5.412   4.911   0.974
   13CHTO   N12 5307   5.429   5.055   1.121
   13CHTO  H110 5308   5.327   5.089   1.107
   13CHTO  H111 5309   5.498   5.116   1.065
   13CHTO   C69 5310   5.585   4.858   1.087
   13CHTO  H126 5311   5.620   4.859   1.193
   13CHTO   O41 5312   5.587   4.710   1.031
   13CHTO   C64 5313   5.485   4.614   1.101
   13CHTO  H121 5314   5.515   4.599   1.207
   13CHTO   C71 5315   5.486   4.476   1.031
   13CHTO   O47 5316   5.614   4.414   1.042
   13CHTO  H104 5317   5.610   4.327   1.008
   13CHTO   O34 5318   5.684   4.948   1.003
   13CHTO   C49 5319   5.816   5.018   0.974
   13CHTO   H91 5320   5.877   4.949   0.916
   13CHTO   C47 5321   5.886   5.052   1.108
   13CHTO   H89 5322   5.985   5.094   1.082
   13CHTO   O33 5323   5.905   4.929   1.182
   13CHTO   H70 5324   5.823   4.893   1.208
   13CHTO   C45 5325   5.798   5.162   1.187
   13CHTO   H87 5326   5.698   5.120   1.203
   13CHTO    N8 5327   5.856   5.195   1.320
   13CHTO   H75 5328   5.867   5.104   1.379
   13CHTO   H76 5329   5.791   5.263   1.372
   13CHTO   C43 5330   5.775   5.292   1.094
   13CHTO   H85 5331   5.704   5.355   1.148
   13CHTO   O29 5332   5.726   5.254   0.964
   13CHTO   C50 5333   5.793   5.147   0.892
   13CHTO   H92 5334   5.727   5.120   0.808
   13CHTO   C54 5335   5.923   5.196   0.822
   13CHTO   O36 5336   5.895   5.295   0.722
   13CHTO   H72 5337   5.869   5.375   0.763
   13CHTO   O27 5338   5.894   5.373   1.078
   13CHTO   C37 5339   5.946   5.499   1.123
   13CHTO   H79 5340   5.909   5.522   1.224
   13CHTO   C38 5341   6.101   5.493   1.129
   13CHTO   H80 5342   6.139   5.455   1.032
   13CHTO   O31 5343   6.137   5.398   1.232
   13CHTO   H68 5344   6.115   5.311   1.205
   13CHTO   C39 5345   6.166   5.634   1.159
   13CHTO   H81 5346   6.140   5.661   1.261
   13CHTO    N7 5347   6.316   5.634   1.148
   13CHTO   H73 5348   6.353   5.536   1.121
   13CHTO   H74 5349   6.360   5.666   1.242
   13CHTO   C40 5350   6.104   5.745   1.065
   13CHTO   H82 5351   6.141   5.732   0.963
   13CHTO   O26 5352   5.961   5.740   1.071
   13CHTO   C41 5353   5.903   5.614   1.026
   13CHTO   H83 5354   5.937   5.591   0.924
   13CHTO   C52 5355   5.749   5.632   1.022
   13CHTO   O35 5356   5.706   5.735   0.923
   13CHTO   H71 5357   5.739   5.820   0.948
   13CHTO   O28 5358   6.132   5.879   1.111
   13CHTO   C42 5359   6.151   6.000   1.029
   13CHTO   H84 5360   6.243   5.981   0.974
   13CHTO   C44 5361   6.177   6.127   1.118
   13CHTO   H86 5362   6.096   6.136   1.190
   13CHTO   O32 5363   6.298   6.103   1.193
   13CHTO   H69 5364   6.372   6.098   1.135
   13CHTO   C48 5365   6.184   6.264   1.037
   13CHTO   H90 5366   6.276   6.263   0.978
   13CHTO    N9 5367   6.194   6.384   1.127
   13CHTO   H77 5368   6.202   6.474   1.068
   13CHTO   H78 5369   6.108   6.389   1.192
   13CHTO   C51 5370   6.062   6.273   0.938
   13CHTO   H93 5371   5.970   6.277   0.997
   13CHTO   O30 5372   6.068   6.158   0.854
   13CHTO   C46 5373   6.039   6.030   0.922
   13CHTO   H88 5374   5.943   6.037   0.973
   13CHTO   C53 5375   6.029   5.928   0.806
   13CHTO   O72 5376   6.152   5.914   0.733
   13CHTO  H199 5377   6.171   5.995   0.688
   13CHTO   O22 5378   6.070   6.386   0.848
   13CHTO   C31 5379   5.957   6.431   0.762
   13CHTO   H59 5380   6.002   6.503   0.690
   13CHTO   C29 5381   5.891   6.319   0.678
   13CHTO   H57 5382   5.855   6.242   0.748
   13CHTO   O21 5383   5.993   6.259   0.596
   13CHTO   H37 5384   6.055   6.213   0.649
   13CHTO   C27 5385   5.770   6.371   0.591
   13CHTO   H55 5386   5.808   6.439   0.514
   13CHTO    N5 5387   5.697   6.260   0.524
   13CHTO   H43 5388   5.765   6.204   0.462
   13CHTO   H44 5389   5.651   6.196   0.598
   13CHTO   C25 5390   5.673   6.456   0.682
   13CHTO   H53 5391   5.627   6.390   0.757
   13CHTO   O17 5392   5.747   6.561   0.751
   13CHTO   C32 5393   5.849   6.512   0.841
   13CHTO   H60 5394   5.804   6.446   0.916
   13CHTO   C36 5395   5.913   6.633   0.913
   13CHTO   O25 5396   5.816   6.707   0.988
   13CHTO   H40 5397   5.764   6.759   0.930
   13CHTO   O15 5398   5.555   6.525   0.594
   13CHTO   C19 5399   5.417   6.549   0.633
   13CHTO   H47 5400   5.401   6.481   0.719
   13CHTO   C20 5401   5.386   6.695   0.678
   13CHTO   H48 5402   5.404   6.767   0.597
   13CHTO   O19 5403   5.477   6.726   0.785
   13CHTO   H35 5404   5.468   6.816   0.810
   13CHTO   C21 5405   5.235   6.711   0.725
   13CHTO   H49 5406   5.224   6.659   0.821
   13CHTO    N4 5407   5.198   6.852   0.750
   13CHTO   H41 5408   5.262   6.895   0.826
   13CHTO   H42 5409   5.095   6.859   0.783
   13CHTO   C22 5410   5.137   6.643   0.626
   13CHTO   H50 5411   5.124   6.706   0.537
   13CHTO   O14 5412   5.181   6.512   0.585
   13CHTO   C23 5413   5.312   6.509   0.526
   13CHTO   H51 5414   5.312   6.578   0.440
   13CHTO   C34 5415   5.335   6.367   0.471
   13CHTO   O23 5416   5.247   6.338   0.362
   13CHTO   H38 5417   5.272   6.387   0.286
   13CHTO   O16 5418   5.010   6.618   0.690
   13CHTO   C24 5419   4.883   6.608   0.590
   13CHTO   H52 5420   4.913   6.608   0.485
   13CHTO   C26 5421   4.789   6.727   0.619
   13CHTO   H54 5422   4.770   6.731   0.729
   13CHTO   O20 5423   4.859   6.849   0.583
   13CHTO   H36 5424   4.875   6.852   0.491
   13CHTO   C30 5425   4.652   6.714   0.545
   13CHTO   H58 5426   4.667   6.727   0.437
   13CHTO    N6 5427   4.557   6.821   0.586
   13CHTO   H45 5428   4.598   6.918   0.562
   13CHTO   H46 5429   4.539   6.816   0.692
   13CHTO   C33 5430   4.592   6.572   0.565
   13CHTO   H61 5431   4.563   6.559   0.670
   13CHTO   O18 5432   4.690   6.472   0.532
   13CHTO   C28 5433   4.807   6.475   0.615
   13CHTO   H56 5434   4.780   6.468   0.721
   13CHTO   C35 5435   4.896   6.353   0.580
   13CHTO   O24 5436   4.830   6.229   0.607
   13CHTO   H39 5437   4.886   6.158   0.581
   13CHTO    O9 5438   4.471   6.552   0.488
   13CHTO   C13 5439   4.370   6.442   0.548
   13CHTO   H26 5440   4.370   6.454   0.658
   13CHTO   C11 5441   4.416   6.296   0.506
   13CHTO   H24 5442   4.515   6.278   0.550
   13CHTO    O8 5443   4.430   6.286   0.363
   13CHTO    H3 5444   4.498   6.343   0.333
   13CHTO    C9 5445   4.315   6.196   0.569
   13CHTO   H22 5446   4.316   6.217   0.677
   13CHTO    N2 5447   4.355   6.053   0.557
   13CHTO   H10 5448   4.443   6.042   0.495
   13CHTO   H11 5449   4.372   6.011   0.655
   13CHTO    C7 5450   4.171   6.225   0.514
   13CHTO   H20 5451   4.106   6.160   0.578
   13CHTO    O4 5452   4.130   6.362   0.535
   13CHTO   C14 5453   4.220   6.471   0.504
   13CHTO   H27 5454   4.184   6.558   0.563
   13CHTO   C18 5455   4.199   6.507   0.354
   13CHTO   O13 5456   4.268   6.626   0.313
   13CHTO    H7 5457   4.355   6.603   0.285
   13CHTO    O2 5458   4.153   6.184   0.352
   13CHTO    C1 5459   4.019   6.166   0.302
   13CHTO   H14 5460   3.961   6.258   0.324
   13CHTO    C2 5461   3.941   6.041   0.363
   13CHTO   H15 5462   4.013   5.957   0.362
   13CHTO    O6 5463   3.903   6.068   0.499
   13CHTO    H1 5464   3.980   6.080   0.553
   13CHTO    C3 5465   3.809   6.001   0.280
   13CHTO   H16 5466   3.730   6.074   0.308
   13CHTO    N1 5467   3.756   5.865   0.318
   13CHTO    H8 5468   3.817   5.820   0.395
   13CHTO    H9 5469   3.654   5.873   0.353
   13CHTO    C4 5470   3.828   6.016   0.125
   13CHTO   H17 5471   3.886   5.932   0.087
   13CHTO    O1 5472   3.891   6.141   0.093
   13CHTO    C5 5473   4.025   6.151   0.147
   13CHTO   H18 5474   4.080   6.060   0.125
   13CHTO   C16 5475   4.096   6.270   0.079
   13CHTO   O11 5476   4.111   6.247   2.820
   13CHTO    H5 5477   4.150   6.323   2.780
   13CHTO    O3 5478   3.698   6.019   0.061
   13CHTO    C6 5479   3.672   6.021   2.798
   13CHTO   H19 5480   3.657   6.123   2.763
   13CHTO    C8 5481   3.782   5.960   2.703
   13CHTO   H21 5482   3.805   5.859   2.738
   13CHTO    O7 5483   3.899   6.043   2.712
   13CHTO    H2 5484   3.970   6.003   2.665
   13CHTO   C12 5485   3.728   5.953   2.554
   13CHTO   H25 5486   3.719   6.058   2.520
   13CHTO    N3 5487   3.826   5.887   2.461
   13CHTO   H12 5488   3.847   5.787   2.495
   13CHTO   H13 5489   3.917   5.945   2.456
   13CHTO   C15 5490   3.586   5.887   2.549
   13CHTO   H28 5491   3.590   5.780   2.573
   13CHTO   O10 5492   3.515   5.906   2.413
   13CHTO    H4 5493   3.563   5.863   2.345
   13CHTO    O5 5494   3.496   5.954   2.638
   13CHTO   C10 5495   3.537   5.947   2.775
   13CHTO   H23 5496   3.549   5.842   2.803
   13CHTO   C17 5497   3.423   6.003   2.862
   13CHTO   O12 5498   3.305   5.922   2.854
   13CHTO    H6 5499   3.319   5.840   0.015
   14CHTO  H203 5500   5.728   4.473   0.394
   14CHTO   O82 5501   5.739   4.517   0.477
   14CHTO  C123 5502   5.671   4.446   0.581
   14CHTO  H227 5503   5.689   4.497   0.677
   14CHTO   O77 5504   5.529   4.459   0.545
   14CHTO  C118 5505   5.439   4.398   0.639
   14CHTO  H222 5506   5.459   4.438   0.740
   14CHTO  C125 5507   5.291   4.433   0.599
   14CHTO   O84 5508   5.265   4.573   0.613
   14CHTO  H205 5509   5.313   4.621   0.548
   14CHTO  C114 5510   5.464   4.246   0.639
   14CHTO  H218 5511   5.453   4.209   0.537
   14CHTO  C116 5512   5.610   4.217   0.684
   14CHTO  H220 5513   5.624   4.252   0.790
   14CHTO   O79 5514   5.631   4.075   0.687
   14CHTO  H201 5515   5.626   4.039   0.600
   14CHTO  C120 5516   5.711   4.293   0.589
   14CHTO  H224 5517   5.701   4.246   0.489
   14CHTO   N21 5518   5.852   4.275   0.632
   14CHTO  H211 5519   5.918   4.280   0.547
   14CHTO  H212 5520   5.880   4.349   0.706
   14CHTO   O75 5521   5.363   4.191   0.725
   14CHTO  C112 5522   5.300   4.046   0.674
   14CHTO  H216 5523   5.379   3.969   0.678
   14CHTO   O73 5524   5.250   4.063   0.541
   14CHTO  C113 5525   5.195   3.944   0.482
   14CHTO  H217 5526   5.270   3.862   0.488
   14CHTO  C124 5527   5.171   3.974   0.334
   14CHTO   O83 5528   5.143   3.857   0.257
   14CHTO  H204 5529   5.132   3.881   0.167
   14CHTO  C109 5530   5.066   3.905   0.561
   14CHTO  H213 5531   4.997   3.990   0.552
   14CHTO  C110 5532   5.103   3.883   0.711
   14CHTO  H214 5533   5.165   3.793   0.719
   14CHTO   O78 5534   4.984   3.856   0.786
   14CHTO  H200 5535   4.925   3.929   0.782
   14CHTO  C111 5536   5.181   4.005   0.770
   14CHTO  H215 5537   5.112   4.090   0.775
   14CHTO   N19 5538   5.233   3.983   0.908
   14CHTO  H207 5539   5.189   4.055   0.976
   14CHTO  H208 5540   5.212   3.883   0.942
   14CHTO   O74 5541   5.002   3.784   0.507
   14CHTO  C115 5542   4.863   3.815   0.426
   14CHTO  H219 5543   4.851   3.922   0.405
   14CHTO   O76 5544   4.861   3.745   0.280
   14CHTO  C122 5545   4.810   3.611   0.280
   14CHTO  H226 5546   4.876   3.551   0.342
   14CHTO  C126 5547   4.821   3.551   0.135
   14CHTO   O85 5548   4.744   3.621   0.037
   14CHTO  H206 5549   4.781   3.706   0.023
   14CHTO  C121 5550   4.661   3.603   0.336
   14CHTO  H225 5551   4.591   3.593   0.250
   14CHTO   O81 5552   4.649   3.485   0.417
   14CHTO  H202 5553   4.559   3.469   0.437
   14CHTO  C119 5554   4.622   3.731   0.418
   14CHTO  H223 5555   4.614   3.811   0.344
   14CHTO  C117 5556   4.740   3.769   0.515
   14CHTO  H221 5557   4.779   3.688   0.577
   14CHTO   N20 5558   4.699   3.876   0.611
   14CHTO  H209 5559   4.765   3.961   0.607
   14CHTO  H210 5560   4.695   3.836   0.712
   14CHTO   O80 5561   4.468   3.725   0.476
   14CHTO  C103 5562   4.349   3.720   0.374
   14CHTO  H190 5563   4.389   3.726   0.272
   14CHTO  C101 5564   4.255   3.595   0.382
   14CHTO  H188 5565   4.208   3.592   0.480
   14CHTO   O68 5566   4.340   3.465   0.364
   14CHTO  H168 5567   4.377   3.463   0.278
   14CHTO   C99 5568   4.141   3.607   0.270
   14CHTO  H186 5569   4.189   3.598   0.171
   14CHTO   N17 5570   4.038   3.497   0.276
   14CHTO  H174 5571   3.981   3.505   0.367
   14CHTO  H175 5572   3.975   3.501   0.189
   14CHTO   C97 5573   4.073   3.747   0.272
   14CHTO  H184 5574   3.997   3.751   0.352
   14CHTO   O64 5575   4.168   3.855   0.284
   14CHTO  C104 5576   4.258   3.848   0.395
   14CHTO  H191 5577   4.206   3.839   0.490
   14CHTO  C108 5578   4.336   3.980   0.401
   14CHTO   O71 5579   4.397   4.001   0.529
   14CHTO  H171 5580   4.446   4.080   0.527
   14CHTO   O62 5581   4.014   3.773   0.143
   14CHTO   C91 5582   3.876   3.813   0.138
   14CHTO  H178 5583   3.823   3.762   0.220
   14CHTO   C92 5584   3.814   3.755   0.006
   14CHTO  H179 5585   3.837   3.647   2.880
   14CHTO   O66 5586   3.671   3.763   0.015
   14CHTO  H166 5587   3.639   3.706   0.082
   14CHTO   C93 5588   3.859   3.834   2.759
   14CHTO  H180 5589   3.784   3.813   2.681
   14CHTO   N16 5590   3.987   3.786   2.702
   14CHTO  H172 5591   4.010   3.841   2.612
   14CHTO  H173 5592   4.067   3.798   2.774
   14CHTO   C94 5593   3.861   3.990   2.786
   14CHTO  H181 5594   3.963   4.029   2.797
   14CHTO   O61 5595   3.792   4.024   0.026
   14CHTO   C95 5596   3.852   3.970   0.146
   14CHTO  H182 5597   3.947   4.021   0.163
   14CHTO  C106 5598   3.758   4.009   0.266
   14CHTO   O69 5599   3.818   3.973   0.392
   14CHTO  H169 5600   3.819   3.880   0.401
   14CHTO   O63 5601   3.791   4.060   2.663
   14CHTO   C96 5602   3.760   4.212   2.682
   14CHTO  H183 5603   3.802   4.245   2.777
   14CHTO   C98 5604   3.608   4.242   2.683
   14CHTO  H185 5605   3.561   4.194   2.595
   14CHTO   O67 5606   3.551   4.176   2.797
   14CHTO  H167 5607   3.585   4.213   2.877
   14CHTO  C102 5608   3.576   4.399   2.683
   14CHTO  H189 5609   3.608   4.436   2.782
   14CHTO   N18 5610   3.431   4.432   2.673
   14CHTO  H176 5611   3.417   4.539   2.676
   14CHTO  H177 5612   3.390   4.393   2.581
   14CHTO  C105 5613   3.661   4.470   2.574
   14CHTO  H192 5614   3.623   4.443   2.475
   14CHTO   O65 5615   3.801   4.434   2.581
   14CHTO  C100 5616   3.831   4.295   2.567
   14CHTO  H187 5617   3.794   4.260   2.469
   14CHTO  C107 5618   3.985   4.282   2.570
   14CHTO   O70 5619   4.029   4.151   2.534
   14CHTO  H170 5620   4.011   4.135   2.443
   14CHTO   O57 5621   3.649   4.628   2.600
   14CHTO   C85 5622   3.611   4.716   2.493
   14CHTO  H157 5623   3.529   4.664   2.438
   14CHTO   C83 5624   3.728   4.733   2.390
   14CHTO  H155 5625   3.746   4.636   2.343
   14CHTO   O56 5626   3.849   4.767   2.460
   14CHTO  H135 5627   3.841   4.851   2.501
   14CHTO   C81 5628   3.686   4.835   2.280
   14CHTO  H153 5629   3.596   4.797   2.231
   14CHTO   N14 5630   3.785   4.846   2.170
   14CHTO  H141 5631   3.747   4.910   2.093
   14CHTO  H142 5632   3.806   4.750   2.129
   14CHTO   C79 5633   3.651   4.974   2.345
   14CHTO  H151 5634   3.614   5.039   2.265
   14CHTO   O52 5635   3.540   4.957   2.439
   14CHTO   C86 5636   3.565   4.858   2.544
   14CHTO  H158 5637   3.644   4.905   2.607
   14CHTO   C90 5638   3.440   4.846   2.636
   14CHTO   O60 5639   3.324   4.806   2.563
   14CHTO  H138 5640   3.333   4.717   2.533
   14CHTO   O50 5641   3.762   5.039   2.409
   14CHTO   C73 5642   3.773   5.159   2.488
   14CHTO  H145 5643   3.690   5.163   2.561
   14CHTO   C74 5644   3.767   5.286   2.398
   14CHTO  H146 5645   3.673   5.281   2.341
   14CHTO   O54 5646   3.755   5.401   2.483
   14CHTO  H133 5647   3.833   5.412   2.535
   14CHTO   C75 5648   3.894   5.289   2.303
   14CHTO  H147 5649   3.891   5.199   2.239
   14CHTO   N13 5650   3.896   5.405   2.211
   14CHTO  H139 5651   3.809   5.403   2.148
   14CHTO  H140 5652   3.984   5.400   2.149
   14CHTO   C76 5653   4.025   5.280   2.394
   14CHTO  H148 5654   4.028   5.368   2.457
   14CHTO   O49 5655   4.020   5.160   2.478
   14CHTO   C77 5656   3.908   5.156   2.567
   14CHTO  H149 5657   3.911   5.242   2.635
   14CHTO   C88 5658   3.916   5.031   2.656
   14CHTO   O58 5659   4.040   5.025   2.730
   14CHTO  H136 5660   4.041   4.948   2.783
   14CHTO   O51 5661   4.160   5.263   2.304
   14CHTO   C78 5662   4.279   5.357   2.357
   14CHTO  H150 5663   4.248   5.413   2.448
   14CHTO   C80 5664   4.320   5.457   2.248
   14CHTO  H152 5665   4.346   5.401   2.156
   14CHTO   O55 5666   4.205   5.539   2.218
   14CHTO  H134 5667   4.140   5.488   2.174
   14CHTO   C84 5668   4.444   5.544   2.292
   14CHTO  H156 5669   4.412   5.606   2.376
   14CHTO   N15 5670   4.490   5.637   2.183
   14CHTO  H143 5671   4.593   5.621   2.159
   14CHTO  H144 5672   4.477   5.739   2.213
   14CHTO   C87 5673   4.558   5.453   2.344
   14CHTO  H159 5674   4.599   5.396   2.260
   14CHTO   O53 5675   4.502   5.356   2.451
   14CHTO   C82 5676   4.400   5.270   2.397
   14CHTO  H154 5677   4.440   5.216   2.312
   14CHTO   C89 5678   4.359   5.164   2.502
   14CHTO   O59 5679   4.468   5.077   2.531
   14CHTO  H137 5680   4.441   5.012   2.593
   14CHTO   O45 5681   4.678   5.544   2.417
   14CHTO   C67 5682   4.814   5.502   2.398
   14CHTO  H124 5683   4.877   5.574   2.452
   14CHTO   C65 5684   4.842   5.358   2.456
   14CHTO  H122 5685   4.751   5.326   2.507
   14CHTO   O44 5686   4.947   5.370   2.554
   14CHTO  H102 5687   4.959   5.289   2.598
   14CHTO   C63 5688   4.867   5.253   2.342
   14CHTO  H120 5689   4.780   5.253   2.276
   14CHTO   N11 5690   4.876   5.109   2.384
   14CHTO  H108 5691   4.879   5.101   2.491
   14CHTO  H109 5692   4.793   5.054   2.346
   14CHTO   C61 5693   4.989   5.303   2.255
   14CHTO  H118 5694   4.988   5.244   2.162
   14CHTO   O40 5695   4.980   5.442   2.216
   14CHTO   C68 5696   4.857   5.514   2.245
   14CHTO  H125 5697   4.778   5.474   2.179
   14CHTO   C72 5698   4.877   5.663   2.206
   14CHTO   O48 5699   4.892   5.680   2.065
   14CHTO  H105 5700   4.902   5.771   2.046
   14CHTO   O38 5701   5.116   5.289   2.323
   14CHTO   C55 5702   5.231   5.286   2.236
   14CHTO  H112 5703   5.205   5.331   2.139
   14CHTO   C56 5704   5.282   5.137   2.220
   14CHTO  H113 5705   5.291   5.095   2.321
   14CHTO   O42 5706   5.181   5.059   2.152
   14CHTO  H100 5707   5.104   5.052   2.206
   14CHTO   C57 5708   5.420   5.129   2.143
   14CHTO  H114 5709   5.400   5.154   2.039
   14CHTO   N10 5710   5.480   4.993   2.145
   14CHTO  H106 5711   5.444   4.936   2.061
   14CHTO  H107 5712   5.587   4.998   2.141
   14CHTO   C58 5713   5.518   5.235   2.200
   14CHTO  H115 5714   5.549   5.205   2.303
   14CHTO   O37 5715   5.459   5.365   2.204
   14CHTO   C59 5716   5.346   5.376   2.292
   14CHTO  H116 5717   5.375   5.345   2.392
   14CHTO   C70 5718   5.308   5.525   2.296
   14CHTO   O46 5719   5.206   5.556   2.392
   14CHTO  H103 5720   5.241   5.545   2.479
   14CHTO   O39 5721   5.647   5.251   2.103
   14CHTO   C60 5722   5.774   5.245   2.170
   14CHTO  H117 5723   5.760   5.248   2.278
   14CHTO   C62 5724   5.847   5.112   2.137
   14CHTO  H119 5725   5.780   5.030   2.171
   14CHTO   O43 5726   5.863   5.099   1.994
   14CHTO  H101 5727   5.920   5.167   1.961
   14CHTO   C66 5728   5.985   5.104   2.218
   14CHTO  H123 5729   5.965   5.121   2.323
   14CHTO   N12 5730   6.049   4.970   2.209
   14CHTO  H110 5731   6.069   4.945   2.106
   14CHTO  H111 5732   5.986   4.896   2.256
   14CHTO   C69 5733   6.078   5.219   2.170
   14CHTO  H126 5734   6.100   5.209   2.061
   14CHTO   O41 5735   6.003   5.358   2.197
   14CHTO   C64 5736   5.862   5.367   2.132
   14CHTO  H121 5737   5.871   5.371   2.021
   14CHTO   C71 5738   5.792   5.497   2.179
   14CHTO   O47 5739   5.864   5.614   2.137
   14CHTO  H104 5740   5.820   5.690   2.168
   14CHTO   O34 5741   6.209   5.221   2.246
   14CHTO   C49 5742   6.338   5.260   2.301
   14CHTO   H91 5743   6.410   5.256   2.219
   14CHTO   C47 5744   6.376   5.158   2.411
   14CHTO   H89 5745   6.479   5.189   2.443
   14CHTO   O33 5746   6.384   5.025   2.358
   14CHTO   H70 5747   6.453   5.018   2.295
   14CHTO   C45 5748   6.271   5.166   2.534
   14CHTO   H87 5749   6.192   5.091   2.516
   14CHTO    N8 5750   6.342   5.129   2.659
   14CHTO   H75 5751   6.271   5.121   2.740
   14CHTO   H76 5752   6.415   5.204   2.683
   14CHTO   C43 5753   6.193   5.308   2.535
   14CHTO   H85 5754   6.114   5.297   2.460
   14CHTO   O29 5755   6.285   5.413   2.500
   14CHTO   C50 5756   6.336   5.403   2.364
   14CHTO   H92 5757   6.274   5.466   2.300
   14CHTO   C54 5758   6.476   5.468   2.357
   14CHTO   O36 5759   6.471   5.609   2.381
   14CHTO   H72 5760   6.449   5.625   2.471
   14CHTO   O27 5761   6.122   5.335   2.657
   14CHTO   C37 5762   5.984   5.362   2.685
   14CHTO   H79 5763   5.971   5.383   2.792
   14CHTO   C38 5764   5.933   5.488   2.608
   14CHTO   H80 5765   5.962   5.478   2.502
   14CHTO   O31 5766   6.004   5.602   2.662
   14CHTO   H68 5767   5.981   5.615   2.752
   14CHTO   C39 5768   5.776   5.505   2.618
   14CHTO   H81 5769   5.752   5.526   2.722
   14CHTO    N7 5770   5.725   5.622   2.537
   14CHTO   H73 5771   5.750   5.609   2.433
   14CHTO   H74 5772   5.767   5.714   2.575
   14CHTO   C40 5773   5.705   5.369   2.579
   14CHTO   H82 5774   5.730   5.347   2.475
   14CHTO   O26 5775   5.755   5.267   2.668
   14CHTO   C41 5776   5.896   5.238   2.648
   14CHTO   H83 5777   5.913   5.212   2.542
   14CHTO   C52 5778   5.933   5.112   2.731
   14CHTO   O35 5779   5.915   5.131   2.877
   14CHTO   H71 5780   5.944   5.054   0.040
   14CHTO   O28 5781   5.561   5.376   2.582
   14CHTO   C42 5782   5.468   5.291   2.658
   14CHTO   H84 5783   5.514   5.279   2.756
   14CHTO   C44 5784   5.441   5.147   2.603
   14CHTO   H86 5785   5.400   5.155   2.502
   14CHTO   O32 5786   5.566   5.077   2.593
   14CHTO   H69 5787   5.621   5.117   2.529
   14CHTO   C48 5788   5.337   5.067   2.691
   14CHTO   H90 5789   5.384   5.044   2.787
   14CHTO    N9 5790   5.299   4.934   2.632
   14CHTO   H77 5791   5.256   4.948   2.534
   14CHTO   H78 5792   5.386   4.870   2.626
   14CHTO   C51 5793   5.210   5.155   2.720
   14CHTO   H93 5794   5.154   5.168   2.627
   14CHTO   O30 5795   5.252   5.281   2.774
   14CHTO   C46 5796   5.330   5.362   2.680
   14CHTO   H88 5797   5.276   5.368   2.586
   14CHTO   C53 5798   5.343   5.502   2.743
   14CHTO   O72 5799   5.390   5.599   2.648
   14CHTO  H199 5800   5.324   5.614   2.583
   14CHTO   O22 5801   5.125   5.099   2.823
   14CHTO   C31 5802   4.980   5.124   2.823
   14CHTO   H59 5803   4.959   5.192   2.738
   14CHTO   C29 5804   4.895   4.997   2.801
   14CHTO   H57 5805   4.917   4.927   0.002
   14CHTO   O21 5806   4.938   4.933   2.679
   14CHTO   H37 5807   5.026   4.903   2.688
   14CHTO   C27 5808   4.739   5.029   2.800
   14CHTO   H55 5809   4.717   5.092   2.713
   14CHTO    N5 5810   4.655   4.907   2.793
   14CHTO   H43 5811   4.673   4.844   2.879
   14CHTO   H44 5812   4.676   4.853   2.702
   14CHTO   C25 5813   4.703   5.114   0.046
   14CHTO   H53 5814   4.716   5.052   0.136
   14CHTO   O17 5815   4.790   5.230   0.058
   14CHTO   C32 5816   4.930   5.199   0.069
   14CHTO   H60 5817   4.945   5.134   0.156
   14CHTO   C36 5818   5.005   5.332   0.096
   14CHTO   O25 5819   4.987   5.426   2.872
   14CHTO   H40 5820   5.029   5.507   0.012
   14CHTO   O15 5821   4.555   5.167   0.040
   14CHTO   C19 5822   4.437   5.236   2.871
   14CHTO   H47 5823   4.426   5.195   2.770
   14CHTO   C20 5824   4.308   5.204   0.071
   14CHTO   H48 5825   4.320   5.229   0.178
   14CHTO   O19 5826   4.286   5.062   0.061
   14CHTO   H35 5827   4.353   5.015   0.106
   14CHTO   C21 5828   4.182   5.284   0.017
   14CHTO   H49 5829   4.155   5.244   2.801
   14CHTO    N4 5830   4.061   5.267   0.103
   14CHTO   H41 5831   4.032   5.163   0.105
   14CHTO   H42 5832   4.083   5.299   0.204
   14CHTO   C22 5833   4.218   5.433   2.876
   14CHTO   H50 5834   4.238   5.478   0.092
   14CHTO   O14 5835   4.335   5.442   2.792
   14CHTO   C23 5836   4.453   5.390   2.854
   14CHTO   H51 5837   4.467   5.441   0.069
   14CHTO   C34 5838   4.574   5.426   2.766
   14CHTO   O23 5839   4.589   5.567   2.754
   14CHTO   H38 5840   4.664   5.587   2.701
   14CHTO   O16 5841   4.112   5.504   2.809
   14CHTO   C24 5842   4.126   5.667   2.765
   14CHTO   H52 5843   4.035   5.723   2.786
   14CHTO   C26 5844   4.151   5.671   2.613
   14CHTO   H54 5845   4.239   5.606   2.590
   14CHTO   O20 5846   4.034   5.613   2.549
   14CHTO   H36 5847   4.029   5.522   2.568
   14CHTO   C30 5848   4.180   5.815   2.562
   14CHTO   H58 5849   4.092   5.879   2.578
   14CHTO    N6 5850   4.209   5.818   2.416
   14CHTO   H45 5851   4.141   5.885   2.365
   14CHTO   H46 5852   4.311   5.850   2.396
   14CHTO   C33 5853   4.295   5.877   2.648
   14CHTO   H61 5854   4.386   5.817   2.636
   14CHTO   O18 5855   4.255   5.874   2.786
   14CHTO   C28 5856   4.241   5.742   2.841
   14CHTO   H56 5857   4.334   5.686   2.830
   14CHTO   C35 5858   4.207   5.758   0.109
   14CHTO   O24 5859   4.315   5.817   0.183
   14CHTO   H39 5860   4.294   5.817   0.274
   14CHTO    O9 5861   4.329   6.011   2.606
   14CHTO   C13 5862   4.485   6.046   2.628
   14CHTO   H26 5863   4.545   5.966   2.580
   14CHTO   C11 5864   4.514   6.057   2.784
   14CHTO   H24 5865   4.510   5.955   2.826
   14CHTO    O8 5866   4.413   6.136   2.849
   14CHTO    H3 5867   4.413   6.224   2.816
   14CHTO    C9 5868   4.657   6.114   2.802
   14CHTO   H22 5869   4.723   6.048   2.743
   14CHTO    N2 5870   4.709   6.100   0.059
   14CHTO   H10 5871   4.702   5.997   0.091
   14CHTO   H11 5872   4.652   6.164   0.125
   14CHTO    C7 5873   4.664   6.260   2.739
   14CHTO   H20 5874   4.761   6.260   2.685
   14CHTO    O4 5875   4.558   6.287   2.645
   14CHTO   C14 5876   4.526   6.181   2.552
   14CHTO   H27 5877   4.617   6.161   2.491
   14CHTO   C18 5878   4.418   6.236   2.456
   14CHTO   O13 5879   4.395   6.146   2.347
   14CHTO    H7 5880   4.327   6.180   2.292
   14CHTO    O2 5881   4.663   6.379   2.849
   14CHTO    C1 5882   4.755   6.485   2.819
   14CHTO   H14 5883   4.767   6.494   2.709
   14CHTO    C2 5884   4.897   6.465   0.003
   14CHTO   H15 5885   4.879   6.447   0.110
   14CHTO    O6 5886   4.958   6.348   2.827
   14CHTO    H1 5887   5.040   6.330   2.868
   14CHTO    C3 5888   4.988   6.595   2.864
   14CHTO   H16 5889   5.012   6.604   2.757
   14CHTO    N1 5890   5.119   6.584   0.055
   14CHTO    H8 5891   5.101   6.575   0.161
   14CHTO    H9 5892   5.180   6.670   0.035
   14CHTO    C4 5893   4.908   6.725   0.020
   14CHTO   H17 5894   4.894   6.728   0.128
   14CHTO    O1 5895   4.781   6.729   2.835
   14CHTO    C5 5896   4.693   6.620   2.867
   14CHTO   H18 5897   4.680   6.614   0.093
   14CHTO   C16 5898   4.556   6.646   2.801
   14CHTO   O11 5899   4.494   6.764   2.855
   14CHTO    H5 5900   4.410   6.777   2.814
   14CHTO    O3 5901   4.976   6.843   2.855
   14CHTO    C6 5902   4.966   6.962   0.059
   14CHTO   H19 5903   4.888   6.952   0.135
   14CHTO    C8 5904   5.103   6.987   0.130
   14CHTO   H21 5905   5.182   6.981   0.055
   14CHTO    O7 5906   5.120   6.881   0.226
   14CHTO    H2 5907   5.132   6.799   0.183
   14CHTO   C12 5908   5.107   7.129   0.199
   14CHTO   H25 5909   5.035   7.125   0.284
   14CHTO    N3 5910   5.242   7.157   0.258
   14CHTO   H12 5911   5.266   7.082   0.332
   14CHTO   H13 5912   5.242   7.255   0.304
   14CHTO   C15 5913   5.059   7.238   0.097
   14CHTO   H28 5914   5.129   7.251   0.015
   14CHTO   O10 5915   5.033   7.376   0.164
   14CHTO    H4 5916   4.976   7.367   0.237
   14CHTO    O5 5917   4.928   7.205   0.046
   14CHTO   C10 5918   4.926   7.083   2.852
   14CHTO   H23 5919   4.996   7.093   2.769
   14CHTO   C17 5920   4.785   7.066   2.794
   14CHTO   O12 5921   4.749   7.174   2.706
   14CHTO    H6 5922   4.739   7.253   2.756
   15CHTO  H203 5923   5.851   4.691   2.464
   15CHTO   O82 5924   5.785   4.645   2.512
   15CHTO  C123 5925   5.718   4.552   2.425
   15CHTO  H227 5926   5.699   4.600   2.328
   15CHTO   O77 5927   5.814   4.444   2.410
   15CHTO  C118 5928   5.775   4.343   2.315
   15CHTO  H222 5929   5.759   4.391   2.216
   15CHTO  C125 5930   5.893   4.240   2.303
   15CHTO   O84 5931   5.922   4.175   2.427
   15CHTO  H205 5932   5.957   4.237   2.488
   15CHTO  C114 5933   5.644   4.274   2.359
   15CHTO  H218 5934   5.664   4.217   2.450
   15CHTO  C116 5935   5.532   4.377   2.392
   15CHTO  H220 5936   5.494   4.421   2.296
   15CHTO   O79 5937   5.422   4.306   2.450
   15CHTO  H201 5938   5.351   4.364   2.468
   15CHTO  C120 5939   5.585   4.493   2.486
   15CHTO  H224 5940   5.606   4.446   2.585
   15CHTO   N21 5941   5.481   4.598   2.509
   15CHTO  H211 5942   5.528   4.693   2.529
   15CHTO  H212 5943   5.416   4.606   2.423
   15CHTO   O75 5944   5.610   4.185   2.251
   15CHTO  C112 5945   5.568   4.032   2.294
   15CHTO  H216 5946   5.539   4.031   2.400
   15CHTO   O73 5947   5.682   3.948   2.270
   15CHTO  C113 5948   5.664   3.809   2.302
   15CHTO  H217 5949   5.636   3.801   2.409
   15CHTO  C124 5950   5.801   3.742   2.285
   15CHTO   O83 5951   5.806   3.608   2.337
   15CHTO  H204 5952   5.753   3.552   2.284
   15CHTO  C109 5953   5.552   3.748   2.213
   15CHTO  H213 5954   5.587   3.755   2.109
   15CHTO  C110 5955   5.421   3.831   2.231
   15CHTO  H214 5956   5.385   3.816   2.333
   15CHTO   O78 5957   5.321   3.779   2.141
   15CHTO  H200 5958   5.296   3.692   2.166
   15CHTO  C111 5959   5.447   3.983   2.206
   15CHTO  H215 5960   5.475   3.996   2.101
   15CHTO   N19 5961   5.326   4.068   2.228
   15CHTO  H207 5962   5.341   4.138   2.310
   15CHTO  H208 5963   5.239   4.008   2.248
   15CHTO   O74 5964   5.527   3.607   2.246
   15CHTO  C115 5965   5.574   3.502   2.130
   15CHTO  H219 5966   5.648   3.546   2.062
   15CHTO   O76 5967   5.647   3.377   2.192
   15CHTO  C122 5968   5.558   3.283   2.252
   15CHTO  H226 5969   5.506   3.333   2.334
   15CHTO  C126 5970   5.645   3.171   2.319
   15CHTO   O85 5971   5.567   3.074   2.390
   15CHTO  H206 5972   5.624   3.009   2.426
   15CHTO  C121 5973   5.453   3.223   2.148
   15CHTO  H225 5974   5.482   3.118   2.124
   15CHTO   O81 5975   5.323   3.220   2.207
   15CHTO  H202 5976   5.322   3.161   2.280
   15CHTO  C119 5977   5.449   3.305   2.015
   15CHTO  H223 5978   5.545   3.286   1.966
   15CHTO  C117 5979   5.445   3.460   2.047
   15CHTO  H221 5980   5.360   3.492   2.107
   15CHTO   N20 5981   5.436   3.540   1.921
   15CHTO  H209 5982   5.427   3.645   1.944
   15CHTO  H210 5983   5.523   3.523   1.859
   15CHTO   O80 5984   5.341   3.248   1.900
   15CHTO  C103 5985   5.302   3.089   1.892
   15CHTO  H190 5986   5.319   3.039   1.987
   15CHTO  C101 5987   5.153   3.063   1.846
   15CHTO  H188 5988   5.131   3.131   1.764
   15CHTO   O68 5989   5.061   3.102   1.961
   15CHTO  H168 5990   5.072   3.042   2.033
   15CHTO   C99 5991   5.128   2.913   1.794
   15CHTO  H186 5992   5.146   2.842   1.878
   15CHTO   N17 5993   4.989   2.888   1.743
   15CHTO  H174 5994   4.991   2.849   1.642
   15CHTO  H175 5995   4.937   2.820   1.809
   15CHTO   C97 5996   5.237   2.881   1.689
   15CHTO  H184 5997   5.227   2.955   1.607
   15CHTO   O64 5998   5.365   2.891   1.754
   15CHTO  C104 5999   5.403   3.025   1.787
   15CHTO  H191 6000   5.406   3.089   1.699
   15CHTO  C108 6001   5.546   3.020   1.843
   15CHTO   O71 6002   5.638   2.969   1.746
   15CHTO  H171 6003   5.620   2.878   1.730
   15CHTO   O62 6004   5.234   2.748   1.633
   15CHTO   C91 6005   5.317   2.730   1.517
   15CHTO  H178 6006   5.356   2.827   1.487
   15CHTO   C92 6007   5.232   2.681   1.395
   15CHTO  H179 6008   5.143   2.745   1.384
   15CHTO   O66 6009   5.309   2.704   1.276
   15CHTO  H166 6010   5.389   2.656   1.278
   15CHTO   C93 6011   5.195   2.528   1.399
   15CHTO  H180 6012   5.177   2.496   1.296
   15CHTO   N16 6013   5.068   2.500   1.471
   15CHTO  H172 6014   5.074   2.535   1.573
   15CHTO  H173 6015   4.986   2.548   1.419
   15CHTO   C94 6016   5.315   2.443   1.458
   15CHTO  H181 6017   5.300   2.416   1.563
   15CHTO   O61 6018   5.439   2.516   1.453
   15CHTO   C95 6019   5.441   2.632   1.539
   15CHTO  H182 6020   5.442   2.599   1.643
   15CHTO  C106 6021   5.575   2.709   1.515
   15CHTO   O69 6022   5.689   2.623   1.526
   15CHTO  H169 6023   5.767   2.672   1.513
   15CHTO   O63 6024   5.334   2.312   1.373
   15CHTO   C96 6025   5.401   2.194   1.458
   15CHTO  H183 6026   5.413   2.228   1.561
   15CHTO   C98 6027   5.540   2.147   1.406
   15CHTO  H185 6028   5.535   2.128   1.298
   15CHTO   O67 6029   5.630   2.258   1.421
   15CHTO  H167 6030   5.714   2.237   1.385
   15CHTO  C102 6031   5.594   2.017   1.485
   15CHTO  H189 6032   5.618   2.050   1.587
   15CHTO   N18 6033   5.720   1.960   1.431
   15CHTO  H176 6034   5.706   1.928   1.328
   15CHTO  H177 6035   5.752   1.876   1.491
   15CHTO  C105 6036   5.481   1.910   1.495
   15CHTO  H192 6037   5.463   1.867   1.396
   15CHTO   O65 6038   5.358   1.967   1.542
   15CHTO  C100 6039   5.303   2.071   1.460
   15CHTO  H187 6040   5.291   2.033   1.357
   15CHTO  C107 6041   5.163   2.109   1.515
   15CHTO   O70 6042   5.073   1.998   1.512
   15CHTO  H170 6043   5.054   1.975   1.423
   15CHTO   O57 6044   5.532   1.790   1.602
   15CHTO   C85 6045   5.438   1.717   1.683
   15CHTO  H157 6046   5.360   1.789   1.715
   15CHTO   C83 6047   5.511   1.673   1.814
   15CHTO  H155 6048   5.544   1.763   1.866
   15CHTO   O56 6049   5.630   1.599   1.782
   15CHTO  H135 6050   5.608   1.518   1.739
   15CHTO   C81 6051   5.410   1.597   1.906
   15CHTO  H153 6052   5.325   1.662   1.923
   15CHTO   N14 6053   5.464   1.570   2.042
   15CHTO  H141 6054   5.388   1.528   2.103
   15CHTO  H142 6055   5.546   1.503   2.036
   15CHTO   C79 6056   5.359   1.467   1.833
   15CHTO  H151 6057   5.280   1.424   1.895
   15CHTO   O52 6058   5.296   1.503   1.705
   15CHTO   C86 6059   5.375   1.588   1.616
   15CHTO  H158 6060   5.455   1.521   1.578
   15CHTO   C90 6061   5.288   1.625   1.494
   15CHTO   O60 6062   5.255   1.510   1.416
   15CHTO  H138 6063   5.201   1.535   1.343
   15CHTO   O50 6064   5.460   1.367   1.812
   15CHTO   C73 6065   5.447   1.230   1.768
   15CHTO  H145 6066   5.361   1.221   1.700
   15CHTO   C74 6067   5.423   1.135   1.890
   15CHTO  H146 6068   5.333   1.171   1.942
   15CHTO   O54 6069   5.391   1.004   1.839
   15CHTO  H133 6070   5.309   1.005   1.793
   15CHTO   C75 6071   5.550   1.136   1.983
   15CHTO  H147 6072   5.565   1.239   2.021
   15CHTO   N13 6073   5.537   1.050   2.104
   15CHTO  H139 6074   5.453   1.083   2.163
   15CHTO  H140 6075   5.626   1.057   2.164
   15CHTO   C76 6076   5.679   1.098   1.896
   15CHTO  H148 6077   5.667   0.995   1.861
   15CHTO   O49 6078   5.690   1.188   1.780
   15CHTO   C77 6079   5.576   1.187   1.693
   15CHTO  H149 6080   5.562   1.087   1.651
   15CHTO   C88 6081   5.607   1.279   1.574
   15CHTO   O58 6082   5.498   1.280   1.476
   15CHTO  H136 6083   5.521   1.336   1.404
   15CHTO   O51 6084   5.815   1.119   1.981
   15CHTO   C78 6085   5.940   1.055   1.908
   15CHTO  H150 6086   5.917   1.035   1.801
   15CHTO   C80 6087   5.980   0.921   1.975
   15CHTO  H152 6088   5.999   0.940   2.083
   15CHTO   O55 6089   5.868   0.832   1.963
   15CHTO  H134 6090   5.798   0.859   2.019
   15CHTO   C84 6091   6.110   0.861   1.909
   15CHTO  H156 6092   6.086   0.839   1.805
   15CHTO   N15 6093   6.154   0.732   1.971
   15CHTO  H143 6094   6.252   0.740   2.014
   15CHTO  H144 6095   6.155   0.654   1.898
   15CHTO   C87 6096   6.223   0.968   1.910
   15CHTO  H159 6097   6.254   0.988   2.012
   15CHTO   O53 6098   6.170   1.099   1.842
   15CHTO   C82 6099   6.057   1.154   1.912
   15CHTO  H154 6100   6.084   1.179   2.015
   15CHTO   C89 6101   6.016   1.287   1.843
   15CHTO   O59 6102   6.117   1.387   1.856
   15CHTO  H137 6103   6.122   1.416   1.945
   15CHTO   O45 6104   6.350   0.916   1.823
   15CHTO   C67 6105   6.459   1.009   1.819
   15CHTO  H124 6106   6.420   1.111   1.827
   15CHTO   C65 6107   6.561   0.985   1.936
   15CHTO  H122 6108   6.555   0.878   1.960
   15CHTO   O44 6109   6.511   1.060   2.048
   15CHTO  H102 6110   6.560   1.039   2.125
   15CHTO   C63 6111   6.711   1.009   1.893
   15CHTO  H120 6112   6.745   0.922   1.837
   15CHTO   N11 6113   6.811   1.013   2.004
   15CHTO  H108 6114   6.797   1.102   2.063
   15CHTO  H109 6115   6.911   1.013   1.964
   15CHTO   C61 6116   6.717   1.130   1.792
   15CHTO  H118 6117   6.822   1.138   1.759
   15CHTO   O40 6118   6.637   1.106   1.672
   15CHTO   C68 6119   6.532   1.003   1.680
   15CHTO  H125 6120   6.580   0.903   1.667
   15CHTO   C72 6121   6.434   1.022   1.561
   15CHTO   O48 6122   6.364   1.146   1.567
   15CHTO  H105 6123   6.308   1.155   1.492
   15CHTO   O38 6124   6.678   1.254   1.856
   15CHTO   C55 6125   6.647   1.371   1.778
   15CHTO  H112 6126   6.571   1.345   1.703
   15CHTO   C56 6127   6.777   1.435   1.710
   15CHTO  H113 6128   6.856   1.434   1.787
   15CHTO   O42 6129   6.823   1.347   1.605
   15CHTO  H100 6130   6.905   1.378   1.571
   15CHTO   C57 6131   6.753   1.581   1.656
   15CHTO  H114 6132   6.690   1.573   1.567
   15CHTO   N10 6133   6.879   1.648   1.615
   15CHTO  H106 6134   6.872   1.756   1.626
   15CHTO  H107 6135   6.902   1.625   1.512
   15CHTO   C58 6136   6.677   1.665   1.762
   15CHTO  H115 6137   6.742   1.675   1.853
   15CHTO   O37 6138   6.555   1.598   1.800
   15CHTO   C59 6139   6.580   1.476   1.871
   15CHTO  H116 6140   6.644   1.496   1.957
   15CHTO   C70 6141   6.447   1.421   1.925
   15CHTO   O46 6142   6.389   1.504   2.027
   15CHTO  H103 6143   6.363   1.586   1.990
   15CHTO   O39 6144   6.638   1.820   1.710
   15CHTO   C60 6145   6.539   1.837   1.607
   15CHTO  H117 6146   6.549   1.757   1.533
   15CHTO   C62 6147   6.393   1.835   1.662
   15CHTO  H119 6148   6.375   1.732   1.700
   15CHTO   O43 6149   6.382   1.927   1.773
   15CHTO  H101 6150   6.432   1.895   1.846
   15CHTO   C66 6151   6.288   1.866   1.544
   15CHTO  H123 6152   6.301   1.792   1.465
   15CHTO   N12 6153   6.147   1.854   1.587
   15CHTO  H110 6154   6.127   1.753   1.619
   15CHTO  H111 6155   6.126   1.925   1.666
   15CHTO   C69 6156   6.320   2.005   1.482
   15CHTO  H126 6157   6.316   2.084   1.562
   15CHTO   O41 6158   6.463   1.997   1.425
   15CHTO   C64 6159   6.567   1.971   1.532
   15CHTO  H121 6160   6.564   2.054   1.606
   15CHTO   C71 6161   6.708   1.974   1.467
   15CHTO   O47 6162   6.721   1.876   1.364
   15CHTO  H104 6163   6.807   1.880   1.327
   15CHTO   O34 6164   6.219   2.048   1.365
   15CHTO   C49 6165   6.199   2.141   1.240
   15CHTO   H91 6166   6.244   2.089   1.155
   15CHTO   C47 6167   6.273   2.275   1.262
   15CHTO   H89 6168   6.268   2.330   1.165
   15CHTO   O33 6169   6.411   2.248   1.292
   15CHTO   H70 6170   6.454   2.210   1.218
   15CHTO   C45 6171   6.196   2.358   1.376
   15CHTO   H87 6172   6.186   2.294   1.465
   15CHTO    N8 6173   6.269   2.481   1.416
   15CHTO   H75 6174   6.217   2.531   1.496
   15CHTO   H76 6175   6.277   2.548   1.331
   15CHTO   C43 6176   6.046   2.387   1.326
   15CHTO   H85 6177   5.996   2.441   1.407
   15CHTO   O29 6178   5.980   2.262   1.296
   15CHTO   C50 6179   6.048   2.166   1.212
   15CHTO   H92 6180   5.997   2.070   1.228
   15CHTO   C54 6181   6.021   2.194   1.061
   15CHTO   O36 6182   5.881   2.188   1.032
   15CHTO   H72 6183   5.868   2.198   0.939
   15CHTO   O27 6184   6.042   2.476   1.212
   15CHTO   C37 6185   5.964   2.551   1.117
   15CHTO   H79 6186   5.922   2.483   1.042
   15CHTO   C38 6187   5.844   2.623   1.186
   15CHTO   H80 6188   5.883   2.678   1.273
   15CHTO   O31 6189   5.753   2.522   1.232
   15CHTO   H68 6190   5.792   2.472   1.302
   15CHTO   C39 6191   5.772   2.724   1.088
   15CHTO   H81 6192   5.721   2.665   1.012
   15CHTO    N7 6193   5.667   2.807   1.156
   15CHTO   H73 6194   5.619   2.873   1.085
   15CHTO   H74 6195   5.712   2.865   1.236
   15CHTO   C40 6196   5.877   2.816   1.013
   15CHTO   H82 6197   5.920   2.888   1.083
   15CHTO   O26 6198   5.977   2.734   0.951
   15CHTO   C41 6199   6.055   2.655   1.046
   15CHTO   H83 6200   6.100   2.721   1.121
   15CHTO   C52 6201   6.170   2.588   0.968
   15CHTO   O35 6202   6.124   2.499   0.860
   15CHTO   H71 6203   6.198   2.464   0.815
   15CHTO   O28 6204   5.818   2.886   0.901
   15CHTO   C42 6205   5.861   3.020   0.860
   15CHTO   H84 6206   5.835   3.024   0.754
   15CHTO   C44 6207   6.014   3.053   0.868
   15CHTO   H86 6208   6.047   3.042   0.971
   15CHTO   O32 6209   6.082   2.954   0.788
   15CHTO   H69 6210   6.175   2.964   0.796
   15CHTO   C48 6211   6.048   3.200   0.820
   15CHTO   H90 6212   6.029   3.205   0.713
   15CHTO    N9 6213   6.193   3.235   0.838
   15CHTO   H77 6214   6.249   3.151   0.877
   15CHTO   H78 6215   6.236   3.268   0.745
   15CHTO   C51 6216   5.954   3.305   0.890
   15CHTO   H93 6217   5.979   3.309   0.997
   15CHTO   O30 6218   5.818   3.267   0.869
   15CHTO   C46 6219   5.781   3.133   0.931
   15CHTO   H88 6220   5.805   3.135   1.037
   15CHTO   C53 6221   5.628   3.114   0.912
   15CHTO   O72 6222   5.554   3.214   0.984
   15CHTO  H199 6223   5.563   3.201   1.076
   15CHTO   O22 6224   5.968   3.436   0.830
   15CHTO   C31 6225   5.921   3.562   0.892
   15CHTO   H59 6226   5.933   3.640   0.814
   15CHTO   C29 6227   5.772   3.563   0.933
   15CHTO   H57 6228   5.757   3.483   1.008
   15CHTO   O21 6229   5.693   3.527   0.818
   15CHTO   H37 6230   5.710   3.439   0.792
   15CHTO   C27 6231   5.727   3.701   0.995
   15CHTO   H55 6232   5.726   3.776   0.914
   15CHTO    N5 6233   5.592   3.695   1.056
   15CHTO   H43 6234   5.520   3.660   0.983
   15CHTO   H44 6235   5.563   3.793   1.091
   15CHTO   C25 6236   5.832   3.751   1.100
   15CHTO   H53 6237   5.826   3.688   1.191
   15CHTO   O17 6238   5.969   3.742   1.050
   15CHTO   C32 6239   6.008   3.609   1.012
   15CHTO   H60 6240   5.994   3.541   1.095
   15CHTO   C36 6241   6.159   3.612   0.976
   15CHTO   O25 6242   6.239   3.646   1.089
   15CHTO   H40 6243   6.236   3.577   1.153
   15CHTO   O15 6244   5.804   3.902   1.139
   15CHTO   C19 6245   5.852   4.002   1.234
   15CHTO   H47 6246   5.959   3.979   1.244
   15CHTO   C20 6247   5.836   4.150   1.185
   15CHTO   H48 6248   5.730   4.177   1.170
   15CHTO   O19 6249   5.902   4.159   1.058
   15CHTO   H35 6250   5.886   4.243   1.019
   15CHTO   C21 6251   5.897   4.250   1.291
   15CHTO   H49 6252   6.003   4.226   1.305
   15CHTO    N4 6253   5.890   4.392   1.248
   15CHTO   H41 6254   5.989   4.432   1.235
   15CHTO   H42 6255   5.837   4.453   1.320
   15CHTO   C22 6256   5.826   4.222   1.427
   15CHTO   H50 6257   5.719   4.238   1.411
   15CHTO   O14 6258   5.847   4.085   1.463
   15CHTO   C23 6259   5.789   3.987   1.376
   15CHTO   H51 6260   5.680   4.004   1.374
   15CHTO   C34 6261   5.815   3.849   1.437
   15CHTO   O23 6262   5.753   3.836   1.566
   15CHTO   H38 6263   5.660   3.835   1.556
   15CHTO   O16 6264   5.869   4.307   1.536
   15CHTO   C24 6265   5.988   4.253   1.635
   15CHTO   H52 6266   6.051   4.178   1.586
   15CHTO   C26 6267   5.927   4.194   1.764
   15CHTO   H54 6268   5.874   4.276   1.819
   15CHTO   O20 6269   5.832   4.092   1.732
   15CHTO   H36 6270   5.758   4.129   1.687
   15CHTO   C30 6271   6.043   4.143   1.856
   15CHTO   H58 6272   6.099   4.064   1.804
   15CHTO    N6 6273   5.992   4.080   1.981
   15CHTO   H45 6274   6.074   4.045   2.041
   15CHTO   H46 6275   5.928   3.996   1.957
   15CHTO   C33 6276   6.142   4.260   1.884
   15CHTO   H61 6277   6.091   4.336   1.945
   15CHTO   O18 6278   6.184   4.322   1.761
   15CHTO   C28 6279   6.081   4.371   1.673
   15CHTO   H56 6280   6.022   4.447   1.723
   15CHTO   C35 6281   6.147   4.432   1.548
   15CHTO   O24 6282   6.230   4.543   1.581
   15CHTO   H39 6283   6.269   4.577   1.503
   15CHTO    O9 6284   6.256   4.217   1.961
   15CHTO   C13 6285   6.278   4.296   2.100
   15CHTO   H26 6286   6.184   4.285   2.159
   15CHTO   C11 6287   6.313   4.449   2.073
   15CHTO   H24 6288   6.219   4.501   2.047
   15CHTO    O8 6289   6.403   4.461   1.961
   15CHTO    H3 6290   6.416   4.551   1.940
   15CHTO    C9 6291   6.371   4.508   2.204
   15CHTO   H22 6292   6.299   4.483   2.282
   15CHTO    N2 6293   6.375   4.657   2.205
   15CHTO   H10 6294   6.404   4.692   2.303
   15CHTO   H11 6295   6.445   4.692   2.131
   15CHTO    C7 6296   6.508   4.435   2.236
   15CHTO   H20 6297   6.510   4.432   2.348
   15CHTO    O4 6298   6.514   4.300   2.186
   15CHTO   C14 6299   6.391   4.226   2.189
   15CHTO   H27 6300   6.356   4.222   2.294
   15CHTO   C18 6301   6.423   4.080   2.146
   15CHTO   O13 6302   6.308   3.997   2.157
   15CHTO    H7 6303   6.329   3.909   2.130
   15CHTO    O2 6304   6.639   4.514   2.181
   15CHTO    C1 6305   6.762   4.474   2.244
   15CHTO   H14 6306   6.753   4.370   2.281
   15CHTO    C2 6307   6.800   4.567   2.366
   15CHTO   H15 6308   6.794   4.671   2.329
   15CHTO    O6 6309   6.703   4.548   2.471
   15CHTO    H1 6310   6.720   4.607   2.542
   15CHTO    C3 6311   6.949   4.537   2.417
   15CHTO   H16 6312   6.953   4.434   2.456
   15CHTO    N1 6313   6.991   4.628   2.528
   15CHTO    H8 6314   6.987   4.731   2.495
   15CHTO    H9 6315   6.926   4.615   2.613
   15CHTO    C4 6316   7.047   4.540   2.294
   15CHTO   H17 6317   7.050   4.642   2.254
   15CHTO    O1 6318   7.003   4.447   2.193
   15CHTO    C5 6319   6.874   4.473   2.136
   15CHTO   H18 6320   6.875   4.569   2.085
   15CHTO   C16 6321   6.854   4.361   2.030
   15CHTO   O11 6322   6.733   4.375   1.955
   15CHTO    H5 6323   6.724   4.303   1.896
   15CHTO    O3 6324   7.179   4.494   2.328
   15CHTO    C6 6325   7.292   4.569   2.272
   15CHTO   H19 6326   7.262   4.644   2.199
   15CHTO    C8 6327   7.369   4.641   2.387
   15CHTO   H21 6328   7.385   4.569   2.468
   15CHTO    O7 6329   7.285   4.748   2.433
   15CHTO    H2 6330   7.322   4.788   2.510
   15CHTO   C12 6331   7.510   4.696   2.340
   15CHTO   H25 6332   7.489   4.780   2.271
   15CHTO    N3 6333   7.589   4.752   2.455
   15CHTO   H12 6334   7.606   4.675   2.529
   15CHTO   H13 6335   7.535   4.834   2.499
   15CHTO   C15 6336   7.587   4.584   2.260
   15CHTO   H28 6337   7.617   4.502   2.325
   15CHTO   O10 6338   7.710   4.638   2.185
   15CHTO    H4 6339   7.775   4.666   2.247
   15CHTO    O5 6340   7.506   4.536   2.152
   15CHTO   C10 6341   7.386   4.470   2.196
   15CHTO   H23 6342   7.413   4.387   2.261
   15CHTO   C17 6343   7.316   4.411   2.072
   15CHTO   O12 6344   7.398   4.313   2.007
   15CHTO    H6 6345   7.471   4.355   1.966
   16CHTO  H203 6346   3.901   3.489   0.851
   16CHTO   O82 6347   3.989   3.521   0.846
   16CHTO  C123 6348   4.078   3.428   0.909
   16CHTO  H227 6349   4.070   3.330   0.858
   16CHTO   O77 6350   4.209   3.486   0.884
   16CHTO  C118 6351   4.320   3.407   0.931
   16CHTO  H222 6352   4.313   3.306   0.888
   16CHTO  C125 6353   4.454   3.474   0.882
   16CHTO   O84 6354   4.470   3.606   0.935
   16CHTO  H205 6355   4.551   3.643   0.903
   16CHTO  C114 6356   4.312   3.396   1.085
   16CHTO  H218 6357   4.320   3.497   1.127
   16CHTO  C116 6358   4.175   3.336   1.130
   16CHTO  H220 6359   4.172   3.229   1.101
   16CHTO   O79 6360   4.169   3.340   1.274
   16CHTO  H201 6361   4.230   3.278   1.311
   16CHTO  C120 6362   4.054   3.414   1.064
   16CHTO  H224 6363   4.052   3.515   1.111
   16CHTO   N21 6364   3.924   3.349   1.094
   16CHTO  H211 6365   3.883   3.387   1.186
   16CHTO  H212 6366   3.934   3.241   1.097
   16CHTO   O75 6367   4.425   3.316   1.123
   16CHTO  C112 6368   4.508   3.373   1.249
   16CHTO  H216 6369   4.439   3.427   1.316
   16CHTO   O73 6370   4.610   3.460   1.196
   16CHTO  C113 6371   4.703   3.512   1.293
   16CHTO  H217 6372   4.647   3.567   1.371
   16CHTO  C124 6373   4.793   3.613   1.220
   16CHTO   O83 6374   4.727   3.736   1.188
   16CHTO  H204 6375   4.721   3.788   1.266
   16CHTO  C109 6376   4.782   3.396   1.359
   16CHTO  H213 6377   4.835   3.344   1.279
   16CHTO  C110 6378   4.679   3.300   1.428
   16CHTO  H214 6379   4.631   3.354   1.510
   16CHTO   O78 6380   4.753   3.190   1.485
   16CHTO  H200 6381   4.695   3.135   1.534
   16CHTO  C111 6382   4.572   3.251   1.327
   16CHTO  H215 6383   4.621   3.188   1.252
   16CHTO   N19 6384   4.466   3.168   1.390
   16CHTO  H207 6385   4.460   3.071   1.342
   16CHTO  H208 6386   4.370   3.216   1.387
   16CHTO   O74 6387   4.878   3.444   1.458
   16CHTO  C115 6388   5.032   3.462   1.401
   16CHTO  H219 6389   5.043   3.421   1.300
   16CHTO   O76 6390   5.071   3.614   1.389
   16CHTO  C122 6391   5.206   3.642   1.348
   16CHTO  H226 6392   5.221   3.750   1.356
   16CHTO  C126 6393   5.228   3.607   1.196
   16CHTO   O85 6394   5.142   3.680   1.108
   16CHTO  H206 6395   5.053   3.650   1.118
   16CHTO  C121 6396   5.309   3.570   1.442
   16CHTO  H225 6397   5.410   3.586   1.399
   16CHTO   O81 6398   5.304   3.632   1.571
   16CHTO  H202 6399   5.376   3.602   1.624
   16CHTO  C119 6400   5.282   3.416   1.452
   16CHTO  H223 6401   5.297   3.376   1.351
   16CHTO  C117 6402   5.133   3.385   1.494
   16CHTO  H221 6403   5.107   3.415   1.596
   16CHTO   N20 6404   5.107   3.237   1.489
   16CHTO  H209 6405   5.007   3.216   1.525
   16CHTO  H210 6406   5.119   3.201   1.388
   16CHTO   O80 6407   5.396   3.335   1.535
   16CHTO  C103 6408   5.550   3.359   1.506
   16CHTO  H190 6409   5.564   3.407   1.409
   16CHTO  C101 6410   5.623   3.442   1.618
   16CHTO  H188 6411   5.586   3.407   1.715
   16CHTO   O68 6412   5.586   3.591   1.603
   16CHTO  H168 6413   5.493   3.602   1.614
   16CHTO   C99 6414   5.781   3.422   1.617
   16CHTO  H186 6415   5.823   3.464   1.523
   16CHTO   N17 6416   5.851   3.490   1.732
   16CHTO  H174 6417   5.826   3.596   1.731
   16CHTO  H175 6418   5.958   3.476   1.724
   16CHTO   C97 6419   5.812   3.269   1.613
   16CHTO  H184 6420   5.767   3.225   1.703
   16CHTO   O64 6421   5.754   3.216   1.492
   16CHTO  C104 6422   5.611   3.213   1.494
   16CHTO  H191 6423   5.574   3.152   1.577
   16CHTO  C108 6424   5.566   3.141   1.366
   16CHTO   O71 6425   5.427   3.107   1.367
   16CHTO  H171 6426   5.410   3.040   1.430
   16CHTO   O62 6427   5.953   3.240   1.605
   16CHTO   C91 6428   6.006   3.117   1.661
   16CHTO  H178 6429   6.114   3.130   1.663
   16CHTO   C92 6430   5.980   2.997   1.565
   16CHTO  H179 6431   5.872   2.990   1.544
   16CHTO   O66 6432   6.044   3.028   1.440
   16CHTO  H166 6433   6.027   2.961   1.376
   16CHTO   C93 6434   6.035   2.861   1.626
   16CHTO  H180 6435   6.144   2.870   1.635
   16CHTO   N16 6436   6.010   2.743   1.539
   16CHTO  H172 6437   5.904   2.729   1.524
   16CHTO  H173 6438   6.054   2.655   1.583
   16CHTO   C94 6439   5.973   2.842   1.769
   16CHTO  H181 6440   5.864   2.841   1.766
   16CHTO   O61 6441   6.015   2.952   1.851
   16CHTO   C95 6442   5.963   3.080   1.810
   16CHTO  H182 6443   5.855   3.078   1.818
   16CHTO  C106 6444   6.013   3.188   1.913
   16CHTO   O69 6445   6.156   3.195   1.919
   16CHTO  H169 6446   6.181   3.259   1.983
   16CHTO   O63 6447   6.030   2.708   1.845
   16CHTO   C96 6448   5.918   2.610   1.914
   16CHTO  H183 6449   5.972   2.545   1.983
   16CHTO   C98 6450   5.845   2.519   1.812
   16CHTO  H185 6451   5.812   2.580   1.727
   16CHTO   O67 6452   5.942   2.427   1.758
   16CHTO  H167 6453   5.973   2.369   1.824
   16CHTO  C102 6454   5.718   2.441   1.875
   16CHTO  H189 6455   5.760   2.373   1.951
   16CHTO   N18 6456   5.642   2.355   1.781
   16CHTO  H176 6457   5.707   2.281   1.738
   16CHTO  H177 6458   5.561   2.306   1.833
   16CHTO  C105 6459   5.631   2.548   1.946
   16CHTO  H192 6460   5.602   2.623   1.873
   16CHTO   O65 6461   5.707   2.612   2.049
   16CHTO  C100 6462   5.814   2.694   2.000
   16CHTO  H187 6463   5.770   2.772   1.937
   16CHTO  C107 6464   5.884   2.762   2.120
   16CHTO   O70 6465   5.795   2.852   2.188
   16CHTO  H170 6466   5.774   2.925   2.132
   16CHTO   O57 6467   5.495   2.479   2.012
   16CHTO   C85 6468   5.380   2.565   2.022
   16CHTO  H157 6469   5.386   2.634   1.935
   16CHTO   C83 6470   5.391   2.656   2.149
   16CHTO  H155 6471   5.485   2.710   2.144
   16CHTO   O56 6472   5.398   2.574   2.267
   16CHTO  H135 6473   5.318   2.525   2.278
   16CHTO   C81 6474   5.274   2.758   2.146
   16CHTO  H153 6475   5.283   2.817   2.054
   16CHTO   N14 6476   5.285   2.860   2.253
   16CHTO  H141 6477   5.272   2.814   2.349
   16CHTO  H142 6478   5.210   2.936   2.240
   16CHTO   C79 6479   5.134   2.685   2.143
   16CHTO  H151 6480   5.059   2.760   2.119
   16CHTO   O52 6481   5.128   2.585   2.035
   16CHTO   C86 6482   5.241   2.492   2.029
   16CHTO  H158 6483   5.231   2.431   2.121
   16CHTO   C90 6484   5.222   2.394   1.911
   16CHTO   O60 6485   5.209   2.464   1.787
   16CHTO  H138 6486   5.126   2.508   1.783
   16CHTO   O50 6487   5.096   2.623   2.268
   16CHTO   C73 6488   5.002   2.529   2.322
   16CHTO  H145 6489   5.047   2.429   2.324
   16CHTO   C74 6490   4.871   2.522   2.236
   16CHTO  H146 6491   4.902   2.497   2.133
   16CHTO   O54 6492   4.794   2.409   2.283
   16CHTO  H133 6493   4.717   2.400   2.230
   16CHTO   C75 6494   4.795   2.660   2.244
   16CHTO  H147 6495   4.860   2.738   2.203
   16CHTO   N13 6496   4.671   2.664   2.162
   16CHTO  H139 6497   4.695   2.646   2.058
   16CHTO  H140 6498   4.625   2.761   2.170
   16CHTO   C76 6499   4.767   2.695   2.397
   16CHTO  H148 6500   4.702   2.618   2.438
   16CHTO   O49 6501   4.894   2.695   2.472
   16CHTO   C77 6502   4.964   2.570   2.468
   16CHTO  H149 6503   4.902   2.491   2.512
   16CHTO   C88 6504   5.089   2.580   2.557
   16CHTO   O58 6505   5.051   2.607   2.700
   16CHTO  H136 6506   5.016   2.694   2.707
   16CHTO   O51 6507   4.697   2.847   2.413
   16CHTO   C78 6508   4.795   2.967   2.457
   16CHTO  H150 6509   4.902   2.939   2.445
   16CHTO   C80 6510   4.771   3.005   2.604
   16CHTO  H152 6511   4.663   3.031   2.617
   16CHTO   O55 6512   4.799   2.888   2.683
   16CHTO  H134 6513   4.775   2.903   2.773
   16CHTO   C84 6514   4.860   3.129   2.647
   16CHTO  H156 6515   4.964   3.098   2.640
   16CHTO   N15 6516   4.836   3.172   2.789
   16CHTO  H143 6517   4.733   3.200   2.802
   16CHTO  H144 6518   4.859   3.092   2.856
   16CHTO   C87 6519   4.838   3.246   2.548
   16CHTO  H159 6520   4.738   3.287   2.560
   16CHTO   O53 6521   4.856   3.197   2.400
   16CHTO   C82 6522   4.769   3.088   2.365
   16CHTO  H154 6523   4.665   3.121   2.373
   16CHTO   C89 6524   4.793   3.051   2.217
   16CHTO   O59 6525   4.927   3.005   2.194
   16CHTO  H137 6526   4.941   2.923   2.237
   16CHTO   O45 6527   4.946   3.370   2.575
   16CHTO   C67 6528   5.078   3.354   2.520
   16CHTO  H124 6529   5.081   3.272   2.448
   16CHTO   C65 6530   5.119   3.486   2.449
   16CHTO  H122 6531   5.035   3.512   2.385
   16CHTO   O44 6532   5.235   3.464   2.366
   16CHTO  H102 6533   5.252   3.540   2.314
   16CHTO   C63 6534   5.131   3.600   2.556
   16CHTO  H120 6535   5.038   3.604   2.612
   16CHTO   N11 6536   5.140   3.739   2.500
   16CHTO  H108 6537   5.134   3.811   2.579
   16CHTO  H109 6538   5.060   3.756   2.431
   16CHTO   C61 6539   5.244   3.563   2.659
   16CHTO  H118 6540   5.233   3.634   2.742
   16CHTO   O40 6541   5.227   3.430   2.717
   16CHTO   C68 6542   5.180   3.316   2.635
   16CHTO  H125 6543   5.126   3.249   2.705
   16CHTO   C72 6544   5.300   3.235   2.580
   16CHTO   O48 6545   5.374   3.168   2.683
   16CHTO  H105 6546   5.323   3.096   2.715
   16CHTO   O38 6547   5.377   3.572   2.603
   16CHTO   C55 6548   5.481   3.624   2.689
   16CHTO  H112 6549   5.462   3.593   2.792
   16CHTO   C56 6550   5.490   3.783   2.676
   16CHTO  H113 6551   5.488   3.807   2.568
   16CHTO   O42 6552   5.373   3.843   2.733
   16CHTO  H100 6553   5.372   3.936   2.716
   16CHTO   C57 6554   5.622   3.842   2.743
   16CHTO  H114 6555   5.611   3.831   2.851
   16CHTO   N10 6556   5.643   3.986   2.715
   16CHTO  H106 6557   5.604   4.013   2.618
   16CHTO  H107 6558   5.748   4.012   2.719
   16CHTO   C58 6559   5.744   3.758   2.696
   16CHTO  H115 6560   5.758   3.771   2.587
   16CHTO   O37 6561   5.723   3.619   2.725
   16CHTO   C59 6562   5.617   3.560   2.649
   16CHTO  H116 6563   5.636   3.572   2.542
   16CHTO   C70 6564   5.616   3.409   2.680
   16CHTO   O46 6565   5.734   3.342   2.635
   16CHTO  H103 6566   5.735   3.339   2.541
   16CHTO   O39 6567   5.882   3.800   2.776
   16CHTO   C60 6568   5.999   3.792   2.692
   16CHTO  H117 6569   5.972   3.752   2.594
   16CHTO   C62 6570   6.060   3.934   2.669
   16CHTO  H119 6571   5.978   3.996   2.626
   16CHTO   O43 6572   6.099   3.992   2.795
   16CHTO  H101 6573   6.167   3.942   2.834
   16CHTO   C66 6574   6.179   3.922   2.562
   16CHTO  H123 6575   6.139   3.881   2.469
   16CHTO   N12 6576   6.236   4.054   2.525
   16CHTO  H110 6577   6.160   4.116   2.480
   16CHTO  H111 6578   6.278   4.102   2.612
   16CHTO   C69 6579   6.289   3.823   2.611
   16CHTO  H126 6580   6.343   3.867   2.699
   16CHTO   O41 6581   6.223   3.685   2.654
   16CHTO   C64 6582   6.107   3.697   2.751
   16CHTO  H121 6583   6.143   3.739   2.847
   16CHTO   C71 6584   6.050   3.556   2.780
   16CHTO   O47 6585   6.003   3.492   2.661
   16CHTO  H104 6586   5.944   3.423   2.683
   16CHTO   O34 6587   6.395   3.796   2.496
   16CHTO   C49 6588   6.438   3.670   2.412
   16CHTO   H91 6589   6.407   3.584   2.471
   16CHTO   C47 6590   6.592   3.669   2.398
   16CHTO   H89 6591   6.630   3.629   2.494
   16CHTO   O33 6592   6.644   3.802   2.381
   16CHTO   H70 6593   6.609   3.842   2.303
   16CHTO   C45 6594   6.642   3.579   2.272
   16CHTO   H87 6595   6.649   3.645   2.185
   16CHTO    N8 6596   6.776   3.521   2.297
   16CHTO   H75 6597   6.808   3.537   2.399
   16CHTO   H76 6598   6.848   3.565   2.229
   16CHTO   C43 6599   6.530   3.472   2.230
   16CHTO   H85 6600   6.570   3.417   2.145
   16CHTO   O29 6601   6.408   3.540   2.196
   16CHTO   C50 6602   6.373   3.659   2.271
   16CHTO   H92 6603   6.402   3.748   2.212
   16CHTO   C54 6604   6.218   3.667   2.278
   16CHTO   O36 6605   6.160   3.683   2.149
   16CHTO   H72 6606   6.180   3.768   2.114
   16CHTO   O27 6607   6.506   3.376   2.334
   16CHTO   C37 6608   6.439   3.251   2.358
   16CHTO   H79 6609   6.448   3.224   2.464
   16CHTO   C38 6610   6.287   3.261   2.326
   16CHTO   H80 6611   6.275   3.302   2.225
   16CHTO   O31 6612   6.229   3.353   2.421
   16CHTO   H68 6613   6.260   3.440   2.404
   16CHTO   C39 6614   6.216   3.120   2.334
   16CHTO   H81 6615   6.218   3.088   2.438
   16CHTO    N7 6616   6.071   3.124   2.293
   16CHTO   H73 6617   6.016   3.191   2.359
   16CHTO   H74 6618   6.062   3.158   2.191
   16CHTO   C40 6619   6.296   3.013   2.251
   16CHTO   H82 6620   6.287   3.035   2.144
   16CHTO   O26 6621   6.433   3.012   2.293
   16CHTO   C41 6622   6.504   3.138   2.273
   16CHTO   H83 6623   6.499   3.165   2.166
   16CHTO   C52 6624   6.652   3.118   2.310
   16CHTO   O35 6625   6.719   3.021   2.225
   16CHTO   H71 6626   6.809   3.013   2.251
   16CHTO   O28 6627   6.245   2.880   2.274
   16CHTO   C42 6628   6.303   2.756   2.221
   16CHTO   H84 6629   6.409   2.762   2.243
   16CHTO   C44 6630   6.292   2.733   2.066
   16CHTO   H86 6631   6.187   2.740   2.037
   16CHTO   O32 6632   6.363   2.840   2.002
   16CHTO   H69 6633   6.353   2.834   1.908
   16CHTO   C48 6634   6.347   2.590   2.021
   16CHTO   H90 6635   6.454   2.588   2.040
   16CHTO    N9 6636   6.332   2.564   1.873
   16CHTO   H77 6637   6.267   2.480   1.855
   16CHTO   H78 6638   6.295   2.652   1.822
   16CHTO   C51 6639   6.279   2.479   2.110
   16CHTO   H93 6640   6.171   2.482   2.092
   16CHTO   O30 6641   6.310   2.505   2.247
   16CHTO   C46 6642   6.247   2.632   2.298
   16CHTO   H88 6643   6.139   2.626   2.283
   16CHTO   C53 6644   6.278   2.644   2.449
   16CHTO   O72 6645   6.221   2.535   2.522
   16CHTO  H199 6646   6.242   2.544   2.613
   16CHTO   O22 6647   6.331   2.347   2.085
   16CHTO   C31 6648   6.259   2.228   2.134
   16CHTO   H59 6649   6.195   2.262   2.219
   16CHTO   C29 6650   6.164   2.165   2.029
   16CHTO   H57 6651   6.225   2.143   1.940
   16CHTO   O21 6652   6.069   2.266   1.990
   16CHTO   H37 6653   6.018   2.236   1.917
   16CHTO   C27 6654   6.095   2.032   2.080
   16CHTO   H55 6655   6.027   2.057   2.162
   16CHTO    N5 6656   6.016   1.966   1.972
   16CHTO   H43 6657   5.911   1.968   1.996
   16CHTO   H44 6658   6.048   1.864   1.957
   16CHTO   C25 6659   6.205   1.937   2.140
   16CHTO   H53 6660   6.274   1.906   2.060
   16CHTO   O17 6661   6.280   2.008   2.243
   16CHTO   C32 6662   6.355   2.120   2.193
   16CHTO   H60 6663   6.424   2.087   2.115
   16CHTO   C36 6664   6.438   2.172   2.314
   16CHTO   O25 6665   6.530   2.274   2.275
   16CHTO   H40 6666   6.577   2.305   2.351
   16CHTO   O15 6667   6.143   1.806   2.206
   16CHTO   C19 6668   6.053   1.735   2.296
   16CHTO   H47 6669   6.108   1.642   2.318
   16CHTO   C20 6670   6.024   1.809   2.431
   16CHTO   H48 6671   5.981   1.909   2.414
   16CHTO   O19 6672   6.152   1.826   2.495
   16CHTO   H35 6673   6.142   1.876   2.574
   16CHTO   C21 6674   5.924   1.726   2.522
   16CHTO   H49 6675   5.972   1.633   2.551
   16CHTO    N4 6676   5.890   1.797   2.649
   16CHTO   H41 6677   5.784   1.816   2.656
   16CHTO   H42 6678   5.921   1.738   2.734
   16CHTO   C22 6679   5.800   1.687   2.438
   16CHTO   H50 6680   5.747   1.779   2.410
   16CHTO   O14 6681   5.841   1.616   2.320
   16CHTO   C23 6682   5.920   1.692   2.228
   16CHTO   H51 6683   5.860   1.779   2.197
   16CHTO   C34 6684   5.946   1.606   2.104
   16CHTO   O23 6685   5.825   1.577   2.034
   16CHTO   H38 6686   5.844   1.529   1.956
   16CHTO   O16 6687   5.710   1.598   2.507
   16CHTO   C24 6688   5.570   1.574   2.426
   16CHTO   H52 6689   5.577   1.605   2.322
   16CHTO   C26 6690   5.458   1.654   2.496
   16CHTO   H54 6691   5.453   1.622   2.603
   16CHTO   O20 6692   5.494   1.793   2.492
   16CHTO   H36 6693   5.432   1.844   2.540
   16CHTO   C30 6694   5.320   1.628   2.428
   16CHTO   H58 6695   5.318   1.674   2.329
   16CHTO    N6 6696   5.210   1.692   2.505
   16CHTO   H45 6697   5.203   1.649   2.604
   16CHTO   H46 6698   5.116   1.678   2.454
   16CHTO   C33 6699   5.293   1.475   2.406
   16CHTO   H61 6700   5.269   1.427   2.502
   16CHTO   O18 6701   5.410   1.410   2.350
   16CHTO   C28 6702   5.531   1.424   2.426
   16CHTO   H56 6703   5.516   1.390   2.529
   16CHTO   C35 6704   5.640   1.336   2.359
   16CHTO   O24 6705   5.760   1.326   2.435
   16CHTO   H39 6706   5.743   1.281   2.516
   16CHTO    O9 6707   5.177   1.455   2.322
   16CHTO   C13 6708   5.109   1.306   2.329
   16CHTO   H26 6709   5.151   1.251   2.417
   16CHTO   C11 6710   5.137   1.229   2.193
   16CHTO   H24 6711   5.246   1.216   2.183
   16CHTO    O8 6712   5.093   1.311   2.083
   16CHTO    H3 6713   4.999   1.321   2.085
   16CHTO    C9 6714   5.072   1.087   2.200
   16CHTO   H22 6715   5.129   1.032   2.276
   16CHTO    N2 6716   5.093   1.006   2.077
   16CHTO   H10 6717   5.134   1.066   1.997
   16CHTO   H11 6718   5.001   0.959   2.046
   16CHTO    C7 6719   4.922   1.097   2.253
   16CHTO   H20 6720   4.929   1.055   2.355
   16CHTO    O4 6721   4.876   1.233   2.261
   16CHTO   C14 6722   4.950   1.313   2.355
   16CHTO   H27 6723   4.928   1.275   2.457
   16CHTO   C18 6724   4.890   1.455   2.345
   16CHTO   O13 6725   4.923   1.534   2.460
   16CHTO    H7 6726   5.015   1.554   2.459
   16CHTO    O2 6727   4.807   1.006   2.165
   16CHTO    C1 6728   4.699   0.945   2.240
   16CHTO   H14 6729   4.635   0.890   2.168
   16CHTO    C2 6730   4.607   1.046   2.321
   16CHTO   H15 6731   4.674   1.105   2.386
   16CHTO    O6 6732   4.541   1.133   2.227
   16CHTO    H1 6733   4.604   1.189   2.185
   16CHTO    C3 6734   4.500   0.966   2.411
   16CHTO   H16 6735   4.429   0.914   2.345
   16CHTO    N1 6736   4.419   1.057   2.499
   16CHTO    H8 6737   4.349   0.999   2.557
   16CHTO    H9 6738   4.366   1.129   2.439
   16CHTO    C4 6739   4.573   0.854   2.494
   16CHTO   H17 6740   4.640   0.902   2.566
   16CHTO    O1 6741   4.649   0.769   2.406
   16CHTO    C5 6742   4.755   0.836   2.337
   16CHTO   H18 6743   4.819   0.884   2.411
   16CHTO   C16 6744   4.838   0.729   2.262
   16CHTO   O11 6745   4.905   0.643   2.354
   16CHTO    H5 6746   4.959   0.582   2.307
   16CHTO    O3 6747   4.480   0.767   2.561
   16CHTO    C6 6748   4.531   0.707   2.685
   16CHTO   H19 6749   4.639   0.718   2.696
   16CHTO    C8 6750   4.464   0.773   2.809
   16CHTO   H21 6751   4.355   0.768   2.796
   16CHTO    O7 6752   4.506   0.911   2.812
   16CHTO    H2 6753   4.460   0.957   2.880
   16CHTO   C12 6754   4.504   0.696   0.060
   16CHTO   H25 6755   4.613   0.715   0.075
   16CHTO    N3 6756   4.432   0.753   0.179
   16CHTO   H12 6757   4.503   0.786   0.254
   16CHTO   H13 6758   4.364   0.680   0.222
   16CHTO   C15 6759   4.483   0.541   0.041
   16CHTO   H28 6760   4.377   0.516   0.037
   16CHTO   O10 6761   4.551   0.458   0.153
   16CHTO    H4 6762   4.528   0.368   0.144
   16CHTO    O5 6763   4.550   0.494   2.805
   16CHTO   C10 6764   4.501   0.554   2.684
   16CHTO   H23 6765   4.394   0.538   2.678
   16CHTO   C17 6766   4.565   0.482   2.564
   16CHTO   O12 6767   4.706   0.502   2.558
   16CHTO    H6 6768   4.740   0.462   2.480
   17CHTO  H203 6769   3.726   4.558   1.250
   17CHTO   O82 6770   3.793   4.610   1.210
   17CHTO  C123 6771   3.911   4.608   1.292
   17CHTO  H227 6772   3.946   4.504   1.302
   17CHTO   O77 6773   4.007   4.684   1.213
   17CHTO  C118 6774   4.139   4.687   1.270
   17CHTO  H222 6775   4.173   4.585   1.289
   17CHTO  C125 6776   4.235   4.754   1.165
   17CHTO   O84 6777   4.243   4.675   1.046
   17CHTO  H205 6778   4.305   4.714   0.987
   17CHTO  C114 6779   4.135   4.766   1.402
   17CHTO  H218 6780   4.103   4.869   1.381
   17CHTO  C116 6781   4.031   4.705   1.501
   17CHTO  H220 6782   4.072   4.609   1.541
   17CHTO   O79 6783   4.018   4.792   1.615
   17CHTO  H201 6784   4.098   4.794   1.664
   17CHTO  C120 6785   3.891   4.678   1.432
   17CHTO  H224 6786   3.844   4.778   1.418
   17CHTO   N21 6787   3.801   4.599   1.520
   17CHTO  H211 6788   3.816   4.493   1.504
   17CHTO  H212 6789   3.698   4.626   1.501
   17CHTO   O75 6790   4.269   4.763   1.454
   17CHTO  C112 6791   4.336   4.910   1.484
   17CHTO  H216 6792   4.272   4.965   1.556
   17CHTO   O73 6793   4.347   4.979   1.359
   17CHTO  C113 6794   4.411   5.107   1.361
   17CHTO  H217 6795   4.355   5.176   1.427
   17CHTO  C124 6796   4.407   5.164   1.218
   17CHTO   O83 6797   4.273   5.179   1.170
   17CHTO  H204 6798   4.275   5.217   1.084
   17CHTO  C109 6799   4.557   5.090   1.409
   17CHTO  H213 6800   4.607   5.026   1.336
   17CHTO  C110 6801   4.558   5.023   1.550
   17CHTO  H214 6802   4.513   5.092   1.622
   17CHTO   O78 6803   4.696   5.003   1.588
   17CHTO  H200 6804   4.739   5.085   1.602
   17CHTO  C111 6805   4.480   4.889   1.547
   17CHTO  H215 6806   4.534   4.818   1.482
   17CHTO   N19 6807   4.468   4.824   1.680
   17CHTO  H207 6808   4.414   4.731   1.671
   17CHTO  H208 6809   4.567   4.804   1.720
   17CHTO   O74 6810   4.624   5.220   1.413
   17CHTO  C115 6811   4.778   5.230   1.343
   17CHTO  H219 6812   4.854   5.258   1.416
   17CHTO   O76 6813   4.826   5.086   1.283
   17CHTO  C122 6814   4.946   5.088   1.205
   17CHTO  H226 6815   4.955   4.991   1.155
   17CHTO  C126 6816   5.073   5.101   1.297
   17CHTO   O85 6817   5.090   4.989   1.384
   17CHTO  H206 6818   5.110   4.912   1.335
   17CHTO  C121 6819   4.945   5.201   1.095
   17CHTO  H225 6820   5.045   5.203   1.047
   17CHTO   O81 6821   4.851   5.167   0.991
   17CHTO  H202 6822   4.859   5.227   0.919
   17CHTO  C119 6823   4.915   5.340   1.156
   17CHTO  H223 6824   4.991   5.358   1.232
   17CHTO  C117 6825   4.775   5.340   1.230
   17CHTO  H221 6826   4.689   5.316   1.168
   17CHTO   N20 6827   4.745   5.474   1.290
   17CHTO  H209 6828   4.820   5.500   1.363
   17CHTO  H210 6829   4.647   5.473   1.336
   17CHTO   O80 6830   4.943   5.457   1.056
   17CHTO  C103 6831   5.084   5.527   1.056
   17CHTO  H190 6832   5.123   5.534   1.157
   17CHTO  C101 6833   5.194   5.460   0.963
   17CHTO  H188 6834   5.146   5.426   0.871
   17CHTO   O68 6835   5.251   5.337   1.033
   17CHTO  H168 6836   5.298   5.363   1.110
   17CHTO   C99 6837   5.311   5.563   0.922
   17CHTO  H186 6838   5.373   5.584   1.012
   17CHTO   N17 6839   5.405   5.511   0.816
   17CHTO  H174 6840   5.504   5.498   0.858
   17CHTO  H175 6841   5.368   5.419   0.774
   17CHTO   C97 6842   5.249   5.698   0.880
   17CHTO  H184 6843   5.188   5.682   0.789
   17CHTO   O64 6844   5.170   5.748   0.990
   17CHTO  C104 6845   5.050   5.673   1.009
   17CHTO  H191 6846   4.990   5.669   0.918
   17CHTO  C108 6847   4.964   5.746   1.113
   17CHTO   O71 6848   4.924   5.876   1.067
   17CHTO  H171 6849   4.999   5.933   1.063
   17CHTO   O62 6850   5.344   5.805   0.860
   17CHTO   C91 6851   5.310   5.899   0.755
   17CHTO  H178 6852   5.308   5.842   0.662
   17CHTO   C92 6853   5.428   6.002   0.742
   17CHTO  H179 6854   5.523   5.948   0.732
   17CHTO   O66 6855   5.411   6.071   0.617
   17CHTO  H166 6856   5.422   6.012   0.545
   17CHTO   C93 6857   5.430   6.109   0.858
   17CHTO  H180 6858   5.477   6.200   0.817
   17CHTO   N16 6859   5.516   6.068   0.971
   17CHTO  H172 6860   5.459   6.056   1.062
   17CHTO  H173 6861   5.595   6.140   0.987
   17CHTO   C94 6862   5.283   6.145   0.904
   17CHTO  H181 6863   5.251   6.084   0.989
   17CHTO   O61 6864   5.189   6.119   0.798
   17CHTO   C95 6865   5.171   5.978   0.773
   17CHTO  H182 6866   5.114   5.936   0.856
   17CHTO  C106 6867   5.079   5.964   0.647
   17CHTO   O69 6868   5.039   5.828   0.626
   17CHTO  H169 6869   4.979   5.823   0.555
   17CHTO   O63 6870   5.273   6.297   0.938
   17CHTO   C96 6871   5.262   6.325   1.095
   17CHTO  H183 6872   5.325   6.252   1.147
   17CHTO   C98 6873   5.118   6.315   1.154
   17CHTO  H185 6874   5.050   6.377   1.094
   17CHTO   O67 6875   5.073   6.179   1.137
   17CHTO  H167 6876   4.983   6.171   1.165
   17CHTO  C102 6877   5.113   6.358   1.309
   17CHTO  H189 6878   5.166   6.279   1.364
   17CHTO   N18 6879   4.976   6.363   1.367
   17CHTO  H176 6880   4.980   6.391   1.471
   17CHTO  H177 6881   4.929   6.266   1.357
   17CHTO  C105 6882   5.190   6.492   1.329
   17CHTO  H192 6883   5.131   6.573   1.287
   17CHTO   O65 6884   5.320   6.491   1.267
   17CHTO  C100 6885   5.319   6.468   1.125
   17CHTO  H187 6886   5.254   6.543   1.077
   17CHTO  C107 6887   5.462   6.484   1.068
   17CHTO   O70 6888   5.509   6.618   1.085
   17CHTO  H170 6889   5.596   6.625   1.052
   17CHTO   O57 6890   5.208   6.513   1.490
   17CHTO   C85 6891   5.262   6.636   1.540
   17CHTO  H157 6892   5.277   6.703   1.452
   17CHTO   C83 6893   5.405   6.609   1.597
   17CHTO  H155 6894   5.470   6.582   1.513
   17CHTO   O56 6895   5.403   6.495   1.684
   17CHTO  H135 6896   5.351   6.513   1.761
   17CHTO   C81 6897   5.462   6.738   1.663
   17CHTO  H153 6898   5.463   6.817   1.588
   17CHTO   N14 6899   5.605   6.728   1.703
   17CHTO  H141 6900   5.641   6.627   1.693
   17CHTO  H142 6901   5.619   6.759   1.805
   17CHTO   C79 6902   5.367   6.784   1.780
   17CHTO  H151 6903   5.407   6.878   1.819
   17CHTO   O52 6904   5.235   6.813   1.725
   17CHTO   C86 6905   5.171   6.705   1.651
   17CHTO  H158 6906   5.140   6.632   1.729
   17CHTO   C90 6907   5.040   6.763   1.592
   17CHTO   O60 6908   4.959   6.663   1.529
   17CHTO  H138 6909   4.925   6.605   1.594
   17CHTO   O50 6910   5.357   6.693   1.891
   17CHTO   C73 6911   5.329   6.685   2.032
   17CHTO  H145 6912   5.381   6.766   2.086
   17CHTO   C74 6913   5.380   6.548   2.088
   17CHTO  H146 6914   5.489   6.543   2.068
   17CHTO   O54 6915   5.365   6.550   2.231
   17CHTO  H133 6916   5.402   6.471   2.268
   17CHTO   C75 6917   5.301   6.431   2.018
   17CHTO  H147 6918   5.323   6.434   1.910
   17CHTO   N13 6919   5.343   6.295   2.061
   17CHTO  H139 6920   5.329   6.285   2.168
   17CHTO  H140 6921   5.447   6.279   2.038
   17CHTO   C76 6922   5.144   6.455   2.035
   17CHTO  H148 6923   5.118   6.439   2.140
   17CHTO   O49 6924   5.105   6.590   1.994
   17CHTO   C77 6925   5.176   6.695   2.062
   17CHTO  H149 6926   5.160   6.685   2.169
   17CHTO   C88 6927   5.118   6.832   2.024
   17CHTO   O58 6928   4.975   6.842   2.062
   17CHTO  H136 6929   4.966   6.841   2.156
   17CHTO   O51 6930   5.063   6.360   1.937
   17CHTO   C78 6931   4.918   6.335   1.989
   17CHTO  H150 6932   4.892   6.404   2.072
   17CHTO   C80 6933   4.903   6.190   2.038
   17CHTO  H152 6934   4.933   6.121   1.955
   17CHTO   O55 6935   4.995   6.173   2.147
   17CHTO  H134 6936   4.996   6.083   2.175
   17CHTO   C84 6937   4.754   6.159   2.082
   17CHTO  H156 6938   4.734   6.217   2.172
   17CHTO   N15 6939   4.733   6.015   2.119
   17CHTO  H143 6940   4.752   5.952   2.035
   17CHTO  H144 6941   4.632   6.000   2.153
   17CHTO   C87 6942   4.654   6.205   1.973
   17CHTO  H159 6943   4.656   6.136   1.888
   17CHTO   O53 6944   4.685   6.348   1.926
   17CHTO   C82 6945   4.818   6.362   1.875
   17CHTO  H154 6946   4.833   6.291   1.793
   17CHTO   C89 6947   4.833   6.504   1.815
   17CHTO   O59 6948   4.808   6.607   1.911
   17CHTO  H137 6949   4.818   6.691   1.870
   17CHTO   O45 6950   4.509   6.209   2.033
   17CHTO   C67 6951   4.405   6.213   1.934
   17CHTO  H124 6952   4.442   6.259   1.842
   17CHTO   C65 6953   4.353   6.069   1.901
   17CHTO  H122 6954   4.434   6.000   1.924
   17CHTO   O44 6955   4.322   6.062   1.761
   17CHTO  H102 6956   4.300   5.974   1.737
   17CHTO   C63 6957   4.234   6.034   1.997
   17CHTO  H120 6958   4.265   6.055   2.099
   17CHTO   N11 6959   4.197   5.889   2.006
   17CHTO  H108 6960   4.124   5.875   2.083
   17CHTO  H109 6961   4.157   5.856   1.912
   17CHTO   C61 6962   4.115   6.133   1.963
   17CHTO  H118 6963   4.050   6.136   2.053
   17CHTO   O40 6964   4.159   6.270   1.937
   17CHTO   C68 6965   4.290   6.308   1.987
   17CHTO  H125 6966   4.287   6.304   2.098
   17CHTO   C72 6967   4.315   6.456   1.949
   17CHTO   O48 6968   4.435   6.510   2.006
   17CHTO  H105 6969   4.510   6.468   1.968
   17CHTO   O38 6970   4.040   6.095   1.845
   17CHTO   C55 6971   3.897   6.114   1.849
   17CHTO  H112 6972   3.868   6.171   1.938
   17CHTO   C56 6973   3.825   5.972   1.843
   17CHTO  H113 6974   3.872   5.915   1.761
   17CHTO   O42 6975   3.854   5.900   1.964
   17CHTO  H100 6976   3.946   5.881   1.970
   17CHTO   C57 6977   3.670   5.986   1.820
   17CHTO  H114 6978   3.628   6.029   1.911
   17CHTO   N10 6979   3.603   5.855   1.797
   17CHTO  H106 6980   3.500   5.860   1.831
   17CHTO  H107 6981   3.604   5.828   1.693
   17CHTO   C58 6982   3.642   6.083   1.702
   17CHTO  H115 6983   3.679   6.037   1.608
   17CHTO   O37 6984   3.710   6.208   1.722
   17CHTO   C59 6985   3.853   6.200   1.727
   17CHTO  H116 6986   3.891   6.157   1.634
   17CHTO   C70 6987   3.908   6.344   1.735
   17CHTO   O46 6988   3.864   6.416   1.851
   17CHTO  H103 6989   3.902   6.502   1.850
   17CHTO   O39 6990   3.477   6.116   1.684
   17CHTO   C60 6991   3.421   6.208   1.780
   17CHTO  H117 6992   3.476   6.199   1.874
   17CHTO   C62 6993   3.431   6.356   1.731
   17CHTO  H119 6994   3.538   6.377   1.712
   17CHTO   O43 6995   3.359   6.371   1.607
   17CHTO  H101 6996   3.370   6.458   1.574
   17CHTO   C66 6997   3.380   6.453   1.849
   17CHTO  H123 6998   3.440   6.433   1.938
   17CHTO   N12 6999   3.402   6.596   1.816
   17CHTO  H110 7000   3.461   6.644   1.893
   17CHTO  H111 7001   3.308   6.648   1.801
   17CHTO   C69 7002   3.233   6.419   1.884
   17CHTO  H126 7003   3.166   6.447   1.800
   17CHTO   O41 7004   3.217   6.266   1.917
   17CHTO   C64 7005   3.273   6.173   1.811
   17CHTO  H121 7006   3.214   6.184   1.718
   17CHTO   C71 7007   3.255   6.027   1.860
   17CHTO   O47 7008   3.318   6.003   1.986
   17CHTO  H104 7009   3.306   5.914   2.012
   17CHTO   O34 7010   3.189   6.496   2.009
   17CHTO   C49 7011   3.070   6.580   2.036
   17CHTO   H91 7012   3.083   6.672   1.979
   17CHTO   C47 7013   3.066   6.612   2.188
   17CHTO   H89 7014   2.999   6.702   2.194
   17CHTO   O33 7015   3.196   6.650   2.237
   17CHTO   H70 7016   3.226   6.728   2.193
   17CHTO   C45 7017   3.013   6.488   2.276
   17CHTO   H87 7018   3.096   6.450   2.338
   17CHTO    N8 7019   2.907   6.537   2.368
   17CHTO   H75 7020   2.816   6.480   2.356
   17CHTO   H76 7021   2.940   6.531   2.470
   17CHTO   C43 7022   2.972   6.364   2.184
   17CHTO   H85 7023   3.065   6.324   2.144
   17CHTO   O29 7024   2.883   6.407   2.079
   17CHTO   C50 7025   2.937   6.510   1.993
   17CHTO   H92 7026   2.955   6.462   1.895
   17CHTO   C54 7027   2.825   6.612   1.959
   17CHTO   O36 7028   2.766   6.671   2.075
   17CHTO   H72 7029   2.700   6.732   2.049
   17CHTO   O27 7030   2.916   6.256   2.261
   17CHTO   C37 7031   2.889   6.116   2.244
   17CHTO   H79 7032   2.821   6.081   2.323
   17CHTO   C38 7033   2.818   6.090   2.108
   17CHTO   H80 7034   2.877   6.138   2.028
   17CHTO   O31 7035   2.689   6.156   2.115
   17CHTO   H68 7036   2.635   6.116   2.180
   17CHTO   C39 7037   2.802   5.936   2.077
   17CHTO   H81 7038   2.728   5.897   2.147
   17CHTO    N7 7039   2.750   5.909   1.938
   17CHTO   H73 7040   2.652   5.954   1.927
   17CHTO   H74 7041   2.818   5.950   1.865
   17CHTO   C40 7042   2.936   5.858   2.104
   17CHTO   H82 7043   3.008   5.875   2.023
   17CHTO   O26 7044   2.991   5.892   2.233
   17CHTO   C41 7045   3.020   6.034   2.251
   17CHTO   H83 7046   3.090   6.068   2.173
   17CHTO   C52 7047   3.090   6.051   2.388
   17CHTO   O35 7048   3.221   5.984   2.394
   17CHTO   H71 7049   3.209   5.891   2.387
   17CHTO   O28 7050   2.911   5.716   2.116
   17CHTO   C42 7051   3.012   5.613   2.091
   17CHTO   H84 7052   2.965   5.523   2.129
   17CHTO   C44 7053   3.148   5.626   2.168
   17CHTO   H86 7054   3.196   5.720   2.138
   17CHTO   O32 7055   3.115   5.634   2.308
   17CHTO   H69 7056   3.193   5.651   2.358
   17CHTO   C48 7057   3.246   5.507   2.135
   17CHTO   H90 7058   3.203   5.415   2.176
   17CHTO    N9 7059   3.379   5.523   2.203
   17CHTO   H77 7060   3.366   5.528   2.310
   17CHTO   H78 7061   3.444   5.440   2.177
   17CHTO   C51 7062   3.260   5.489   1.979
   17CHTO   H93 7063   3.309   5.578   1.939
   17CHTO   O30 7064   3.130   5.471   1.922
   17CHTO   C46 7065   3.039   5.590   1.939
   17CHTO   H88 7066   3.089   5.678   1.898
   17CHTO   C53 7067   2.909   5.562   1.859
   17CHTO   O72 7068   2.841   5.444   1.904
   17CHTO  H199 7069   2.807   5.458   1.991
   17CHTO   O22 7070   3.332   5.370   1.943
   17CHTO   C31 7071   3.402   5.356   1.813
   17CHTO   H59 7072   3.445   5.253   1.813
   17CHTO   C29 7073   3.311   5.367   1.689
   17CHTO   H57 7074   3.258   5.464   1.695
   17CHTO   O21 7075   3.211   5.264   1.698
   17CHTO   H37 7076   3.250   5.180   1.687
   17CHTO   C27 7077   3.392   5.363   1.552
   17CHTO   H55 7078   3.437   5.264   1.541
   17CHTO    N5 7079   3.306   5.389   1.434
   17CHTO   H43 7080   3.225   5.317   1.430
   17CHTO   H44 7081   3.365   5.381   1.343
   17CHTO   C25 7082   3.509   5.466   1.560
   17CHTO   H53 7083   3.468   5.568   1.572
   17CHTO   O17 7084   3.591   5.435   1.676
   17CHTO   C32 7085   3.524   5.453   1.802
   17CHTO   H60 7086   3.489   5.556   1.810
   17CHTO   C36 7087   3.627   5.426   1.914
   17CHTO   O25 7088   3.735   5.521   1.909
   17CHTO   H40 7089   3.798   5.501   1.975
   17CHTO   O15 7090   3.606   5.463   1.432
   17CHTO   C19 7091   3.665   5.580   1.365
   17CHTO   H47 7092   3.735   5.535   1.293
   17CHTO   C20 7093   3.561   5.667   1.288
   17CHTO   H48 7094   3.483   5.706   1.355
   17CHTO   O19 7095   3.499   5.580   1.192
   17CHTO   H35 7096   3.428   5.624   1.150
   17CHTO   C21 7097   3.630   5.790   1.216
   17CHTO   H49 7098   3.699   5.752   1.140
   17CHTO    N4 7099   3.535   5.880   1.145
   17CHTO   H41 7100   3.558   5.883   1.040
   17CHTO   H42 7101   3.433   5.846   1.158
   17CHTO   C22 7102   3.717   5.868   1.319
   17CHTO   H50 7103   3.652   5.920   1.390
   17CHTO   O14 7104   3.806   5.781   1.389
   17CHTO   C23 7105   3.752   5.669   1.460
   17CHTO   H51 7106   3.693   5.708   1.545
   17CHTO   C34 7107   3.876   5.597   1.514
   17CHTO   O23 7108   3.848   5.491   1.605
   17CHTO   H38 7109   3.812   5.526   1.684
   17CHTO   O16 7110   3.808   5.960   1.254
   17CHTO   C24 7111   3.846   6.090   1.342
   17CHTO   H52 7112   3.809   6.083   1.444
   17CHTO   C26 7113   3.783   6.213   1.274
   17CHTO   H54 7114   3.812   6.213   1.166
   17CHTO   O20 7115   3.640   6.198   1.281
   17CHTO   H36 7116   3.597   6.265   1.231
   17CHTO   C30 7117   3.831   6.346   1.338
   17CHTO   H58 7118   3.793   6.354   1.441
   17CHTO    N6 7119   3.779   6.465   1.265
   17CHTO   H45 7120   3.814   6.556   1.313
   17CHTO   H46 7121   3.671   6.465   1.266
   17CHTO   C33 7122   3.987   6.348   1.347
   17CHTO   H61 7123   4.030   6.348   1.246
   17CHTO   O18 7124   4.031   6.230   1.416
   17CHTO   C28 7125   4.001   6.105   1.352
   17CHTO   H56 7126   4.043   6.102   1.251
   17CHTO   C35 7127   4.066   5.996   1.440
   17CHTO   O24 7128   4.075   5.869   1.376
   17CHTO   H39 7129   4.138   5.873   1.306
   17CHTO    O9 7130   4.036   6.467   1.411
   17CHTO   C13 7131   4.189   6.501   1.381
   17CHTO   H26 7132   4.217   6.456   1.284
   17CHTO   C11 7133   4.279   6.445   1.500
   17CHTO   H24 7134   4.287   6.336   1.486
   17CHTO    O8 7135   4.216   6.470   1.627
   17CHTO    H3 7136   4.136   6.421   1.633
   17CHTO    C9 7137   4.419   6.510   1.490
   17CHTO   H22 7138   4.452   6.493   1.386
   17CHTO    N2 7139   4.523   6.441   1.571
   17CHTO   H10 7140   4.576   6.511   1.633
   17CHTO   H11 7141   4.480   6.362   1.631
   17CHTO    C7 7142   4.406   6.666   1.513
   17CHTO   H20 7143   4.485   6.709   1.448
   17CHTO    O4 7144   4.278   6.720   1.475
   17CHTO   C14 7145   4.213   6.659   1.362
   17CHTO   H27 7146   4.280   6.673   1.275
   17CHTO   C18 7147   4.083   6.738   1.331
   17CHTO   O13 7148   3.997   6.748   1.445
   17CHTO    H7 7149   3.918   6.793   1.421
   17CHTO    O2 7150   4.434   6.711   1.668
   17CHTO    C1 7151   4.464   6.851   1.681
   17CHTO   H14 7152   4.427   6.907   1.592
   17CHTO    C2 7153   4.620   6.879   1.696
   17CHTO   H15 7154   4.654   6.815   1.780
   17CHTO    O6 7155   4.685   6.838   1.575
   17CHTO    H1 7156   4.778   6.846   1.584
   17CHTO    C3 7157   4.648   7.033   1.730
   17CHTO   H16 7158   4.622   7.094   1.642
   17CHTO    N1 7159   4.793   7.059   1.761
   17CHTO    H8 7160   4.808   7.164   1.780
   17CHTO    H9 7161   4.823   7.002   1.847
   17CHTO    C4 7162   4.552   7.082   1.845
   17CHTO   H17 7163   4.581   7.033   1.938
   17CHTO    O1 7164   4.415   7.051   1.814
   17CHTO    C5 7165   4.388   6.910   1.804
   17CHTO   H18 7166   4.422   6.859   1.894
   17CHTO   C16 7167   4.234   6.897   1.794
   17CHTO   O11 7168   4.189   6.761   1.806
   17CHTO    H5 7169   4.202   6.731   1.894
   17CHTO    O3 7170   4.558   7.225   1.861
   17CHTO    C6 7171   4.488   7.280   1.978
   17CHTO   H19 7172   4.409   7.213   2.015
   17CHTO    C8 7173   4.588   7.306   2.095
   17CHTO   H21 7174   4.671   7.367   2.057
   17CHTO    O7 7175   4.640   7.178   2.138
   17CHTO    H2 7176   4.571   7.125   2.173
   17CHTO   C12 7177   4.518   7.384   2.213
   17CHTO   H25 7178   4.441   7.315   2.255
   17CHTO    N3 7179   4.613   7.416   2.325
   17CHTO   H12 7180   4.653   7.324   2.366
   17CHTO   H13 7181   4.692   7.479   2.289
   17CHTO   C15 7182   4.446   7.511   2.156
   17CHTO   H28 7183   4.518   7.584   2.118
   17CHTO   O10 7184   4.353   7.578   2.258
   17CHTO    H4 7185   4.403   7.614   2.328
   17CHTO    O5 7186   4.355   7.473   2.051
   17CHTO   C10 7187   4.418   7.413   1.937
   17CHTO   H23 7188   4.490   7.484   1.896
   17CHTO   C17 7189   4.306   7.394   1.833
   17CHTO   O12 7190   4.357   7.354   1.705
   17CHTO    H6 7191   4.286   7.349   1.644
   18CHTO  H203 7192   6.074   7.425   2.545
   18CHTO   O82 7193   5.984   7.438   2.523
   18CHTO  C123 7194   5.952   7.376   2.397
   18CHTO  H227 7195   5.845   7.390   2.377
   18CHTO   O77 7196   6.031   7.450   2.299
   18CHTO  C118 7197   6.004   7.413   2.163
   18CHTO  H222 7198   5.896   7.424   2.143
   18CHTO  C125 7199   6.083   7.513   2.069
   18CHTO   O84 7200   6.224   7.508   2.090
   18CHTO  H205 7201   6.258   7.425   2.063
   18CHTO  C114 7202   6.046   7.266   2.140
   18CHTO  H218 7203   6.154   7.258   2.153
   18CHTO  C116 7204   5.978   7.171   2.243
   18CHTO  H220 7205   5.870   7.160   2.216
   18CHTO   O79 7206   6.037   7.040   2.225
   18CHTO  H201 7207   5.993   6.978   2.280
   18CHTO  C120 7208   5.992   7.223   2.391
   18CHTO  H224 7209   6.099   7.211   2.419
   18CHTO   N21 7210   5.913   7.140   2.486
   18CHTO  H211 7211   5.812   7.178   2.494
   18CHTO  H212 7212   5.960   7.139   2.583
   18CHTO   O75 7213   6.007   7.237   2.005
   18CHTO  C112 7214   6.122   7.168   1.913
   18CHTO  H216 7215   6.181   7.098   1.975
   18CHTO   O73 7216   6.204   7.275   1.862
   18CHTO  C113 7217   6.298   7.242   1.760
   18CHTO  H217 7218   6.369   7.165   1.800
   18CHTO  C124 7219   6.381   7.367   1.729
   18CHTO   O83 7220   6.301   7.480   1.693
   18CHTO  H204 7221   6.355   7.555   1.679
   18CHTO  C109 7222   6.225   7.184   1.635
   18CHTO  H213 7223   6.152   7.261   1.603
   18CHTO  C110 7224   6.150   7.055   1.681
   18CHTO  H214 7225   6.223   6.982   1.715
   18CHTO   O78 7226   6.081   6.997   1.568
   18CHTO  H200 7227   6.017   7.056   1.534
   18CHTO  C111 7228   6.050   7.089   1.796
   18CHTO  H215 7229   5.972   7.155   1.756
   18CHTO   N19 7230   5.981   6.970   1.852
   18CHTO  H207 7231   6.053   6.901   1.894
   18CHTO  H208 7232   5.910   7.000   1.928
   18CHTO   O74 7233   6.319   7.159   1.526
   18CHTO  C115 7234   6.250   7.175   1.376
   18CHTO  H219 7235   6.167   7.106   1.363
   18CHTO   O76 7236   6.186   7.318   1.357
   18CHTO  C122 7237   6.283   7.424   1.351
   18CHTO  H226 7238   6.329   7.432   1.450
   18CHTO  C126 7239   6.207   7.560   1.328
   18CHTO   O85 7240   6.115   7.589   1.433
   18CHTO  H206 7241   6.071   7.669   1.414
   18CHTO  C121 7242   6.394   7.401   1.241
   18CHTO  H225 7243   6.389   7.484   1.167
   18CHTO   O81 7244   6.523   7.409   1.303
   18CHTO  H202 7245   6.591   7.408   1.238
   18CHTO  C119 7246   6.376   7.266   1.166
   18CHTO  H223 7247   6.280   7.274   1.114
   18CHTO  C117 7248   6.363   7.146   1.267
   18CHTO  H221 7249   6.453   7.124   1.325
   18CHTO   N20 7250   6.333   7.018   1.194
   18CHTO  H209 7251   6.331   6.935   1.263
   18CHTO  H210 7252   6.238   7.026   1.143
   18CHTO   O80 7253   6.482   7.251   1.039
   18CHTO  C103 7254   6.428   7.257   0.882
   18CHTO  H190 7255   6.513   7.265   0.814
   18CHTO  C101 7256   6.343   7.132   0.837
   18CHTO  H188 7257   6.267   7.111   0.912
   18CHTO   O68 7258   6.438   7.008   0.828
   18CHTO  H168 7259   6.501   7.020   0.759
   18CHTO   C99 7260   6.267   7.161   0.698
   18CHTO  H186 7261   6.342   7.186   0.620
   18CHTO   N17 7262   6.185   7.046   0.648
   18CHTO  H174 7263   6.248   6.959   0.635
   18CHTO  H175 7264   6.138   7.073   0.554
   18CHTO   C97 7265   6.183   7.290   0.719
   18CHTO  H184 7266   6.117   7.273   0.805
   18CHTO   O64 7267   6.274   7.399   0.742
   18CHTO  C104 7268   6.344   7.391   0.868
   18CHTO  H191 7269   6.272   7.398   0.949
   18CHTO  C108 7270   6.435   7.515   0.881
   18CHTO   O71 7271   6.531   7.524   0.775
   18CHTO  H171 7272   6.594   7.455   0.783
   18CHTO   O62 7273   6.107   7.332   0.604
   18CHTO   C91 7274   5.979   7.393   0.634
   18CHTO  H178 7275   5.981   7.431   0.736
   18CHTO   C92 7276   5.865   7.287   0.628
   18CHTO  H179 7277   5.867   7.238   0.529
   18CHTO   O66 7278   5.891   7.182   0.724
   18CHTO  H166 7279   5.970   7.137   0.702
   18CHTO   C93 7280   5.721   7.348   0.657
   18CHTO  H180 7281   5.714   7.357   0.766
   18CHTO   N16 7282   5.610   7.257   0.620
   18CHTO  H172 7283   5.550   7.233   0.706
   18CHTO  H173 7284   5.647   7.166   0.574
   18CHTO   C94 7285   5.700   7.491   0.593
   18CHTO  H181 7286   5.669   7.484   0.488
   18CHTO   O61 7287   5.818   7.573   0.595
   18CHTO   C95 7288   5.936   7.511   0.541
   18CHTO  H182 7289   5.914   7.473   0.441
   18CHTO  C106 7290   6.050   7.618   0.526
   18CHTO   O69 7291   6.016   7.713   0.424
   18CHTO  H169 7292   6.085   7.776   0.416
   18CHTO   O63 7293   5.589   7.568   0.681
   18CHTO   C96 7294   5.508   7.676   0.602
   18CHTO  H183 7295   5.534   7.669   0.496
   18CHTO   C98 7296   5.535   7.823   0.648
   18CHTO  H185 7297   5.526   7.830   0.758
   18CHTO   O67 7298   5.673   7.851   0.619
   18CHTO  H167 7299   5.695   7.937   0.649
   18CHTO  C102 7300   5.436   7.928   0.576
   18CHTO  H189 7301   5.461   7.924   0.469
   18CHTO   N18 7302   5.452   8.069   0.617
   18CHTO  H176 7303   5.553   8.102   0.596
   18CHTO  H177 7304   5.383   8.132   0.564
   18CHTO  C105 7305   5.289   7.878   0.593
   18CHTO  H192 7306   5.263   7.881   0.699
   18CHTO   O65 7307   5.276   7.743   0.546
   18CHTO  C100 7308   5.354   7.645   0.615
   18CHTO  H187 7309   5.326   7.646   0.722
   18CHTO  C107 7310   5.320   7.505   0.558
   18CHTO   O70 7311   5.183   7.470   0.581
   18CHTO  H170 7312   5.127   7.526   0.531
   18CHTO   O57 7313   5.186   7.982   0.502
   18CHTO   C85 7314   5.045   7.959   0.480
   18CHTO  H157 7315   5.016   8.042   0.412
   18CHTO   C83 7316   4.960   7.983   0.610
   18CHTO  H155 7317   4.971   8.088   0.637
   18CHTO   O56 7318   5.015   7.907   0.719
   18CHTO  H135 7319   5.004   7.815   0.704
   18CHTO   C81 7320   4.810   7.955   0.582
   18CHTO  H153 7321   4.777   8.022   0.502
   18CHTO   N14 7322   4.720   7.989   0.696
   18CHTO  H141 7323   4.656   7.907   0.721
   18CHTO  H142 7324   4.777   8.017   0.782
   18CHTO   C79 7325   4.792   7.807   0.531
   18CHTO  H151 7326   4.686   7.794   0.507
   18CHTO   O52 7327   4.866   7.788   0.407
   18CHTO   C86 7328   5.009   7.817   0.418
   18CHTO  H158 7329   5.047   7.734   0.482
   18CHTO   C90 7330   5.077   7.800   0.280
   18CHTO   O60 7331   5.071   7.664   0.236
   18CHTO  H138 7332   5.116   7.656   0.154
   18CHTO   O50 7333   4.829   7.708   0.628
   18CHTO   C73 7334   4.833   7.567   0.656
   18CHTO  H145 7335   4.910   7.519   0.593
   18CHTO   C74 7336   4.695   7.502   0.625
   18CHTO  H146 7337   4.672   7.522   0.519
   18CHTO   O54 7338   4.710   7.359   0.637
   18CHTO  H133 7339   4.630   7.316   0.613
   18CHTO   C75 7340   4.586   7.564   0.722
   18CHTO  H147 7341   4.578   7.671   0.701
   18CHTO   N13 7342   4.450   7.509   0.700
   18CHTO  H139 7343   4.380   7.556   0.767
   18CHTO  H140 7344   4.449   7.403   0.718
   18CHTO   C76 7345   4.635   7.548   0.874
   18CHTO  H148 7346   4.637   7.441   0.897
   18CHTO   O49 7347   4.769   7.605   0.890
   18CHTO   C77 7348   4.869   7.545   0.806
   18CHTO  H149 7349   4.875   7.438   0.825
   18CHTO   C88 7350   5.006   7.603   0.842
   18CHTO   O58 7351   5.041   7.574   0.983
   18CHTO  H136 7352   5.126   7.610   1.003
   18CHTO   O51 7353   4.539   7.633   0.976
   18CHTO   C78 7354   4.603   7.649   1.126
   18CHTO  H150 7355   4.714   7.658   1.122
   18CHTO   C80 7356   4.566   7.529   1.215
   18CHTO  H152 7357   4.455   7.521   1.219
   18CHTO   O55 7358   4.619   7.411   1.153
   18CHTO  H134 7359   4.589   7.335   1.198
   18CHTO   C84 7360   4.624   7.547   1.361
   18CHTO  H156 7361   4.732   7.538   1.352
   18CHTO   N15 7362   4.581   7.437   1.455
   18CHTO  H143 7363   4.474   7.435   1.462
   18CHTO  H144 7364   4.616   7.343   1.419
   18CHTO   C87 7365   4.589   7.686   1.419
   18CHTO  H159 7366   4.484   7.689   1.449
   18CHTO   O53 7367   4.616   7.800   1.314
   18CHTO   C82 7368   4.550   7.779   1.189
   18CHTO  H154 7369   4.442   7.774   1.203
   18CHTO   C89 7370   4.578   7.899   1.096
   18CHTO   O59 7371   4.520   8.020   1.147
   18CHTO  H137 7372   4.426   8.015   1.142
   18CHTO   O45 7373   4.682   7.720   1.558
   18CHTO   C67 7374   4.825   7.726   1.541
   18CHTO  H124 7375   4.857   7.644   1.477
   18CHTO   C65 7376   4.871   7.862   1.474
   18CHTO  H122 7377   4.784   7.928   1.477
   18CHTO   O44 7378   4.903   7.833   1.337
   18CHTO  H102 7379   4.827   7.803   1.291
   18CHTO   C63 7380   4.982   7.937   1.557
   18CHTO  H120 7381   4.938   7.969   1.652
   18CHTO   N11 7382   5.029   8.067   1.499
   18CHTO  H108 7383   4.997   8.149   1.559
   18CHTO  H109 7384   5.136   8.068   1.491
   18CHTO   C61 7385   5.095   7.834   1.595
   18CHTO  H118 7386   5.162   7.886   1.665
   18CHTO   O40 7387   5.045   7.716   1.664
   18CHTO   C68 7388   4.899   7.703   1.679
   18CHTO  H125 7389   4.865   7.778   1.753
   18CHTO   C72 7390   4.867   7.563   1.740
   18CHTO   O48 7391   4.913   7.454   1.660
   18CHTO  H105 7392   4.864   7.450   1.580
   18CHTO   O38 7393   5.170   7.794   1.478
   18CHTO   C55 7394   5.290   7.717   1.499
   18CHTO  H112 7395   5.288   7.669   1.598
   18CHTO   C56 7396   5.420   7.807   1.480
   18CHTO  H113 7397   5.412   7.856   1.382
   18CHTO   O42 7398   5.420   7.913   1.579
   18CHTO  H100 7399   5.347   7.971   1.564
   18CHTO   C57 7400   5.551   7.719   1.489
   18CHTO  H114 7401   5.560   7.686   1.593
   18CHTO   N10 7402   5.675   7.795   1.457
   18CHTO  H106 7403   5.714   7.841   1.547
   18CHTO  H107 7404   5.751   7.730   1.415
   18CHTO   C58 7405   5.539   7.594   1.398
   18CHTO  H115 7406   5.546   7.626   1.291
   18CHTO   O37 7407   5.414   7.526   1.418
   18CHTO   C59 7408   5.295   7.602   1.395
   18CHTO  H116 7409   5.295   7.642   1.294
   18CHTO   C70 7410   5.174   7.510   1.413
   18CHTO   O46 7411   5.174   7.403   1.317
   18CHTO  H103 7412   5.242   7.342   1.338
   18CHTO   O39 7413   5.664   7.479   1.433
   18CHTO   C60 7414   5.638   7.402   1.552
   18CHTO  H117 7415   5.581   7.464   1.622
   18CHTO   C62 7416   5.555   7.274   1.521
   18CHTO  H119 7417   5.471   7.304   1.455
   18CHTO   O43 7418   5.631   7.177   1.447
   18CHTO  H101 7419   5.703   7.146   1.499
   18CHTO   C66 7420   5.496   7.220   1.659
   18CHTO  H123 7421   5.447   7.303   1.710
   18CHTO   N12 7422   5.391   7.118   1.639
   18CHTO  H110 7423   5.310   7.160   1.580
   18CHTO  H111 7424   5.354   7.083   1.734
   18CHTO   C69 7425   5.611   7.171   1.751
   18CHTO  H126 7426   5.651   7.074   1.713
   18CHTO   O41 7427   5.735   7.280   1.757
   18CHTO   C64 7428   5.769   7.360   1.625
   18CHTO  H121 7429   5.830   7.296   1.557
   18CHTO   C71 7430   5.853   7.484   1.662
   18CHTO   O47 7431   5.978   7.444   1.719
   18CHTO  H104 7432   6.029   7.520   1.740
   18CHTO   O34 7433   5.556   7.147   1.901
   18CHTO   C49 7434   5.536   7.237   2.033
   18CHTO   H91 7435   5.608   7.200   2.107
   18CHTO   C47 7436   5.392   7.216   2.086
   18CHTO   H89 7437   5.386   7.269   2.184
   18CHTO   O33 7438   5.372   7.075   2.109
   18CHTO   H70 7439   5.289   7.061   2.150
   18CHTO   C45 7440   5.288   7.281   1.981
   18CHTO   H87 7441   5.304   7.232   1.884
   18CHTO    N8 7442   5.147   7.257   2.020
   18CHTO   H75 7443   5.130   7.151   2.036
   18CHTO   H76 7444   5.081   7.293   1.943
   18CHTO   C43 7445   5.322   7.437   1.956
   18CHTO   H85 7446   5.258   7.468   1.873
   18CHTO   O29 7447   5.462   7.455   1.926
   18CHTO   C50 7448   5.560   7.388   2.008
   18CHTO   H92 7449   5.657   7.396   1.956
   18CHTO   C54 7450   5.588   7.464   2.141
   18CHTO   O36 7451   5.648   7.591   2.116
   18CHTO   H72 7452   5.665   7.634   2.198
   18CHTO   O27 7453   5.285   7.522   2.067
   18CHTO   C37 7454   5.239   7.656   2.090
   18CHTO   H79 7455   5.278   7.692   2.187
   18CHTO   C38 7456   5.289   7.757   1.982
   18CHTO   H80 7457   5.259   7.720   1.883
   18CHTO   O31 7458   5.433   7.762   1.990
   18CHTO   H68 7459   5.469   7.681   1.958
   18CHTO   C39 7460   5.225   7.901   2.005
   18CHTO   H81 7461   5.260   7.936   2.102
   18CHTO    N7 7462   5.269   8.002   1.903
   18CHTO   H73 7463   5.238   7.972   1.804
   18CHTO   H74 7464   5.227   8.099   1.928
   18CHTO   C40 7465   5.068   7.889   2.013
   18CHTO   H82 7466   5.027   7.860   1.916
   18CHTO   O26 7467   5.034   7.794   2.116
   18CHTO   C41 7468   5.084   7.659   2.096
   18CHTO   H83 7469   5.043   7.619   2.001
   18CHTO   C52 7470   5.028   7.572   2.211
   18CHTO   O35 7471   5.071   7.618   2.345
   18CHTO   H71 7472   5.036   7.561   2.411
   18CHTO   O28 7473   5.005   8.013   2.054
   18CHTO   C42 7474   4.859   8.037   2.053
   18CHTO   H84 7475   4.849   8.129   2.111
   18CHTO   C44 7476   4.770   7.931   2.126
   18CHTO   H86 7477   4.781   7.835   2.075
   18CHTO   O32 7478   4.822   7.920   2.260
   18CHTO   H69 7479   4.779   7.851   2.305
   18CHTO   C48 7480   4.617   7.970   2.123
   18CHTO   H90 7481   4.605   8.065   2.177
   18CHTO    N9 7482   4.531   7.871   2.197
   18CHTO   H77 7483   4.561   7.866   2.300
   18CHTO   H78 7484   4.539   7.774   2.150
   18CHTO   C51 7485   4.569   7.993   1.975
   18CHTO   H93 7486   4.577   7.899   1.921
   18CHTO   O30 7487   4.650   8.096   1.917
   18CHTO   C46 7488   4.802   8.067   1.910
   18CHTO   H88 7489   4.819   7.982   1.845
   18CHTO   C53 7490   4.862   8.196   1.848
   18CHTO   O72 7491   5.003   8.187   1.824
   18CHTO  H199 7492   5.049   8.183   1.905
   18CHTO   O22 7493   4.435   8.046   1.969
   18CHTO   C31 7494   4.339   8.017   1.859
   18CHTO   H59 7495   4.254   8.088   1.875
   18CHTO   C29 7496   4.392   8.044   1.716
   18CHTO   H57 7497   4.480   7.979   1.701
   18CHTO   O21 7498   4.439   8.180   1.711
   18CHTO   H37 7499   4.484   8.196   1.630
   18CHTO   C27 7500   4.284   8.012   1.605
   18CHTO   H55 7501   4.201   8.083   1.616
   18CHTO    N5 7502   4.337   8.024   1.467
   18CHTO   H43 7503   4.288   8.105   1.415
   18CHTO   H44 7504   4.444   8.040   1.467
   18CHTO   C25 7505   4.224   7.869   1.629
   18CHTO   H53 7506   4.301   7.793   1.611
   18CHTO   O17 7507   4.177   7.857   1.766
   18CHTO   C32 7508   4.278   7.874   1.867
   18CHTO   H60 7509   4.357   7.801   1.852
   18CHTO   C36 7510   4.210   7.849   2.003
   18CHTO   O25 7511   4.163   7.714   2.011
   18CHTO   H40 7512   4.118   7.702   2.092
   18CHTO   O15 7513   4.097   7.840   1.536
   18CHTO   C19 7514   4.067   7.734   1.440
   18CHTO   H47 7515   3.959   7.746   1.421
   18CHTO   C20 7516   4.142   7.750   1.305
   18CHTO   H48 7517   4.251   7.758   1.319
   18CHTO   O19 7518   4.095   7.875   1.250
   18CHTO   H35 7519   4.144   7.897   1.173
   18CHTO   C21 7520   4.115   7.628   1.208
   18CHTO   H49 7521   4.007   7.624   1.187
   18CHTO    N4 7522   4.183   7.644   1.077
   18CHTO   H41 7523   4.251   7.562   1.058
   18CHTO   H42 7524   4.111   7.649   0.997
   18CHTO   C22 7525   4.153   7.499   1.286
   18CHTO   H50 7526   4.256   7.509   1.319
   18CHTO   O14 7527   4.066   7.488   1.400
   18CHTO   C23 7528   4.085   7.590   1.500
   18CHTO   H51 7529   4.185   7.576   1.543
   18CHTO   C34 7530   3.981   7.567   1.611
   18CHTO   O23 7531   3.994   7.438   1.671
   18CHTO   H38 7532   3.923   7.425   1.732
   18CHTO   O16 7533   4.134   7.377   1.211
   18CHTO   C24 7534   4.271   7.280   1.203
   18CHTO   H52 7535   4.356   7.324   1.255
   18CHTO   C26 7536   4.308   7.256   1.055
   18CHTO   H54 7537   4.218   7.219   1.002
   18CHTO   O20 7538   4.345   7.383   0.997
   18CHTO   H36 7539   4.271   7.440   0.992
   18CHTO   C30 7540   4.422   7.151   1.038
   18CHTO   H58 7541   4.515   7.195   1.075
   18CHTO    N6 7542   4.446   7.118   0.895
   18CHTO   H45 7543   4.477   7.207   0.841
   18CHTO   H46 7544   4.356   7.079   0.850
   18CHTO   C33 7545   4.394   7.024   1.125
   18CHTO   H61 7546   4.307   6.971   1.083
   18CHTO   O18 7547   4.362   7.062   1.260
   18CHTO   C28 7548   4.244   7.144   1.272
   18CHTO   H56 7549   4.159   7.095   1.223
   18CHTO   C35 7550   4.211   7.164   1.421
   18CHTO   O24 7551   4.177   7.041   1.487
   18CHTO   H39 7552   4.253   6.985   1.491
   18CHTO    O9 7553   4.503   6.929   1.120
   18CHTO   C13 7554   4.624   6.937   1.236
   18CHTO   H26 7555   4.576   6.921   1.335
   18CHTO   C11 7556   4.702   7.075   1.229
   18CHTO   H24 7557   4.633   7.154   1.263
   18CHTO    O8 7558   4.740   7.105   1.093
   18CHTO    H3 7559   4.664   7.117   1.040
   18CHTO    C9 7560   4.822   7.069   1.327
   18CHTO   H22 7561   4.779   7.041   1.425
   18CHTO    N2 7562   4.888   7.199   1.351
   18CHTO   H10 7563   4.963   7.189   1.428
   18CHTO   H11 7564   4.814   7.273   1.380
   18CHTO    C7 7565   4.919   6.954   1.281
   18CHTO   H20 7566   5.000   6.953   1.357
   18CHTO    O4 7567   4.850   6.828   1.285
   18CHTO   C14 7568   4.723   6.813   1.217
   18CHTO   H27 7569   4.674   6.725   1.263
   18CHTO   C18 7570   4.746   6.777   1.067
   18CHTO   O13 7571   4.816   6.654   1.053
   18CHTO    H7 7572   4.828   6.635   0.962
   18CHTO    O2 7573   4.982   6.977   1.128
   18CHTO    C1 7574   5.122   7.000   1.104
   18CHTO   H14 7575   5.144   6.959   1.004
   18CHTO    C2 7576   5.226   6.938   1.206
   18CHTO   H15 7577   5.204   6.979   1.306
   18CHTO    O6 7578   5.209   6.796   1.206
   18CHTO    H1 7579   5.126   6.773   1.244
   18CHTO    C3 7580   5.376   6.979   1.163
   18CHTO   H16 7581   5.398   6.931   1.067
   18CHTO    N1 7582   5.479   6.929   1.262
   18CHTO    H8 7583   5.548   6.862   1.213
   18CHTO    H9 7584   5.532   7.011   1.307
   18CHTO    C4 7585   5.386   7.134   1.137
   18CHTO   H17 7586   5.381   7.187   1.233
   18CHTO    O1 7587   5.282   7.178   1.049
   18CHTO    C5 7588   5.148   7.153   1.092
   18CHTO   H18 7589   5.133   7.197   1.190
   18CHTO   C16 7590   5.052   7.223   0.991
   18CHTO   O11 7591   5.070   7.178   0.857
   18CHTO    H5 7592   5.154   7.206   0.825
   18CHTO    O3 7593   5.505   7.169   1.063
   18CHTO    C6 7594   5.587   7.282   1.110
   18CHTO   H19 7595   5.569   7.307   1.215
   18CHTO    C8 7596   5.737   7.243   1.092
   18CHTO   H21 7597   5.751   7.205   0.990
   18CHTO    O7 7598   5.766   7.138   1.186
   18CHTO    H2 7599   5.720   7.059   1.163
   18CHTO   C12 7600   5.834   7.366   1.112
   18CHTO   H25 7601   5.830   7.393   1.220
   18CHTO    N3 7602   5.977   7.330   1.081
   18CHTO   H12 7603   6.040   7.416   1.094
   18CHTO   H13 7604   6.009   7.250   1.147
   18CHTO   C15 7605   5.783   7.489   1.029
   18CHTO   H28 7606   5.794   7.472   0.921
   18CHTO   O10 7607   5.850   7.617   1.064
   18CHTO    H4 7608   5.846   7.633   1.157
   18CHTO    O5 7609   5.646   7.517   1.060
   18CHTO   C10 7610   5.555   7.411   1.027
   18CHTO   H23 7611   5.563   7.389   0.920
   18CHTO   C17 7612   5.414   7.465   1.051
   18CHTO   O12 7613   5.383   7.574   0.963
   18CHTO    H6 7614   5.297   7.607   0.982
   19CHTO  H203 7615   5.212   9.154   0.246
   19CHTO   O82 7616   5.176   9.198   0.171
   19CHTO  C123 7617   5.119   9.103   0.079
   19CHTO  H227 7618   5.074   9.158   2.877
   19CHTO   O77 7619   5.235   9.028   0.032
   19CHTO  C118 7620   5.204   8.926   2.817
   19CHTO  H222 7621   5.150   8.970   2.732
   19CHTO  C125 7622   5.341   8.868   2.766
   19CHTO   O84 7623   5.412   8.964   2.688
   19CHTO  H205 7624   5.368   8.979   2.607
   19CHTO  C114 7625   5.116   8.819   0.002
   19CHTO  H218 7626   5.170   8.779   0.088
   19CHTO  C116 7627   4.984   8.883   0.054
   19CHTO  H220 7628   4.923   8.915   2.848
   19CHTO   O79 7629   4.908   8.781   0.122
   19CHTO  H201 7630   4.824   8.815   0.146
   19CHTO  C120 7631   5.015   9.007   0.148
   19CHTO  H224 7632   5.058   8.965   0.241
   19CHTO   N21 7633   4.890   9.079   0.185
   19CHTO  H211 7634   4.902   9.126   0.281
   19CHTO  H212 7635   4.863   9.151   0.110
   19CHTO   O75 7636   5.094   8.716   2.785
   19CHTO  C112 7637   5.138   8.566   2.835
   19CHTO  H216 7638   5.125   8.559   0.062
   19CHTO   O73 7639   5.276   8.548   2.797
   19CHTO  C113 7640   5.330   8.421   2.835
   19CHTO  H217 7641   5.314   8.405   0.062
   19CHTO  C124 7642   5.482   8.423   2.812
   19CHTO   O83 7643   5.550   8.524   0.006
   19CHTO  H204 7644   5.528   8.609   2.854
   19CHTO  C109 7645   5.259   8.310   2.754
   19CHTO  H213 7646   5.278   8.332   2.647
   19CHTO  C110 7647   5.106   8.314   2.784
   19CHTO  H214 7648   5.091   8.281   0.005
   19CHTO   O78 7649   5.040   8.219   2.698
   19CHTO  H200 7650   5.064   8.132   2.721
   19CHTO  C111 7651   5.048   8.457   2.764
   19CHTO  H215 7652   5.047   8.480   2.657
   19CHTO   N19 7653   4.908   8.470   2.812
   19CHTO  H207 7654   4.844   8.403   2.756
   19CHTO  H208 7655   4.902   8.447   0.035
   19CHTO   O74 7656   5.315   8.179   2.786
   19CHTO  C115 7657   5.359   8.092   2.658
   19CHTO  H219 7658   5.338   8.144   2.565
   19CHTO   O76 7659   5.512   8.065   2.657
   19CHTO  C122 7660   5.557   8.003   2.779
   19CHTO  H226 7661   5.552   8.078   2.857
   19CHTO  C126 7662   5.709   7.966   2.764
   19CHTO   O85 7663   5.791   8.082   2.748
   19CHTO  H206 7664   5.882   8.056   2.744
   19CHTO  C121 7665   5.471   7.875   2.820
   19CHTO  H225 7666   5.539   7.789   2.837
   19CHTO   O81 7667   5.402   7.900   0.061
   19CHTO  H202 7668   5.464   7.912   0.131
   19CHTO  C119 7669   5.370   7.836   2.708
   19CHTO  H223 7670   5.432   7.809   2.622
   19CHTO  C117 7671   5.277   7.956   2.664
   19CHTO  H221 7672   5.194   7.976   2.732
   19CHTO   N20 7673   5.210   7.927   2.532
   19CHTO  H209 7674   5.284   7.916   2.454
   19CHTO  H210 7675   5.150   7.837   2.540
   19CHTO   O80 7676   5.296   7.697   2.738
   19CHTO  C103 7677   5.297   7.582   2.629
   19CHTO  H190 7678   5.272   7.622   2.531
   19CHTO  C101 7679   5.430   7.499   2.616
   19CHTO  H188 7680   5.457   7.461   2.715
   19CHTO   O68 7681   5.546   7.592   2.567
   19CHTO  H168 7682   5.526   7.624   2.481
   19CHTO   C99 7683   5.409   7.373   2.518
   19CHTO  H186 7684   5.390   7.412   2.415
   19CHTO   N17 7685   5.530   7.284   2.506
   19CHTO  H174 7686   5.605   7.311   2.578
   19CHTO  H175 7687   5.502   7.180   2.516
   19CHTO   C97 7688   5.281   7.294   2.557
   19CHTO  H184 7689   5.302   7.239   2.651
   19CHTO   O64 7690   5.168   7.382   2.570
   19CHTO  C104 7691   5.181   7.484   2.671
   19CHTO  H191 7692   5.204   7.440   2.768
   19CHTO  C108 7693   5.047   7.557   2.687
   19CHTO   O71 7694   4.944   7.470   2.734
   19CHTO  H171 7695   4.960   7.448   2.824
   19CHTO   O62 7696   5.244   7.201   2.453
   19CHTO   C91 7697   5.147   7.100   2.485
   19CHTO  H178 7698   5.103   7.123   2.582
   19CHTO   C92 7699   5.217   6.961   2.500
   19CHTO  H179 7700   5.278   6.942   2.410
   19CHTO   O66 7701   5.310   6.969   2.610
   19CHTO  H166 7702   5.360   6.890   2.617
   19CHTO   C93 7703   5.114   6.842   2.523
   19CHTO  H180 7704   5.077   6.851   2.626
   19CHTO   N16 7705   5.177   6.708   2.515
   19CHTO  H172 7706   5.220   6.693   2.417
   19CHTO  H173 7707   5.104   6.631   2.537
   19CHTO   C94 7708   4.991   6.853   2.425
   19CHTO  H181 7709   5.020   6.830   2.322
   19CHTO   O61 7710   4.937   6.986   2.425
   19CHTO   C95 7711   5.031   7.085   2.381
   19CHTO  H182 7712   5.072   7.056   2.284
   19CHTO  C106 7713   4.954   7.220   2.358
   19CHTO   O69 7714   4.898   7.273   2.478
   19CHTO  H169 7715   4.830   7.216   2.509
   19CHTO   O63 7716   4.872   6.757   2.472
   19CHTO   C96 7717   4.792   6.697   2.351
   19CHTO  H183 7718   4.865   6.652   2.283
   19CHTO   C98 7719   4.708   6.799   2.268
   19CHTO  H185 7720   4.770   6.886   2.240
   19CHTO   O67 7721   4.670   6.737   2.144
   19CHTO  H167 7722   4.617   6.661   2.159
   19CHTO  C102 7723   4.575   6.845   2.344
   19CHTO  H189 7724   4.509   6.888   2.267
   19CHTO   N18 7725   4.594   6.955   2.443
   19CHTO  H176 7726   4.665   6.924   2.518
   19CHTO  H177 7727   4.631   7.043   2.392
   19CHTO  C105 7728   4.503   6.721   2.407
   19CHTO  H192 7729   4.507   6.727   2.516
   19CHTO   O65 7730   4.561   6.595   2.369
   19CHTO  C100 7731   4.699   6.581   2.409
   19CHTO  H187 7732   4.701   6.585   2.519
   19CHTO  C107 7733   4.747   6.441   2.366
   19CHTO   O70 7734   4.878   6.414   2.418
   19CHTO  H170 7735   4.905   6.328   2.391
   19CHTO   O57 7736   4.353   6.734   2.359
   19CHTO   C85 7737   4.253   6.643   2.410
   19CHTO  H157 7738   4.307   6.567   2.471
   19CHTO   C83 7739   4.192   6.564   2.290
   19CHTO  H155 7740   4.271   6.504   2.245
   19CHTO   O56 7741   4.148   6.657   2.189
   19CHTO  H135 7742   4.119   6.610   2.113
   19CHTO   C81 7743   4.080   6.469   2.342
   19CHTO  H153 7744   4.124   6.403   2.418
   19CHTO   N14 7745   4.028   6.376   2.239
   19CHTO  H141 7746   4.108   6.320   2.195
   19CHTO  H142 7747   3.978   6.431   2.162
   19CHTO   C79 7748   3.966   6.553   2.411
   19CHTO  H151 7749   3.895   6.482   2.454
   19CHTO   O52 7750   4.022   6.628   2.524
   19CHTO   C86 7751   4.137   6.713   2.491
   19CHTO  H158 7752   4.094   6.798   2.433
   19CHTO   C90 7753   4.193   6.775   2.621
   19CHTO   O60 7754   4.097   6.857   2.688
   19CHTO  H138 7755   4.081   6.935   2.638
   19CHTO   O50 7756   3.896   6.639   2.321
   19CHTO   C73 7757   3.764   6.691   2.298
   19CHTO  H145 7758   3.690   6.634   2.356
   19CHTO   C74 7759   3.727   6.680   2.146
   19CHTO  H146 7760   3.736   6.574   2.118
   19CHTO   O54 7761   3.588   6.716   2.130
   19CHTO  H133 7762   3.533   6.650   2.168
   19CHTO   C75 7763   3.825   6.772   2.062
   19CHTO  H147 7764   3.928   6.733   2.074
   19CHTO   N13 7765   3.800   6.772   1.915
   19CHTO  H139 7766   3.883   6.727   1.862
   19CHTO  H140 7767   3.710   6.717   1.891
   19CHTO   C76 7768   3.825   6.920   2.121
   19CHTO  H148 7769   3.727   6.964   2.102
   19CHTO   O49 7770   3.850   6.918   2.265
   19CHTO   C77 7771   3.757   6.840   2.342
   19CHTO  H149 7772   3.656   6.878   2.326
   19CHTO   C88 7773   3.788   6.863   2.490
   19CHTO   O58 7774   3.703   6.784   2.579
   19CHTO  H136 7775   3.720   6.693   2.566
   19CHTO   O51 7776   3.946   7.009   2.058
   19CHTO   C78 7777   3.957   7.151   2.126
   19CHTO  H150 7778   3.909   7.151   2.226
   19CHTO   C80 7779   3.890   7.259   2.039
   19CHTO  H152 7780   3.942   7.262   1.940
   19CHTO   O55 7781   3.753   7.220   2.018
   19CHTO  H134 7782   3.748   7.145   1.962
   19CHTO   C84 7783   3.901   7.400   2.108
   19CHTO  H156 7784   3.841   7.395   2.200
   19CHTO   N15 7785   3.843   7.511   2.025
   19CHTO  H143 7786   3.740   7.492   2.005
   19CHTO  H144 7787   3.852   7.604   2.077
   19CHTO   C87 7788   4.049   7.429   2.146
   19CHTO  H159 7789   4.105   7.446   2.054
   19CHTO   O53 7790   4.110   7.310   2.223
   19CHTO   C82 7791   4.106   7.187   2.149
   19CHTO  H154 7792   4.159   7.198   2.054
   19CHTO   C89 7793   4.181   7.080   2.232
   19CHTO   O59 7794   4.209   6.961   2.157
   19CHTO  H137 7795   4.129   6.917   2.136
   19CHTO   O45 7796   4.068   7.563   2.240
   19CHTO   C67 7797   3.987   7.579   2.358
   19CHTO  H124 7798   3.884   7.553   2.334
   19CHTO   C65 7799   4.035   7.491   2.479
   19CHTO  H122 7800   4.141   7.471   2.461
   19CHTO   O44 7801   3.962   7.368   2.470
   19CHTO  H102 7802   3.996   7.306   2.532
   19CHTO   C63 7803   4.031   7.569   2.617
   19CHTO  H120 7804   4.115   7.639   2.620
   19CHTO   N11 7805   4.055   7.488   2.740
   19CHTO  H108 7806   4.064   7.553   2.825
   19CHTO  H109 7807   4.145   7.431   2.729
   19CHTO   C61 7808   3.901   7.656   2.622
   19CHTO  H118 7809   3.904   7.713   2.716
   19CHTO   O40 7810   3.895   7.754   2.514
   19CHTO   C68 7811   3.982   7.732   2.398
   19CHTO  H125 7812   4.085   7.766   2.423
   19CHTO   C72 7813   3.933   7.820   2.281
   19CHTO   O48 7814   3.958   7.958   2.303
   19CHTO  H105 7815   4.050   7.975   2.301
   19CHTO   O38 7816   3.783   7.573   2.618
   19CHTO   C55 7817   3.659   7.639   2.650
   19CHTO  H112 7818   3.670   7.748   2.639
   19CHTO   C56 7819   3.610   7.600   2.796
   19CHTO  H113 7820   3.602   7.490   2.800
   19CHTO   O42 7821   3.710   7.637   0.011
   19CHTO  H100 7822   3.786   7.583   0.001
   19CHTO   C57 7823   3.470   7.667   2.828
   19CHTO  H114 7824   3.487   7.775   2.834
   19CHTO   N10 7825   3.412   7.623   0.075
   19CHTO  H106 7826   3.304   7.628   0.073
   19CHTO  H107 7827   3.448   7.686   0.155
   19CHTO   C58 7828   3.373   7.640   2.710
   19CHTO  H115 7829   3.345   7.532   2.709
   19CHTO   O37 7830   3.431   7.674   2.583
   19CHTO   C59 7831   3.548   7.599   2.550
   19CHTO  H116 7832   3.527   7.492   2.556
   19CHTO   C70 7833   3.589   7.631   2.405
   19CHTO   O46 7834   3.490   7.593   2.309
   19CHTO  H103 7835   3.522   7.610   2.223
   19CHTO   O39 7836   3.240   7.731   2.722
   19CHTO   C60 7837   3.137   7.686   2.632
   19CHTO  H117 7838   3.181   7.622   2.554
   19CHTO   C62 7839   3.030   7.602   2.706
   19CHTO  H119 7840   3.086   7.520   2.758
   19CHTO   O43 7841   2.965   7.682   2.806
   19CHTO  H101 7842   2.904   7.630   2.854
   19CHTO   C66 7843   2.932   7.538   2.597
   19CHTO  H123 7844   2.992   7.476   2.529
   19CHTO   N12 7845   2.833   7.445   2.656
   19CHTO  H110 7846   2.883   7.363   2.706
   19CHTO  H111 7847   2.768   7.498   2.724
   19CHTO   C69 7848   2.864   7.648   2.511
   19CHTO  H126 7849   2.786   7.700   2.570
   19CHTO   O41 7850   2.970   7.757   2.458
   19CHTO   C64 7851   3.071   7.806   2.559
   19CHTO  H121 7852   3.020   7.870   2.634
   19CHTO   C71 7853   3.175   7.894   2.485
   19CHTO   O47 7854   3.245   7.822   2.382
   19CHTO  H104 7855   3.185   7.800   2.314
   19CHTO   O34 7856   2.796   7.582   2.385
   19CHTO   C49 7857   2.813   7.536   2.237
   19CHTO   H91 7858   2.722   7.483   2.211
   19CHTO   C47 7859   2.934   7.440   2.223
   19CHTO   H89 7860   2.928   7.398   2.121
   19CHTO   O33 7861   2.916   7.334   2.318
   19CHTO   H70 7862   2.984   7.269   2.307
   19CHTO   C45 7863   3.072   7.521   2.240
   19CHTO   H87 7864   3.071   7.571   2.338
   19CHTO    N8 7865   3.191   7.433   2.236
   19CHTO   H75 7866   3.280   7.490   2.257
   19CHTO   H76 7867   3.200   7.387   2.138
   19CHTO   C43 7868   3.079   7.640   2.132
   19CHTO   H85 7869   3.169   7.697   2.154
   19CHTO   O29 7870   2.960   7.722   2.142
   19CHTO   C50 7871   2.831   7.657   2.141
   19CHTO   H92 7872   2.758   7.733   2.175
   19CHTO   C54 7873   2.781   7.624   1.998
   19CHTO   O36 7874   2.758   7.743   1.922
   19CHTO   H72 7875   2.713   7.721   1.842
   19CHTO   O27 7876   3.094   7.592   1.996
   19CHTO   C37 7877   3.172   7.570   1.878
   19CHTO   H79 7878   3.125   7.621   1.792
   19CHTO   C38 7879   3.317   7.626   1.891
   19CHTO   H80 7880   3.363   7.582   1.981
   19CHTO   O31 7881   3.306   7.768   1.909
   19CHTO   H68 7882   3.391   7.805   1.924
   19CHTO   C39 7883   3.403   7.590   1.764
   19CHTO   H81 7884   3.362   7.646   1.680
   19CHTO    N7 7885   3.547   7.633   1.778
   19CHTO   H73 7886   3.552   7.740   1.792
   19CHTO   H74 7887   3.603   7.605   1.690
   19CHTO   C40 7888   3.392   7.437   1.726
   19CHTO   H82 7889   3.456   7.374   1.789
   19CHTO   O26 7890   3.255   7.393   1.726
   19CHTO   C41 7891   3.179   7.418   1.848
   19CHTO   H83 7892   3.226   7.365   1.932
   19CHTO   C52 7893   3.038   7.357   1.829
   19CHTO   O35 7894   2.964   7.415   1.711
   19CHTO   H71 7895   3.005   7.386   1.631
   19CHTO   O28 7896   3.418   7.411   1.587
   19CHTO   C42 7897   3.548   7.398   1.521
   19CHTO   H84 7898   3.622   7.437   1.591
   19CHTO   C44 7899   3.561   7.485   1.391
   19CHTO   H86 7900   3.479   7.459   1.324
   19CHTO   O32 7901   3.543   7.622   1.430
   19CHTO   H69 7902   3.612   7.650   1.487
   19CHTO   C48 7903   3.697   7.459   1.314
   19CHTO   H90 7904   3.779   7.492   1.377
   19CHTO    N9 7905   3.707   7.541   1.187
   19CHTO   H77 7906   3.718   7.478   1.101
   19CHTO   H78 7907   3.789   7.611   1.194
   19CHTO   C51 7908   3.710   7.305   1.289
   19CHTO   H93 7909   3.621   7.272   1.234
   19CHTO   O30 7910   3.718   7.242   1.418
   19CHTO   C46 7911   3.586   7.249   1.494
   19CHTO   H88 7912   3.509   7.202   1.433
   19CHTO   C53 7913   3.605   7.171   1.626
   19CHTO   O72 7914   3.635   7.033   1.600
   19CHTO  H199 7915   3.655   6.990   1.681
   19CHTO   O22 7916   3.830   7.265   1.221
   19CHTO   C31 7917   3.827   7.168   1.110
   19CHTO   H59 7918   3.723   7.165   1.073
   19CHTO   C29 7919   3.916   7.212   0.991
   19CHTO   H57 7920   4.016   7.232   1.033
   19CHTO   O21 7921   3.867   7.338   0.942
   19CHTO   H37 7922   3.874   7.405   1.008
   19CHTO   C27 7923   3.928   7.103   0.878
   19CHTO   H55 7924   3.828   7.089   0.832
   19CHTO    N5 7925   4.024   7.139   0.771
   19CHTO   H43 7926   3.973   7.151   0.676
   19CHTO   H44 7927   4.078   7.230   0.796
   19CHTO   C25 7928   3.967   6.966   0.944
   19CHTO   H53 7929   4.065   6.978   0.995
   19CHTO   O17 7930   3.867   6.931   1.044
   19CHTO   C32 7931   3.861   7.021   1.155
   19CHTO   H60 7932   3.958   7.022   1.206
   19CHTO   C36 7933   3.758   6.963   1.255
   19CHTO   O25 7934   3.626   6.954   1.199
   19CHTO   H40 7935   3.592   7.040   1.183
   19CHTO   O15 7936   3.976   6.846   0.840
   19CHTO   C19 7937   4.049   6.720   0.845
   19CHTO   H47 7938   4.069   6.697   0.739
   19CHTO   C20 7939   4.185   6.726   0.920
   19CHTO   H48 7940   4.172   6.753   1.026
   19CHTO   O19 7941   4.264   6.828   0.857
   19CHTO   H35 7942   4.228   6.913   0.876
   19CHTO   C21 7943   4.261   6.587   0.913
   19CHTO   H49 7944   4.290   6.570   0.810
   19CHTO    N4 7945   4.386   6.584   0.994
   19CHTO   H41 7946   4.403   6.678   1.044
   19CHTO   H42 7947   4.471   6.562   0.930
   19CHTO   C22 7948   4.165   6.470   0.951
   19CHTO   H50 7949   4.148   6.470   1.059
   19CHTO   O14 7950   4.039   6.478   0.882
   19CHTO   C23 7951   3.966   6.600   0.900
   19CHTO   H51 7952   3.945   6.611   1.007
   19CHTO   C34 7953   3.830   6.586   0.830
   19CHTO   O23 7954   3.843   6.558   0.690
   19CHTO   H38 7955   3.757   6.550   0.651
   19CHTO   O16 7956   4.219   6.344   0.906
   19CHTO   C24 7957   4.196   6.218   1.005
   19CHTO   H52 7958   4.128   6.243   1.087
   19CHTO   C26 7959   4.332   6.174   1.062
   19CHTO   H54 7960   4.404   6.165   0.977
   19CHTO   O20 7961   4.379   6.279   1.149
   19CHTO   H36 7962   4.466   6.261   1.178
   19CHTO   C30 7963   4.325   6.037   1.137
   19CHTO   H58 7964   4.271   6.051   1.232
   19CHTO    N6 7965   4.461   5.989   1.174
   19CHTO   H45 7966   4.468   5.972   1.280
   19CHTO   H46 7967   4.486   5.897   1.122
   19CHTO   C33 7968   4.243   5.932   1.055
   19CHTO   H61 7969   4.300   5.903   0.965
   19CHTO   O18 7970   4.118   5.989   1.014
   19CHTO   C28 7971   4.130   6.102   0.927
   19CHTO   H56 7972   4.193   6.078   0.841
   19CHTO   C35 7973   3.989   6.142   0.877
   19CHTO   O24 7974   3.929   6.037   0.800
   19CHTO   H39 7975   3.846   6.066   0.767
   19CHTO    O9 7976   4.224   5.811   1.131
   19CHTO   C13 7977   4.176   5.681   1.046
   19CHTO   H26 7978   4.228   5.683   0.948
   19CHTO   C11 7979   4.019   5.681   1.029
   19CHTO   H24 7980   3.992   5.767   0.966
   19CHTO    O8 7981   3.956   5.700   1.157
   19CHTO    H3 7982   3.864   5.713   1.146
   19CHTO    C9 7983   3.977   5.551   0.957
   19CHTO   H22 7984   4.031   5.551   0.861
   19CHTO    N2 7985   3.834   5.550   0.918
   19CHTO   H10 7986   3.771   5.547   1.006
   19CHTO   H11 7987   3.813   5.464   0.855
   19CHTO    C7 7988   4.023   5.425   1.039
   19CHTO   H20 7989   4.006   5.340   0.970
   19CHTO    O4 7990   4.164   5.429   1.071
   19CHTO   C14 7991   4.226   5.549   1.119
   19CHTO   H27 7992   4.334   5.538   1.096
   19CHTO   C18 7993   4.215   5.559   1.274
   19CHTO   O13 7994   4.291   5.457   1.339
   19CHTO    H7 7995   4.278   5.463   1.432
   19CHTO    O2 7996   3.937   5.400   1.177
   19CHTO    C1 7997   3.896   5.263   1.198
   19CHTO   H14 7998   3.976   5.195   1.160
   19CHTO    C2 7999   3.759   5.224   1.126
   19CHTO   H15 8000   3.689   5.306   1.149
   19CHTO    O6 8001   3.783   5.219   0.984
   19CHTO    H1 8002   3.702   5.204   0.939
   19CHTO    C3 8003   3.701   5.085   1.181
   19CHTO   H16 8004   3.769   5.003   1.154
   19CHTO    N1 8005   3.567   5.052   1.121
   19CHTO    H8 8006   3.496   5.131   1.142
   19CHTO    H9 8007   3.577   5.040   1.014
   19CHTO    C4 8008   3.698   5.089   1.338
   19CHTO   H17 8009   3.633   5.171   1.370
   19CHTO    O1 8010   3.832   5.110   1.386
   19CHTO    C5 8011   3.888   5.238   1.352
   19CHTO   H18 8012   3.827   5.317   1.396
   19CHTO   C16 8013   4.029   5.244   1.415
   19CHTO   O11 8014   4.025   5.244   1.557
   19CHTO    H5 8015   3.995   5.327   1.588
   19CHTO    O3 8016   3.657   4.964   1.399
   19CHTO    C6 8017   3.558   4.972   1.508
   19CHTO   H19 8018   3.523   5.074   1.525
   19CHTO    C8 8019   3.433   4.886   1.474
   19CHTO   H21 8020   3.466   4.785   1.447
   19CHTO    O7 8021   3.367   4.946   1.361
   19CHTO    H2 8022   3.335   5.032   1.383
   19CHTO   C12 8023   3.335   4.875   1.599
   19CHTO   H25 8024   3.292   4.977   1.614
   19CHTO    N3 8025   3.219   4.783   1.571
   19CHTO   H12 8026   3.161   4.821   1.487
   19CHTO   H13 8027   3.255   4.683   1.549
   19CHTO   C15 8028   3.415   4.835   1.727
   19CHTO   H28 8029   3.452   4.732   1.722
   19CHTO   O10 8030   3.335   4.854   1.857
   19CHTO    H4 8031   3.262   4.795   1.859
   19CHTO    O5 8032   3.525   4.926   1.748
   19CHTO   C10 8033   3.621   4.924   1.642
   19CHTO   H23 8034   3.657   4.822   1.630
   19CHTO   C17 8035   3.742   5.009   1.685
   19CHTO   O12 8036   3.707   5.146   1.707
   19CHTO    H6 8037   3.652   5.153   1.783
   20CHTO  H203 8038   5.120   9.944   2.046
   20CHTO   O82 8039   5.046   9.951   2.104
   20CHTO  C123 8040   4.968   0.068   2.071
   20CHTO  H227 8041   4.880   0.071   2.138
   20CHTO   O77 8042   5.058   0.179   2.103
   20CHTO  C118 8043   4.999   0.309   2.085
   20CHTO  H222 8044   4.908   0.317   2.147
   20CHTO  C125 8045   5.103   0.417   2.135
   20CHTO   O84 8046   5.225   0.413   2.060
   20CHTO  H205 8047   5.284   0.479   2.092
   20CHTO  C114 8048   4.962   0.329   1.937
   20CHTO  H218 8049   5.053   0.321   1.877
   20CHTO  C116 8050   4.865   0.218   1.888
   20CHTO  H220 8051   4.767   0.230   1.940
   20CHTO   O79 8052   4.839   0.236   1.748
   20CHTO  H201 8053   4.790   0.314   1.733
   20CHTO  C120 8054   4.925   0.075   1.920
   20CHTO  H224 8055   5.014   0.063   1.854
   20CHTO   N21 8056   4.829   9.966   1.885
   20CHTO  H211 8057   4.884   9.877   1.859
   20CHTO  H212 8058   4.766   9.996   1.802
   20CHTO   O75 8059   4.906   0.461   1.928
   20CHTO  C112 8060   4.952   0.540   1.794
   20CHTO  H216 8061   4.943   0.471   1.707
   20CHTO   O73 8062   5.087   0.583   1.813
   20CHTO  C113 8063   5.144   0.649   1.699
   20CHTO  H217 8064   5.136   0.582   1.611
   20CHTO  C124 8065   5.293   0.668   1.730
   20CHTO   O83 8066   5.369   0.715   1.618
   20CHTO  H204 8067   5.373   0.648   1.552
   20CHTO  C109 8068   5.068   0.782   1.675
   20CHTO  H213 8069   5.086   0.846   1.762
   20CHTO  C110 8070   4.915   0.755   1.657
   20CHTO  H214 8071   4.900   0.707   1.560
   20CHTO   O78 8072   4.847   0.882   1.652
   20CHTO  H200 8073   4.871   0.929   1.575
   20CHTO  C111 8074   4.859   0.665   1.770
   20CHTO  H215 8075   4.856   0.723   1.864
   20CHTO   N19 8076   4.719   0.620   1.745
   20CHTO  H207 8077   4.683   0.560   1.827
   20CHTO  H208 8078   4.714   0.564   1.653
   20CHTO   O74 8079   5.118   0.849   1.555
   20CHTO  C115 8080   5.183   0.992   1.579
   20CHTO  H219 8081   5.191   1.015   1.685
   20CHTO   O76 8082   5.329   0.998   1.525
   20CHTO  C122 8083   5.333   0.962   1.386
   20CHTO  H226 8084   5.304   0.856   1.378
   20CHTO  C126 8085   5.481   0.969   1.336
   20CHTO   O85 8086   5.568   0.878   1.404
   20CHTO  H206 8087   5.544   0.790   1.384
   20CHTO  C121 8088   5.235   1.051   1.297
   20CHTO  H225 8089   5.294   1.101   1.217
   20CHTO   O81 8090   5.138   0.967   1.233
   20CHTO  H202 8091   5.180   0.910   1.172
   20CHTO  C119 8092   5.164   1.161   1.382
   20CHTO  H223 8093   5.245   1.222   1.421
   20CHTO  C117 8094   5.090   1.099   1.508
   20CHTO  H221 8095   4.998   1.046   1.485
   20CHTO   N20 8096   5.049   1.208   1.603
   20CHTO  H209 8097   4.996   1.164   1.687
   20CHTO  H210 8098   4.985   1.279   1.553
   20CHTO   O80 8099   5.083   1.268   1.295
   20CHTO  C103 8100   4.950   1.225   1.215
   20CHTO  H190 8101   4.950   1.119   1.192
   20CHTO  C101 8102   4.813   1.262   1.286
   20CHTO  H188 8103   4.825   1.359   1.335
   20CHTO   O68 8104   4.782   1.156   1.395
   20CHTO  H168 8105   4.849   1.157   1.461
   20CHTO   C99 8106   4.692   1.273   1.182
   20CHTO  H186 8107   4.671   1.172   1.141
   20CHTO   N17 8108   4.565   1.323   1.243
   20CHTO  H174 8109   4.578   1.425   1.277
   20CHTO  H175 8110   4.484   1.316   1.172
   20CHTO   C97 8111   4.737   1.359   1.061
   20CHTO  H184 8112   4.763   1.459   1.099
   20CHTO   O64 8113   4.848   1.294   0.998
   20CHTO  C104 8114   4.967   1.302   1.078
   20CHTO  H191 8115   4.994   1.406   1.098
   20CHTO  C108 8116   5.085   1.243   0.998
   20CHTO   O71 8117   5.109   1.316   0.877
   20CHTO  H171 8118   5.041   1.299   0.815
   20CHTO   O62 8119   4.636   1.371   0.957
   20CHTO   C91 8120   4.649   1.484   0.869
   20CHTO  H178 8121   4.753   1.516   0.869
   20CHTO   C92 8122   4.565   1.605   0.922
   20CHTO  H179 8123   4.460   1.574   0.931
   20CHTO   O66 8124   4.607   1.640   1.055
   20CHTO  H166 8125   4.588   1.569   1.114
   20CHTO   C93 8126   4.576   1.731   0.826
   20CHTO  H180 8127   4.679   1.771   0.837
   20CHTO   N16 8128   4.487   1.844   0.864
   20CHTO  H172 8129   4.432   1.821   0.955
   20CHTO  H173 8130   4.418   1.869   0.785
   20CHTO   C94 8131   4.555   1.689   0.675
   20CHTO  H181 8132   4.451   1.663   0.655
   20CHTO   O61 8133   4.634   1.574   0.642
   20CHTO   C95 8134   4.605   1.458   0.721
   20CHTO  H182 8135   4.498   1.438   0.717
   20CHTO  C106 8136   4.678   1.336   0.657
   20CHTO   O69 8137   4.632   1.212   0.713
   20CHTO  H169 8138   4.674   1.140   0.670
   20CHTO   O63 8139   4.601   1.811   0.577
   20CHTO   C96 8140   4.572   1.783   0.425
   20CHTO  H183 8141   4.520   1.687   0.416
   20CHTO   C98 8142   4.701   1.775   0.338
   20CHTO  H185 8143   4.764   1.863   0.359
   20CHTO   O67 8144   4.775   1.662   0.385
   20CHTO  H167 8145   4.858   1.658   0.341
   20CHTO  C102 8146   4.670   1.762   0.181
   20CHTO  H189 8147   4.634   1.659   0.167
   20CHTO   N18 8148   4.791   1.773   0.094
   20CHTO  H176 8149   4.837   1.870   0.107
   20CHTO  H177 8150   4.763   1.759   2.873
   20CHTO  C105 8151   4.558   1.861   0.139
   20CHTO  H192 8152   4.599   1.963   0.137
   20CHTO   O65 8153   4.446   1.860   0.229
   20CHTO  C100 8154   4.478   1.894   0.365
   20CHTO  H187 8155   4.530   1.991   0.367
   20CHTO  C107 8156   4.343   1.909   0.440
   20CHTO   O70 8157   4.359   1.968   0.569
   20CHTO  H170 8158   4.386   2.058   0.560
   20CHTO   O57 8159   4.504   1.819   2.866
   20CHTO   C85 8160   4.448   1.689   2.840
   20CHTO  H157 8161   4.466   1.627   0.048
   20CHTO   C83 8162   4.530   1.621   2.726
   20CHTO  H155 8163   4.634   1.616   2.758
   20CHTO   O56 8164   4.527   1.706   2.609
   20CHTO  H135 8165   4.584   1.670   2.542
   20CHTO   C81 8166   4.476   1.477   2.703
   20CHTO  H153 8167   4.486   1.422   2.797
   20CHTO   N14 8168   4.559   1.400   2.608
   20CHTO  H141 8169   4.661   1.398   2.641
   20CHTO  H142 8170   4.555   1.444   2.511
   20CHTO   C79 8171   4.323   1.480   2.665
   20CHTO  H151 8172   4.287   1.377   2.667
   20CHTO   O52 8173   4.247   1.552   2.768
   20CHTO   C86 8174   4.296   1.687   2.797
   20CHTO  H158 8175   4.281   1.743   2.702
   20CHTO   C90 8176   4.204   1.756   0.019
   20CHTO   O60 8177   4.200   1.683   0.143
   20CHTO  H138 8178   4.282   1.691   0.187
   20CHTO   O50 8179   4.292   1.533   2.535
   20CHTO   C73 8180   4.212   1.564   2.419
   20CHTO  H145 8181   4.278   1.593   2.336
   20CHTO   C74 8182   4.114   1.683   2.447
   20CHTO  H146 8183   4.175   1.768   2.483
   20CHTO   O54 8184   4.058   1.724   2.321
   20CHTO  H133 8185   4.125   1.761   2.266
   20CHTO   C75 8186   4.004   1.640   2.552
   20CHTO  H147 8187   4.053   1.623   2.648
   20CHTO   N13 8188   3.904   1.746   2.581
   20CHTO  H139 8189   3.852   1.773   2.490
   20CHTO  H140 8190   3.953   1.834   2.621
   20CHTO   C76 8191   3.934   1.503   2.508
   20CHTO  H148 8192   3.878   1.523   2.417
   20CHTO   O49 8193   4.036   1.401   2.479
   20CHTO   C77 8194   4.127   1.441   2.375
   20CHTO  H149 8195   4.072   1.467   2.285
   20CHTO   C88 8196   4.215   1.322   2.336
   20CHTO   O58 8197   4.132   1.208   2.284
   20CHTO  H136 8198   4.187   1.133   2.270
   20CHTO   O51 8199   3.835   1.435   2.628
   20CHTO   C78 8200   3.894   1.425   2.782
   20CHTO  H150 8201   3.968   1.505   2.802
   20CHTO   C80 8202   3.960   1.288   2.810
   20CHTO  H152 8203   3.884   1.208   2.791
   20CHTO   O55 8204   4.069   1.269   2.718
   20CHTO  H134 8205   4.037   1.258   2.631
   20CHTO   C84 8206   4.009   1.279   0.078
   20CHTO  H156 8207   4.086   1.355   0.092
   20CHTO   N15 8208   4.073   1.147   0.114
   20CHTO  H143 8209   4.078   1.082   0.029
   20CHTO  H144 8210   4.172   1.162   0.151
   20CHTO   C87 8211   3.891   1.310   0.172
   20CHTO  H159 8212   3.817   1.230   0.166
   20CHTO   O53 8213   3.826   1.444   0.132
   20CHTO   C82 8214   3.777   1.446   2.879
   20CHTO  H154 8215   3.703   1.368   2.866
   20CHTO   C89 8216   3.706   1.580   2.855
   20CHTO   O59 8217   3.591   1.593   0.057
   20CHTO  H137 8218   3.550   1.676   0.043
   20CHTO   O45 8219   3.938   1.324   0.329
   20CHTO   C67 8220   4.007   1.446   0.360
   20CHTO  H124 8221   4.047   1.493   0.270
   20CHTO   C65 8222   3.910   1.546   0.431
   20CHTO  H122 8223   3.819   1.547   0.371
   20CHTO   O44 8224   3.967   1.678   0.431
   20CHTO  H102 8225   3.905   1.740   0.463
   20CHTO   C63 8226   3.868   1.488   0.571
   20CHTO  H120 8227   3.824   1.390   0.556
   20CHTO   N11 8228   3.757   1.562   0.640
   20CHTO  H108 8229   3.727   1.509   0.728
   20CHTO  H109 8230   3.673   1.571   0.574
   20CHTO   C61 8231   3.997   1.467   0.659
   20CHTO  H118 8232   3.964   1.411   0.748
   20CHTO   O40 8233   4.094   1.382   0.591
   20CHTO   C68 8234   4.131   1.411   0.451
   20CHTO  H125 8235   4.172   1.316   0.410
   20CHTO   C72 8236   4.243   1.517   0.441
   20CHTO   O48 8237   4.367   1.469   0.493
   20CHTO  H105 8238   4.432   1.536   0.487
   20CHTO   O38 8239   4.067   1.587   0.698
   20CHTO   C55 8240   4.045   1.641   0.830
   20CHTO  H112 8241   3.952   1.600   0.873
   20CHTO   C56 8242   4.041   1.799   0.820
   20CHTO  H113 8243   4.133   1.830   0.767
   20CHTO   O42 8244   3.931   1.839   0.737
   20CHTO  H100 8245   3.932   1.932   0.725
   20CHTO   C57 8246   4.034   1.867   0.963
   20CHTO  H114 8247   3.935   1.845   1.003
   20CHTO   N10 8248   4.049   2.014   0.960
   20CHTO  H106 8249   4.010   2.055   0.868
   20CHTO  H107 8250   3.997   2.059   1.043
   20CHTO   C58 8251   4.140   1.803   1.058
   20CHTO  H115 8252   4.242   1.833   1.024
   20CHTO   O37 8253   4.130   1.660   1.057
   20CHTO   C59 8254   4.159   1.601   0.929
   20CHTO  H116 8255   4.255   1.637   0.892
   20CHTO   C70 8256   4.169   1.449   0.949
   20CHTO   O46 8257   4.277   1.411   1.035
   20CHTO  H103 8258   4.259   1.440   1.123
   20CHTO   O39 8259   4.116   1.854   1.213
   20CHTO   C60 8260   4.182   1.779   1.317
   20CHTO  H117 8261   4.141   1.679   1.319
   20CHTO   C62 8262   4.337   1.768   1.297
   20CHTO  H119 8263   4.352   1.711   1.203
   20CHTO   O43 8264   4.393   1.899   1.279
   20CHTO  H101 8265   4.382   1.950   1.357
   20CHTO   C66 8266   4.401   1.685   1.419
   20CHTO  H123 8267   4.356   1.585   1.421
   20CHTO   N12 8268   4.547   1.663   1.403
   20CHTO  H110 8269   4.585   1.604   1.486
   20CHTO  H111 8270   4.598   1.758   1.397
   20CHTO   C69 8271   4.367   1.752   1.555
   20CHTO  H126 8272   4.416   1.852   1.561
   20CHTO   O41 8273   4.213   1.769   1.567
   20CHTO   C64 8274   4.150   1.845   1.455
   20CHTO  H121 8275   4.188   1.949   1.454
   20CHTO   C71 8276   3.997   1.853   1.480
   20CHTO   O47 8277   3.937   1.723   1.491
   20CHTO  H104 8278   3.846   1.732   1.508
   20CHTO   O34 8279   4.419   1.663   1.679
   20CHTO   C49 8280   4.381   1.513   1.709
   20CHTO   H91 8281   4.401   1.459   1.616
   20CHTO   C47 8282   4.231   1.501   1.743
   20CHTO   H89 8283   4.179   1.512   1.645
   20CHTO   O33 8284   4.188   1.608   1.829
   20CHTO   H70 8285   4.234   1.605   1.911
   20CHTO   C45 8286   4.195   1.360   1.815
   20CHTO   H87 8287   4.192   1.379   1.924
   20CHTO    N8 8288   4.060   1.314   1.773
   20CHTO   H75 8289   3.992   1.319   1.856
   20CHTO   H76 8290   4.064   1.213   1.735
   20CHTO   C43 8291   4.313   1.253   1.799
   20CHTO   H85 8292   4.282   1.163   1.852
   20CHTO   O29 8293   4.434   1.310   1.854
   20CHTO   C50 8294   4.466   1.447   1.822
   20CHTO   H92 8295   4.456   1.509   1.912
   20CHTO   C54 8296   4.617   1.455   1.787
   20CHTO   O36 8297   4.699   1.421   1.899
   20CHTO   H72 8298   4.693   1.488   1.964
   20CHTO   O27 8299   4.336   1.213   1.662
   20CHTO   C37 8300   4.329   1.099   1.575
   20CHTO   H79 8301   4.259   1.025   1.615
   20CHTO   C38 8302   4.274   1.143   1.435
   20CHTO   H80 8303   4.331   1.232   1.402
   20CHTO   O31 8304   4.137   1.182   1.452
   20CHTO   H68 8305   4.131   1.262   1.501
   20CHTO   C39 8306   4.286   1.030   1.326
   20CHTO   H81 8307   4.215   0.952   1.353
   20CHTO    N7 8308   4.250   1.075   1.187
   20CHTO   H73 8309   4.220   1.179   1.186
   20CHTO   H74 8310   4.171   1.013   1.147
   20CHTO   C40 8311   4.430   0.963   1.328
   20CHTO   H82 8312   4.504   1.033   1.289
   20CHTO   O26 8313   4.461   0.922   1.463
   20CHTO   C41 8314   4.469   1.032   1.558
   20CHTO   H83 8315   4.542   1.107   1.523
   20CHTO   C52 8316   4.522   0.970   1.689
   20CHTO   O35 8317   4.574   1.068   1.782
   20CHTO   H71 8318   4.606   1.024   1.858
   20CHTO   O28 8319   4.433   0.844   1.248
   20CHTO   C42 8320   4.552   0.765   1.212
   20CHTO   H84 8321   4.512   0.689   1.146
   20CHTO   C44 8322   4.623   0.688   1.328
   20CHTO   H86 8323   4.673   0.761   1.393
   20CHTO   O32 8324   4.520   0.620   1.402
   20CHTO   H69 8325   4.469   0.682   1.451
   20CHTO   C48 8326   4.731   0.588   1.270
   20CHTO   H90 8327   4.679   0.516   1.207
   20CHTO    N9 8328   4.799   0.506   1.376
   20CHTO   H77 8329   4.726   0.447   1.429
   20CHTO   H78 8330   4.852   0.571   1.445
   20CHTO   C51 8331   4.834   0.664   1.178
   20CHTO   H93 8332   4.896   0.729   1.241
   20CHTO   O30 8333   4.764   0.739   1.077
   20CHTO   C46 8334   4.661   0.843   1.132
   20CHTO   H88 8335   4.712   0.913   1.197
   20CHTO   C53 8336   4.601   0.917   1.010
   20CHTO   O72 8337   4.702   0.991   0.940
   20CHTO  H199 8338   4.664   1.034   0.866
   20CHTO   O22 8339   4.915   0.570   1.105
   20CHTO   C31 8340   5.048   0.602   1.048
   20CHTO   H59 8341   5.081   0.510   0.995
   20CHTO   C29 8342   5.048   0.716   0.944
   20CHTO   H57 8343   5.009   0.807   0.994
   20CHTO   O21 8344   4.954   0.682   0.841
   20CHTO   H37 8345   4.866   0.679   0.875
   20CHTO   C27 8346   5.192   0.745   0.887
   20CHTO   H55 8347   5.225   0.658   0.830
   20CHTO    N5 8348   5.194   0.864   0.797
   20CHTO   H43 8349   5.294   0.878   0.757
   20CHTO   H44 8350   5.124   0.850   0.717
   20CHTO   C25 8351   5.293   0.762   1.007
   20CHTO   H53 8352   5.269   0.853   1.062
   20CHTO   O17 8353   5.285   0.648   1.097
   20CHTO   C32 8354   5.157   0.629   1.158
   20CHTO   H60 8355   5.129   0.718   1.213
   20CHTO   C36 8356   5.168   0.513   1.260
   20CHTO   O25 8357   5.205   0.389   1.197
   20CHTO   H40 8358   5.204   0.321   1.261
   20CHTO   O15 8359   5.440   0.772   0.959
   20CHTO   C19 8360   5.538   0.858   0.894
   20CHTO   H47 8361   5.495   0.878   0.795
   20CHTO   C20 8362   5.563   0.995   0.966
   20CHTO   H48 8363   5.602   0.980   1.068
   20CHTO   O19 8364   5.436   1.061   0.976
   20CHTO   H35 8365   5.443   1.139   1.028
   20CHTO   C21 8366   5.667   1.083   0.886
   20CHTO   H49 8367   5.622   1.114   0.792
   20CHTO    N4 8368   5.703   1.209   0.958
   20CHTO   H41 8369   5.772   1.267   0.898
   20CHTO   H42 8370   5.748   1.186   1.053
   20CHTO   C22 8371   5.793   0.999   0.850
   20CHTO   H50 8372   5.852   0.981   0.940
   20CHTO   O14 8373   5.756   0.874   0.789
   20CHTO   C23 8374   5.674   0.789   0.871
   20CHTO   H51 8375   5.728   0.771   0.965
   20CHTO   C34 8376   5.658   0.654   0.800
   20CHTO   O23 8377   5.779   0.578   0.803
   20CHTO   H38 8378   5.845   0.621   0.752
   20CHTO   O16 8379   5.872   1.068   0.751
   20CHTO   C24 8380   6.002   0.990   0.701
   20CHTO   H52 8381   6.000   0.885   0.731
   20CHTO   C26 8382   6.128   1.058   0.756
   20CHTO   H54 8383   6.119   1.168   0.737
   20CHTO   O20 8384   6.134   1.046   0.899
   20CHTO   H36 8385   6.063   1.092   0.939
   20CHTO   C30 8386   6.260   1.002   0.693
   20CHTO   H58 8387   6.318   0.950   0.770
   20CHTO    N6 8388   6.350   1.111   0.646
   20CHTO   H45 8389   6.441   1.069   0.606
   20CHTO   H46 8390   6.375   1.176   0.729
   20CHTO   C33 8391   6.234   0.897   0.582
   20CHTO   H61 8392   6.325   0.880   0.522
   20CHTO   O18 8393   6.127   0.937   0.492
   20CHTO   C28 8394   6.005   0.992   0.546
   20CHTO   H56 8395   5.996   1.096   0.513
   20CHTO   C35 8396   5.884   0.916   0.488
   20CHTO   O24 8397   5.874   0.930   0.346
   20CHTO   H39 8398   5.797   0.885   0.315
   20CHTO    O9 8399   6.205   0.770   0.644
   20CHTO   C13 8400   6.224   0.642   0.548
   20CHTO   H26 8401   6.293   0.669   0.465
   20CHTO   C11 8402   6.083   0.596   0.493
   20CHTO   H24 8403   6.047   0.673   0.422
   20CHTO    O8 8404   5.987   0.589   0.600
   20CHTO    H3 8405   5.975   0.673   0.639
   20CHTO    C9 8406   6.100   0.463   0.415
   20CHTO   H22 8407   6.174   0.484   0.336
   20CHTO    N2 8408   5.979   0.419   0.342
   20CHTO   H10 8409   5.901   0.393   0.412
   20CHTO   H11 8410   6.003   0.334   0.279
   20CHTO    C7 8411   6.160   0.354   0.511
   20CHTO   H20 8412   6.177   0.266   0.445
   20CHTO    O4 8413   6.287   0.396   0.565
   20CHTO   C14 8414   6.298   0.526   0.628
   20CHTO   H27 8415   6.406   0.550   0.628
   20CHTO   C18 8416   6.254   0.518   0.777
   20CHTO   O13 8417   6.342   0.434   0.852
   20CHTO    H7 8418   6.313   0.431   0.942
   20CHTO    O2 8419   6.059   0.313   0.635
   20CHTO    C1 8420   6.060   0.178   0.684
   20CHTO   H14 8421   6.036   0.183   0.792
   20CHTO    C2 8422   6.194   0.093   0.667
   20CHTO   H15 8423   6.219   0.093   0.560
   20CHTO    O6 8424   6.298   0.157   0.743
   20CHTO    H1 8425   6.322   0.238   0.703
   20CHTO    C3 8426   6.173   9.942   0.717
   20CHTO   H16 8427   6.158   9.944   0.826
   20CHTO    N1 8428   6.292   9.854   0.689
   20CHTO    H8 8429   6.327   9.809   0.781
   20CHTO    H9 8430   6.373   9.911   0.645
   20CHTO    C4 8431   6.041   9.882   0.656
   20CHTO   H17 8432   6.054   9.867   0.549
   20CHTO    O1 8433   5.929   9.970   0.680
   20CHTO    C5 8434   5.941   0.100   0.620
   20CHTO   H18 8435   5.961   0.091   0.513
   20CHTO   C16 8436   5.806   0.175   0.639
   20CHTO   O11 8437   5.699   0.107   0.573
   20CHTO    H5 8438   5.618   0.150   0.592
   20CHTO    O3 8439   6.005   9.758   0.720
   20CHTO    C6 8440   5.897   9.684   0.652
   20CHTO   H19 8441   5.839   9.746   0.583
   20CHTO    C8 8442   5.955   9.563   0.571
   20CHTO   H21 8443   6.012   9.500   0.639
   20CHTO    O7 8444   6.044   9.616   0.470
   20CHTO    H2 8445   5.996   9.670   0.409
   20CHTO   C12 8446   5.837   9.479   0.508
   20CHTO   H25 8447   5.789   9.544   0.432
   20CHTO    N3 8448   5.888   9.358   0.435
   20CHTO   H12 8449   5.806   9.305   0.389
   20CHTO   H13 8450   5.940   9.293   0.504
   20CHTO   C15 8451   5.730   9.444   0.618
   20CHTO   H28 8452   5.766   9.368   0.687
   20CHTO   O10 8453   5.596   9.397   0.558
   20CHTO    H4 8454   5.542   9.360   0.625
   20CHTO    O5 8455   5.689   9.561   0.692
   20CHTO   C10 8456   5.797   9.629   0.758
   20CHTO   H23 8457   5.849   9.558   0.823
   20CHTO   C17 8458   5.738   9.740   0.846
   20CHTO   O12 8459   5.665   9.685   0.956
   20CHTO    H6 8460   5.587   9.642   0.925
   21GLOH   H03 8461   3.363   8.266   0.501
   21GLOH    O1 8462   3.416   8.235   0.580
   21GLOH    C1 8463   3.550   8.203   0.538
   21GLOH   H02 8464   3.549   8.115   0.474
   21GLOH   H08 8465   3.610   8.177   0.625
   21GLOH    C2 8466   3.622   8.316   0.462
   21GLOH   H04 8467   3.729   8.290   0.459
   21GLOH    O2 8468   3.577   8.330   0.326
   21GLOH   H05 8469   3.558   8.242   0.288
   21GLOH    C3 8470   3.607   8.449   0.538
   21GLOH   H06 8471   3.501   8.469   0.555
   21GLOH   H07 8472   3.644   8.531   0.476
   21GLOH    O3 8473   3.678   8.448   0.663
   21GLOH   H01 8474   3.772   8.421   0.643
   22GLOH   H03 8475   3.610   7.937   2.309
   22GLOH    O1 8476   3.627   7.961   2.404
   22GLOH    C1 8477   3.686   8.092   2.406
   22GLOH   H02 8478   3.610   8.169   2.396
   22GLOH   H08 8479   3.755   8.105   2.323
   22GLOH    C2 8480   3.764   8.119   2.536
   22GLOH   H04 8481   3.844   8.044   2.546
   22GLOH    O2 8482   3.822   8.251   2.529
   22GLOH   H05 8483   3.890   8.253   2.457
   22GLOH    C3 8484   3.671   8.108   2.659
   22GLOH   H06 8485   3.610   8.197   2.664
   22GLOH   H07 8486   3.733   8.107   2.749
   22GLOH    O3 8487   3.586   7.992   2.658
   22GLOH   H01 8488   3.590   7.957   2.565
   23GLOH   H03 8489   2.651   8.715   0.589
   23GLOH    O1 8490   2.716   8.725   0.664
   23GLOH    C1 8491   2.838   8.658   0.624
   23GLOH   H02 8492   2.924   8.720   0.649
   23GLOH   H08 8493   2.840   8.643   0.516
   23GLOH    C2 8494   2.854   8.522   0.693
   23GLOH   H04 8495   2.767   8.459   0.668
   23GLOH    O2 8496   2.974   8.457   0.647
   23GLOH   H05 8497   2.982   8.366   0.689
   23GLOH    C3 8498   2.859   8.540   0.846
   23GLOH   H06 8499   2.949   8.595   0.872
   23GLOH   H07 8500   2.867   8.441   0.892
   23GLOH    O3 8501   2.742   8.608   0.893
   23GLOH   H01 8502   2.711   8.664   0.817
   24GLOH   H03 8503   2.711   9.107   0.268
   24GLOH    O1 8504   2.637   9.049   0.238
   24GLOH    C1 8505   2.536   9.040   0.339
   24GLOH   H02 8506   2.440   9.017   0.293
   24GLOH   H08 8507   2.523   9.135   0.390
   24GLOH    C2 8508   2.565   8.930   0.444
   24GLOH   H04 8509   2.669   8.942   0.478
   24GLOH    O2 8510   2.476   8.947   0.557
   24GLOH   H05 8511   2.490   9.040   0.592
   24GLOH    C3 8512   2.551   8.792   0.377
   24GLOH   H06 8513   2.624   8.785   0.296
   24GLOH   H07 8514   2.452   8.787   0.330
   24GLOH    O3 8515   2.567   8.679   0.466
   24GLOH   H01 8516   2.476   8.641   0.482
   25GLOH   H03 8517   3.465   9.008   0.039
   25GLOH    O1 8518   3.496   9.029   0.130
   25GLOH    C1 8519   3.621   8.962   0.153
   25GLOH   H02 8520   3.704   9.025   0.120
   25GLOH   H08 8521   3.627   8.871   0.094
   25GLOH    C2 8522   3.647   8.924   0.301
   25GLOH   H04 8523   3.732   8.854   0.300
   25GLOH    O2 8524   3.681   9.035   0.386
   25GLOH   H05 8525   3.747   9.000   0.452
   25GLOH    C3 8526   3.526   8.846   0.356
   25GLOH   H06 8527   3.436   8.907   0.344
   25GLOH   H07 8528   3.540   8.832   0.463
   25GLOH    O3 8529   3.513   8.719   0.290
   25GLOH   H01 8530   3.418   8.699   0.269
   26GLOH   H03 8531   4.526   9.369   1.040
   26GLOH    O1 8532   4.513   9.406   1.131
   26GLOH    C1 8533   4.618   9.502   1.156
   26GLOH   H02 8534   4.674   9.522   1.064
   26GLOH   H08 8535   4.690   9.461   1.227
   26GLOH    C2 8536   4.566   9.636   1.212
   26GLOH   H04 8537   4.480   9.666   1.151
   26GLOH    O2 8538   4.523   9.624   1.349
   26GLOH   H05 8539   4.445   9.561   1.348
   26GLOH    C3 8540   4.672   9.747   1.200
   26GLOH   H06 8541   4.756   9.723   1.265
   26GLOH   H07 8542   4.629   9.840   1.238
   26GLOH    O3 8543   4.717   9.765   1.065
   26GLOH   H01 8544   4.636   9.772   1.007
   27GLOH   H03 8545   3.224   8.670   0.716
   27GLOH    O1 8546   3.195   8.717   0.634
   27GLOH    C1 8547   3.291   8.822   0.612
   27GLOH   H02 8548   3.285   8.858   0.510
   27GLOH   H08 8549   3.392   8.783   0.626
   27GLOH    C2 8550   3.271   8.941   0.708
   27GLOH   H04 8551   3.254   8.901   0.809
   27GLOH    O2 8552   3.390   9.022   0.712
   27GLOH   H05 8553   3.461   8.967   0.756
   27GLOH    C3 8554   3.147   9.025   0.671
   27GLOH   H06 8555   3.135   9.102   0.747
   27GLOH   H07 8556   3.059   8.960   0.679
   27GLOH    O3 8557   3.151   9.085   0.540
   27GLOH   H01 8558   3.127   9.018   0.471
   28GLOH   H03 8559   4.640   9.748   1.849
   28GLOH    O1 8560   4.600   9.735   1.759
   28GLOH    C1 8561   4.493   9.640   1.773
   28GLOH   H02 8562   4.532   9.539   1.771
   28GLOH   H08 8563   4.423   9.649   1.690
   28GLOH    C2 8564   4.414   9.660   1.905
   28GLOH   H04 8565   4.372   9.760   1.903
   28GLOH    O2 8566   4.306   9.565   1.915
   28GLOH   H05 8567   4.279   9.558   2.012
   28GLOH    C3 8568   4.511   9.652   2.025
   28GLOH   H06 8569   4.554   9.552   2.029
   28GLOH   H07 8570   4.455   9.666   2.117
   28GLOH    O3 8571   4.615   9.751   2.016
   28GLOH   H01 8572   4.586   9.835   2.061
   29GLOH   H03 8573   4.118   0.507   1.294
   29GLOH    O1 8574   4.047   0.549   1.349
   29GLOH    C1 8575   4.059   0.513   1.488
   29GLOH   H02 8576   4.047   0.405   1.500
   29GLOH   H08 8577   3.977   0.559   1.544
   29GLOH    C2 8578   4.191   0.554   1.557
   29GLOH   H04 8579   4.174   0.549   1.665
   29GLOH    O2 8580   4.301   0.466   1.525
   29GLOH   H05 8581   4.274   0.388   1.469
   29GLOH    C3 8582   4.228   0.700   1.523
   29GLOH   H06 8583   4.238   0.709   1.415
   29GLOH   H07 8584   4.326   0.721   1.566
   29GLOH    O3 8585   4.131   0.794   1.573
   29GLOH   H01 8586   4.155   0.814   1.667
   30GLOH   H03 8587   2.944   8.704   0.309
   30GLOH    O1 8588   2.891   8.736   0.232
   30GLOH    C1 8589   2.890   8.880   0.230
   30GLOH   H02 8590   2.836   8.918   0.316
   30GLOH   H08 8591   2.838   8.916   0.141
   30GLOH    C2 8592   3.031   8.942   0.232
   30GLOH   H04 8593   3.020   9.050   0.218
   30GLOH    O2 8594   3.098   8.919   0.358
   30GLOH   H05 8595   3.092   8.821   0.378
   30GLOH    C3 8596   3.116   8.888   0.116
   30GLOH   H06 8597   3.114   8.779   0.119
   30GLOH   H07 8598   3.219   8.919   0.130
   30GLOH    O3 8599   3.067   8.933   2.870
   30GLOH   H01 8600   3.040   8.855   2.818
   31GLOH   H03 8601   3.707   1.066   0.556
   31GLOH    O1 8602   3.729   1.024   0.469
   31GLOH    C1 8603   3.626   1.058   0.374
   31GLOH   H02 8604   3.532   1.009   0.402
   31GLOH   H08 8605   3.652   1.021   0.275
   31GLOH    C2 8606   3.600   1.209   0.365
   31GLOH   H04 8607   3.696   1.261   0.356
   31GLOH    O2 8608   3.518   1.239   0.249
   31GLOH   H05 8609   3.574   1.233   0.168
   31GLOH    C3 8610   3.534   1.259   0.495
   31GLOH   H06 8611   3.437   1.210   0.506
   31GLOH   H07 8612   3.515   1.366   0.486
   31GLOH    O3 8613   3.616   1.233   0.611
   31GLOH   H01 8614   3.573   1.274   0.691
   32GLOH   H03 8615   3.056   9.719   0.493
   32GLOH    O1 8616   3.120   9.706   0.418
   32GLOH    C1 8617   3.134   9.830   0.344
   32GLOH   H02 8618   3.213   9.819   0.270
   32GLOH   H08 8619   3.166   9.911   0.410
   32GLOH    C2 8620   3.006   9.873   0.271
   32GLOH   H04 8621   2.925   9.884   0.345
   32GLOH    O2 8622   3.027   9.999   0.204
   32GLOH   H05 8623   3.068   0.064   0.266
   32GLOH    C3 8624   2.966   9.766   0.168
   32GLOH   H06 8625   3.045   9.758   0.093
   32GLOH   H07 8626   2.876   9.799   0.117
   32GLOH    O3 8627   2.943   9.638   0.230
   32GLOH   H01 8628   3.007   9.629   0.305
   33GLOH   H03 8629   3.264   9.412   2.329
   33GLOH    O1 8630   3.256   9.323   2.285
   33GLOH    C1 8631   3.289   9.219   2.378
   33GLOH   H02 8632   3.250   9.124   2.342
   33GLOH   H08 8633   3.239   9.238   2.473
   33GLOH    C2 8634   3.440   9.203   2.405
   33GLOH   H04 8635   3.477   9.297   2.449
   33GLOH    O2 8636   3.458   9.096   2.500
   33GLOH   H05 8637   3.433   9.009   2.457
   33GLOH    C3 8638   3.524   9.170   2.280
   33GLOH   H06 8639   3.504   9.067   2.252
   33GLOH   H07 8640   3.629   9.173   2.311
   33GLOH    O3 8641   3.506   9.254   2.165
   33GLOH   H01 8642   3.507   9.350   2.191
   34GLOH   H03 8643   3.476   9.596   0.007
   34GLOH    O1 8644   3.528   9.671   0.042
   34GLOH    C1 8645   3.462   9.724   0.159
   34GLOH   H02 8646   3.462   9.650   0.239
   34GLOH   H08 8647   3.358   9.747   0.135
   34GLOH    C2 8648   3.530   9.853   0.209
   34GLOH   H04 8649   3.523   9.927   0.128
   34GLOH    O2 8650   3.463   9.907   0.325
   34GLOH   H05 8651   3.438   9.833   0.388
   34GLOH    C3 8652   3.680   9.828   0.235
   34GLOH   H06 8653   3.723   9.921   0.274
   34GLOH   H07 8654   3.728   9.809   0.140
   34GLOH    O3 8655   3.705   9.720   0.327
   34GLOH   H01 8656   3.715   9.761   0.417
   35GLOH   H03 8657   4.072   0.855   0.934
   35GLOH    O1 8658   4.164   0.834   0.902
   35GLOH    C1 8659   4.195   0.703   0.952
   35GLOH   H02 8660   4.118   0.632   0.923
   35GLOH   H08 8661   4.198   0.704   1.061
   35GLOH    C2 8662   4.330   0.647   0.902
   35GLOH   H04 8663   4.408   0.718   0.934
   35GLOH    O2 8664   4.355   0.520   0.965
   35GLOH   H05 8665   4.450   0.494   0.952
   35GLOH    C3 8666   4.335   0.638   0.748
   35GLOH   H06 8667   4.419   0.574   0.721
   35GLOH   H07 8668   4.359   0.738   0.710
   35GLOH    O3 8669   4.214   0.589   0.688
   35GLOH   H01 8670   4.234   0.511   0.629
   36GLOH   H03 8671   4.291   0.275   2.416
   36GLOH    O1 8672   4.230   0.352   2.403
   36GLOH    C1 8673   4.125   0.313   2.312
   36GLOH   H02 8674   4.164   0.242   2.238
   36GLOH   H08 8675   4.091   0.400   2.257
   36GLOH    C2 8676   4.004   0.249   2.383
   36GLOH   H04 8677   4.043   0.178   2.457
   36GLOH    O2 8678   3.925   0.348   2.453
   36GLOH   H05 8679   3.964   0.359   2.543
   36GLOH    C3 8680   3.919   0.170   2.282
   36GLOH   H06 8681   3.900   0.232   2.195
   36GLOH   H07 8682   3.822   0.148   2.327
   36GLOH    O3 8683   3.984   0.047   2.244
   36GLOH   H01 8684   3.931   0.004   2.172
   37GLOH   H03 8685   3.995   0.030   1.981
   37GLOH    O1 8686   4.052   0.095   1.933
   37GLOH    C1 8687   3.961   0.187   1.872
   37GLOH   H02 8688   3.880   0.213   1.941
   37GLOH   H08 8689   3.913   0.139   1.786
   37GLOH    C2 8690   4.027   0.318   1.824
   37GLOH   H04 8691   4.118   0.292   1.767
   37GLOH    O2 8692   3.938   0.392   1.739
   37GLOH   H05 8693   3.897   0.327   1.673
   37GLOH    C3 8694   4.069   0.405   1.945
   37GLOH   H06 8695   4.109   0.499   1.906
   37GLOH   H07 8696   4.151   0.355   1.996
   37GLOH    O3 8697   3.962   0.432   2.038
   37GLOH   H01 8698   3.879   0.453   1.990
   38GLOH   H03 8699   3.597   8.932   0.948
   38GLOH    O1 8700   3.617   8.980   1.033
   38GLOH    C1 8701   3.495   9.034   1.088
   38GLOH   H02 8702   3.419   9.043   1.010
   38GLOH   H08 8703   3.513   9.134   1.127
   38GLOH    C2 8704   3.440   8.946   1.202
   38GLOH   H04 8705   3.519   8.938   1.278
   38GLOH    O2 8706   3.324   9.005   1.264
   38GLOH   H05 8707   3.290   9.081   1.208
   38GLOH    C3 8708   3.408   8.804   1.153
   38GLOH   H06 8709   3.365   8.748   1.236
   38GLOH   H07 8710   3.502   8.756   1.129
   38GLOH    O3 8711   3.321   8.799   1.039
   38GLOH   H01 8712   3.236   8.847   1.060
   39GLOH   H03 8713   4.452   8.276   2.110
   39GLOH    O1 8714   4.492   8.361   2.079
   39GLOH    C1 8715   4.390   8.443   2.018
   39GLOH   H02 8716   4.291   8.413   2.053
   39GLOH   H08 8717   4.392   8.429   1.910
   39GLOH    C2 8718   4.409   8.594   2.046
   39GLOH   H04 8719   4.501   8.628   1.997
   39GLOH    O2 8720   4.296   8.666   1.993
   39GLOH   H05 8721   4.322   8.724   1.916
   39GLOH    C3 8722   4.419   8.623   2.197
   39GLOH   H06 8723   4.320   8.619   2.241
   39GLOH   H07 8724   4.455   8.726   2.209
   39GLOH    O3 8725   4.508   8.532   2.264
   39GLOH   H01 8726   4.531   8.462   2.197
   40GLOH   H03 8727   2.837   8.421   0.306
   40GLOH    O1 8728   2.899   8.346   0.288
   40GLOH    C1 8729   2.851   8.236   0.367
   40GLOH   H02 8730   2.880   8.248   0.471
   40GLOH   H08 8731   2.895   8.143   0.332
   40GLOH    C2 8732   2.697   8.225   0.358
   40GLOH   H04 8733   2.669   8.222   0.252
   40GLOH    O2 8734   2.651   8.104   0.423
   40GLOH   H05 8735   2.608   8.126   0.510
   40GLOH    C3 8736   2.633   8.352   0.420
   40GLOH   H06 8737   2.645   8.347   0.529
   40GLOH   H07 8738   2.526   8.349   0.400
   40GLOH    O3 8739   2.691   8.474   0.369
   40GLOH   H01 8740   2.641   8.552   0.403
   41GLOH   H03 8741   3.507   0.131   2.493
   41GLOH    O1 8742   3.526   0.188   2.570
   41GLOH    C1 8743   3.435   0.160   2.678
   41GLOH   H02 8744   3.425   0.249   2.741
   41GLOH   H08 8745   3.475   0.081   2.742
   41GLOH    C2 8746   3.293   0.119   2.633
   41GLOH   H04 8747   3.249   0.203   2.577
   41GLOH    O2 8748   3.295   0.002   2.547
   41GLOH   H05 8749   3.284   0.032   2.454
   41GLOH    C3 8750   3.204   0.093   2.756
   41GLOH   H06 8751   3.254   0.020   2.820
   41GLOH   H07 8752   3.110   0.049   2.724
   41GLOH    O3 8753   3.180   0.214   2.830
   41GLOH   H01 8754   3.086   0.219   2.854
   42GLOH   H03 8755   3.845   0.475   2.403
   42GLOH    O1 8756   3.815   0.566   2.378
   42GLOH    C1 8757   3.673   0.567   2.354
   42GLOH   H02 8758   3.635   0.669   2.356
   42GLOH   H08 8759   3.621   0.512   2.433
   42GLOH    C2 8760   3.638   0.504   2.218
   42GLOH   H04 8761   3.676   0.400   2.218
   42GLOH    O2 8762   3.494   0.503   2.204
   42GLOH   H05 8763   3.459   0.597   2.204
   42GLOH    C3 8764   3.703   0.580   2.102
   42GLOH   H06 8765   3.805   0.607   2.130
   42GLOH   H07 8766   3.650   0.675   2.087
   42GLOH    O3 8767   3.704   0.504   1.979
   42GLOH   H01 8768   3.613   0.465   1.966
   43GLOH   H03 8769   3.740   0.787   0.329
   43GLOH    O1 8770   3.653   0.761   0.291
   43GLOH    C1 8771   3.570   0.707   0.396
   43GLOH   H02 8772   3.554   0.781   0.474
   43GLOH   H08 8773   3.616   0.619   0.441
   43GLOH    C2 8774   3.432   0.665   0.341
   43GLOH   H04 8775   3.449   0.601   0.253
   43GLOH    O2 8776   3.355   0.590   0.438
   43GLOH   H05 8777   3.415   0.527   0.489
   43GLOH    C3 8778   3.353   0.789   0.295
   43GLOH   H06 8779   3.264   0.754   0.243
   43GLOH   H07 8780   3.413   0.842   0.220
   43GLOH    O3 8781   3.316   0.880   0.401
   43GLOH   H01 8782   3.244   0.936   0.364
   44GLOH   H03 8783   4.189   9.765   0.885
   44GLOH    O1 8784   4.137   9.837   0.842
   44GLOH    C1 8785   3.997   9.803   0.839
   44GLOH   H02 8786   3.983   9.699   0.809
   44GLOH   H08 8787   3.946   9.863   0.764
   44GLOH    C2 8788   3.925   9.823   0.973
   44GLOH   H04 8789   3.937   9.927   1.004
   44GLOH    O2 8790   3.784   9.796   0.954
   44GLOH   H05 8791   3.735   9.813   1.040
   44GLOH    C3 8792   3.980   9.733   1.086
   44GLOH   H06 8793   3.976   9.630   1.053
   44GLOH   H07 8794   3.912   9.741   1.171
   44GLOH    O3 8795   4.113   9.767   1.130
   44GLOH   H01 8796   4.179   9.722   1.071
   45GLOH   H03 8797   4.400   8.450   2.361
   45GLOH    O1 8798   4.350   8.369   2.388
   45GLOH    C1 8799   4.208   8.380   2.360
   45GLOH   H02 8800   4.190   8.444   2.273
   45GLOH   H08 8801   4.156   8.424   2.444
   45GLOH    C2 8802   4.148   8.241   2.330
   45GLOH   H04 8803   4.169   8.176   2.416
   45GLOH    O2 8804   4.005   8.250   2.312
   45GLOH   H05 8805   3.982   8.224   2.218
   45GLOH    C3 8806   4.218   8.181   2.206
   45GLOH   H06 8807   4.187   8.236   2.118
   45GLOH   H07 8808   4.183   8.078   2.193
   45GLOH    O3 8809   4.361   8.184   2.219
   45GLOH   H01 8810   4.378   8.241   2.298
   46GLOH   H03 8811   3.127   8.050   2.143
   46GLOH    O1 8812   3.034   8.024   2.120
   46GLOH    C1 8813   3.031   7.966   1.989
   46GLOH   H02 8814   2.934   7.921   1.970
   46GLOH   H08 8815   3.104   7.885   1.982
   46GLOH    C2 8816   3.059   8.068   1.877
   46GLOH   H04 8817   3.157   8.114   1.896
   46GLOH    O2 8818   3.062   7.998   1.751
   46GLOH   H05 8819   3.030   8.058   1.678
   46GLOH    C3 8820   2.951   8.177   1.878
   46GLOH   H06 8821   2.933   8.208   1.980
   46GLOH   H07 8822   2.857   8.133   1.843
   46GLOH    O3 8823   2.985   8.292   1.797
   46GLOH   H01 8824   2.917   8.363   1.814
   47GLOH   H03 8825   3.405   0.488   1.911
   47GLOH    O1 8826   3.469   0.413   1.925
   47GLOH    C1 8827   3.399   0.287   1.931
   47GLOH   H02 8828   3.464   0.208   1.894
   47GLOH   H08 8829   3.313   0.289   1.865
   47GLOH    C2 8830   3.350   0.246   2.072
   47GLOH   H04 8831   3.320   0.141   2.066
   47GLOH    O2 8832   3.454   0.257   2.171
   47GLOH   H05 8833   3.472   0.355   2.185
   47GLOH    C3 8834   3.225   0.326   2.113
   47GLOH   H06 8835   3.247   0.433   2.103
   47GLOH   H07 8836   3.205   0.308   2.219
   47GLOH    O3 8837   3.111   0.290   2.034
   47GLOH   H01 8838   3.090   0.368   1.976
   48GLOH   H03 8839   3.545   8.560   2.303
   48GLOH    O1 8840   3.512   8.652   2.289
   48GLOH    C1 8841   3.421   8.651   2.177
   48GLOH   H02 8842   3.331   8.596   2.203
   48GLOH   H08 8843   3.466   8.601   2.091
   48GLOH    C2 8844   3.378   8.793   2.135
   48GLOH   H04 8845   3.468   8.850   2.107
   48GLOH    O2 8846   3.288   8.790   2.022
   48GLOH   H05 8847   3.333   8.741   1.946
   48GLOH    C3 8848   3.312   8.862   2.255
   48GLOH   H06 8849   3.227   8.802   2.285
   48GLOH   H07 8850   3.275   8.959   2.222
   48GLOH    O3 8851   3.405   8.876   2.364
   48GLOH   H01 8852   3.458   8.792   2.361
   49GLOH   H03 8853   3.166   9.505   1.964
   49GLOH    O1 8854   3.105   9.555   1.905
   49GLOH    C1 8855   3.088   9.471   1.790
   49GLOH   H02 8856   3.044   9.375   1.819
   49GLOH   H08 8857   3.185   9.448   1.746
   49GLOH    C2 8858   2.999   9.534   1.681
   49GLOH   H04 8859   3.042   9.632   1.656
   49GLOH    O2 8860   3.001   9.451   1.562
   49GLOH   H05 8861   2.947   9.494   1.489
   49GLOH    C3 8862   2.856   9.558   1.733
   49GLOH   H06 8863   2.798   9.600   1.651
   49GLOH   H07 8864   2.860   9.634   1.810
   49GLOH    O3 8865   2.791   9.440   1.782
   49GLOH   H01 8866   2.824   9.418   1.873
   50GLOH   H03 8867   3.890   9.417   1.328
   50GLOH    O1 8868   3.974   9.376   1.363
   50GLOH    C1 8869   4.089   9.441   1.304
   50GLOH   H02 8870   4.082   9.549   1.315
   50GLOH   H08 8871   4.094   9.420   1.197
   50GLOH    C2 8872   4.221   9.393   1.369
   50GLOH   H04 8873   4.233   9.286   1.349
   50GLOH    O2 8874   4.333   9.465   1.314
   50GLOH   H05 8875   4.378   9.415   1.240
   50GLOH    C3 8876   4.217   9.417   1.521
   50GLOH   H06 8877   4.215   9.524   1.540
   50GLOH   H07 8878   4.309   9.378   1.564
   50GLOH    O3 8879   4.103   9.354   1.582
   50GLOH   H01 8880   4.033   9.352   1.511
   51GLOH   H03 8881   3.392   8.266   0.972
   51GLOH    O1 8882   3.386   8.329   1.049
   51GLOH    C1 8883   3.314   8.444   1.002
   51GLOH   H02 8884   3.300   8.516   1.082
   51GLOH   H08 8885   3.214   8.415   0.968
   51GLOH    C2 8886   3.385   8.516   0.885
   51GLOH   H04 8887   3.385   8.449   0.798
   51GLOH    O2 8888   3.312   8.636   0.850
   51GLOH   H05 8889   3.319   8.703   0.925
   51GLOH    C3 8890   3.532   8.542   0.923
   51GLOH   H06 8891   3.580   8.445   0.935
   51GLOH   H07 8892   3.537   8.590   1.020
   51GLOH    O3 8893   3.606   8.618   0.825
   51GLOH   H01 8894   3.632   8.550   0.756
   52GLOH   H03 8895   2.943   9.139   2.383
   52GLOH    O1 8896   2.938   9.067   2.314
   52GLOH    C1 8897   2.985   8.945   2.375
   52GLOH   H02 8898   2.959   8.942   2.481
   52GLOH   H08 8899   3.094   8.941   2.370
   52GLOH    C2 8900   2.926   8.820   2.308
   52GLOH   H04 8901   2.949   8.823   2.200
   52GLOH    O2 8902   2.985   8.702   2.366
   52GLOH   H05 8903   2.937   8.621   2.334
   52GLOH    C3 8904   2.774   8.821   2.328
   52GLOH   H06 8905   2.734   8.917   2.297
   52GLOH   H07 8906   2.755   8.815   2.435
   52GLOH    O3 8907   2.706   8.715   2.259
   52GLOH   H01 8908   2.666   8.656   2.327
   53GLOH   H03 8909   3.406   8.318   1.211
   53GLOH    O1 8910   3.421   8.330   1.308
   53GLOH    C1 8911   3.468   8.465   1.328
   53GLOH   H02 8912   3.424   8.532   1.254
   53GLOH   H08 8913   3.575   8.469   1.312
   53GLOH    C2 8914   3.441   8.524   1.467
   53GLOH   H04 8915   3.498   8.465   1.541
   53GLOH    O2 8916   3.488   8.661   1.468
   53GLOH   H05 8917   3.587   8.661   1.455
   53GLOH    C3 8918   3.291   8.515   1.502
   53GLOH   H06 8919   3.262   8.410   1.494
   53GLOH   H07 8920   3.234   8.569   1.426
   53GLOH    O3 8921   3.260   8.564   1.634
   53GLOH   H01 8922   3.188   8.632   1.626
   54GLOH   H03 8923   3.899   8.103   1.132
   54GLOH    O1 8924   3.977   8.164   1.123
   54GLOH    C1 8925   3.967   8.271   1.219
   54GLOH   H02 8926   4.024   8.357   1.184
   54GLOH   H08 8927   4.013   8.241   1.314
   54GLOH    C2 8928   3.824   8.320   1.248
   54GLOH   H04 8929   3.769   8.236   1.293
   54GLOH    O2 8930   3.825   8.429   1.342
   54GLOH   H05 8931   3.859   8.394   1.430
   54GLOH    C3 8932   3.751   8.356   1.117
   54GLOH   H06 8933   3.649   8.385   1.140
   54GLOH   H07 8934   3.743   8.265   1.056
   54GLOH    O3 8935   3.816   8.458   1.039
   54GLOH   H01 8936   3.852   8.529   1.098
   55GLOH   H03 8937   4.154   0.035   1.835
   55GLOH    O1 8938   4.224   9.991   1.780
   55GLOH    C1 8939   4.351   0.016   1.842
   55GLOH   H02 8940   4.432   9.977   1.780
   55GLOH   H08 8941   4.356   9.963   1.937
   55GLOH    C2 8942   4.377   0.165   1.868
   55GLOH   H04 8943   4.287   0.208   1.915
   55GLOH    O2 8944   4.488   0.181   1.960
   55GLOH   H05 8945   4.502   0.279   1.973
   55GLOH    C3 8946   4.401   0.238   1.734
   55GLOH   H06 8947   4.326   0.203   1.663
   55GLOH   H07 8948   4.498   0.207   1.696
   55GLOH    O3 8949   4.396   0.381   1.746
   55GLOH   H01 8950   4.368   0.418   1.658
   56GLOH   H03 8951   2.700   7.824   0.682
   56GLOH    O1 8952   2.644   7.895   0.723
   56GLOH    C1 8953   2.715   7.957   0.832
   56GLOH   H02 8954   2.817   7.980   0.804
   56GLOH   H08 8955   2.719   7.890   0.918
   56GLOH    C2 8956   2.645   8.088   0.875
   56GLOH   H04 8957   2.543   8.062   0.910
   56GLOH    O2 8958   2.715   8.154   0.982
   56GLOH   H05 8959   2.653   8.222   1.022
   56GLOH    C3 8960   2.631   8.181   0.754
   56GLOH   H06 8961   2.731   8.203   0.715
   56GLOH   H07 8962   2.588   8.276   0.787
   56GLOH    O3 8963   2.550   8.120   0.653
   56GLOH   H01 8964   2.561   8.022   0.669
   57GLOH   H03 8965   2.446   8.242   1.665
   57GLOH    O1 8966   2.498   8.250   1.580
   57GLOH    C1 8967   2.597   8.145   1.578
   57GLOH   H02 8968   2.549   8.047   1.587
   57GLOH   H08 8969   2.664   8.154   1.663
   57GLOH    C2 8970   2.680   8.145   1.448
   57GLOH   H04 8971   2.726   8.245   1.437
   57GLOH    O2 8972   2.784   8.045   1.453
   57GLOH   H05 8973   2.862   8.084   1.501
   57GLOH    C3 8974   2.588   8.121   1.327
   57GLOH   H06 8975   2.541   8.023   1.337
   57GLOH   H07 8976   2.649   8.119   1.237
   57GLOH    O3 8977   2.488   8.225   1.319
   57GLOH   H01 8978   2.463   8.245   1.412
   58GLOH   H03 8979   3.579   8.770   0.812
   58GLOH    O1 8980   3.575   8.870   0.810
   58GLOH    C1 8981   3.674   8.924   0.719
   58GLOH   H02 8982   3.731   9.002   0.770
   58GLOH   H08 8983   3.625   8.971   0.635
   58GLOH    C2 8984   3.775   8.821   0.664
   58GLOH   H04 8985   3.721   8.729   0.637
   58GLOH    O2 8986   3.838   8.875   0.546
   58GLOH   H05 8987   3.870   8.798   0.490
   58GLOH    C3 8988   3.882   8.786   0.771
   58GLOH   H06 8989   3.943   8.875   0.787
   58GLOH   H07 8990   3.948   8.710   0.729
   58GLOH    O3 8991   3.827   8.740   0.896
   58GLOH   H01 8992   3.755   8.675   0.877
   59GLOH   H03 8993   3.097   9.225   0.171
   59GLOH    O1 8994   3.061   9.296   0.227
   59GLOH    C1 8995   3.166   9.390   0.257
   59GLOH   H02 8996   3.124   9.488   0.280
   59GLOH   H08 8997   3.231   9.404   0.171
   59GLOH    C2 8998   3.253   9.349   0.377
   59GLOH   H04 8999   3.326   9.429   0.395
   59GLOH    O2 9000   3.174   9.333   0.497
   59GLOH   H05 9001   3.166   9.234   0.518
   59GLOH    C3 9002   3.332   9.221   0.342
   59GLOH   H06 9003   3.261   9.141   0.319
   59GLOH   H07 9004   3.390   9.190   0.429
   59GLOH    O3 9005   3.418   9.245   0.229
   59GLOH   H01 9006   3.454   9.158   0.198
   60GLOH   H03 9007   3.488   0.416   0.688
   60GLOH    O1 9008   3.470   0.421   0.591
   60GLOH    C1 9009   3.369   0.324   0.555
   60GLOH   H02 9010   3.353   0.326   0.447
   60GLOH   H08 9011   3.273   0.351   0.601
   60GLOH    C2 9012   3.402   0.180   0.596
   60GLOH   H04 9013   3.413   0.178   0.706
   60GLOH    O2 9014   3.295   0.090   0.559
   60GLOH   H05 9015   3.255   0.121   0.473
   60GLOH    C3 9016   3.537   0.136   0.536
   60GLOH   H06 9017   3.559   0.035   0.572
   60GLOH   H07 9018   3.615   0.201   0.576
   60GLOH    O3 9019   3.540   0.138   0.392
   60GLOH   H01 9020   3.505   0.050   0.361
   61GLOH   H03 9021   2.883   8.796   1.380
   61GLOH    O1 9022   2.887   8.718   1.319
   61GLOH    C1 9023   2.928   8.769   1.190
   61GLOH   H02 9024   2.845   8.817   1.139
   61GLOH   H08 9025   2.962   8.688   1.126
   61GLOH    C2 9026   3.043   8.871   1.205
   61GLOH   H04 9027   3.122   8.825   1.267
   61GLOH    O2 9028   3.098   8.906   1.077
   61GLOH   H05 9029   3.029   8.956   1.022
   61GLOH    C3 9030   2.991   8.996   1.278
   61GLOH   H06 9031   2.921   9.048   1.212
   61GLOH   H07 9032   3.075   9.064   1.294
   61GLOH    O3 9033   2.927   8.965   1.404
   61GLOH   H01 9034   2.918   9.051   1.453
   62GLOH   H03 9035   2.899   9.096   2.169
   62GLOH    O1 9036   2.863   9.118   2.079
   62GLOH    C1 9037   2.763   9.019   2.047
   62GLOH   H02 9038   2.666   9.049   2.087
   62GLOH   H08 9039   2.788   8.924   2.094
   62GLOH    C2 9040   2.748   8.990   1.897
   62GLOH   H04 9041   2.843   8.949   1.860
   62GLOH    O2 9042   2.643   8.893   1.879
   62GLOH   H05 9043   2.633   8.876   1.781
   62GLOH    C3 9044   2.719   9.120   1.819
   62GLOH   H06 9045   2.798   9.191   1.842
   62GLOH   H07 9046   2.626   9.163   1.858
   62GLOH    O3 9047   2.710   9.102   1.676
   62GLOH   H01 9048   2.677   9.011   1.655
   63GLOH   H03 9049   5.061   0.132   1.197
   63GLOH    O1 9050   5.144   0.097   1.156
   63GLOH    C1 9051   5.111   9.975   1.087
   63GLOH   H02 9052   5.124   9.889   1.153
   63GLOH   H08 9053   5.178   9.960   1.002
   63GLOH    C2 9054   4.966   9.975   1.035
   63GLOH   H04 9055   4.957   0.056   0.961
   63GLOH    O2 9056   4.932   9.850   0.970
   63GLOH   H05 9057   4.851   9.810   1.014
   63GLOH    C3 9058   4.872   0.007   1.152
   63GLOH   H06 9059   4.890   9.935   1.233
   63GLOH   H07 9060   4.769   9.995   1.120
   63GLOH    O3 9061   4.893   0.141   1.200
   63GLOH   H01 9062   4.830   0.198   1.150
   64GLOH   H03 9063   4.254   9.936   2.771
   64GLOH    O1 9064   4.334   9.992   2.788
   64GLOH    C1 9065   4.345   0.023   0.046
   64GLOH   H02 9066   4.440   0.072   0.066
   64GLOH   H08 9067   4.343   9.932   0.106
   64GLOH    C2 9068   4.232   0.117   0.093
   64GLOH   H04 9069   4.136   0.075   0.062
   64GLOH    O2 9070   4.234   0.130   0.237
   64GLOH   H05 9071   4.141   0.113   0.270
   64GLOH    C3 9072   4.249   0.255   0.025
   64GLOH   H06 9073   4.254   0.240   2.799
   64GLOH   H07 9074   4.346   0.295   0.056
   64GLOH    O3 9075   4.144   0.347   0.058
   64GLOH   H01 9076   4.060   0.318   0.015
   65GLOH   H03 9077   3.987   8.003   0.885
   65GLOH    O1 9078   3.904   8.028   0.835
   65GLOH    C1 9079   3.942   8.128   0.738
   65GLOH   H02 9080   3.864   8.137   0.663
   65GLOH   H08 9081   4.032   8.097   0.686
   65GLOH    C2 9082   3.967   8.267   0.799
   65GLOH   H04 9083   3.873   8.303   0.843
   65GLOH    O2 9084   4.069   8.264   0.901
   65GLOH   H05 9085   4.027   8.236   0.987
   65GLOH    C3 9086   4.010   8.366   0.689
   65GLOH   H06 9087   4.101   8.328   0.642
   65GLOH   H07 9088   4.036   8.461   0.736
   65GLOH    O3 9089   3.906   8.385   0.592
   65GLOH   H01 9090   3.944   8.390   0.500
   66GLOH   H03 9091   3.837   8.577   0.155
   66GLOH    O1 9092   3.927   8.581   0.112
   66GLOH    C1 9093   4.011   8.674   0.184
   66GLOH   H02 9094   3.974   8.776   0.169
   66GLOH   H08 9095   4.111   8.672   0.143
   66GLOH    C2 9096   4.021   8.649   0.336
   66GLOH   H04 9097   4.092   8.723   0.376
   66GLOH    O2 9098   3.894   8.670   0.400
   66GLOH   H05 9099   3.826   8.614   0.354
   66GLOH    C3 9100   4.079   8.509   0.368
   66GLOH   H06 9101   4.118   8.512   0.469
   66GLOH   H07 9102   4.165   8.493   0.302
   66GLOH    O3 9103   3.987   8.400   0.355
   66GLOH   H01 9104   3.989   8.366   0.261
   67GLOH   H03 9105   3.987   9.394   1.900
   67GLOH    O1 9106   3.892   9.410   1.924
   67GLOH    C1 9107   3.808   9.350   1.823
   67GLOH   H02 9108   3.865   9.281   1.761
   67GLOH   H08 9109   3.768   9.427   1.757
   67GLOH    C2 9110   3.691   9.273   1.886
   67GLOH   H04 9111   3.636   9.343   1.952
   67GLOH    O2 9112   3.601   9.225   1.783
   67GLOH   H05 9113   3.511   9.214   1.825
   67GLOH    C3 9114   3.744   9.157   1.972
   67GLOH   H06 9115   3.811   9.197   2.047
   67GLOH   H07 9116   3.803   9.091   1.908
   67GLOH    O3 9117   3.639   9.081   2.035
   67GLOH   H01 9118   3.579   9.148   2.079
   68GLOH   H03 9119   3.568   9.789   1.476
   68GLOH    O1 9120   3.513   9.737   1.411
   68GLOH    C1 9121   3.569   9.604   1.406
   68GLOH   H02 9122   3.494   9.533   1.372
   68GLOH   H08 9123   3.601   9.572   1.505
   68GLOH    C2 9124   3.690   9.595   1.311
   68GLOH   H04 9125   3.771   9.657   1.354
   68GLOH    O2 9126   3.738   9.459   1.299
   68GLOH   H05 9127   3.685   9.398   1.361
   68GLOH    C3 9128   3.652   9.653   1.174
   68GLOH   H06 9129   3.553   9.616   1.146
   68GLOH   H07 9130   3.722   9.614   1.100
   68GLOH    O3 9131   3.654   9.797   1.171
   68GLOH   H01 9132   3.611   9.832   1.252
   69GLOH   H03 9133   4.369   0.791   2.093
   69GLOH    O1 9134   4.366   0.795   1.994
   69GLOH    C1 9135   4.444   0.683   1.948
   69GLOH   H02 9136   4.550   0.705   1.960
   69GLOH   H08 9137   4.427   0.666   1.841
   69GLOH    C2 9138   4.411   0.554   2.026
   69GLOH   H04 9139   4.303   0.536   2.017
   69GLOH    O2 9140   4.483   0.442   1.972
   69GLOH   H05 9141   4.452   0.426   1.878
   69GLOH    C3 9142   4.444   0.575   2.175
   69GLOH   H06 9143   4.552   0.586   2.185
   69GLOH   H07 9144   4.416   0.484   2.229
   69GLOH    O3 9145   4.376   0.689   2.230
   69GLOH   H01 9146   4.340   0.662   2.318
   70GLOH   H03 9147   2.824   8.436   2.221
   70GLOH    O1 9148   2.879   8.478   2.292
   70GLOH    C1 9149   2.961   8.377   2.354
   70GLOH   H02 9150   2.923   8.277   2.333
   70GLOH   H08 9151   2.959   8.389   2.462
   70GLOH    C2 9152   3.107   8.384   2.307
   70GLOH   H04 9153   3.150   8.479   2.341
   70GLOH    O2 9154   3.182   8.275   2.365
   70GLOH   H05 9155   3.207   8.296   2.459
   70GLOH    C3 9156   3.113   8.382   2.152
   70GLOH   H06 9157   3.047   8.460   2.114
   70GLOH   H07 9158   3.071   8.287   2.119
   70GLOH    O3 9159   3.245   8.398   2.098
   70GLOH   H01 9160   3.238   8.401   1.999
   71GLOH   H03 9161   3.979   8.975   1.397
   71GLOH    O1 9162   3.990   8.884   1.438
   71GLOH    C1 9163   4.005   8.788   1.331
   71GLOH   H02 9164   4.022   8.689   1.372
   71GLOH   H08 9165   4.092   8.814   1.271
   71GLOH    C2 9166   3.884   8.783   1.236
   71GLOH   H04 9167   3.880   8.879   1.182
   71GLOH    O2 9168   3.899   8.678   1.138
   71GLOH   H05 9169   3.882   8.714   1.047
   71GLOH    C3 9170   3.751   8.769   1.313
   71GLOH   H06 9171   3.673   8.753   1.239
   71GLOH   H07 9172   3.730   8.865   1.360
   71GLOH    O3 9173   3.746   8.663   1.410
   71GLOH   H01 9174   3.784   8.580   1.370
   72GLOH   H03 9175   3.163   7.904   1.681
   72GLOH    O1 9176   3.230   7.863   1.621
   72GLOH    C1 9177   3.344   7.951   1.612
   72GLOH   H02 9178   3.435   7.893   1.594
   72GLOH   H08 9179   3.359   8.004   1.706
   72GLOH    C2 9180   3.329   8.055   1.498
   72GLOH   H04 9181   3.242   8.118   1.521
   72GLOH    O2 9182   3.446   8.139   1.489
   72GLOH   H05 9183   3.431   8.211   1.421
   72GLOH    C3 9184   3.302   7.981   1.366
   72GLOH   H06 9185   3.386   7.914   1.347
   72GLOH   H07 9186   3.298   8.053   1.284
   72GLOH    O3 9187   3.181   7.904   1.374
   72GLOH   H01 9188   3.184   7.862   1.464
   73GLOH   H03 9189   3.591   1.040   2.075
   73GLOH    O1 9190   3.545   0.970   2.129
   73GLOH    C1 9191   3.622   0.958   2.251
   73GLOH   H02 9192   3.701   0.883   2.239
   73GLOH   H08 9193   3.558   0.924   2.332
   73GLOH    C2 9194   3.686   1.091   2.294
   73GLOH   H04 9195   3.607   1.164   2.314
   73GLOH    O2 9196   3.764   1.072   2.414
   73GLOH   H05 9197   3.709   1.026   2.484
   73GLOH    C3 9198   3.777   1.145   2.182
   73GLOH   H06 9199   3.867   1.083   2.177
   73GLOH   H07 9200   3.810   1.245   2.210
   73GLOH    O3 9201   3.710   1.149   2.054
   73GLOH   H01 9202   3.776   1.133   1.982
   74GLOH   H03 9203   3.076   7.986   0.635
   74GLOH    O1 9204   3.055   7.999   0.538
   74GLOH    C1 9205   2.926   7.941   0.517
   74GLOH   H02 9206   2.900   7.951   0.412
   74GLOH   H08 9207   2.850   7.996   0.573
   74GLOH    C2 9208   2.917   7.792   0.552
   74GLOH   H04 9209   2.960   7.777   0.653
   74GLOH    O2 9210   2.779   7.749   0.555
   74GLOH   H05 9211   2.731   7.783   0.474
   74GLOH    C3 9212   2.998   7.707   0.453
   74GLOH   H06 9213   2.965   7.733   0.352
   74GLOH   H07 9214   2.973   7.602   0.467
   74GLOH    O3 9215   3.140   7.726   0.464
   74GLOH   H01 9216   3.188   7.654   0.420
   75GLOH   H03 9217   3.857   0.143   1.534
   75GLOH    O1 9218   3.839   0.229   1.579
   75GLOH    C1 9219   3.755   0.315   1.499
   75GLOH   H02 9220   3.721   0.263   1.410
   75GLOH   H08 9221   3.811   0.402   1.465
   75GLOH    C2 9222   3.631   0.363   1.577
   75GLOH   H04 9223   3.664   0.407   1.672
   75GLOH    O2 9224   3.563   0.463   1.499
   75GLOH   H05 9225   3.489   0.505   1.551
   75GLOH    C3 9226   3.538   0.244   1.606
   75GLOH   H06 9227   3.462   0.278   1.677
   75GLOH   H07 9228   3.595   0.166   1.657
   75GLOH    O3 9229   3.475   0.190   1.488
   75GLOH   H01 9230   3.409   0.259   1.460
   76GLOH   H03 9231   3.934   0.826   2.172
   76GLOH    O1 9232   3.928   0.861   2.080
   76GLOH    C1 9233   4.033   0.805   1.999
   76GLOH   H02 9234   3.998   0.715   1.948
   76GLOH   H08 9235   4.118   0.774   2.061
   76GLOH    C2 9236   4.086   0.904   1.893
   76GLOH   H04 9237   4.128   0.991   1.946
   76GLOH    O2 9238   4.190   0.843   1.815
   76GLOH   H05 9239   4.268   0.828   1.877
   76GLOH    C3 9240   3.970   0.953   1.805
   76GLOH   H06 9241   3.930   0.869   1.749
   76GLOH   H07 9242   4.008   1.025   1.733
   76GLOH    O3 9243   3.867   1.013   1.888
   76GLOH   H01 9244   3.871   0.957   1.971
   77GLOH   H03 9245   4.118   9.995   2.284
   77GLOH    O1 9246   4.211   9.971   2.310
   77GLOH    C1 9247   4.294   9.970   2.192
   77GLOH   H02 9248   4.265   0.051   2.124
   77GLOH   H08 9249   4.281   9.877   2.137
   77GLOH    C2 9250   4.443   9.987   2.228
   77GLOH   H04 9251   4.470   9.908   2.299
   77GLOH    O2 9252   4.526   9.974   2.110
   77GLOH   H05 9253   4.519   0.057   2.054
   77GLOH    C3 9254   4.465   0.123   2.296
   77GLOH   H06 9255   4.455   0.203   2.222
   77GLOH   H07 9256   4.568   0.127   2.333
   77GLOH    O3 9257   4.372   0.143   2.404
   77GLOH   H01 9258   4.308   0.068   2.398
   78GLOH   H03 9259   2.475   8.962   1.295
   78GLOH    O1 9260   2.491   9.056   1.265
   78GLOH    C1 9261   2.628   9.091   1.290
   78GLOH   H02 9262   2.695   9.033   1.226
   78GLOH   H08 9263   2.655   9.070   1.393
   78GLOH    C2 9264   2.654   9.241   1.263
   78GLOH   H04 9265   2.591   9.299   1.332
   78GLOH    O2 9266   2.792   9.277   1.285
   78GLOH   H05 9267   2.821   9.246   1.376
   78GLOH    C3 9268   2.611   9.276   1.119
   78GLOH   H06 9269   2.676   9.224   1.049
   78GLOH   H07 9270   2.625   9.383   1.103
   78GLOH    O3 9271   2.474   9.240   1.097
   78GLOH   H01 9272   2.458   9.165   1.160
   79GLOH   H03 9273   4.053   8.844   1.569
   79GLOH    O1 9274   4.089   8.818   1.658
   79GLOH    C1 9275   4.031   8.906   1.756
   79GLOH   H02 9276   3.996   8.848   1.842
   79GLOH   H08 9277   3.944   8.958   1.715
   79GLOH    C2 9278   4.130   9.012   1.808
   79GLOH   H04 9279   4.172   9.067   1.721
   79GLOH    O2 9280   4.064   9.105   1.896
   79GLOH   H05 9281   4.097   9.197   1.877
   79GLOH    C3 9282   4.246   8.944   1.883
   79GLOH   H06 9283   4.207   8.904   1.977
   79GLOH   H07 9284   4.320   9.020   1.909
   79GLOH    O3 9285   4.307   8.840   1.805
   79GLOH   H01 9286   4.243   8.817   1.733
   80GLOH   H03 9287   3.130   8.035   0.406
   80GLOH    O1 9288   3.180   8.074   0.330
   80GLOH    C1 9289   3.294   7.991   0.299
   80GLOH   H02 9290   3.260   7.893   0.266
   80GLOH   H08 9291   3.352   7.974   0.390
   80GLOH    C2 9292   3.386   8.051   0.191
   80GLOH   H04 9293   3.410   8.154   0.221
   80GLOH    O2 9294   3.509   7.976   0.186
   80GLOH   H05 9295   3.555   7.995   0.102
   80GLOH    C3 9296   3.318   8.055   0.053
   80GLOH   H06 9297   3.226   8.113   0.063
   80GLOH   H07 9298   3.288   7.954   0.026
   80GLOH    O3 9299   3.401   8.113   2.830
   80GLOH   H01 9300   3.451   8.043   2.781
   81GLOH   H03 9301   2.617   9.183   2.704
   81GLOH    O1 9302   2.620   9.107   2.640
   81GLOH    C1 9303   2.718   9.141   2.540
   81GLOH   H02 9304   2.674   9.204   2.464
   81GLOH   H08 9305   2.752   9.050   2.491
   81GLOH    C2 9306   2.841   9.213   2.600
   81GLOH   H04 9307   2.885   9.147   2.677
   81GLOH    O2 9308   2.939   9.238   2.497
   81GLOH   H05 9309   2.997   9.315   2.524
   81GLOH    C3 9310   2.797   9.344   2.668
   81GLOH   H06 9311   2.766   9.414   2.590
   81GLOH   H07 9312   2.884   9.387   2.718
   81GLOH    O3 9313   2.690   9.324   2.763
   81GLOH   H01 9314   2.694   9.393   2.832
   82GLOH   H03 9315   3.074   7.923   0.876
   82GLOH    O1 9316   3.095   7.956   0.784
   82GLOH    C1 9317   3.230   8.007   0.783
   82GLOH   H02 9318   3.272   8.001   0.683
   82GLOH   H08 9319   3.294   7.946   0.848
   82GLOH    C2 9320   3.238   8.153   0.831
   82GLOH   H04 9321   3.200   8.157   0.935
   82GLOH    O2 9322   3.375   8.197   0.830
   82GLOH   H05 9323   3.402   8.210   0.734
   82GLOH    C3 9324   3.151   8.246   0.744
   82GLOH   H06 9325   3.167   8.220   0.640
   82GLOH   H07 9326   3.186   8.348   0.756
   82GLOH    O3 9327   3.010   8.239   0.774
   82GLOH   H01 9328   2.997   8.226   0.872
   83GLOH   H03 9329   3.971   9.980   1.418
   83GLOH    O1 9330   3.908   0.004   1.491
   83GLOH    C1 9331   3.914   9.899   1.589
   83GLOH   H02 9332   3.984   9.927   1.668
   83GLOH   H08 9333   3.952   9.807   1.544
   83GLOH    C2 9334   3.778   9.870   1.654
   83GLOH   H04 9335   3.753   9.952   1.723
   83GLOH    O2 9336   3.675   9.859   1.554
   83GLOH   H05 9337   3.687   9.933   1.488
   83GLOH    C3 9338   3.786   9.739   1.735
   83GLOH   H06 9339   3.826   9.661   1.670
   83GLOH   H07 9340   3.686   9.707   1.763
   83GLOH    O3 9341   3.869   9.752   1.852
   83GLOH   H01 9342   3.964   9.738   1.826
   84GLOH   H03 9343   4.005   9.962   0.325
   84GLOH    O1 9344   3.997   0.060   0.308
   84GLOH    C1 9345   3.933   0.118   0.424
   84GLOH   H02 9346   3.829   0.085   0.430
   84GLOH   H08 9347   3.932   0.226   0.415
   84GLOH    C2 9348   4.004   0.082   0.556
   84GLOH   H04 9349   4.013   9.972   0.561
   84GLOH    O2 9350   4.137   0.137   0.560
   84GLOH   H05 9351   4.198   0.066   0.526
   84GLOH    C3 9352   3.921   0.125   0.677
   84GLOH   H06 9353   3.902   0.232   0.670
   84GLOH   H07 9354   3.979   0.109   0.768
   84GLOH    O3 9355   3.796   0.053   0.684
   84GLOH   H01 9356   3.743   0.090   0.760
   85GLOH   H03 9357   4.282   9.476   0.579
   85GLOH    O1 9358   4.322   9.409   0.642
   85GLOH    C1 9359   4.222   9.373   0.738
   85GLOH   H02 9360   4.258   9.292   0.802
   85GLOH   H08 9361   4.132   9.336   0.688
   85GLOH    C2 9362   4.181   9.492   0.828
   85GLOH   H04 9363   4.144   9.572   0.763
   85GLOH    O2 9364   4.078   9.451   0.919
   85GLOH   H05 9365   4.012   9.393   0.870
   85GLOH    C3 9366   4.304   9.544   0.905
   85GLOH   H06 9367   4.390   9.544   0.837
   85GLOH   H07 9368   4.327   9.472   0.983
   85GLOH    O3 9369   4.287   9.675   0.961
   85GLOH   H01 9370   4.375   9.720   0.951
   86GLOH   H03 9371   2.929   8.716   1.634
   86GLOH    O1 9372   2.834   8.690   1.639
   86GLOH    C1 9373   2.821   8.551   1.605
   86GLOH   H02 9374   2.919   8.505   1.592
   86GLOH   H08 9375   2.770   8.541   1.509
   86GLOH    C2 9376   2.743   8.469   1.709
   86GLOH   H04 9377   2.738   8.365   1.672
   86GLOH    O2 9378   2.807   8.466   1.839
   86GLOH   H05 9379   2.786   8.552   1.888
   86GLOH    C3 9380   2.598   8.519   1.721
   86GLOH   H06 9381   2.600   8.624   1.753
   86GLOH   H07 9382   2.549   8.463   1.801
   86GLOH    O3 9383   2.524   8.505   1.599
   86GLOH   H01 9384   2.513   8.408   1.581
   87GLOH   H03 9385   3.273   9.711   0.473
   87GLOH    O1 9386   3.370   9.729   0.480
   87GLOH    C1 9387   3.427   9.652   0.588
   87GLOH   H02 9388   3.527   9.620   0.561
   87GLOH   H08 9389   3.369   9.561   0.605
   87GLOH    C2 9390   3.434   9.729   0.722
   87GLOH   H04 9391   3.473   9.830   0.701
   87GLOH    O2 9392   3.306   9.741   0.786
   87GLOH   H05 9393   3.247   9.801   0.731
   87GLOH    C3 9394   3.534   9.659   0.816
   87GLOH   H06 9395   3.506   9.554   0.825
   87GLOH   H07 9396   3.524   9.703   0.916
   87GLOH    O3 9397   3.670   9.670   0.770
   87GLOH   H01 9398   3.720   9.721   0.840
   88GLOH   H03 9399   3.794   9.649   2.266
   88GLOH    O1 9400   3.837   9.636   2.356
   88GLOH    C1 9401   3.962   9.570   2.330
   88GLOH   H02 9402   4.026   9.573   2.419
   88GLOH   H08 9403   4.016   9.623   2.251
   88GLOH    C2 9404   3.946   9.423   2.286
   88GLOH   H04 9405   3.884   9.420   2.195
   88GLOH    O2 9406   4.075   9.365   2.257
   88GLOH   H05 9407   4.062   9.271   2.224
   88GLOH    C3 9408   3.874   9.343   2.396
   88GLOH   H06 9409   3.937   9.341   2.485
   88GLOH   H07 9410   3.863   9.239   2.363
   88GLOH    O3 9411   3.746   9.399   2.426
   88GLOH   H01 9412   3.754   9.496   2.415
   89GLOH   H03 9413   3.998   8.235   1.990
   89GLOH    O1 9414   3.961   8.179   2.063
   89GLOH    C1 9415   3.827   8.142   2.026
   89GLOH   H02 9416   3.775   8.226   1.979
   89GLOH   H08 9417   3.771   8.118   2.116
   89GLOH    C2 9418   3.820   8.021   1.933
   89GLOH   H04 9419   3.870   7.937   1.983
   89GLOH    O2 9420   3.682   7.984   1.910
   89GLOH   H05 9421   3.643   8.040   1.838
   89GLOH    C3 9422   3.896   8.047   1.801
   89GLOH   H06 9423   3.890   7.956   1.740
   89GLOH   H07 9424   4.001   8.061   1.825
   89GLOH    O3 9425   3.847   8.160   1.726
   89GLOH   H01 9426   3.748   8.153   1.719
   90GLOH   H03 9427   3.485   0.330   0.895
   90GLOH    O1 9428   3.493   0.416   0.847
   90GLOH    C1 9429   3.532   0.515   0.945
   90GLOH   H02 9430   3.632   0.493   0.982
   90GLOH   H08 9431   3.465   0.512   1.031
   90GLOH    C2 9432   3.532   0.657   0.887
   90GLOH   H04 9433   3.434   0.677   0.843
   90GLOH    O2 9434   3.556   0.752   0.994
   90GLOH   H05 9435   3.607   0.831   0.959
   90GLOH    C3 9436   3.639   0.668   0.777
   90GLOH   H06 9437   3.627   0.584   0.709
   90GLOH   H07 9438   3.738   0.658   0.822
   90GLOH    O3 9439   3.630   0.791   0.703
   90GLOH   H01 9440   3.705   0.788   0.638
   91GLOH   H03 9441   3.884   0.407   0.842
   91GLOH    O1 9442   3.835   0.358   0.914
   91GLOH    C1 9443   3.889   0.397   1.041
   91GLOH   H02 9444   3.833   0.481   1.081
   91GLOH   H08 9445   3.992   0.432   1.030
   91GLOH    C2 9446   3.886   0.285   1.147
   91GLOH   H04 9447   3.928   0.326   1.240
   91GLOH    O2 9448   3.752   0.238   1.174
   91GLOH   H05 9449   3.698   0.320   1.195
   91GLOH    C3 9450   3.979   0.171   1.100
   91GLOH   H06 9451   3.947   0.140   1.000
   91GLOH   H07 9452   3.965   0.086   1.166
   91GLOH    O3 9453   4.116   0.213   1.098
   91GLOH   H01 9454   4.167   0.151   1.039
   92GLOH   H03 9455   3.361   8.363   2.191
   92GLOH    O1 9456   3.446   8.330   2.231
   92GLOH    C1 9457   3.480   8.210   2.160
   92GLOH   H02 9458   3.586   8.189   2.173
   92GLOH   H08 9459   3.464   8.222   2.053
   92GLOH    C2 9460   3.400   8.087   2.207
   92GLOH   H04 9461   3.421   8.071   2.314
   92GLOH    O2 9462   3.259   8.106   2.190
   92GLOH   H05 9463   3.232   8.176   2.257
   92GLOH    C3 9464   3.446   7.961   2.131
   92GLOH   H06 9465   3.424   7.975   2.025
   92GLOH   H07 9466   3.387   7.876   2.165
   92GLOH    O3 9467   3.587   7.934   2.149
   92GLOH   H01 9468   3.629   7.939   2.059
   93GLOH   H03 9469   2.962   0.341   1.695
   93GLOH    O1 9470   3.001   0.422   1.653
   93GLOH    C1 9471   3.074   0.381   1.536
   93GLOH   H02 9472   3.034   0.432   1.447
   93GLOH   H08 9473   3.063   0.274   1.518
   93GLOH    C2 9474   3.223   0.414   1.549
   93GLOH   H04 9475   3.260   0.369   1.642
   93GLOH    O2 9476   3.296   0.358   1.437
   93GLOH   H05 9477   3.273   0.408   1.353
   93GLOH    C3 9478   3.242   0.567   1.557
   93GLOH   H06 9479   3.169   0.608   1.627
   93GLOH   H07 9480   3.218   0.609   1.459
   93GLOH    O3 9481   3.375   0.605   1.597
   93GLOH   H01 9482   3.403   0.686   1.548
   94GLOH   H03 9483   3.671   0.849   2.612
   94GLOH    O1 9484   3.633   0.936   2.589
   94GLOH    C1 9485   3.503   0.950   2.650
   94GLOH   H02 9486   3.503   0.911   2.751
   94GLOH   H08 9487   3.430   0.892   2.593
   94GLOH    C2 9488   3.455   1.096   2.654
   94GLOH   H04 9489   3.441   1.130   2.550
   94GLOH    O2 9490   3.329   1.107   2.725
   94GLOH   H05 9491   3.259   1.058   2.678
   94GLOH    C3 9492   3.562   1.188   2.719
   94GLOH   H06 9493   3.521   1.289   2.724
   94GLOH   H07 9494   3.648   1.192   2.652
   94GLOH    O3 9495   3.603   1.144   2.850
   94GLOH   H01 9496   3.660   1.065   2.839
   95GLOH   H03 9497   3.303   9.916   1.680
   95GLOH    O1 9498   3.301   9.876   1.771
   95GLOH    C1 9499   3.371   9.750   1.771
   95GLOH   H02 9500   3.459   9.754   1.706
   95GLOH   H08 9501   3.306   9.671   1.732
   95GLOH    C2 9502   3.416   9.710   1.913
   95GLOH   H04 9503   3.327   9.702   1.977
   95GLOH    O2 9504   3.485   9.583   1.914
   95GLOH   H05 9505   3.469   9.534   1.827
   95GLOH    C3 9506   3.508   9.818   1.973
   95GLOH   H06 9507   3.606   9.814   1.924
   95GLOH   H07 9508   3.525   9.795   2.078
   95GLOH    O3 9509   3.450   9.948   1.959
   95GLOH   H01 9510   3.383   9.940   1.887
   96GLOH   H03 9511   2.908   9.253   0.285
   96GLOH    O1 9512   2.829   9.201   0.315
   96GLOH    C1 9513   2.761   9.275   0.418
   96GLOH   H02 9514   2.700   9.207   0.477
   96GLOH   H08 9515   2.693   9.348   0.374
   96GLOH    C2 9516   2.853   9.348   0.518
   96GLOH   H04 9517   2.918   9.272   0.564
   96GLOH    O2 9518   2.937   9.445   0.452
   96GLOH   H05 9519   3.026   9.404   0.441
   96GLOH    C3 9520   2.770   9.412   0.630
   96GLOH   H06 9521   2.682   9.460   0.585
   96GLOH   H07 9522   2.828   9.491   0.678
   96GLOH    O3 9523   2.728   9.315   0.727
   96GLOH   H01 9524   2.808   9.296   0.783
   97GLOH   H03 9525   2.782   9.774   2.174
   97GLOH    O1 9526   2.804   9.682   2.207
   97GLOH    C1 9527   2.811   9.593   2.094
   97GLOH   H02 9528   2.887   9.629   2.024
   97GLOH   H08 9529   2.716   9.591   2.040
   97GLOH    C2 9530   2.847   9.449   2.135
   97GLOH   H04 9531   2.769   9.411   2.203
   97GLOH    O2 9532   2.855   9.365   2.018
   97GLOH   H05 9533   2.861   9.269   2.045
   97GLOH    C3 9534   2.981   9.450   2.212
   97GLOH   H06 9535   3.061   9.469   2.140
   97GLOH   H07 9536   2.999   9.350   2.253
   97GLOH    O3 9537   2.984   9.550   2.316
   97GLOH   H01 9538   2.913   9.614   2.289
   98GLOH   H03 9539   3.888   0.687   2.339
   98GLOH    O1 9540   3.946   0.764   2.312
   98GLOH    C1 9541   4.082   0.716   2.312
   98GLOH   H02 9542   4.150   0.797   2.287
   98GLOH   H08 9543   4.095   0.639   2.235
   98GLOH    C2 9544   4.126   0.656   2.447
   98GLOH   H04 9545   4.056   0.575   2.474
   98GLOH    O2 9546   4.258   0.600   2.435
   98GLOH   H05 9547   4.250   0.500   2.431
   98GLOH    C3 9548   4.120   0.763   2.558
   98GLOH   H06 9549   4.192   0.841   2.535
   98GLOH   H07 9550   4.151   0.717   2.652
   98GLOH    O3 9551   3.988   0.818   2.571
   98GLOH   H01 9552   3.956   0.839   2.481
   99GLOH   H03 9553   3.759   0.036   2.660
   99GLOH    O1 9554   3.819   0.074   2.728
   99GLOH    C1 9555   3.908   9.972   2.777
   99GLOH   H02 9556   3.853   9.879   2.795
   99GLOH   H08 9557   3.949   0.002   2.873
   99GLOH    C2 9558   4.025   9.942   2.681
   99GLOH   H04 9559   4.075   0.037   2.656
   99GLOH    O2 9560   4.120   9.854   2.745
   99GLOH   H05 9561   4.085   9.763   2.740
   99GLOH    C3 9562   3.974   9.878   2.550
   99GLOH   H06 9563   4.060   9.854   2.487
   99GLOH   H07 9564   3.916   9.953   2.496
   99GLOH    O3 9565   3.896   9.760   2.574
   99GLOH   H01 9566   3.870   9.718   2.488
  100GLOH   H03 9567   3.225   8.216   0.355
  100GLOH    O1 9568   3.270   8.300   0.384
  100GLOH    C1 9569   3.272   8.392   0.272
  100GLOH   H02 9570   3.194   8.366   0.200
  100GLOH   H08 9571   3.366   8.386   0.219
  100GLOH    C2 9572   3.249   8.537   0.318
  100GLOH   H04 9573   3.311   8.555   0.408
  100GLOH    O2 9574   3.287   8.630   0.214
  100GLOH   H05 9575   3.264   8.594   0.125
  100GLOH    C3 9576   3.101   8.553   0.357
  100GLOH   H06 9577   3.074   8.471   0.424
  100GLOH   H07 9578   3.042   8.540   0.266
  100GLOH    O3 9579   3.070   8.679   0.419
  100GLOH   H01 9580   3.113   8.680   0.508
  101GLOH   H03 9581   3.729   9.281   2.790
  101GLOH    O1 9582   3.797   9.257   2.855
  101GLOH    C1 9583   3.757   9.294   0.106
  101GLOH   H02 9584   3.815   9.237   0.180
  101GLOH   H08 9585   3.652   9.268   0.123
  101GLOH    C2 9586   3.775   9.444   0.135
  101GLOH   H04 9587   3.712   9.500   0.065
  101GLOH    O2 9588   3.734   9.474   0.270
  101GLOH   H05 9589   3.718   9.572   0.281
  101GLOH    C3 9590   3.922   9.484   0.109
  101GLOH   H06 9591   3.946   9.461   0.005
  101GLOH   H07 9592   3.987   9.422   0.171
  101GLOH    O3 9593   3.946   9.623   0.135
  101GLOH   H01 9594   3.876   9.677   0.093
  102GLOH   H03 9595   2.415   8.796   1.428
  102GLOH    O1 9596   2.454   8.822   1.340
  102GLOH    C1 9597   2.540   8.713   1.299
  102GLOH   H02 9598   2.502   8.618   1.337
  102GLOH   H08 9599   2.639   8.727   1.342
  102GLOH    C2 9600   2.554   8.703   1.147
  102GLOH   H04 9601   2.604   8.794   1.110
  102GLOH    O2 9602   2.635   8.588   1.116
  102GLOH   H05 9603   2.674   8.601   1.024
  102GLOH    C3 9604   2.415   8.694   1.081
  102GLOH   H06 9605   2.357   8.782   1.110
  102GLOH   H07 9606   2.363   8.608   1.124
  102GLOH    O3 9607   2.419   8.683   0.938
  102GLOH   H01 9608   2.419   8.774   0.898
  103GLOH   H03 9609   3.892   8.274   1.631
  103GLOH    O1 9610   3.908   8.349   1.568
  103GLOH    C1 9611   3.947   8.464   1.646
  103GLOH   H02 9612   3.888   8.472   1.737
  103GLOH   H08 9613   3.928   8.555   1.588
  103GLOH    C2 9614   4.096   8.462   1.684
  103GLOH   H04 9615   4.156   8.456   1.592
  103GLOH    O2 9616   4.133   8.582   1.755
  103GLOH   H05 9617   4.110   8.664   1.704
  103GLOH    C3 9618   4.128   8.338   1.770
  103GLOH   H06 9619   4.235   8.336   1.789
  103GLOH   H07 9620   4.104   8.250   1.712
  103GLOH    O3 9621   4.056   8.335   1.895
  103GLOH   H01 9622   4.064   8.424   1.938
  104GLOH   H03 9623   3.829   0.948   0.387
  104GLOH    O1 9624   3.893   0.896   0.330
  104GLOH    C1 9625   4.022   0.907   0.393
  104GLOH   H02 9626   4.032   1.003   0.445
  104GLOH   H08 9627   4.101   0.904   0.318
  104GLOH    C2 9628   4.049   0.794   0.494
  104GLOH   H04 9629   4.049   0.699   0.439
  104GLOH    O2 9630   4.178   0.810   0.556
  104GLOH   H05 9631   4.195   0.730   0.612
  104GLOH    C3 9632   3.938   0.788   0.600
  104GLOH   H06 9633   3.917   0.890   0.634
  104GLOH   H07 9634   3.974   0.734   0.688
  104GLOH    O3 9635   3.818   0.728   0.549
  104GLOH   H01 9636   3.840   0.637   0.515
  105GLOH   H03 9637   2.578   8.718   2.530
  105GLOH    O1 9638   2.612   8.631   2.498
  105GLOH    C1 9639   2.721   8.594   2.585
  105GLOH   H02 9640   2.817   8.619   2.539
  105GLOH   H08 9641   2.721   8.486   2.600
  105GLOH    C2 9642   2.714   8.661   2.724
  105GLOH   H04 9643   2.624   8.625   2.775
  105GLOH    O2 9644   2.830   8.630   2.803
  105GLOH   H05 9645   2.812   8.640   0.016
  105GLOH    C3 9646   2.702   8.814   2.708
  105GLOH   H06 9647   2.797   8.851   2.667
  105GLOH   H07 9648   2.692   8.858   2.807
  105GLOH    O3 9649   2.593   8.855   2.624
  105GLOH   H01 9650   2.588   8.954   2.629
  106GLOH   H03 9651   3.685   9.380   1.160
  106GLOH    O1 9652   3.653   9.370   1.067
  106GLOH    C1 9653   3.765   9.393   0.980
  106GLOH   H02 9654   3.851   9.431   1.037
  106GLOH   H08 9655   3.739   9.471   0.908
  106GLOH    C2 9656   3.811   9.268   0.903
  106GLOH   H04 9657   3.722   9.220   0.857
  106GLOH    O2 9658   3.904   9.308   0.800
  106GLOH   H05 9659   3.856   9.361   0.729
  106GLOH    C3 9660   3.881   9.167   0.995
  106GLOH   H06 9661   3.976   9.209   1.028
  106GLOH   H07 9662   3.905   9.079   0.936
  106GLOH    O3 9663   3.803   9.127   1.110
  106GLOH   H01 9664   3.727   9.071   1.079
  107GLOH   H03 9665   3.754   8.759   1.536
  107GLOH    O1 9666   3.736   8.824   1.609
  107GLOH    C1 9667   3.754   8.762   1.737
  107GLOH   H02 9668   3.770   8.840   1.812
  107GLOH   H08 9669   3.843   8.700   1.738
  107GLOH    C2 9670   3.634   8.676   1.780
  107GLOH   H04 9671   3.621   8.595   1.707
  107GLOH    O2 9672   3.658   8.620   1.911
  107GLOH   H05 9673   3.668   8.698   1.974
  107GLOH    C3 9674   3.506   8.762   1.781
  107GLOH   H06 9675   3.493   8.806   1.682
  107GLOH   H07 9676   3.520   8.845   1.850
  107GLOH    O3 9677   3.389   8.687   1.817
  107GLOH   H01 9678   3.356   8.638   1.737
  108GLOH   H03 9679   3.913   8.593   2.321
  108GLOH    O1 9680   3.989   8.641   2.280
  108GLOH    C1 9681   3.975   8.783   2.301
  108GLOH   H02 9682   4.058   8.836   2.252
  108GLOH   H08 9683   3.981   8.807   2.407
  108GLOH    C2 9684   3.843   8.840   2.245
  108GLOH   H04 9685   3.759   8.787   2.293
  108GLOH    O2 9686   3.834   8.981   2.274
  108GLOH   H05 9687   3.747   8.998   2.316
  108GLOH    C3 9688   3.835   8.817   2.093
  108GLOH   H06 9689   3.869   8.717   2.069
  108GLOH   H07 9690   3.904   8.886   2.044
  108GLOH    O3 9691   3.702   8.837   2.040
  108GLOH   H01 9692   3.679   8.933   2.045
  109GLOH   H03 9693   4.495   9.961   1.470
  109GLOH    O1 9694   4.423   0.023   1.439
  109GLOH    C1 9695   4.307   9.941   1.417
  109GLOH   H02 9696   4.266   9.906   1.512
  109GLOH   H08 9697   4.333   9.852   1.360
  109GLOH    C2 9698   4.196   0.016   1.341
  109GLOH   H04 9699   4.236   0.042   1.242
  109GLOH    O2 9700   4.080   9.931   1.324
  109GLOH   H05 9701   4.098   9.868   1.247
  109GLOH    C3 9702   4.161   0.146   1.415
  109GLOH   H06 9703   4.126   0.121   1.515
  109GLOH   H07 9704   4.079   0.196   1.363
  109GLOH    O3 9705   4.275   0.232   1.423
  109GLOH   H01 9706   4.352   0.170   1.428
  110GLOH   H03 9707   3.376   0.997   1.050
  110GLOH    O1 9708   3.417   1.007   1.140
  110GLOH    C1 9709   3.330   0.948   1.239
  110GLOH   H02 9710   3.226   0.961   1.210
  110GLOH   H08 9711   3.343   0.999   1.334
  110GLOH    C2 9712   3.356   0.798   1.261
  110GLOH   H04 9713   3.277   0.762   1.328
  110GLOH    O2 9714   3.350   0.721   1.139
  110GLOH   H05 9715   3.433   0.739   1.085
  110GLOH    C3 9716   3.490   0.776   1.334
  110GLOH   H06 9717   3.565   0.841   1.288
  110GLOH   H07 9718   3.523   0.673   1.317
  110GLOH    O3 9719   3.483   0.803   1.475
  110GLOH   H01 9720   3.576   0.796   1.510
  111GLOH   H03 9721   3.636   0.251   0.360
  111GLOH    O1 9722   3.696   0.328   0.336
  111GLOH    C1 9723   3.647   0.384   0.213
  111GLOH   H02 9724   3.675   0.489   0.206
  111GLOH   H08 9725   3.538   0.380   0.209
  111GLOH    C2 9726   3.702   0.312   0.088
  111GLOH   H04 9727   3.675   0.205   0.094
  111GLOH    O2 9728   3.642   0.369   2.852
  111GLOH   H05 9729   3.674   0.323   2.772
  111GLOH    C3 9730   3.856   0.322   0.085
  111GLOH   H06 9731   3.895   0.267   0.172
  111GLOH   H07 9732   3.882   0.427   0.101
  111GLOH    O3 9733   3.920   0.274   2.847
  111GLOH   H01 9734   3.872   0.196   2.810
  112GLOH   H03 9735   3.311   8.248   2.683
  112GLOH    O1 9736   3.289   8.315   2.615
  112GLOH    C1 9737   3.408   8.357   2.546
  112GLOH   H02 9738   3.382   8.421   2.461
  112GLOH   H08 9739   3.460   8.271   2.505
  112GLOH    C2 9740   3.506   8.436   2.635
  112GLOH   H04 9741   3.531   8.376   2.723
  112GLOH    O2 9742   3.627   8.467   2.562
  112GLOH   H05 9743   3.688   8.389   2.558
  112GLOH    C3 9744   3.439   8.565   2.686
  112GLOH   H06 9745   3.411   8.627   2.600
  112GLOH   H07 9746   3.512   8.622   2.744
  112GLOH    O3 9747   3.323   8.536   2.767
  112GLOH   H01 9748   3.272   8.466   2.719
  113GLOH   H03 9749   2.909   8.567   1.306
  113GLOH    O1 9750   2.938   8.471   1.304
  113GLOH    C1 9751   2.925   8.421   1.169
  113GLOH   H02 9752   2.992   8.473   1.102
  113GLOH   H08 9753   2.824   8.436   1.132
  113GLOH    C2 9754   2.956   8.270   1.159
  113GLOH   H04 9755   2.879   8.216   1.216
  113GLOH    O2 9756   2.952   8.226   1.022
  113GLOH   H05 9757   2.860   8.187   1.006
  113GLOH    C3 9758   3.092   8.239   1.223
  113GLOH   H06 9759   3.170   8.289   1.165
  113GLOH   H07 9760   3.111   8.132   1.217
  113GLOH    O3 9761   3.094   8.285   1.359
  113GLOH   H01 9762   3.038   8.368   1.355
  114GLOH   H03 9763   3.028   9.495   2.448
  114GLOH    O1 9764   3.066   9.455   2.532
  114GLOH    C1 9765   3.109   9.560   2.621
  114GLOH   H02 9766   3.178   9.519   2.695
  114GLOH   H08 9767   3.023   9.598   2.677
  114GLOH    C2 9768   3.177   9.681   2.553
  114GLOH   H04 9769   3.103   9.730   2.488
  114GLOH    O2 9770   3.220   9.775   2.653
  114GLOH   H05 9771   3.251   9.860   2.612
  114GLOH    C3 9772   3.296   9.637   2.465
  114GLOH   H06 9773   3.361   9.572   2.525
  114GLOH   H07 9774   3.355   9.726   2.440
  114GLOH    O3 9775   3.257   9.569   2.344
  114GLOH   H01 9776   3.162   9.589   2.324
  115GLOH   H03 9777   3.218   9.978   0.624
  115GLOH    O1 9778   3.162   9.903   0.658
  115GLOH    C1 9779   3.023   9.942   0.648
  115GLOH   H02 9780   3.000   9.977   0.547
  115GLOH   H08 9781   3.003   0.026   0.714
  115GLOH    C2 9782   2.925   9.828   0.683
  115GLOH   H04 9783   2.823   9.868   0.671
  115GLOH    O2 9784   2.940   9.714   0.596
  115GLOH   H05 9785   2.855   9.701   0.545
  115GLOH    C3 9786   2.943   9.788   0.831
  115GLOH   H06 9787   3.046   9.756   0.847
  115GLOH   H07 9788   2.879   9.702   0.851
  115GLOH    O3 9789   2.910   9.897   0.918
  115GLOH   H01 9790   2.952   9.881   1.007
  116GLOH   H03 9791   3.322   0.243   0.995
  116GLOH    O1 9792   3.417   0.214   0.993
  116GLOH    C1 9793   3.443   0.144   1.117
  116GLOH   H02 9794   3.434   0.212   1.202
  116GLOH   H08 9795   3.546   0.108   1.117
  116GLOH    C2 9796   3.351   0.023   1.140
  116GLOH   H04 9797   3.386   9.972   1.232
  116GLOH    O2 9798   3.214   0.064   1.159
  116GLOH   H05 9799   3.197   0.149   1.109
  116GLOH    C3 9800   3.364   9.924   1.023
  116GLOH   H06 9801   3.470   9.909   1.002
  116GLOH   H07 9802   3.321   9.970   0.934
  116GLOH    O3 9803   3.301   9.797   1.048
  116GLOH   H01 9804   3.293   9.751   0.961
  117GLOH   H03 9805   3.322   9.246   1.775
  117GLOH    O1 9806   3.361   9.218   1.863
  117GLOH    C1 9807   3.279   9.108   1.909
  117GLOH   H02 9808   3.190   9.145   1.960
  117GLOH   H08 9809   3.335   9.049   1.981
  117GLOH    C2 9810   3.235   9.018   1.793
  117GLOH   H04 9811   3.325   8.973   1.748
  117GLOH    O2 9812   3.149   8.913   1.841
  117GLOH   H05 9813   3.192   8.868   1.920
  117GLOH    C3 9814   3.164   9.102   1.685
  117GLOH   H06 9815   3.068   9.134   1.724
  117GLOH   H07 9816   3.143   9.038   1.599
  117GLOH    O3 9817   3.242   9.216   1.644
  117GLOH   H01 9818   3.267   9.210   1.548
  118GLOH   H03 9819   3.991   9.732   0.388
  118GLOH    O1 9820   4.027   9.819   0.360
  118GLOH    C1 9821   4.164   9.801   0.318
  118GLOH   H02 9822   4.190   9.877   0.244
  118GLOH   H08 9823   4.176   9.705   0.268
  118GLOH    C2 9824   4.268   9.808   0.432
  118GLOH   H04 9825   4.364   9.771   0.393
  118GLOH    O2 9826   4.288   9.943   0.482
  118GLOH   H05 9827   4.381   9.955   0.511
  118GLOH    C3 9828   4.225   9.715   0.547
  118GLOH   H06 9829   4.133   9.755   0.591
  118GLOH   H07 9830   4.302   9.719   0.625
  118GLOH    O3 9831   4.206   9.580   0.503
  118GLOH   H01 9832   4.113   9.572   0.469
  119GLOH   H03 9833   3.848   0.902   0.974
  119GLOH    O1 9834   3.932   0.854   0.998
  119GLOH    C1 9835   3.894   0.738   1.074
  119GLOH   H02 9836   3.975   0.666   1.077
  119GLOH   H08 9837   3.810   0.689   1.026
  119GLOH    C2 9838   3.855   0.771   1.219
  119GLOH   H04 9839   3.765   0.835   1.217
  119GLOH    O2 9840   3.824   0.647   1.287
  119GLOH   H05 9841   3.911   0.607   1.318
  119GLOH    C3 9842   3.968   0.848   1.289
  119GLOH   H06 9843   3.982   0.942   1.236
  119GLOH   H07 9844   4.061   0.792   1.277
  119GLOH    O3 9845   3.942   0.874   1.428
  119GLOH   H01 9846   4.021   0.844   1.481
  120GLOH   H03 9847   4.891   0.404   0.826
  120GLOH    O1 9848   4.794   0.411   0.807
  120GLOH    C1 9849   4.766   0.319   0.700
  120GLOH   H02 9850   4.793   0.363   0.604
  120GLOH   H08 9851   4.660   0.296   0.696
  120GLOH    C2 9852   4.845   0.187   0.717
  120GLOH   H04 9853   4.818   0.145   0.815
  120GLOH    O2 9854   4.812   0.090   0.616
  120GLOH   H05 9855   4.861   0.007   0.638
  120GLOH    C3 9856   4.996   0.217   0.718
  120GLOH   H06 9857   5.024   0.256   0.621
  120GLOH   H07 9858   5.050   0.122   0.731
  120GLOH    O3 9859   5.032   0.309   0.822
  120GLOH   H01 9860   5.124   0.287   0.852
  121ACOH    H4 9861   3.285   1.104   2.257
  121ACOH    O2 9862   3.341   1.185   2.265
  121ACOH    C2 9863   3.348   1.238   2.141
  121ACOH    O1 9864   3.293   1.196   2.041
  121ACOH    C1 9865   3.430   1.362   2.140
  121ACOH    H1 9866   3.532   1.337   2.168
  121ACOH    H2 9867   3.390   1.433   2.212
  121ACOH    H3 9868   3.430   1.407   2.041
  122ACOH    H4 9869   4.677   0.427   0.900
  122ACOH    O2 9870   4.600   0.431   0.963
  122ACOH    C2 9871   4.611   0.324   1.044
  122ACOH    O1 9872   4.683   0.227   1.025
  122ACOH    C1 9873   4.509   0.321   1.151
  122ACOH    H1 9874   4.426   0.256   1.122
  122ACOH    H2 9875   4.470   0.421   1.170
  122ACOH    H3 9876   4.552   0.283   1.243
  123ACOH    H4 9877   2.919   7.997   2.207
  123ACOH    O2 9878   2.841   7.976   2.267
  123ACOH    C2 9879   2.730   8.011   2.200
  123ACOH    O1 9880   2.723   8.070   2.094
  123ACOH    C1 9881   2.610   7.977   2.280
  123ACOH    H1 9882   2.606   7.870   2.297
  123ACOH    H2 9883   2.519   8.009   2.230
  123ACOH    H3 9884   2.616   8.027   2.377
  124ACOH    H4 9885   2.665   7.967   0.368
  124ACOH    O2 9886   2.673   7.868   0.350
  124ACOH    C2 9887   2.721   7.856   0.225
  124ACOH    O1 9888   2.781   7.941   0.162
  124ACOH    C1 9889   2.714   7.714   0.184
  124ACOH    H1 9890   2.610   7.684   0.177
  124ACOH    H2 9891   2.765   7.651   0.256
  124ACOH    H3 9892   2.761   7.701   0.086
  125ACOH    H4 9893   3.769   7.982   0.872
  125ACOH    O2 9894   3.678   7.953   0.899
  125ACOH    C2 9895   3.672   7.962   1.033
  125ACOH    O1 9896   3.758   8.003   1.109
  125ACOH    C1 9897   3.538   7.919   1.082
  125ACOH    H1 9898   3.523   7.814   1.058
  125ACOH    H2 9899   3.462   7.978   1.032
  125ACOH    H3 9900   3.531   7.934   1.189
  126ACOH    H4 9901   5.284   0.128   1.119
  126ACOH    O2 9902   5.379   0.137   1.091
  126ACOH    C2 9903   5.379   0.184   0.965
  126ACOH    O1 9904   5.283   0.216   0.898
  126ACOH    C1 9905   5.517   0.189   0.911
  126ACOH    H1 9906   5.538   0.288   0.873
  126ACOH    H2 9907   5.527   0.117   0.830
  126ACOH    H3 9908   5.589   0.165   0.988
  127ACOH    H4 9909   3.202   1.033   0.170
  127ACOH    O2 9910   3.132   0.974   0.212
  127ACOH    C2 9911   3.088   0.894   0.113
  127ACOH    O1 9912   3.146   0.867   0.010
  127ACOH    C1 9913   2.967   0.820   0.156
  127ACOH    H1 9914   2.883   0.890   0.164
  127ACOH    H2 9915   2.984   0.775   0.253
  127ACOH    H3 9916   2.941   0.743   0.085
  128ACOH    H4 9917   2.609   8.425   2.169
  128ACOH    O2 9918   2.543   8.490   2.203
  128ACOH    C2 9919   2.454   8.510   2.105
  128ACOH    O1 9920   2.425   8.430   2.017
  128ACOH    C1 9921   2.379   8.635   2.127
  128ACOH    H1 9922   2.448   8.719   2.119
  128ACOH    H2 9923   2.337   8.635   2.227
  128ACOH    H3 9924   2.300   8.647   2.054
  129ACOH    H4 9925   4.245   0.931   0.825
  129ACOH    O2 9926   4.306   0.987   0.770
  129ACOH    C2 9927   4.225   1.058   0.689
  129ACOH    O1 9928   4.110   1.090   0.710
  129ACOH    C1 9929   4.305   1.125   0.582
  129ACOH    H1 9930   4.403   1.080   0.575
  129ACOH    H2 9931   4.316   1.230   0.606
  129ACOH    H3 9932   4.254   1.113   0.487
  130ACOH    H4 9933   2.826   0.016   0.894
  130ACOH    O2 9934   2.766   0.094   0.877
  130ACOH    C2 9935   2.799   0.190   0.965
  130ACOH    O1 9936   2.891   0.189   1.044
  130ACOH    C1 9937   2.706   0.304   0.952
  130ACOH    H1 9938   2.726   0.380   1.027
  130ACOH    H2 9939   2.604   0.269   0.963
  130ACOH    H3 9940   2.717   0.349   0.853
  131ACOH    H4 9941   2.803   9.593   0.235
  131ACOH    O2 9942   2.704   9.579   0.231
  131ACOH    C2 9943   2.653   9.641   0.340
  131ACOH    O1 9944   2.714   9.692   0.432
  131ACOH    C1 9945   2.505   9.644   0.333
  131ACOH    H1 9946   2.469   9.568   0.264
  131ACOH    H2 9947   2.473   9.741   0.297
  131ACOH    H3 9948   2.462   9.627   0.431
  132ACOH    H4 9949   4.926   9.860   0.822
  132ACOH    O2 9950   4.919   9.873   0.723
  132ACOH    C2 9951   4.837   9.776   0.678
  132ACOH    O1 9952   4.750   9.721   0.743
  132ACOH    C1 9953   4.837   9.773   0.530
  132ACOH    H1 9954   4.836   9.670   0.496
  132ACOH    H2 9955   4.925   9.823   0.491
  132ACOH    H3 9956   4.748   9.824   0.493
  133ACOH    H4 9957   4.429   9.310   0.654
  133ACOH    O2 9958   4.504   9.244   0.653
  133ACOH    C2 9959   4.583   9.273   0.758
  133ACOH    O1 9960   4.552   9.332   0.860
  133ACOH    C1 9961   4.714   9.206   0.739
  133ACOH    H1 9962   4.758   9.238   0.646
  133ACOH    H2 9963   4.699   9.098   0.737
  133ACOH    H3 9964   4.781   9.231   0.821
  134SOL     OW 9965   3.017   0.368   0.495
  134SOL    HW1 9966   3.048   0.428   0.422
  134SOL    HW2 9967   2.985   0.424   0.572
  135SOL     OW 9968   3.371   0.880   1.921
  135SOL    HW1 9969   3.381   0.926   1.833
  135SOL    HW2 9970   3.423   0.930   1.991
  136SOL     OW 9971   2.880   9.538   1.353
  136SOL    HW1 9972   2.815   9.468   1.324
  136SOL    HW2 9973   2.932   9.571   1.274
  137SOL     OW 9974   2.945   7.945   1.257
  137SOL    HW1 9975   3.032   7.930   1.305
  137SOL    HW2 9976   2.875   7.971   1.323
  138SOL     OW 9977   3.589   8.148   1.720
  138SOL    HW1 9978   3.541   8.139   1.633
  138SOL    HW2 9979   3.560   8.232   1.765
  139SOL     OW 9980   3.652   1.126   1.163
  139SOL    HW1 9981   3.695   1.114   1.253
  139SOL    HW2 9982   3.560   1.088   1.165
  140SOL     OW 9983   3.253   9.224   1.139
  140SOL    HW1 9984   3.309   9.261   1.065
  140SOL    HW2 9985   3.158   9.255   1.127
  141SOL     OW 9986   3.212   9.507   0.951
  141SOL    HW1 9987   3.179   9.517   0.857
  141SOL    HW2 9988   3.293   9.449   0.952
  142SOL     OW 9989   3.874   0.485   0.463
  142SOL    HW1 9990   3.954   0.478   0.404
  142SOL    HW2 9991   3.799   0.429   0.426
  143SOL     OW 9992   3.306   9.991   1.545
  143SOL    HW1 9993   3.371   0.062   1.521
  143SOL    HW2 9994   3.229   9.994   1.481
  144SOL     OW 9995   3.266   9.739   1.319
  144SOL    HW1 9996   3.269   9.754   1.220
  144SOL    HW2 9997   3.359   9.747   1.356
  145SOL     OW 9998   3.408   0.748   2.206
  145SOL    HW1 9999   3.311   0.773   2.211
  145SOL    HW210000   3.460   0.826   2.171
  146SOL     OW10001   3.212   0.676   0.650
  146SOL    HW110002   3.253   0.646   0.564
  146SOL    HW210003   3.253   0.762   0.679
  147SOL     OW10004   3.077   0.507   1.893
  147SOL    HW110005   3.162   0.558   1.884
  147SOL    HW210006   3.038   0.490   1.803
  148SOL     OW10007   3.734   9.825   0.561
  148SOL    HW110008   3.762   9.914   0.595
  148SOL    HW210009   3.706   9.766   0.637
  149SOL     OW10010   4.578   9.829   1.513
  149SOL    HW110011   4.597   9.799   1.606
  149SOL    HW210012   4.565   9.749   1.454
  150SOL     OW10013   3.960   9.110   1.318
  150SOL    HW110014   3.975   9.204   1.349
  150SOL    HW210015   3.898   9.110   1.240
  151SOL     OW10016   3.724   0.787   1.566
  151SOL    HW110017   3.798   0.800   1.501
  151SOL    HW210018   3.753   0.723   1.637
  152SOL     OW10019   3.783   9.465   0.629
  152SOL    HW110020   3.723   9.410   0.572
  152SOL    HW210021   3.730   9.537   0.674
  153SOL     OW10022   3.034   9.599   1.130
  153SOL    HW110023   3.106   9.569   1.067
  153SOL    HW210024   3.031   9.698   1.134
  154SOL     OW10025   3.236   0.480   0.849
  154SOL    HW110026   3.205   0.551   0.786
  154SOL    HW210027   3.335   0.468   0.840
  155SOL     OW10028   3.739   9.636   2.117
  155SOL    HW110029   3.652   9.590   2.129
  155SOL    HW210030   3.780   9.609   2.029
  156SOL     OW10031   4.544   0.054   0.574
  156SOL    HW110032   4.643   0.068   0.573
  156SOL    HW210033   4.501   0.118   0.511
  157SOL     OW10034   3.254   9.516   1.486
  157SOL    HW110035   3.250   9.595   1.425
  157SOL    HW210036   3.162   9.493   1.516
  158SOL     OW10037   3.422   9.331   0.947
  158SOL    HW110038   3.510   9.345   0.994
  158SOL    HW210039   3.439   9.311   0.851
  159SOL     OW10040   3.636   0.460   1.247
  159SOL    HW110041   3.699   0.537   1.246
  159SOL    HW210042   3.591   0.455   1.336
  160SOL     OW10043   3.084   9.825   1.918
  160SOL    HW110044   3.079   9.725   1.923
  160SOL    HW210045   3.163   9.852   1.862
  161SOL     OW10046   3.063   9.897   1.419
  161SOL    HW110047   3.136   9.835   1.390
  161SOL    HW210048   3.024   9.864   1.506
  162SOL     OW10049   3.312   1.124   0.116
  162SOL    HW110050   3.332   1.127   0.018
  162SOL    HW210051   3.383   1.175   0.165
  163SOL     OW10052   3.025   9.872   1.147
  163SOL    HW110053   3.107   9.928   1.132
  163SOL    HW210054   3.000   9.875   1.243
  164SOL     OW10055   2.421   8.917   0.824
  164SOL    HW110056   2.382   9.006   0.847
  164SOL    HW210057   2.427   8.908   0.724
  165SOL     OW10058   3.186   0.975   2.204
  165SOL    HW110059   3.196   1.008   2.111
  165SOL    HW210060   3.096   0.933   2.215
  166SOL     OW10061   2.924   9.033   0.938
  166SOL    HW110062   2.936   9.125   0.900
  166SOL    HW210063   2.839   8.993   0.904
  167SOL     OW10064   3.330   9.273   1.400
  167SOL    HW110065   3.302   9.366   1.422
  167SOL    HW210066   3.303   9.251   1.306
  168SOL     OW10067   3.289   8.845   1.476
  168SOL    HW110068   3.300   8.911   1.402
  168SOL    HW210069   3.367   8.783   1.478
  169SOL     OW10070   2.957   9.298   0.856
  169SOL    HW110071   3.012   9.362   0.803
  169SOL    HW210072   2.976   9.309   0.953
  170SOL     OW10073   3.705   0.967   0.946
  170SOL    HW110074   3.734   1.016   0.864
  170SOL    HW210075   3.684   1.032   1.018
  171SOL     OW10076   3.707   8.555   0.242
  171SOL    HW110077   3.634   8.623   0.252
  171SOL    HW210078   3.670   8.464   0.261
  172SOL     OW10079   3.451   9.462   1.685
  172SOL    HW110080   3.385   9.475   1.611
  172SOL    HW210081   3.509   9.383   1.665
  173SOL     OW10082   2.728   8.663   1.993
  173SOL    HW110083   2.697   8.748   1.952
  173SOL    HW210084   2.726   8.671   2.093
  174SOL     OW10085   3.149   0.179   0.355
  174SOL    HW110086   3.091   0.236   0.413
  174SOL    HW210087   3.187   0.234   0.281
  175SOL     OW10088   3.524   1.340   0.829
  175SOL    HW110089   3.459   1.404   0.869
  175SOL    HW210090   3.605   1.334   0.888
  176SOL     OW10091   2.699   8.927   0.837
  176SOL    HW110092   2.717   8.862   0.763
  176SOL    HW210093   2.600   8.936   0.850
  177SOL     OW10094   3.491   9.522   2.181
  177SOL    HW110095   3.469   9.532   2.084
  177SOL    HW210096   3.413   9.550   2.236
  178SOL     OW10097   4.417   0.223   0.408
  178SOL    HW110098   4.359   0.183   0.337
  178SOL    HW210099   4.369   0.300   0.451
  179SOL     OW10100   3.601   9.296   1.439
  179SOL    HW110101   3.504   9.276   1.423
  179SOL    HW210102   3.645   9.217   1.482
  180SOL     OW10103   3.991   8.329   0.105
  180SOL    HW110104   3.990   8.278   0.019
  180SOL    HW210105   3.969   8.425   0.086
  181SOL     OW10106   3.086   8.760   1.633
  181SOL    HW110107   3.096   8.813   1.717
  181SOL    HW210108   3.143   8.800   1.561
  182SOL     OW10109   2.911   0.121   1.338
  182SOL    HW110110   2.913   0.142   1.241
  182SOL    HW210111   2.980   0.052   1.359
  183SOL     OW10112   2.343   8.561   0.498
  183SOL    HW110113   2.354   8.474   0.545
  183SOL    HW210114   2.245   8.581   0.488
  184SOL     OW10115   3.512   8.378   1.838
  184SOL    HW110116   3.413   8.385   1.851
  184SOL    HW210117   3.555   8.463   1.869
  185SOL     OW10118   3.813   0.623   1.764
  185SOL    HW110119   3.871   0.545   1.744
  185SOL    HW210120   3.758   0.603   1.845
  186SOL     OW10121   3.663   0.161   0.875
  186SOL    HW110122   3.726   0.234   0.901
  186SOL    HW210123   3.583   0.164   0.934
  187SOL     OW10124   3.768   1.077   1.404
  187SOL    HW110125   3.736   1.096   1.497
  187SOL    HW210126   3.840   1.008   1.407
  188SOL     OW10127   2.510   9.181   0.662
  188SOL    HW110128   2.594   9.230   0.685
  188SOL    HW210129   2.444   9.190   0.737
  189SOL     OW10130   2.962   0.061   1.998
  189SOL    HW110131   3.014   9.979   1.973
  189SOL    HW210132   3.025   0.135   2.020
  190SOL     OW10133   3.704   1.038   1.675
  190SOL    HW110134   3.709   0.945   1.639
  190SOL    HW210135   3.762   1.045   1.756
  191SOL     OW10136   4.065   8.546   2.048
  191SOL    HW110137   4.145   8.594   2.012
  191SOL    HW210138   4.043   8.582   2.138
  192SOL     OW10139   4.033   9.126   2.165
  192SOL    HW110140   3.960   9.069   2.204
  192SOL    HW210141   4.041   9.109   2.067
  193SOL     OW10142   3.150   0.499   0.292
  193SOL    HW110143   3.226   0.537   0.345
  193SOL    HW210144   3.158   0.528   0.197
  194SOL     OW10145   2.998   9.326   1.124
  194SOL    HW110146   2.920   9.299   1.180
  194SOL    HW210147   3.011   9.425   1.131
  195SOL     OW10148   2.914   0.209   1.764
  195SOL    HW110149   2.854   0.164   1.698
  195SOL    HW210150   2.919   0.153   1.847
  196SOL     OW10151   2.966   0.555   0.693
  196SOL    HW110152   2.944   0.565   0.790
  196SOL    HW210153   3.045   0.612   0.670
  197SOL     OW10154   4.247   0.055   0.945
  197SOL    HW110155   4.199   9.981   0.899
  197SOL    HW210156   4.340   0.062   0.908
  198SOL     OW10157   2.326   9.334   1.594
  198SOL    HW110158   2.301   9.400   1.524
  198SOL    HW210159   2.425   9.339   1.610
  199SOL     OW10160   2.343   8.886   1.796
  199SOL    HW110161   2.409   8.912   1.866
  199SOL    HW210162   2.293   8.966   1.766
  200SOL     OW10163   2.562   8.334   1.092
  200SOL    HW110164   2.589   8.429   1.108
  200SOL    HW210165   2.525   8.295   1.176
  201SOL     OW10166   2.637   8.861   1.621
  201SOL    HW110167   2.551   8.822   1.588
  201SOL    HW210168   2.710   8.793   1.615
  202SOL     OW10169   3.139   0.797   0.995
  202SOL    HW110170   3.172   0.880   0.950
  202SOL    HW210171   3.211   0.759   1.052
  203SOL     OW10172   3.963   0.483   0.729
  203SOL    HW110173   3.929   0.476   0.636
  203SOL    HW210174   4.056   0.521   0.728
  204SOL     OW10175   3.265   9.398   2.033
  204SOL    HW110176   3.316   9.336   1.973
  204SOL    HW210177   3.265   9.362   2.126
  205SOL     OW10178   3.957   9.572   0.433
  205SOL    HW110179   3.914   9.552   0.344
  205SOL    HW210180   3.898   9.537   0.506
  206SOL     OW10181   3.867   9.945   2.039
  206SOL    HW110182   3.855   9.862   1.985
  206SOL    HW210183   3.780   9.994   2.045
  207SOL     OW10184   2.394   8.738   1.574
  207SOL    HW110185   2.359   8.779   1.658
  207SOL    HW210186   2.424   8.644   1.592
  208SOL     OW10187   2.397   8.425   0.886
  208SOL    HW110188   2.400   8.524   0.899
  208SOL    HW210189   2.448   8.381   0.960
  209SOL     OW10190   3.698   9.086   1.577
  209SOL    HW110191   3.715   8.988   1.590
  209SOL    HW210192   3.666   9.126   1.664
  210SOL     OW10193   4.516   9.786   0.900
  210SOL    HW110194   4.578   9.748   0.831
  210SOL    HW210195   4.503   9.883   0.883
  211SOL     OW10196   3.162   0.286   1.016
  211SOL    HW110197   3.174   0.359   0.948
  211SOL    HW210198   3.066   0.260   1.021
  212SOL     OW10199   2.757   9.919   2.115
  212SOL    HW110200   2.832   9.970   2.073
  212SOL    HW210201   2.674   9.975   2.116
  213SOL     OW10202   3.054   7.865   1.022
  213SOL    HW110203   3.003   7.906   1.097
  213SOL    HW210204   3.092   7.777   1.051
  214SOL     OW10205   3.639   0.031   1.351
  214SOL    HW110206   3.693   0.084   1.285
  214SOL    HW210207   3.576   0.091   1.399
  215SOL     OW10208   2.341   9.179   0.878
  215SOL    HW110209   2.394   9.208   0.958
  215SOL    HW210210   2.248   9.217   0.885
  216SOL     OW10211   4.123   7.990   0.970
  216SOL    HW110212   4.203   8.037   0.930
  216SOL    HW210213   4.089   8.043   1.048
  217SOL     OW10214   3.303   1.008   0.901
  217SOL    HW110215   3.338   0.963   0.818
  217SOL    HW210216   3.288   1.105   0.883
  218SOL     OW10217   2.986   8.164   1.565
  218SOL    HW110218   3.035   8.201   1.486
  218SOL    HW210219   2.990   8.230   1.640
  219SOL     OW10220   3.819   1.106   0.743
  219SOL    HW110221   3.773   1.183   0.699
  219SOL    HW210222   3.917   1.112   0.728
  220SOL     OW10223   3.642   0.092   2.062
  220SOL    HW110224   3.597   0.167   2.110
  220SOL    HW210225   3.573   0.034   2.019
  221SOL     OW10226   3.228   8.394   1.837
  221SOL    HW110227   3.244   8.458   1.762
  221SOL    HW210228   3.142   8.345   1.823
  222SOL     OW10229   3.794   8.471   2.101
  222SOL    HW110230   3.735   8.509   2.029
  222SOL    HW210231   3.889   8.478   2.073
  223SOL     OW10232   4.138   9.354   1.841
  223SOL    HW110233   4.209   9.419   1.867
  223SOL    HW210234   4.128   9.353   1.741
  224SOL     OW10235   2.376   8.330   0.634
  224SOL    HW110236   2.372   8.366   0.727
  224SOL    HW210237   2.424   8.242   0.635
  225SOL     OW10238   2.947   0.604   0.965
  225SOL    HW110239   3.014   0.678   0.968
  225SOL    HW210240   2.912   0.587   1.057
  226SOL     OW10241   3.641   9.300   0.457
  226SOL    HW110242   3.660   9.362   0.381
  226SOL    HW210243   3.647   9.205   0.425
  227SOL     OW10244   3.981   0.693   0.177
  227SOL    HW110245   3.946   0.771   0.230
  227SOL    HW210246   3.969   0.711   0.080
  228SOL     OW10247   3.735   1.327   0.999
  228SOL    HW110248   3.705   1.258   1.065
  228SOL    HW210249   3.834   1.341   1.008
  229SOL     OW10250   4.090   0.470   0.290
  229SOL    HW110251   4.123   0.413   0.215
  229SOL    HW210252   4.058   0.557   0.253
  230SOL     OW10253   3.094   9.493   0.702
  230SOL    HW110254   3.040   9.567   0.662
  230SOL    HW210255   3.134   9.438   0.629
  231SOL     OW10256   2.892   9.203   1.516
  231SOL    HW110257   2.940   9.285   1.547
  231SOL    HW210258   2.827   9.174   1.586
  232SOL     OW10259   2.744   8.355   2.096
  232SOL    HW110260   2.758   8.394   2.005
  232SOL    HW210261   2.734   8.256   2.088
  233SOL     OW10262   4.241   9.546   2.163
  233SOL    HW110263   4.274   9.592   2.245
  233SOL    HW210264   4.179   9.472   2.189
  234SOL     OW10265   3.324   0.619   1.859
  234SOL    HW110266   3.348   0.617   1.762
  234SOL    HW210267   3.338   0.712   1.894
  235SOL     OW10268   2.216   9.113   1.711
  235SOL    HW110269   2.261   9.192   1.670
  235SOL    HW210270   2.117   9.120   1.698
  236SOL     OW10271   2.596   9.340   1.631
  236SOL    HW110272   2.622   9.244   1.637
  236SOL    HW210273   2.660   9.396   1.684
  237SOL     OW10274   3.432   0.983   1.674
  237SOL    HW110275   3.519   1.031   1.681
  237SOL    HW210276   3.430   0.928   1.591
  238SOL     OW10277   4.221   0.390   0.521
  238SOL    HW110278   4.179   0.420   0.435
  238SOL    HW210279   4.186   0.299   0.544
  239SOL     OW10280   3.243   0.482   1.218
  239SOL    HW110281   3.208   0.429   1.140
  239SOL    HW210282   3.282   0.568   1.185
  240SOL     OW10283   4.121   9.738   1.788
  240SOL    HW110284   4.185   9.672   1.827
  240SOL    HW210285   4.168   9.825   1.774
  241SOL     OW10286   4.206   0.448   1.176
  241SOL    HW110287   4.262   0.481   1.100
  241SOL    HW210288   4.175   0.355   1.156
  242SOL     OW10289   3.482   9.273   0.687
  242SOL    HW110290   3.437   9.183   0.686
  242SOL    HW210291   3.531   9.286   0.601
  243SOL     OW10292   2.970   8.181   0.081
  243SOL    HW110293   2.951   8.249   0.153
  243SOL    HW210294   2.910   8.102   0.094
  244SOL     OW10295   4.508   0.051   0.847
  244SOL    HW110296   4.515   0.059   0.747
  244SOL    HW210297   4.577   0.110   0.889
  245SOL     OW10298   2.973   0.556   2.147
  245SOL    HW110299   2.946   0.464   2.174
  245SOL    HW210300   3.002   0.555   2.051
  246SOL     OW10301   2.761   0.106   1.565
  246SOL    HW110302   2.815   0.116   1.481
  246SOL    HW210303   2.664   0.115   1.543
  247SOL     OW10304   3.387   0.894   0.665
  247SOL    HW110305   3.481   0.863   0.682
  247SOL    HW210306   3.370   0.896   0.567
  248SOL     OW10307   2.371   8.244   1.803
  248SOL    HW110308   2.392   8.309   1.876
  248SOL    HW210309   2.287   8.195   1.825
  10.00000  10.00000   2.88200
