;----------------------------TITLE -----------------------------------------------------------------------------------------
;   glycerine
;
; This file was generated at 21:53 on 2025-08-14 by
;
;                  Automatic Topology Builder  
;
;                   REVISION 2025-01-17 09:57:26
;---------------------------------------------------------------------------------------------------------------------------
; Authors     : Martin Stroet, Bertrand Caron, Alpeshkumar K. Malde, Thomas Lee, Alan E. Mark
;
; Institute   : Molecular Dynamics group, 
;               School of Chemistry and Molecular Biosciences (SCMB),
;               The University of Queensland, QLD 4072, Australia
; URL         : https://atb.uq.edu.au
; Citations   : 1. Malde AK, Zuo L, Breeze M, Stroet M, Poger D, Nair PC, Oostenbrink C, Mark AE.
;                  An Automated force field Topology Builder (ATB) and repository: version 1.0.
;                  Journal of Chemical Theory and Computation, 2011, 7, 4026-4037.
;               2. Stroet M, Caron B, Visscher K, Geerke D, Malde AK, Mark AE.
;                  Automated Topology Builder version 3.0: Prediction of solvation free enthalpies in water and hexane.
;                  DOI:10.1021/acs.jctc.8b00768
;
; Disclaimer  : 
;      While every effort has been made to ensure the accuracy and validity of parameters provided below
;      the assignment of parameters is being based on an automated procedure combining data provided by a
;      given user as well as calculations performed using third party software. They are provided as a guide.
;      The authors of the ATB cannot guarantee that the parameters are complete or that the parameters provided
;      are appropriate for use in any specific application. Users are advised to treat these parameters with discretion
;      and to perform additional validation tests for their specific application if required. Neither the authors
;      of the ATB or The University of Queensland except any responsibly for how the parameters may be used.
;
; Release notes and warnings: 
;  (1) The topology is based on a set of atomic coordinates and other data provided by the user after
;      after quantum mechanical optimization of the structure using different levels of theory depending on
;      the nature of the molecule.
;  (2) In some cases the automatic bond, bond angle and dihedral type assignment is ambiguous.
;      In these cases alternative type codes are provided at the end of the line.
;  (3) While bonded parameters are taken where possible from the nominated force field non-standard bond, angle and dihedral
;      type code may be incorporated in cases where an exact match could not be found. These are marked as "non-standard"
;      or "uncertain" in comments.
;  (4) In some cases it is not possible to assign an appropriate parameter automatically. "%%" is used as a place holder
;      for those fields that could not be determined automatically. The parameters in these fields must be assigned manually
;      before the file can be used.
;---------------------------------------------------------------------------------------------------------------------------
; Input Structure : GLOH
; Output          : ALL ATOM topology
;	Use in conjunction with the corresponding all atom PDB file.
;---------------------------------------------------------------------------------------------------------------------------
; Citing this topology file
; ATB molid: 35492
; ATB Topology Hash: ca0b0
;---------------------------------------------------------------------------------------------------------------------------
; Final Topology Generation was performed using: 
; A B3LYP/6-31G* optimized geometry.
; Bonded and van der Waals parameters were taken from the GROMOS 54A7 parameter set.
; Initial charges were estimated using the ESP method of Merz-Kollman.
; Final charges and charge groups were generated by method described in the ATB paper.
; If required, additional bonded parameters were generated from a Hessian matrix calculated at the B3LYP/6-31G* level of theory.
;---------------------------------------------------------------------------------------------------------------------------
;
;
[ moleculetype ]
; Name   nrexcl
GLOH     3
[ atoms ]
;  nr  type  resnr  resid  atom  cgnr  charge    mass
    1  HS14    1    GLOH    H03    1    0.422   1.0080
    2  OAlc    1    GLOH     O1    2   -0.645  15.9994
    3  CPos    1    GLOH     C1    3    0.184  12.0110
    4    HC    1    GLOH    H02    4    0.036   1.0080
    5    HC    1    GLOH    H08    5    0.036   1.0080
    6     C    1    GLOH     C2    6    0.135  12.0110
    7    HC    1    GLOH    H04    7    0.015   1.0080
    8  OAlc    1    GLOH     O2    8   -0.618  15.9994
    9     H    1    GLOH    H05    9    0.402   1.0080
   10  CPos    1    GLOH     C3   10    0.184  12.0110
   11    HC    1    GLOH    H06   11    0.036   1.0080
   12    HC    1    GLOH    H07   12    0.036   1.0080
   13  OAlc    1    GLOH     O3   13   -0.645  15.9994
   14     H    1    GLOH    H01   14    0.422   1.0080
; total charge of the molecule:   0.000
[ bonds ]
;  ai   aj  funct   c0         c1
    1    2    2   0.0975   3.3662e+07
    2    3    2   0.1430   8.1800e+06
    3    4    2   0.1090   1.2300e+07
    3    5    2   0.1090   1.2300e+07
    3    6    2   0.1530   7.1500e+06
    6    7    2   0.1100   1.2100e+07
    6    8    2   0.1430   8.1800e+06
    6   10    2   0.1530   7.1500e+06
    8    9    2   0.0972   1.9581e+07
   10   11    2   0.1090   1.2300e+07
   10   12    2   0.1090   1.2300e+07
   10   13    2   0.1430   8.1800e+06
   13   14    2   0.0975   3.3662e+07
[ pairs ]
;  ai   aj  funct  ;  all 1-4 pairs but the ones excluded in GROMOS itp
    1    4    1
    1    5    1
    1    6    1
    2    7    1
    2    8    1
    2   10    1
    3    9    1
    3   11    1
    3   12    1
    3   13    1
    4    7    1
    4    8    1
    4   10    1
    5    7    1
    5    8    1
    5   10    1
    6   14    1
    7    9    1
    7   11    1
    7   12    1
    7   13    1
    8   11    1
    8   12    1
    8   13    1
    9   10    1
   11   14    1
   12   14    1
[ angles ]
;  ai   aj   ak  funct   angle     fc
    1    2    3    2    109.50   450.00
    2    3    4    2    111.00   530.00
    2    3    5    2    111.00   530.00
    2    3    6    2    111.00   530.00
    4    3    5    2    108.00   465.00
    4    3    6    2    109.50   448.00
    5    3    6    2    109.50   448.00
    3    6    7    2    109.50   448.00
    3    6    8    2    109.50   520.00
    3    6   10    2    111.00   530.00
    7    6    8    2    110.30   524.00
    7    6   10    2    109.50   448.00
    8    6   10    2    109.50   520.00
    6    8    9    2    109.50   450.00
    6   10   11    2    109.50   448.00
    6   10   12    2    109.50   448.00
    6   10   13    2    111.00   530.00
   11   10   12    2    108.00   465.00
   11   10   13    2    111.00   530.00
   12   10   13    2    111.00   530.00
   10   13   14    2    109.50   450.00
[ dihedrals ]
; GROMOS improper dihedrals
;  ai   aj   ak   al  funct   angle     fc
[ dihedrals ]
;  ai   aj   ak   al  funct    ph0      cp     mult
    1    2    3    6    1      0.00     1.26    3
    2    3    6    8    1      0.00     5.92    3
    3    6    8    9    1      0.00     1.26    3
    3    6   10   13    1      0.00     5.92    3
    6   10   13   14    1      0.00     1.26    3
[ exclusions ]
;  ai   aj  funct  ;  GROMOS 1-4 exclusions
