PEG-PVA Film  in water:acetone
65769
    1PEG1   HO1    1   3.857   6.762   3.388
    1PEG1   O92    2   3.820   6.689   3.435
    1PEG1   C13    3   3.919   6.587   3.449
    1PEG1   C14    4   3.871   6.484   3.553
    1PEG1    O8    5   3.978   6.395   3.587
    1PEG1   C15    6   3.923   6.276   3.644
    1PEG1   C16    7   4.033   6.193   3.717
    1PEG1   C17    8   3.973   6.064   3.776
    1PEG1    O9    9   4.071   5.994   3.861
    1PEG1   C18   10   4.008   5.879   3.919
    1PEG1   C19   11   4.110   5.800   4.003
    1PEG1   O10   12   4.068   5.664   4.017
    1PEG1   C20   13   4.104   5.615   4.147
    1PEG1   C21   14   4.106   5.461   4.148
    1PEG1   O11   15   4.181   5.415   4.267
    1PEG1   C22   16   4.199   5.273   4.266
    1PEG1   C23   17   4.342   5.236   4.306
    1PEG1   O12   18   4.365   5.253   4.446
    1PEG1   C24   19   4.503   5.278   4.472
    1PEG1   C25   20   4.527   5.302   4.623
    1PEG1   O13   21   4.678   5.316   4.658
    1PEG1   C26   22   4.752   5.199   4.619
    1PEG1   C27   23   4.863   5.167   4.719
    1PEG1   O14   24   4.878   5.025   4.725
    1PEG1   C28   25   4.990   4.992   4.807
    1PEG1   C29   26   4.956   4.942   4.951
    1PEG1   O15   27   5.069   4.911   5.033
    1PEG1   C30   28   5.135   5.036   5.083
    1PEG1   C31   29   5.067   5.090   5.209
    1PEG1   O16   30   4.987   5.204   5.175
    1PEG1   C32   31   4.865   5.199   5.251
    1PEG1   C33   32   4.770   5.309   5.202
    1PEG1   O17   33   4.638   5.254   5.191
    1PEG1   C34   34   4.544   5.344   5.250
    1PEG1   C35   35   4.422   5.364   5.160
    1PEG1   O18   36   4.338   5.248   5.165
    1PEG1   C36   37   4.207   5.281   5.110
    1PEG1   C37   38   4.199   5.246   4.958
    1PEG1   O19   39   4.149   5.113   4.942
    1PEG1   C38   40   4.258   5.027   4.907
    1PEG1   C39   41   4.221   4.905   4.821
    1PEG1   O20   42   4.323   4.806   4.834
    1PEG1   C40   43   4.318   4.717   4.722
    1PEG1   C41   44   4.393   4.589   4.757
    1PEG1   O21   45   4.530   4.607   4.720
    1PEG1   C42   46   4.563   4.519   4.629
    1PEG1   C43   47   4.641   4.590   4.518
    1PEG1   O22   48   4.573   4.573   4.394
    1PEG1   C44   49   4.669   4.545   4.292
    1PEG1   C45   50   4.597   4.514   4.161
    1PEG1   O23   51   4.691   4.472   4.062
    1PEG1   C46   52   4.635   4.366   3.984
    1PEG1   C47   53   4.746   4.286   3.916
    1PEG1   O24   54   4.734   4.146   3.949
    1PEG1   C48   55   4.705   4.069   3.832
    1PEG1   C49   56   4.806   3.953   3.821
    1PEG1   O25   57   4.760   3.828   3.866
    1PEG1   C50   58   4.853   3.775   3.961
    1PEG1   C51   59   4.801   3.640   4.011
    1PEG1   O26   60   4.891   3.587   4.109
    1PEG1   C52   61   4.815   3.543   4.223
    1PEG1   C53   62   4.832   3.391   4.242
    1PEG1   O27   63   4.717   3.339   4.307
    1PEG1   C54   64   4.685   3.211   4.251
    1PEG1   C55   65   4.592   3.133   4.346
    1PEG1   O28   66   4.452   3.165   4.323
    1PEG1   C56   67   4.368   3.058   4.380
    1PEG1   C57   68   4.219   3.075   4.347
    1PEG1   O29   69   4.164   3.206   4.369
    1PEG1   C58   70   4.053   3.228   4.276
    1PEG1   C59   71   3.914   3.247   4.341
    1PEG1   O30   72   3.917   3.353   4.437
    1PEG1   C60   73   3.845   3.466   4.387
    1PEG1   C61   74   3.835   3.574   4.496
    1PEG1   O31   75   3.947   3.665   4.486
    1PEG1   C62   76   3.927   3.776   4.574
    1PEG1   C63   77   4.063   3.827   4.627
    1PEG1   O32   78   4.071   3.808   4.768
    1PEG1   C64   79   4.199   3.849   4.818
    1PEG1   C65   80   4.237   3.763   4.939
    1PEG1   O33   81   4.388   3.752   4.958
    1PEG1   C66   82   4.430   3.604   4.990
    1PEG1   C67   83   4.576   3.578   4.946
    1PEG1   O34   84   4.609   3.438   4.941
    1PEG1   C68   85   4.695   3.406   4.827
    1PEG1   C69   86   4.847   3.386   4.852
    1PEG1   O35   87   4.925   3.436   4.742
    1PEG1   C70   88   5.056   3.481   4.780
    1PEG1   C71   89   5.098   3.604   4.697
    1PEG1   O36   90   5.211   3.676   4.751
    1PEG1   C72   91   5.168   3.797   4.847
    1PEG1   C73   92   5.194   3.936   4.789
    1PEG1   O37   93   5.080   4.021   4.810
    1PEG1   C74   94   5.111   4.160   4.786
    1PEG1   C75   95   5.013   4.239   4.696
    1PEG1   O38   96   5.084   4.311   4.597
    1PEG1   C76   97   5.019   4.320   4.464
    1PEG1   C77   98   5.126   4.311   4.354
    1PEG1   O39   99   5.104   4.408   4.251
    1PEG1   C78  100   5.204   4.509   4.261
    1PEG1   C79  101   5.165   4.637   4.185
    1PEG1   O40  102   5.024   4.655   4.172
    1PEG1   C80  103   4.997   4.713   4.044
    1PEG1   C81  104   4.848   4.729   4.021
    1PEG1   O41  105   4.800   4.833   4.094
    1PEG1   C82  106   4.658   4.840   4.078
    1PEG1   C83  107   4.579   4.849   4.209
    1PEG1   O42  108   4.438   4.834   4.189
    1PEG1   C84  109   4.366   4.912   4.285
    1PEG1   C85  110   4.379   4.867   4.432
    1PEG1   O43  111   4.428   4.973   4.514
    1PEG1   C86  112   4.538   4.927   4.593
    1PEG1   C87  113   4.535   4.997   4.730
    1PEG1   O44  114   4.609   4.926   4.822
    1PEG1   C88  115   4.623   5.005   4.941
    1PEG1   C89  116   4.596   4.930   5.072
    1PEG1   O45  117   4.472   4.975   5.127
    1PEG1   C90  118   4.420   4.875   5.216
    1PEG1   C91  119   4.271   4.839   5.195
    1PEG1   O46  120   4.261   4.722   5.114
    1PEG1   C92  121   4.125   4.701   5.072
    1PEG1   C93  122   4.125   4.598   4.958
    1PEG1   O47  123   3.997   4.594   4.880
    1PEG1   C94  124   4.025   4.584   4.727
    1PEG1   C95  125   4.067   4.443   4.679
    1PEG1   O48  126   4.165   4.452   4.575
    1PEG1   C96  127   4.245   4.334   4.564
    1PEG1   C97  128   4.358   4.352   4.460
    1PEG1   O49  129   4.401   4.227   4.400
    1PEG1   C98  130   4.480   4.248   4.281
    1PEG1   C99  131   4.452   4.152   4.164
    1PEG1   O50  132   4.530   4.032   4.166
    1PEG1  C100  133   4.506   3.948   4.052
    1PEG1  C101  134   4.405   3.832   4.075
    1PEG1   O51  135   4.463   3.715   4.135
    1PEG1  C102  136   4.360   3.634   4.194
    1PEG1  C103  137   4.409   3.557   4.319
    1PEG1    O2  138   4.355   3.612   4.441
    1PEG1    C1  139   4.440   3.578   4.551
    1PEG1    C2  140   4.422   3.667   4.678
    1PEG1    O3  141   4.474   3.833   4.673
    1PEG1    C3  142   4.578   3.883   4.760
    1PEG1    C4  143   4.660   4.004   4.698
    1PEG1    O4  144   4.803   3.981   4.692
    1PEG1    C5  145   4.864   4.017   4.565
    1PEG1    C6  146   4.993   3.940   4.520
    1PEG1    O5  147   5.129   4.035   4.506
    1PEG1    C7  148   5.272   4.056   4.481
    1PEG1    C8  149   5.345   4.150   4.582
    1PEG1    O6  150   5.368   4.281   4.528
    1PEG1    C9  151   5.354   4.384   4.627
    1PEG1   C10  152   5.325   4.522   4.561
    1PEG1   C11  153   5.186   4.583   4.596
    1PEG1    O7  154   5.154   4.708   4.501
    1PEG1   C12  155   5.017   4.751   4.507
    1PEG1    O1  156   4.989   4.835   4.394
    1PEG1  C104  157   4.865   4.928   4.412
    1PEG1   O52  158   4.864   5.038   4.297
    1PEG1  C105  159   4.732   5.117   4.290
    1PEG1  C106  160   4.734   5.216   4.173
    1PEG1   O53  161   4.598   5.291   4.162
    1PEG1  C107  162   4.618   5.443   4.165
    1PEG1  C108  163   4.486   5.519   4.196
    1PEG1   O54  164   4.469   5.541   4.337
    1PEG1  C109  165   4.384   5.654   4.362
    1PEG1  C110  166   4.270   5.627   4.465
    1PEG1   O55  167   4.281   5.505   4.541
    1PEG1  C111  168   4.202   5.441   4.643
    1PEG1  C112  169   4.094   5.347   4.586
    1PEG1   O56  170   4.125   5.209   4.610
    1PEG1  C113  171   4.008   5.129   4.588
    1PEG1  C114  172   4.023   4.976   4.588
    1PEG1   O57  173   4.059   4.923   4.460
    1PEG1  C115  174   4.016   4.786   4.448
    1PEG1  C116  175   4.098   4.710   4.340
    1PEG1   O58  176   4.058   4.574   4.321
    1PEG1  C117  177   4.163   4.502   4.253
    1PEG1  C118  178   4.119   4.361   4.203
    1PEG1   O59  179   4.111   4.238   4.311
    1PEG1  C119  180   4.154   4.110   4.260
    1PEG1  C120  181   4.203   4.017   4.376
    1PEG1   O60  182   4.311   3.930   4.337
    1PEG1  C121  183   4.426   3.935   4.424
    1PEG1  C122  184   4.541   3.837   4.383
    1PEG1   O61  185   4.660   3.835   4.466
    1PEG1  C123  186   4.706   3.704   4.506
    1PEG1  C124  187   4.816   3.706   4.614
    1PEG1   O62  188   4.774   3.671   4.749
    1PEG1  C125  189   4.875   3.737   4.887
    1PEG1  C126  190   4.902   3.642   5.010
    1PEG1   O63  191   5.041   3.619   5.055
    1PEG1  C127  192   5.061   3.514   5.153
    1PEG1  C128  193   5.213   3.481   5.180
    1PEG1   O64  194   5.242   3.419   5.308
    1PEG1  C129  195   5.378   3.370   5.321
    1PEG1  C130  196   5.419   3.323   5.466
    1PEG1   O65  197   5.547   3.255   5.473
    1PEG1  C131  198   5.590   3.220   5.608
    1PEG1  C132  199   5.725   3.145   5.620
    1PEG1   O66  200   5.765   3.115   5.756
    1PEG1  C133  201   5.890   3.043   5.774
    1PEG1  C134  202   5.914   2.991   5.919
    1PEG1   O67  203   6.045   2.935   5.945
    1PEG1  C135  204   6.056   2.850   6.062
    1PEG1  C136  205   6.204   2.822   6.111
    1PEG1   O68  206   6.238   2.685   6.232
    1PEG1  C137  207   6.373   2.680   6.285
    1PEG1  C138  208   6.407   2.550   6.368
    1PEG1   O69  209   6.549   2.557   6.478
    1PEG1  C139  210   6.608   2.436   6.530
    1PEG1  C140  211   6.718   2.467   6.638
    1PEG1   O70  212   6.833   2.342   6.692
    1PEG1  C141  213   6.896   2.377   6.818
    1PEG1  C142  214   7.031   2.305   6.852
    1PEG1   O71  215   7.143   2.395   6.872
    1PEG1  C143  216   7.230   2.360   6.981
    1PEG1  C144  217   7.385   2.371   6.945
    1PEG1   O72  218   7.466   2.449   7.036
    1PEG1  C145  219   7.605   2.458   6.992
    1PEG1  C146  220   7.687   2.568   7.067
    1PEG1   O73  221   7.818   2.597   7.007
    1PEG1  C147  222   7.855   2.737   7.012
    1PEG1  C148  223   7.958   2.777   6.902
    1PEG1   O74  224   7.948   2.916   6.866
    1PEG1  C149  225   8.051   2.957   6.774
    1PEG1  C150  226   8.028   3.103   6.723
    1PEG1   O75  227   8.108   3.136   6.607
    1PEG1  C151  228   8.057   3.251   6.537
    1PEG1  C152  229   8.142   3.291   6.413
    1PEG1   O76  230   8.071   3.410   6.323
    1PEG1  C153  231   8.143   3.436   6.201
    1PEG1  C154  232   8.095   3.566   6.131
    1PEG1   O77  233   8.153   3.577   5.979
    1PEG1  C155  234   8.126   3.704   5.918
    1PEG1  C156  235   8.162   3.702   5.767
    1PEG1   O78  236   8.115   3.818   5.697
    1PEG1  C157  237   8.147   3.808   5.557
    1PEG1  C158  238   8.088   3.924   5.473
    1PEG1   O79  239   8.127   3.922   5.334
    1PEG1  C159  240   8.062   4.024   5.257
    1PEG1  C160  241   8.154   4.080   5.146
    1PEG1   O80  242   8.131   4.018   5.019
    1PEG1  C161  243   8.252   4.016   4.942
    1PEG1  C162  244   8.241   3.919   4.823
    1PEG1   O81  245   8.368   3.857   4.797
    1PEG1  C163  246   8.353   3.745   4.708
    1PEG1  C164  247   8.489   3.683   4.676
    1PEG1   O82  248   8.499   3.549   4.727
    1PEG1  C165  249   8.559   3.454   4.621
    1PEG1  C166  250   8.695   3.395   4.661
    1PEG1   O83  251   8.689   3.252   4.664
    1PEG1  C167  252   8.814   3.194   4.624
    1PEG1  C168  253   8.819   3.045   4.662
    1PEG1   O84  254   8.900   2.961   4.578
    1PEG1  C169  255   0.006   2.901   4.654
    1PEG1  C170  256   0.039   2.759   4.600
    1PEG1   O85  257   0.174   2.751   4.554
    1PEG1  C171  258   0.226   2.619   4.576
    1PEG1  C172  259   0.327   2.580   4.465
    1PEG1   O86  260   0.399   2.462   4.504
    1PEG1  C173  261   0.446   2.389   4.390
    1PEG1  C174  262   0.545   2.279   4.431
    1PEG1   O87  263   0.558   2.181   4.327
    1PEG1  C175  264   0.643   2.074   4.372
    1PEG1  C176  265   0.615   1.945   4.293
    1PEG1   O88  266   0.737   1.871   4.275
    1PEG1  C177  267   0.710   1.745   4.213
    1PEG1  C178  268   0.837   1.657   4.215
    1PEG1   O89  269   0.832   1.557   4.112
    1PEG1  C179  270   0.938   1.463   4.132
    1PEG1  C180  271   0.927   1.346   4.032
    1PEG1   O90  272   1.047   1.337   3.955
    1PEG1  C181  273   1.083   1.200   3.931
    1PEG1  C182  274   1.071   1.163   3.782
    1PEG1   O91  275   1.042   1.023   3.770
    1PEG1    HO  276   1.025   1.002   3.681
    2PVA     C1  277   0.169   0.205   4.249
    2PVA     C2  278   0.035   0.257   4.200
    2PVA     C3  279   0.046   0.313   4.057
    2PVA     C4  280   0.047   0.207   3.946
    2PVA     C5  281   0.041   0.275   3.807
    2PVA     C6  282   0.031   0.181   3.686
    2PVA     C7  283   0.031   0.258   3.552
    2PVA     C8  284   8.965   0.191   3.430
    2PVA     C9  285   0.002   0.258   3.296
    2PVA    C10  286   8.915   0.213   3.176
    2PVA    C11  287   8.952   0.282   3.042
    2PVA    C12  288   8.878   0.231   2.916
    2PVA    C13  289   8.887   0.318   2.789
    2PVA    C14  290   8.823   0.259   2.660
    2PVA    C15  291   8.820   0.353   2.537
    2PVA    C16  292   8.723   0.314   2.422
    2PVA    C17  293   8.727   0.397   2.290
    2PVA    C18  294   8.617   0.366   2.184
    2PVA    C19  295   8.612   0.449   2.052
    2PVA    C20  296   8.521   0.402   1.935
    2PVA    C21  297   8.499   0.502   1.818
    2PVA    C22  298   8.474   0.448   1.674
    2PVA    C23  299   8.376   0.531   1.586
    2PVA    C24  300   8.387   0.536   1.431
    2PVA    C25  301   8.259   0.583   1.357
    2PVA    C26  302   8.277   0.655   1.221
    2PVA    C27  303   8.144   0.699   1.155
    2PVA    C28  304   8.151   0.775   1.019
    2PVA    C29  305   8.017   0.836   0.973
    2PVA    C30  306   7.942   0.828   0.837
    2PVA    C31  307   7.822   0.927   0.830
    2PVA    C32  308   7.732   0.966   0.711
    2PVA    C33  309   7.623   1.069   0.752
    2PVA    C34  310   7.539   1.139   0.642
    2PVA    C35  311   7.431   1.230   0.706
    2PVA    C36  312   7.306   1.302   0.650
    2PVA    C37  313   7.256   1.398   0.761
    2PVA    C38  314   7.124   1.478   0.747
    2PVA    C39  315   7.119   1.579   0.865
    2PVA    C40  316   6.985   1.649   0.899
    2PVA    C41  317   7.009   1.751   1.012
    2PVA    C42  318   6.899   1.772   1.119
    2PVA    C43  319   6.945   1.869   1.231
    2PVA    C44  320   6.868   1.879   1.364
    2PVA    C45  321   6.915   1.993   1.459
    2PVA    C46  322   6.881   1.980   1.610
    2PVA    C47  323   6.901   2.105   1.699
    2PVA    C48  324   6.892   2.086   1.853
    2PVA    C49  325   6.895   2.217   1.935
    2PVA    C50  326   6.864   2.241   2.085
    2PVA    C51  327   6.971   2.203   2.191
    2PVA    C52  328   6.950   2.257   2.335
    2PVA    C53  329   7.040   2.192   2.444
    2PVA    C54  330   7.026   2.251   2.587
    2PVA    C55  331   7.097   2.174   2.701
    2PVA    C56  332   7.142   2.238   2.834
    2PVA    C57  333   7.185   2.160   2.961
    2PVA    C58  334   7.235   2.079   3.084
    2PVA    C59  335   7.242   1.924   3.099
    2PVA    C60  336   7.268   1.872   3.244
    2PVA    C61  337   7.319   1.727   3.265
    2PVA    C62  338   7.351   1.693   3.413
    2PVA    C63  339   7.442   1.573   3.451
    2PVA    C64  340   7.388   1.428   3.437
    2PVA    C65  341   7.424   1.320   3.542
    2PVA    C66  342   7.421   1.168   3.513
    2PVA    C67  343   7.498   1.065   3.599
    2PVA    C68  344   7.475   0.917   3.563
    2PVA    C69  345   7.553   0.817   3.651
    2PVA    C70  346   7.555   0.674   3.593
    2PVA    C71  347   7.614   0.565   3.685
    2PVA    C72  348   7.635   0.433   3.608
    2PVA    C73  349   7.712   0.312   3.663
    2PVA    C74  350   7.640   0.220   3.764
    2PVA    C75  351   7.697   0.077   3.770
    2PVA    C76  352   7.631   8.981   3.871
    2PVA    C77  353   7.697   8.949   4.006
    2PVA    C78  354   7.700   0.046   4.124
    2PVA    C79  355   7.749   0.000   4.261
    2PVA    C80  356   7.744   0.122   4.354
    2PVA    C81  357   7.777   0.094   4.501
    2PVA    C82  358   7.895   0.172   4.562
    2PVA    C83  359   8.036   0.122   4.527
    2PVA    C84  360   8.051   8.973   4.562
    2PVA    C85  361   8.189   8.907   4.548
    2PVA    C86  362   8.162   8.761   4.512
    2PVA    C87  363   8.264   8.647   4.491
    2PVA    C88  364   8.301   8.612   4.346
    2PVA    C89  365   8.386   8.710   4.264
    2PVA    C90  366   8.443   8.643   4.137
    2PVA    C91  367   8.548   8.726   4.064
    2PVA    C92  368   8.498   8.858   4.005
    2PVA    C93  369   8.451   8.842   3.860
    2PVA    C94  370   8.507   8.941   3.756
    2PVA    C95  371   8.473   0.088   3.782
    2PVA    C96  372   8.560   0.187   3.704
    2PVA    C97  373   8.484   0.319   3.690
    2PVA    C98  374   8.531   0.407   3.574
    2PVA    C99  375   8.672   0.463   3.590
    2PVA   C100  376   8.713   0.562   3.480
    2PVA   C101  377   8.859   0.603   3.504
    2PVA   C102  378   8.917   0.702   3.402
    2PVA   C103  379   8.855   0.841   3.412
    2PVA     O1  380   8.983   0.350   4.296
    2PVA     O2  381   8.937   0.118   3.966
    2PVA     O3  382   8.915   0.097   3.696
    2PVA     O4  383   8.999   0.052   3.432
    2PVA     O5  384   8.905   0.070   3.160
    2PVA     O6  385   8.740   0.202   2.947
    2PVA     O7  386   8.693   0.206   2.691
    2PVA     O8  387   8.590   0.317   2.478
    2PVA     O9  388   8.491   0.383   2.251
    2PVA   C104  389   8.380   0.364   1.983
    2PVA    O10  390   8.429   0.311   1.673
    2PVA    O11  391   8.428   0.411   1.374
    2PVA    O12  392   8.347   0.572   1.128
    2PVA    O13  393   8.205   0.692   0.915
    2PVA    O14  394   8.038   0.850   0.732
    2PVA    O15  395   7.668   0.849   0.660
    2PVA    O16  396   7.482   1.047   0.547
    2PVA    O17  397   7.337   1.378   0.532
    2PVA    O18  398   7.122   1.548   0.623
    2PVA    O19  399   6.938   1.714   0.780
    2PVA    O20  400   6.866   1.642   1.170
    2PVA    O21  401   6.872   1.754   1.435
    2PVA    O22  402   6.749   1.927   1.627
    2PVA    O23  403   6.776   2.009   1.886
    2PVA    O24  404   6.824   2.377   2.105
    2PVA    O25  405   6.974   2.399   2.331
    2PVA    O26  406   7.069   2.389   2.589
    2PVA    O27  407   7.051   2.342   2.873
    2PVA    O28  408   7.173   2.140   3.199
    2PVA    O29  409   7.354   1.961   3.318
    2PVA    O30  410   7.228   1.688   3.487
    2PVA    O31  411   7.499   1.597   3.582
    2PVA    O32  412   7.545   1.345   3.616
    2PVA    O33  413   7.475   1.088   3.738
    2PVA    O34  414   7.494   0.813   3.781
    2PVA    O35  415   7.521   0.543   3.793
    2PVA    O36  416   7.766   0.235   3.554
    2PVA    O37  417   7.841   0.075   3.781
    2PVA    O38  418   7.833   8.905   3.986
    2PVA    O39  419   7.883   8.948   4.259
    2PVA    O40  420   7.661   0.123   4.580
    2PVA    O41  421   8.055   0.144   4.385
    2PVA    O42  422   8.273   8.968   4.448
    2PVA    O43  423   8.385   8.667   4.565
    2PVA    O44  424   8.484   8.778   4.347
    2PVA    O45  425   8.508   8.516   4.161
    2PVA    O46  426   8.606   8.950   4.029
    2PVA    O47  427   8.646   8.912   3.735
    2PVA    O48  428   8.678   0.206   3.783
    2PVA    O49  429   8.522   0.332   3.451
    2PVA    O50  430   8.701   0.501   3.350
    2PVA    O51  431   8.903   0.653   3.267
    2PVA   H157  432   8.944   0.298   4.373
    2PVA   H158  433   8.854   0.173   3.985
    2PVA   H159  434   8.919   0.052   3.787
    2PVA   H160  435   0.002   0.025   3.529
    2PVA   H161  436   8.826   0.039   3.214
    2PVA   H162  437   8.734   0.108   2.987
    2PVA   H163  438   8.687   0.200   2.792
    2PVA   H164  439   8.593   0.260   2.562
    2PVA   H165  440   8.499   0.334   2.340
    2PVA   H169  441   8.471   0.264   1.593
    2PVA   H170  442   8.432   0.423   1.274
    2PVA   H171  443   8.317   0.599   1.035
    2PVA   H172  444   8.158   0.717   0.829
    2PVA   H173  445   7.990   0.883   0.650
    2PVA   H174  446   7.604   0.877   0.587
    2PVA   H175  447   7.496   1.084   0.454
    2PVA   H176  448   7.359   1.315   0.457
    2PVA   H177  449   7.176   1.496   0.555
    2PVA   H178  450   6.969   1.660   0.701
    2PVA   H179  451   6.772   1.617   1.139
    2PVA   H180  452   6.804   1.762   1.510
    2PVA   H181  453   6.726   1.939   1.725
    2PVA   H182  454   6.693   2.068   1.887
    2PVA   H183  455   6.881   2.413   2.182
    2PVA   H184  456   7.010   2.426   2.422
    2PVA   H185  457   7.066   2.419   2.685
    2PVA   H186  458   7.035   2.336   2.972
    2PVA   H187  459   7.204   2.088   3.280
    2PVA   H188  460   7.346   1.938   3.416
    2PVA   H189  461   7.248   1.704   3.585
    2PVA   H190  462   7.535   1.506   3.613
    2PVA   H191  463   7.555   1.270   3.683
    2PVA   H192  464   7.492   1.000   3.786
    2PVA   H193  465   7.498   0.716   3.812
    2PVA   H194  466   7.447   0.479   3.762
    2PVA   H195  467   7.820   0.161   3.597
    2PVA   H196  468   7.863   0.015   3.861
    2PVA   H197  469   7.877   8.900   4.077
    2PVA   H198  470   7.949   0.019   4.288
    2PVA   H199  471   7.683   0.111   4.678
    2PVA   H200  472   8.105   0.232   4.371
    2PVA   H201  473   8.355   8.910   4.434
    2PVA   H202  474   8.449   8.715   4.503
    2PVA   H203  475   8.547   8.831   4.288
    2PVA   H204  476   8.558   8.487   4.078
    2PVA   H205  477   8.695   8.903   4.009
    2PVA   H206  478   8.696   8.917   3.823
    2PVA   H207  479   8.756   0.161   3.735
    2PVA   H208  480   8.577   0.384   3.383
    2PVA   H209  481   8.769   0.549   3.291
    2PVA   H210  482   8.963   0.705   3.205
    3ACTN    H6  483   4.240   6.230   0.472
    3ACTN    C3  484   4.268   6.139   0.419
    3ACTN    H4  485   4.261   6.055   0.488
    3ACTN    H5  486   4.197   6.123   0.339
    3ACTN    C2  487   4.407   6.152   0.364
    3ACTN    O1  488   4.496   6.076   0.400
    3ACTN    C1  489   4.437   6.262   0.267
    3ACTN    H1  490   4.475   6.220   0.174
    3ACTN    H2  491   4.513   6.329   0.307
    3ACTN    H3  492   4.348   6.320   0.244
    4ACTN    H6  493   2.562   0.644   4.668
    4ACTN    C3  494   2.664   0.678   4.651
    4ACTN    H4  495   2.727   0.641   4.731
    4ACTN    H5  496   2.699   0.636   4.557
    4ACTN    C2  497   2.668   0.827   4.647
    4ACTN    O1  498   2.630   0.892   4.744
    4ACTN    C1  499   2.720   0.895   4.524
    4ACTN    H1  500   2.825   0.871   4.511
    4ACTN    H2  501   2.711   1.003   4.532
    4ACTN    H3  502   2.666   0.862   4.436
    5ACTN    H6  503   5.976   3.399   2.322
    5ACTN    C3  504   5.969   3.311   2.384
    5ACTN    H4  505   5.940   3.341   2.485
    5ACTN    H5  506   5.891   3.247   2.344
    5ACTN    C2  507   6.100   3.240   2.389
    5ACTN    O1  508   6.109   3.122   2.354
    5ACTN    C1  509   6.220   3.311   2.442
    5ACTN    H1  510   6.195   3.414   2.468
    5ACTN    H2  511   6.299   3.313   2.368
    5ACTN    H3  512   6.257   3.262   2.531
    6ACTN    H6  513   1.130   1.074   5.817
    6ACTN    C3  514   1.098   1.131   5.730
    6ACTN    H4  515   1.082   1.234   5.759
    6ACTN    H5  516   1.178   1.128   5.656
    6ACTN    C2  517   0.972   1.072   5.674
    6ACTN    O1  518   0.868   1.076   5.739
    6ACTN    C1  519   0.973   1.017   5.535
    6ACTN    H1  520   0.997   1.095   5.463
    6ACTN    H2  521   0.877   0.974   5.508
    6ACTN    H3  522   1.048   0.938   5.527
    7ACTN    H6  523   4.178   4.306   5.748
    7ACTN    C3  524   4.123   4.237   5.811
    7ACTN    H4  525   4.063   4.173   5.747
    7ACTN    H5  526   4.195   4.175   5.863
    7ACTN    C2  527   4.036   4.309   5.909
    7ACTN    O1  528   3.968   4.246   5.989
    7ACTN    C1  529   4.034   4.459   5.910
    7ACTN    H1  530   4.070   4.496   6.006
    7ACTN    H2  531   3.933   4.496   5.896
    7ACTN    H3  532   4.097   4.501   5.832
    8ACTN    H6  533   4.634   1.847   5.823
    8ACTN    C3  534   4.648   1.751   5.773
    8ACTN    H4  535   4.731   1.700   5.821
    8ACTN    H5  536   4.558   1.691   5.787
    8ACTN    C2  537   4.674   1.773   5.627
    8ACTN    O1  538   4.777   1.731   5.574
    8ACTN    C1  539   4.572   1.845   5.545
    8ACTN    H1  540   4.487   1.875   5.606
    8ACTN    H2  541   4.536   1.782   5.465
    8ACTN    H3  542   4.615   1.935   5.502
    9ACTN    H6  543   6.850   5.809   0.302
    9ACTN    C3  544   6.892   5.901   0.343
    9ACTN    H4  545   6.843   5.921   0.437
    9ACTN    H5  546   6.997   5.885   0.362
    9ACTN    C2  547   6.871   6.014   0.246
    9ACTN    O1  548   6.760   6.062   0.231
    9ACTN    C1  549   6.992   6.076   0.183
    9ACTN    H1  550   7.045   6.002   0.124
    9ACTN    H2  551   7.058   6.116   0.259
    9ACTN    H3  552   6.964   6.158   0.116
   10ACTN    H6  553   7.008   5.388   1.614
   10ACTN    C3  554   7.101   5.394   1.558
   10ACTN    H4  555   7.092   5.474   1.485
   10ACTN    H5  556   7.180   5.420   1.628
   10ACTN    C2  557   7.129   5.263   1.491
   10ACTN    O1  558   7.053   5.222   1.404
   10ACTN    C1  559   7.255   5.188   1.522
   10ACTN    H1  560   7.319   5.245   1.589
   10ACTN    H2  561   7.311   5.167   1.431
   10ACTN    H3  562   7.231   5.094   1.571
   11ACTN    H6  563   6.286   3.239   7.180
   11ACTN    C3  564   6.264   3.159   7.250
   11ACTN    H4  565   6.301   3.189   7.348
   11ACTN    H5  566   6.156   3.147   7.256
   11ACTN    C2  567   6.328   3.030   7.208
   11ACTN    O1  568   6.319   2.930   7.278
   11ACTN    C1  569   6.406   3.024   7.080
   11ACTN    H1  570   6.405   3.120   7.028
   11ACTN    H2  571   6.365   2.949   7.013
   11ACTN    H3  572   6.510   2.998   7.100
   12ACTN    H6  573   0.589   4.792   0.812
   12ACTN    C3  574   0.590   4.736   0.719
   12ACTN    H4  575   0.630   4.637   0.739
   12ACTN    H5  576   0.487   4.724   0.685
   12ACTN    C2  577   0.674   4.805   0.616
   12ACTN    O1  578   0.792   4.830   0.639
   12ACTN    C1  579   0.612   4.848   0.486
   12ACTN    H1  580   0.505   4.827   0.484
   12ACTN    H2  581   0.658   4.794   0.404
   12ACTN    H3  582   0.626   4.954   0.470
   13ACTN    H6  583   5.729   1.196   6.066
   13ACTN    C3  584   5.755   1.299   6.044
   13ACTN    H4  585   5.812   1.301   5.951
   13ACTN    H5  586   5.664   1.356   6.030
   13ACTN    C2  587   5.837   1.358   6.155
   13ACTN    O1  588   5.866   1.477   6.152
   13ACTN    C1  589   5.874   1.274   6.274
   13ACTN    H1  590   5.828   1.176   6.269
   13ACTN    H2  591   5.842   1.322   6.366
   13ACTN    H3  592   5.981   1.261   6.277
   14ACTN    H6  593   5.536   5.289   1.103
   14ACTN    C3  594   5.465   5.370   1.116
   14ACTN    H4  595   5.411   5.354   1.209
   14ACTN    H5  596   5.521   5.463   1.125
   14ACTN    C2  597   5.370   5.374   1.000
   14ACTN    O1  598   5.361   5.473   0.930
   14ACTN    C1  599   5.289   5.252   0.970
   14ACTN    H1  600   5.312   5.170   1.037
   14ACTN    H2  601   5.307   5.219   0.868
   14ACTN    H3  602   5.183   5.274   0.979
   15ACTN    H6  603   6.320   5.180   2.969
   15ACTN    C3  604   6.362   5.122   2.888
   15ACTN    H4  605   6.342   5.173   2.794
   15ACTN    H5  606   6.469   5.117   2.901
   15ACTN    C2  607   6.305   4.983   2.887
   15ACTN    O1  608   6.308   4.915   2.989
   15ACTN    C1  609   6.233   4.933   2.766
   15ACTN    H1  610   6.286   4.849   2.723
   15ACTN    H2  611   6.224   5.010   2.690
   15ACTN    H3  612   6.133   4.899   2.792
   16ACTN    H6  613   7.151   7.168   2.586
   16ACTN    C3  614   7.201   7.087   2.639
   16ACTN    H4  615   7.305   7.115   2.654
   16ACTN    H5  616   7.153   7.075   2.736
   16ACTN    C2  617   7.193   6.959   2.561
   16ACTN    O1  618   7.248   6.858   2.603
   16ACTN    C1  619   7.119   6.956   2.431
   16ACTN    H1  620   7.184   6.920   2.352
   16ACTN    H2  621   7.085   7.056   2.403
   16ACTN    H3  622   7.033   6.891   2.437
   17ACTN    H6  623   1.859   0.659   1.267
   17ACTN    C3  624   1.764   0.611   1.287
   17ACTN    H4  625   1.695   0.640   1.209
   17ACTN    H5  626   1.777   0.503   1.281
   17ACTN    C2  627   1.709   0.649   1.421
   17ACTN    O1  628   1.777   0.715   1.500
   17ACTN    C1  629   1.577   0.592   1.464
   17ACTN    H1  630   1.586   0.541   1.559
   17ACTN    H2  631   1.540   0.521   1.391
   17ACTN    H3  632   1.504   0.672   1.475
   18ACTN    H6  633   0.795   0.883   1.064
   18ACTN    C3  634   0.874   0.938   1.114
   18ACTN    H4  635   0.919   0.873   1.189
   18ACTN    H5  636   0.950   0.962   1.041
   18ACTN    C2  637   0.818   1.061   1.178
   18ACTN    O1  638   0.848   1.173   1.137
   18ACTN    C1  639   0.719   1.047   1.289
   18ACTN    H1  640   0.701   0.943   1.312
   18ACTN    H2  641   0.625   1.093   1.262
   18ACTN    H3  642   0.756   1.096   1.380
   19ACTN    H6  643   6.471   0.212   3.386
   19ACTN    C3  644   6.494   0.287   3.310
   19ACTN    H4  645   6.516   0.235   3.217
   19ACTN    H5  646   6.404   0.347   3.294
   19ACTN    C2  647   6.609   0.372   3.352
   19ACTN    O1  648   6.720   0.322   3.371
   19ACTN    C1  649   6.588   0.519   3.374
   19ACTN    H1  650   6.644   0.576   3.300
   19ACTN    H2  651   6.622   0.548   3.473
   19ACTN    H3  652   6.483   0.546   3.364
   20ACTN    H6  653   3.754   4.481   0.812
   20ACTN    C3  654   3.811   4.393   0.782
   20ACTN    H4  655   3.778   4.365   0.682
   20ACTN    H5  656   3.916   4.420   0.778
   20ACTN    C2  657   3.790   4.282   0.880
   20ACTN    O1  658   3.722   4.185   0.850
   20ACTN    C1  659   3.841   4.298   1.019
   20ACTN    H1  660   3.882   4.398   1.035
   20ACTN    H2  661   3.920   4.226   1.038
   20ACTN    H3  662   3.762   4.282   1.092
   21ACTN    H6  663   3.831   1.411   6.464
   21ACTN    C3  664   3.766   1.345   6.407
   21ACTN    H4  665   3.672   1.335   6.461
   21ACTN    H5  666   3.746   1.391   6.311
   21ACTN    C2  667   3.830   1.211   6.388
   21ACTN    O1  668   3.766   1.119   6.339
   21ACTN    C1  669   3.968   1.186   6.441
   21ACTN    H1  670   4.033   1.152   6.360
   21ACTN    H2  671   3.966   1.109   6.518
   21ACTN    H3  672   4.011   1.277   6.482
   22ACTN    H6  673   0.525   1.544   5.275
   22ACTN    C3  674   0.431   1.492   5.258
   22ACTN    H4  675   0.401   1.512   5.155
   22ACTN    H5  676   0.448   1.385   5.268
   22ACTN    C2  677   0.326   1.540   5.352
   22ACTN    O1  678   0.294   1.658   5.353
   22ACTN    C1  679   0.260   1.445   5.447
   22ACTN    H1  680   0.153   1.440   5.426
   22ACTN    H2  681   0.274   1.478   5.550
   22ACTN    H3  682   0.301   1.345   5.437
   23ACTN    H6  683   1.216   0.884   4.847
   23ACTN    C3  684   1.238   0.991   4.843
   23ACTN    H4  685   1.144   1.045   4.830
   23ACTN    H5  686   1.283   1.021   4.937
   23ACTN    C2  687   1.331   1.022   4.729
   23ACTN    O1  688   1.367   0.933   4.652
   23ACTN    C1  689   1.377   1.163   4.709
   23ACTN    H1  690   1.344   1.199   4.612
   23ACTN    H2  691   1.486   1.167   4.713
   23ACTN    H3  692   1.337   1.228   4.786
   24ACTN    H6  693   3.490   6.168   4.348
   24ACTN    C3  694   3.394   6.170   4.398
   24ACTN    H4  695   3.353   6.069   4.401
   24ACTN    H5  696   3.410   6.202   4.501
   24ACTN    C2  697   3.300   6.264   4.329
   24ACTN    O1  698   3.333   6.380   4.309
   24ACTN    C1  699   3.169   6.212   4.279
   24ACTN    H1  700   3.110   6.291   4.233
   24ACTN    H2  701   3.112   6.169   4.361
   24ACTN    H3  702   3.185   6.134   4.204
   25ACTN    H6  703   4.410   1.972   0.805
   25ACTN    C3  704   4.425   1.940   0.908
   25ACTN    H4  705   4.378   1.843   0.921
   25ACTN    H5  706   4.532   1.929   0.926
   25ACTN    C2  707   4.365   2.040   1.002
   25ACTN    O1  708   4.434   2.098   1.086
   25ACTN    C1  709   4.219   2.071   0.992
   25ACTN    H1  710   4.203   2.172   0.956
   25ACTN    H2  711   4.171   2.062   1.090
   25ACTN    H3  712   4.169   2.001   0.924
   26ACTN    H6  713   4.476   0.449   5.612
   26ACTN    C3  714   4.458   0.412   5.511
   26ACTN    H4  715   4.406   0.491   5.456
   26ACTN    H5  716   4.554   0.395   5.463
   26ACTN    C2  717   4.377   0.287   5.513
   26ACTN    O1  718   4.344   0.232   5.408
   26ACTN    C1  719   4.337   0.228   5.645
   26ACTN    H1  720   4.275   0.140   5.633
   26ACTN    H2  721   4.281   0.301   5.703
   26ACTN    H3  722   4.426   0.201   5.702
   27ACTN    H6  723   0.782   0.940   5.115
   27ACTN    C3  724   0.838   1.007   5.050
   27ACTN    H4  725   0.943   0.980   5.056
   27ACTN    H5  726   0.805   0.992   4.948
   27ACTN    C2  727   0.816   1.150   5.091
   27ACTN    O1  728   0.911   1.223   5.114
   27ACTN    C1  729   0.676   1.203   5.095
   27ACTN    H1  730   0.651   1.233   5.197
   27ACTN    H2  731   0.605   1.128   5.063
   27ACTN    H3  732   0.667   1.290   5.031
   28ACTN    H6  733   2.716   1.443   3.144
   28ACTN    C3  734   2.744   1.489   3.049
   28ACTN    H4  735   2.781   1.411   2.983
   28ACTN    H5  736   2.654   1.531   3.005
   28ACTN    C2  737   2.846   1.596   3.070
   28ACTN    O1  738   2.958   1.588   3.021
   28ACTN    C1  739   2.810   1.712   3.158
   28ACTN    H1  740   2.891   1.785   3.163
   28ACTN    H2  741   2.786   1.679   3.258
   28ACTN    H3  742   2.723   1.763   3.118
   29ACTN    H6  743   2.042   1.884   3.853
   29ACTN    C3  744   2.086   1.800   3.800
   29ACTN    H4  745   2.046   1.798   3.699
   29ACTN    H5  746   2.056   1.709   3.850
   29ACTN    C2  747   2.235   1.810   3.797
   29ACTN    O1  748   2.302   1.719   3.749
   29ACTN    C1  749   2.301   1.929   3.858
   29ACTN    H1  750   2.409   1.927   3.844
   29ACTN    H2  751   2.281   1.932   3.965
   29ACTN    H3  752   2.263   2.021   3.814
   30ACTN    H6  753   2.796   5.465   3.276
   30ACTN    C3  754   2.865   5.439   3.196
   30ACTN    H4  755   2.818   5.466   3.101
   30ACTN    H5  756   2.955   5.498   3.208
   30ACTN    C2  757   2.895   5.293   3.199
   30ACTN    O1  758   2.804   5.211   3.185
   30ACTN    C1  759   3.036   5.245   3.215
   30ACTN    H1  760   3.044   5.180   3.302
   30ACTN    H2  761   3.104   5.329   3.228
   30ACTN    H3  762   3.068   5.190   3.127
   31ACTN    H6  763   6.850   3.628   3.115
   31ACTN    C3  764   6.760   3.581   3.078
   31ACTN    H4  765   6.695   3.658   3.038
   31ACTN    H5  766   6.786   3.514   2.996
   31ACTN    C2  767   6.690   3.507   3.188
   31ACTN    O1  768   6.640   3.569   3.281
   31ACTN    C1  769   6.682   3.357   3.184
   31ACTN    H1  770   6.734   3.317   3.096
   31ACTN    H2  771   6.579   3.325   3.179
   31ACTN    H3  772   6.727   3.314   3.273
   32ACTN    H6  773   6.069   1.977   3.823
   32ACTN    C3  774   6.159   1.917   3.814
   32ACTN    H4  775   6.136   1.817   3.849
   32ACTN    H5  776   6.185   1.911   3.709
   32ACTN    C2  777   6.270   1.977   3.895
   32ACTN    O1  778   6.257   1.990   4.016
   32ACTN    C1  779   6.396   2.018   3.825
   32ACTN    H1  780   6.469   2.058   3.896
   32ACTN    H2  781   6.376   2.094   3.751
   32ACTN    H3  782   6.440   1.932   3.775
   33ACTN    H6  783   7.582   0.679   6.516
   33ACTN    C3  784   7.495   0.672   6.452
   33ACTN    H4  785   7.507   0.744   6.371
   33ACTN    H5  786   7.492   0.573   6.409
   33ACTN    C2  787   7.370   0.702   6.529
   33ACTN    O1  788   7.356   0.811   6.584
   33ACTN    C1  789   7.262   0.598   6.537
   33ACTN    H1  790   7.246   0.567   6.640
   33ACTN    H2  791   7.287   0.510   6.479
   33ACTN    H3  792   7.168   0.638   6.500
   34ACTN    H6  793   4.540   0.478   4.914
   34ACTN    C3  794   4.607   0.563   4.905
   34ACTN    H4  795   4.554   0.643   4.852
   34ACTN    H5  796   4.630   0.599   5.005
   34ACTN    C2  797   4.732   0.525   4.833
   34ACTN    O1  798   4.805   0.437   4.878
   34ACTN    C1  799   4.766   0.595   4.705
   34ACTN    H1  800   4.775   0.702   4.722
   34ACTN    H2  801   4.688   0.579   4.631
   34ACTN    H3  802   4.860   0.559   4.664
   35ACTN    H6  803   0.947   4.669   2.725
   35ACTN    C3  804   0.907   4.724   2.640
   35ACTN    H4  805   0.869   4.819   2.676
   35ACTN    H5  806   0.988   4.742   2.570
   35ACTN    C2  807   0.798   4.646   2.572
   35ACTN    O1  808   0.779   4.528   2.601
   35ACTN    C1  809   0.723   4.711   2.461
   35ACTN    H1  810   0.645   4.646   2.421
   35ACTN    H2  811   0.791   4.736   2.379
   35ACTN    H3  812   0.676   4.803   2.495
   36ACTN    H6  813   5.366   6.219   1.171
   36ACTN    C3  814   5.468   6.239   1.139
   36ACTN    H4  815   5.535   6.173   1.194
   36ACTN    H5  816   5.476   6.215   1.033
   36ACTN    C2  817   5.507   6.381   1.162
   36ACTN    O1  818   5.444   6.451   1.241
   36ACTN    C1  819   5.639   6.428   1.108
   36ACTN    H1  820   5.720   6.373   1.156
   36ACTN    H2  821   5.654   6.535   1.126
   36ACTN    H3  822   5.643   6.410   1.001
   37ACTN    H6  823   4.615   2.744   2.143
   37ACTN    C3  824   4.588   2.713   2.244
   37ACTN    H4  825   4.570   2.606   2.243
   37ACTN    H5  826   4.673   2.733   2.309
   37ACTN    C2  827   4.467   2.786   2.292
   37ACTN    O1  828   4.424   2.766   2.405
   37ACTN    C1  829   4.398   2.883   2.200
   37ACTN    H1  830   4.312   2.929   2.248
   37ACTN    H2  831   4.364   2.832   2.111
   37ACTN    H3  832   4.467   2.962   2.170
   38ACTN    H6  833   2.998   2.054   2.657
   38ACTN    C3  834   3.041   2.001   2.743
   38ACTN    H4  835   3.114   1.930   2.707
   38ACTN    H5  836   3.092   2.074   2.805
   38ACTN    C2  837   2.932   1.931   2.819
   38ACTN    O1  838   2.903   1.967   2.933
   38ACTN    C1  839   2.857   1.821   2.752
   38ACTN    H1  840   2.751   1.843   2.748
   38ACTN    H2  841   2.870   1.728   2.807
   38ACTN    H3  842   2.893   1.805   2.651
   39ACTN    H6  843   6.435   5.328   0.823
   39ACTN    C3  844   6.512   5.286   0.760
   39ACTN    H4  845   6.608   5.302   0.808
   39ACTN    H5  846   6.495   5.179   0.753
   39ACTN    C2  847   6.508   5.348   0.624
   39ACTN    O1  848   6.600   5.419   0.585
   39ACTN    C1  849   6.384   5.334   0.540
   39ACTN    H1  850   6.407   5.280   0.449
   39ACTN    H2  851   6.344   5.431   0.514
   39ACTN    H3  852   6.308   5.278   0.594
   40ACTN    H6  853   0.951   3.804   4.541
   40ACTN    C3  854   1.019   3.723   4.519
   40ACTN    H4  855   0.961   3.632   4.505
   40ACTN    H5  856   1.070   3.745   4.425
   40ACTN    C2  857   1.120   3.704   4.628
   40ACTN    O1  858   1.117   3.776   4.727
   40ACTN    C1  859   1.222   3.595   4.616
   40ACTN    H1  860   1.213   3.526   4.699
   40ACTN    H2  861   1.322   3.637   4.616
   40ACTN    H3  862   1.209   3.540   4.523
   41ACTN    H6  863   0.230   6.303   0.797
   41ACTN    C3  864   0.297   6.227   0.757
   41ACTN    H4  865   0.399   6.251   0.788
   41ACTN    H5  866   0.292   6.230   0.649
   41ACTN    C2  867   0.259   6.092   0.809
   41ACTN    O1  868   0.261   6.069   0.929
   41ACTN    C1  869   0.217   5.986   0.712
   41ACTN    H1  870   0.127   6.016   0.660
   41ACTN    H2  871   0.197   5.892   0.763
   41ACTN    H3  872   0.295   5.969   0.639
   42ACTN    H6  873   1.018   6.859   2.853
   42ACTN    C3  874   1.015   6.939   2.927
   42ACTN    H4  875   1.055   7.029   2.881
   42ACTN    H5  876   0.911   6.957   2.953
   42ACTN    C2  877   1.095   6.901   3.048
   42ACTN    O1  878   1.213   6.873   3.037
   42ACTN    C1  879   1.027   6.897   3.181
   42ACTN    H1  880   1.096   6.867   3.260
   42ACTN    H2  881   0.944   6.827   3.179
   42ACTN    H3  882   0.989   6.996   3.206
   43ACTN    H6  883   4.270   5.266   0.747
   43ACTN    C3  884   4.327   5.358   0.754
   43ACTN    H4  885   4.316   5.410   0.659
   43ACTN    H5  886   4.284   5.420   0.832
   43ACTN    C2  887   4.471   5.331   0.781
   43ACTN    O1  888   4.511   5.218   0.808
   43ACTN    C1  889   4.567   5.446   0.785
   43ACTN    H1  890   4.516   5.539   0.761
   43ACTN    H2  891   4.647   5.431   0.712
   43ACTN    H3  892   4.612   5.455   0.883
   44ACTN    H6  893   0.646   0.196   0.406
   44ACTN    C3  894   0.713   0.179   0.322
   44ACTN    H4  895   0.692   0.081   0.280
   44ACTN    H5  896   0.692   0.254   0.246
   44ACTN    C2  897   0.855   0.186   0.368
   44ACTN    O1  898   0.939   0.243   0.299
   44ACTN    C1  899   0.897   0.096   0.480
   44ACTN    H1  900   0.889   8.992   0.449
   44ACTN    H2  901   0.834   0.111   0.566
   44ACTN    H3  902   1.000   0.115   0.510
   45ACTN    H6  903   1.118   0.577   5.548
   45ACTN    C3  904   1.046   0.507   5.589
   45ACTN    H4  905   1.065   0.409   5.547
   45ACTN    H5  906   1.061   0.502   5.696
   45ACTN    C2  907   0.907   0.553   5.558
   45ACTN    O1  908   0.866   0.659   5.603
   45ACTN    C1  909   0.817   0.461   5.482
   45ACTN    H1  910   0.865   0.431   5.389
   45ACTN    H2  911   0.723   0.509   5.456
   45ACTN    H3  912   0.796   0.372   5.540
   46ACTN    H6  913   5.865   1.235   4.624
   46ACTN    C3  914   5.886   1.336   4.658
   46ACTN    H4  915   5.873   1.338   4.766
   46ACTN    H5  916   5.814   1.403   4.613
   46ACTN    C2  917   6.025   1.375   4.618
   46ACTN    O1  918   6.106   1.413   4.702
   46ACTN    C1  919   6.061   1.374   4.473
   46ACTN    H1  920   6.000   1.445   4.419
   46ACTN    H2  921   6.044   1.275   4.432
   46ACTN    H3  922   6.166   1.400   4.458
   47ACTN    H6  923   5.997   2.186   6.137
   47ACTN    C3  924   5.904   2.131   6.145
   47ACTN    H4  925   5.911   2.041   6.084
   47ACTN    H5  926   5.890   2.102   6.249
   47ACTN    C2  927   5.790   2.217   6.099
   47ACTN    O1  928   5.779   2.246   5.980
   47ACTN    C1  929   5.682   2.253   6.196
   47ACTN    H1  930   5.631   2.164   6.230
   47ACTN    H2  931   5.610   2.321   6.152
   47ACTN    H3  932   5.726   2.302   6.283
   48ACTN    H6  933   2.293   2.070   5.255
   48ACTN    C3  934   2.362   2.018   5.189
   48ACTN    H4  935   2.347   2.055   5.088
   48ACTN    H5  936   2.463   2.043   5.219
   48ACTN    C2  937   2.338   1.870   5.195
   48ACTN    O1  938   2.423   1.794   5.240
   48ACTN    C1  939   2.206   1.817   5.149
   48ACTN    H1  940   2.140   1.897   5.119
   48ACTN    H2  941   2.159   1.761   5.229
   48ACTN    H3  942   2.221   1.750   5.064
   49ACTN    H6  943   3.194   3.802   7.335
   49ACTN    C3  944   3.291   3.777   7.293
   49ACTN    H4  945   3.350   3.727   7.370
   49ACTN    H5  946   3.277   3.709   7.210
   49ACTN    C2  947   3.359   3.902   7.245
   49ACTN    O1  948   3.467   3.937   7.292
   49ACTN    C1  949   3.295   3.984   7.138
   49ACTN    H1  950   3.362   3.994   7.053
   49ACTN    H2  951   3.270   4.083   7.175
   49ACTN    H3  952   3.203   3.936   7.103
   50ACTN    H6  953   1.749   6.697   4.654
   50ACTN    C3  954   1.722   6.660   4.753
   50ACTN    H4  955   1.754   6.556   4.761
   50ACTN    H5  956   1.777   6.718   4.827
   50ACTN    C2  957   1.575   6.674   4.775
   50ACTN    O1  958   1.504   6.575   4.782
   50ACTN    C1  959   1.516   6.812   4.776
   50ACTN    H1  960   1.410   6.808   4.797
   50ACTN    H2  961   1.530   6.859   4.679
   50ACTN    H3  962   1.564   6.872   4.852
   51ACTN    H6  963   6.758   7.219   4.196
   51ACTN    C3  964   6.756   7.301   4.125
   51ACTN    H4  965   6.689   7.273   4.044
   51ACTN    H5  966   6.713   7.388   4.175
   51ACTN    C2  967   6.893   7.329   4.073
   51ACTN    O1  968   6.944   7.440   4.087
   51ACTN    C1  969   6.967   7.219   4.004
   51ACTN    H1  970   6.980   7.135   4.071
   51ACTN    H2  971   7.065   7.252   3.970
   51ACTN    H3  972   6.911   7.185   3.917
   52ACTN    H6  973   2.845   2.189   4.935
   52ACTN    C3  974   2.774   2.159   4.858
   52ACTN    H4  975   2.678   2.206   4.880
   52ACTN    H5  976   2.809   2.196   4.762
   52ACTN    C2  977   2.761   2.010   4.855
   52ACTN    O1  978   2.860   1.940   4.834
   52ACTN    C1  979   2.627   1.948   4.884
   52ACTN    H1  980   2.594   1.976   4.984
   52ACTN    H2  981   2.632   1.840   4.878
   52ACTN    H3  982   2.554   1.983   4.812
   53ACTN    H6  983   1.345   5.498   3.037
   53ACTN    C3  984   1.367   5.428   2.956
   53ACTN    H4  985   1.396   5.333   3.000
   53ACTN    H5  986   1.277   5.413   2.898
   53ACTN    C2  987   1.476   5.484   2.869
   53ACTN    O1  988   1.571   5.414   2.838
   53ACTN    C1  989   1.456   5.617   2.804
   53ACTN    H1  990   1.355   5.654   2.820
   53ACTN    H2  991   1.474   5.611   2.697
   53ACTN    H3  992   1.525   5.690   2.846
   54ACTN    H6  993   2.880   6.781   6.046
   54ACTN    C3  994   2.909   6.692   5.990
   54ACTN    H4  995   3.017   6.692   5.981
   54ACTN    H5  996   2.879   6.605   6.047
   54ACTN    C2  997   2.843   6.692   5.856
   54ACTN    O1  998   2.908   6.669   5.755
   54ACTN    C1  999   2.695   6.709   5.850
   54ACTN    H1 1000   2.652   6.719   5.950
   54ACTN    H2 1001   2.649   6.623   5.802
   54ACTN    H3 1002   2.669   6.798   5.793
   55ACTN    H6 1003   0.884   7.056   2.086
   55ACTN    C3 1004   0.896   6.975   2.015
   55ACTN    H4 1005   0.797   6.936   1.992
   55ACTN    H5 1006   0.937   7.016   1.923
   55ACTN    C2 1007   0.982   6.866   2.069
   55ACTN    O1 1008   1.029   6.782   1.992
   55ACTN    C1 1009   1.025   6.869   2.212
   55ACTN    H1 1010   0.991   6.959   2.262
   55ACTN    H2 1011   1.133   6.864   2.221
   55ACTN    H3 1012   0.983   6.783   2.265
   56ACTN    H6 1013   1.891   1.732   6.169
   56ACTN    C3 1014   1.875   1.719   6.062
   56ACTN    H4 1015   1.946   1.780   6.008
   56ACTN    H5 1016   1.894   1.615   6.038
   56ACTN    C2 1017   1.735   1.758   6.025
   56ACTN    O1 1018   1.657   1.677   5.977
   56ACTN    C1 1019   1.690   1.899   6.051
   56ACTN    H1 1020   1.769   1.956   6.101
   56ACTN    H2 1021   1.602   1.900   6.114
   56ACTN    H3 1022   1.666   1.949   5.958
   57ACTN    H6 1023   6.310   2.811   1.708
   57ACTN    C3 1024   6.365   2.854   1.791
   57ACTN    H4 1025   6.385   2.774   1.862
   57ACTN    H5 1026   6.459   2.892   1.754
   57ACTN    C2 1027   6.285   2.964   1.854
   57ACTN    O1 1028   6.260   2.963   1.974
   57ACTN    C1 1029   6.253   3.084   1.770
   57ACTN    H1 1030   6.345   3.136   1.742
   57ACTN    H2 1031   6.189   3.154   1.823
   57ACTN    H3 1032   6.203   3.053   1.679
   58ACTN    H6 1033   6.891   1.252   3.611
   58ACTN    C3 1034   6.790   1.289   3.600
   58ACTN    H4 1035   6.732   1.256   3.686
   58ACTN    H5 1036   6.794   1.398   3.600
   58ACTN    C2 1037   6.727   1.241   3.473
   58ACTN    O1 1038   6.790   1.171   3.394
   58ACTN    C1 1039   6.586   1.281   3.443
   58ACTN    H1 1040   6.551   1.355   3.514
   58ACTN    H2 1041   6.519   1.195   3.449
   58ACTN    H3 1042   6.579   1.324   3.343
   59ACTN    H6 1043   2.777   0.982   0.510
   59ACTN    C3 1044   2.699   0.955   0.439
   59ACTN    H4 1045   2.746   0.919   0.348
   59ACTN    H5 1046   2.643   1.045   0.416
   59ACTN    C2 1047   2.608   0.852   0.497
   59ACTN    O1 1048   2.514   0.810   0.430
   59ACTN    C1 1049   2.634   0.799   0.634
   59ACTN    H1 1050   2.734   0.755   0.640
   59ACTN    H2 1051   2.562   0.722   0.662
   59ACTN    H3 1052   2.628   0.879   0.707
   60ACTN    H6 1053   4.183   4.624   6.995
   60ACTN    C3 1054   4.203   4.534   6.938
   60ACTN    H4 1055   4.308   4.535   6.909
   60ACTN    H5 1056   4.186   4.448   7.002
   60ACTN    C2 1057   4.116   4.530   6.816
   60ACTN    O1 1058   4.038   4.437   6.798
   60ACTN    C1 1059   4.127   4.641   6.716
   60ACTN    H1 1060   4.061   4.625   6.631
   60ACTN    H2 1061   4.229   4.649   6.680
   60ACTN    H3 1062   4.100   4.736   6.763
   61ACTN    H6 1063   0.385   2.252   4.876
   61ACTN    C3 1064   0.344   2.303   4.789
   61ACTN    H4 1065   0.313   2.402   4.820
   61ACTN    H5 1066   0.423   2.312   4.715
   61ACTN    C2 1067   0.228   2.227   4.734
   61ACTN    O1 1068   0.171   2.266   4.632
   61ACTN    C1 1069   0.187   2.099   4.801
   61ACTN    H1 1070   0.166   2.118   4.906
   61ACTN    H2 1071   0.266   2.025   4.793
   61ACTN    H3 1072   0.096   2.058   4.756
   62ACTN    H6 1073   1.558   1.317   5.321
   62ACTN    C3 1074   1.542   1.210   5.313
   62ACTN    H4 1075   1.599   1.160   5.391
   62ACTN    H5 1076   1.581   1.177   5.216
   62ACTN    C2 1077   1.397   1.177   5.326
   62ACTN    O1 1078   1.335   1.213   5.426
   62ACTN    C1 1079   1.326   1.106   5.215
   62ACTN    H1 1080   1.244   1.167   5.177
   62ACTN    H2 1081   1.285   1.012   5.252
   62ACTN    H3 1082   1.394   1.084   5.133
   63ACTN    H6 1083   1.475   6.254   2.713
   63ACTN    C3 1084   1.482   6.150   2.680
   63ACTN    H4 1085   1.482   6.149   2.571
   63ACTN    H5 1086   1.577   6.110   2.715
   63ACTN    C2 1087   1.368   6.068   2.732
   63ACTN    O1 1088   1.363   5.948   2.710
   63ACTN    C1 1089   1.261   6.133   2.814
   63ACTN    H1 1090   1.257   6.088   2.913
   63ACTN    H2 1091   1.164   6.120   2.767
   63ACTN    H3 1092   1.279   6.240   2.826
   64ACTN    H6 1093   3.256   6.394   2.455
   64ACTN    C3 1094   3.298   6.479   2.402
   64ACTN    H4 1095   3.404   6.462   2.387
   64ACTN    H5 1096   3.250   6.485   2.304
   64ACTN    C2 1097   3.275   6.605   2.480
   64ACTN    O1 1098   3.336   6.624   2.585
   64ACTN    C1 1099   3.194   6.715   2.418
   64ACTN    H1 1100   3.245   6.754   2.330
   64ACTN    H2 1101   3.179   6.797   2.488
   64ACTN    H3 1102   3.097   6.677   2.388
   65ACTN    H6 1103   2.234   2.439   0.836
   65ACTN    C3 1104   2.175   2.442   0.928
   65ACTN    H4 1105   2.242   2.444   1.013
   65ACTN    H5 1106   2.117   2.534   0.928
   65ACTN    C2 1107   2.084   2.323   0.935
   65ACTN    O1 1108   2.132   2.211   0.953
   65ACTN    C1 1109   1.936   2.344   0.938
   65ACTN    H1 1110   1.907   2.397   1.029
   65ACTN    H2 1111   1.883   2.250   0.935
   65ACTN    H3 1112   1.904   2.404   0.853
   66ACTN    H6 1113   1.725   6.137   5.339
   66ACTN    C3 1114   1.805   6.211   5.342
   66ACTN    H4 1115   1.891   6.166   5.392
   66ACTN    H5 1116   1.834   6.235   5.240
   66ACTN    C2 1117   1.762   6.335   5.415
   66ACTN    O1 1118   1.651   6.343   5.466
   66ACTN    C1 1119   1.860   6.448   5.427
   66ACTN    H1 1120   1.890   6.482   5.328
   66ACTN    H2 1121   1.949   6.415   5.480
   66ACTN    H3 1122   1.817   6.532   5.481
   67ACTN    H6 1123   3.479   3.814   3.657
   67ACTN    C3 1124   3.564   3.829   3.723
   67ACTN    H4 1125   3.542   3.913   3.789
   67ACTN    H5 1126   3.575   3.740   3.786
   67ACTN    C2 1127   3.689   3.855   3.645
   67ACTN    O1 1128   3.701   3.960   3.582
   67ACTN    C1 1129   3.799   3.754   3.642
   67ACTN    H1 1130   3.813   3.715   3.542
   67ACTN    H2 1131   3.777   3.671   3.709
   67ACTN    H3 1132   3.892   3.800   3.675
   68ACTN    H6 1133   1.742   7.166   4.678
   68ACTN    C3 1134   1.795   7.086   4.626
   68ACTN    H4 1135   1.721   7.025   4.574
   68ACTN    H5 1136   1.860   7.132   4.551
   68ACTN    C2 1137   1.875   7.002   4.721
   68ACTN    O1 1138   1.943   6.910   4.678
   68ACTN    C1 1139   1.874   7.034   4.867
   68ACTN    H1 1140   1.831   6.952   4.923
   68ACTN    H2 1141   1.817   7.124   4.888
   68ACTN    H3 1142   1.976   7.050   4.902
   69ACTN    H6 1143   6.124   2.629   0.846
   69ACTN    C3 1144   6.103   2.733   0.823
   69ACTN    H4 1145   6.072   2.740   0.719
   69ACTN    H5 1146   6.020   2.765   0.885
   69ACTN    C2 1147   6.224   2.816   0.851
   69ACTN    O1 1148   6.263   2.900   0.770
   69ACTN    C1 1149   6.290   2.804   0.984
   69ACTN    H1 1150   6.246   2.724   1.043
   69ACTN    H2 1151   6.279   2.897   1.041
   69ACTN    H3 1152   6.396   2.784   0.973
   70ACTN    H6 1153   2.956   3.470   4.103
   70ACTN    C3 1154   3.040   3.510   4.046
   70ACTN    H4 1155   3.128   3.505   4.109
   70ACTN    H5 1156   3.057   3.446   3.960
   70ACTN    C2 1157   3.012   3.651   4.005
   70ACTN    O1 1158   2.993   3.679   3.887
   70ACTN    C1 1159   2.997   3.757   4.110
   70ACTN    H1 1160   3.019   3.717   4.208
   70ACTN    H2 1161   2.895   3.794   4.111
   70ACTN    H3 1162   3.063   3.840   4.090
   71ACTN    H6 1163   5.489   2.879   6.245
   71ACTN    C3 1164   5.561   2.799   6.230
   71ACTN    H4 1165   5.650   2.823   6.287
   71ACTN    H5 1166   5.588   2.796   6.125
   71ACTN    C2 1167   5.503   2.668   6.274
   71ACTN    O1 1168   5.402   2.625   6.220
   71ACTN    C1 1169   5.568   2.592   6.386
   71ACTN    H1 1170   5.495   2.571   6.464
   71ACTN    H2 1171   5.649   2.649   6.429
   71ACTN    H3 1172   5.607   2.497   6.350
   72ACTN    H6 1173   4.024   1.249   1.531
   72ACTN    C3 1174   3.926   1.277   1.492
   72ACTN    H4 1175   3.924   1.249   1.386
   72ACTN    H5 1176   3.851   1.218   1.544
   72ACTN    C2 1177   3.903   1.424   1.508
   72ACTN    O1 1178   3.806   1.467   1.571
   72ACTN    C1 1179   4.001   1.519   1.448
   72ACTN    H1 1180   3.951   1.584   1.376
   72ACTN    H2 1181   4.080   1.466   1.398
   72ACTN    H3 1182   4.045   1.582   1.526
   73ACTN    H6 1183   6.666   4.275   6.149
   73ACTN    C3 1184   6.610   4.201   6.090
   73ACTN    H4 1185   6.673   4.169   6.008
   73ACTN    H5 1186   6.590   4.116   6.154
   73ACTN    C2 1187   6.483   4.261   6.039
   73ACTN    O1 1188   6.486   4.355   5.961
   73ACTN    C1 1189   6.352   4.204   6.085
   73ACTN    H1 1190   6.269   4.253   6.036
   73ACTN    H2 1191   6.342   4.216   6.192
   73ACTN    H3 1192   6.348   4.097   6.062
   74ACTN    H6 1193   6.614   0.436   6.714
   74ACTN    C3 1194   6.637   0.370   6.798
   74ACTN    H4 1195   6.702   0.291   6.763
   74ACTN    H5 1196   6.690   0.428   6.872
   74ACTN    C2 1197   6.512   0.313   6.858
   74ACTN    O1 1198   6.404   0.330   6.802
   74ACTN    C1 1199   6.524   0.225   6.978
   74ACTN    H1 1200   6.427   0.189   7.011
   74ACTN    H2 1201   6.568   0.280   7.061
   74ACTN    H3 1202   6.587   0.139   6.957
   75ACTN    H6 1203   2.850   5.623   6.934
   75ACTN    C3 1204   2.893   5.616   7.034
   75ACTN    H4 1205   2.952   5.705   7.052
   75ACTN    H5 1206   2.812   5.613   7.106
   75ACTN    C2 1207   2.980   5.494   7.044
   75ACTN    O1 1208   2.972   5.419   7.141
   75ACTN    C1 1209   3.089   5.475   6.943
   75ACTN    H1 1210   3.092   5.558   6.874
   75ACTN    H2 1211   3.073   5.383   6.887
   75ACTN    H3 1212   3.186   5.468   6.993
   76ACTN    H6 1213   6.782   6.588   3.992
   76ACTN    C3 1214   6.866   6.650   3.964
   76ACTN    H4 1215   6.840   6.754   3.983
   76ACTN    H5 1216   6.950   6.624   4.028
   76ACTN    C2 1217   6.898   6.630   3.819
   76ACTN    O1 1218   7.008   6.589   3.785
   76ACTN    C1 1219   6.794   6.666   3.718
   76ACTN    H1 1220   6.826   6.640   3.617
   76ACTN    H2 1221   6.773   6.773   3.721
   76ACTN    H3 1222   6.702   6.612   3.739
   77ACTN    H6 1223   2.041   5.956   6.813
   77ACTN    C3 1224   2.081   5.937   6.912
   77ACTN    H4 1225   2.118   6.031   6.953
   77ACTN    H5 1226   2.001   5.901   6.976
   77ACTN    C2 1227   2.191   5.834   6.906
   77ACTN    O1 1228   2.303   5.859   6.947
   77ACTN    C1 1229   2.160   5.699   6.850
   77ACTN    H1 1230   2.057   5.693   6.816
   77ACTN    H2 1231   2.176   5.623   6.925
   77ACTN    H3 1232   2.224   5.677   6.765
   78ACTN    H6 1233   6.545   8.888   4.530
   78ACTN    C3 1234   6.640   8.922   4.569
   78ACTN    H4 1235   6.671   8.856   4.649
   78ACTN    H5 1236   6.715   8.916   4.490
   78ACTN    C2 1237   6.629   0.064   4.616
   78ACTN    O1 1238   6.594   0.153   4.539
   78ACTN    C1 1239   6.661   0.098   4.759
   78ACTN    H1 1240   6.573   0.136   4.809
   78ACTN    H2 1241   6.738   0.174   4.763
   78ACTN    H3 1242   6.697   0.011   4.813
   79ACTN    H6 1243   8.957   6.808   3.124
   79ACTN    C3 1244   0.022   6.817   3.211
   79ACTN    H4 1245   0.040   6.923   3.229
   79ACTN    H5 1246   8.971   6.776   3.297
   79ACTN    C2 1247   0.152   6.747   3.185
   79ACTN    O1 1248   0.218   6.775   3.086
   79ACTN    C1 1249   0.195   6.633   3.273
   79ACTN    H1 1250   0.121   6.612   3.349
   79ACTN    H2 1251   0.289   6.659   3.322
   79ACTN    H3 1252   0.212   6.544   3.213
   80ACTN    H6 1253   6.740   1.475   6.638
   80ACTN    C3 1254   6.841   1.500   6.669
   80ACTN    H4 1255   6.871   1.429   6.746
   80ACTN    H5 1256   6.907   1.487   6.583
   80ACTN    C2 1257   6.848   1.640   6.719
   80ACTN    O1 1258   6.948   1.678   6.778
   80ACTN    C1 1259   6.726   1.727   6.711
   80ACTN    H1 1260   6.644   1.682   6.767
   80ACTN    H2 1261   6.695   1.738   6.608
   80ACTN    H3 1262   6.745   1.826   6.752
   81ACTN    H6 1263   3.039   5.646   4.175
   81ACTN    C3 1264   3.096   5.618   4.087
   81ACTN    H4 1265   3.178   5.555   4.119
   81ACTN    H5 1266   3.032   5.559   4.022
   81ACTN    C2 1267   3.149   5.738   4.015
   81ACTN    O1 1268   3.214   5.725   3.912
   81ACTN    C1 1269   3.121   5.875   4.068
   81ACTN    H1 1270   3.061   5.871   4.159
   81ACTN    H2 1271   3.068   5.934   3.994
   81ACTN    H3 1272   3.214   5.925   4.091
   82ACTN    H6 1273   1.217   6.554   2.427
   82ACTN    C3 1274   1.221   6.617   2.515
   82ACTN    H4 1275   1.304   6.585   2.577
   82ACTN    H5 1276   1.240   6.719   2.483
   82ACTN    C2 1277   1.093   6.607   2.592
   82ACTN    O1 1278   1.017   6.703   2.600
   82ACTN    C1 1279   1.055   6.474   2.649
   82ACTN    H1 1280   1.041   6.401   2.570
   82ACTN    H2 1281   0.962   6.481   2.706
   82ACTN    H3 1282   1.133   6.439   2.716
   83ACTN    H6 1283   7.310   5.998   5.665
   83ACTN    C3 1284   7.353   5.965   5.759
   83ACTN    H4 1285   7.283   5.898   5.808
   83ACTN    H5 1286   7.444   5.910   5.738
   83ACTN    C2 1287   7.383   6.082   5.848
   83ACTN    O1 1288   7.370   6.197   5.808
   83ACTN    C1 1289   7.440   6.056   5.984
   83ACTN    H1 1290   7.539   6.013   5.976
   83ACTN    H2 1291   7.376   5.986   6.038
   83ACTN    H3 1292   7.447   6.148   6.043
   84ACTN    H6 1293   3.006   3.170   5.089
   84ACTN    C3 1294   2.974   3.066   5.101
   84ACTN    H4 1295   2.964   3.022   5.002
   84ACTN    H5 1296   3.053   3.013   5.154
   84ACTN    C2 1297   2.844   3.059   5.175
   84ACTN    O1 1298   2.745   3.116   5.131
   84ACTN    C1 1299   2.836   2.985   5.305
   84ACTN    H1 1300   2.804   3.052   5.384
   84ACTN    H2 1301   2.932   2.941   5.331
   84ACTN    H3 1302   2.763   2.904   5.297
   85ACTN    H6 1303   6.055   4.462   1.366
   85ACTN    C3 1304   5.971   4.411   1.414
   85ACTN    H4 1305   5.879   4.457   1.379
   85ACTN    H5 1306   5.972   4.307   1.382
   85ACTN    C2 1307   5.982   4.422   1.563
   85ACTN    O1 1308   6.001   4.322   1.631
   85ACTN    C1 1309   5.985   4.557   1.626
   85ACTN    H1 1310   5.902   4.568   1.697
   85ACTN    H2 1311   5.976   4.636   1.552
   85ACTN    H3 1312   6.078   4.572   1.681
   86ACTN    H6 1313   2.733   7.024   4.446
   86ACTN    C3 1314   2.772   6.941   4.388
   86ACTN    H4 1315   2.799   6.978   4.290
   86ACTN    H5 1316   2.862   6.905   4.438
   86ACTN    C2 1317   2.669   6.832   4.381
   86ACTN    O1 1318   2.640   6.781   4.273
   86ACTN    C1 1319   2.611   6.778   4.508
   86ACTN    H1 1320   2.653   6.829   4.594
   86ACTN    H2 1321   2.632   6.672   4.517
   86ACTN    H3 1322   2.503   6.792   4.509
   87ACTN    H6 1323   1.217   5.426   4.373
   87ACTN    C3 1324   1.301   5.403   4.308
   87ACTN    H4 1325   1.392   5.416   4.364
   87ACTN    H5 1326   1.294   5.298   4.279
   87ACTN    C2 1327   1.299   5.489   4.186
   87ACTN    O1 1328   1.199   5.494   4.116
   87ACTN    C1 1329   1.419   5.574   4.155
   87ACTN    H1 1330   1.436   5.645   4.236
   87ACTN    H2 1331   1.406   5.629   4.063
   87ACTN    H3 1332   1.507   5.512   4.146
   88ACTN    H6 1333   4.729   2.112   6.416
   88ACTN    C3 1334   4.776   2.014   6.425
   88ACTN    H4 1335   4.701   1.943   6.459
   88ACTN    H5 1336   4.810   1.983   6.327
   88ACTN    C2 1337   4.892   2.021   6.520
   88ACTN    O1 1338   4.887   1.965   6.629
   88ACTN    C1 1339   5.008   2.109   6.484
   88ACTN    H1 1340   5.088   2.102   6.558
   88ACTN    H2 1341   4.976   2.213   6.478
   88ACTN    H3 1342   5.050   2.080   6.388
   89ACTN    H6 1343   4.182   1.523   5.016
   89ACTN    C3 1344   4.130   1.605   4.968
   89ACTN    H4 1345   4.101   1.572   4.868
   89ACTN    H5 1346   4.039   1.628   5.024
   89ACTN    C2 1347   4.219   1.726   4.962
   89ACTN    O1 1348   4.255   1.772   4.854
   89ACTN    C1 1349   4.264   1.790   5.089
   89ACTN    H1 1350   4.373   1.786   5.096
   89ACTN    H2 1351   4.222   1.740   5.175
   89ACTN    H3 1352   4.233   1.894   5.091
   90ACTN    H6 1353   1.096   2.352   2.110
   90ACTN    C3 1354   1.019   2.325   2.181
   90ACTN    H4 1355   0.999   2.219   2.171
   90ACTN    H5 1356   1.058   2.343   2.281
   90ACTN    C2 1357   0.895   2.405   2.155
   90ACTN    O1 1358   0.844   2.473   2.244
   90ACTN    C1 1359   0.831   2.394   2.020
   90ACTN    H1 1360   0.902   2.425   1.943
   90ACTN    H2 1361   0.743   2.457   2.013
   90ACTN    H3 1362   0.803   2.291   2.000
   91ACTN    H6 1363   2.516   6.595   2.924
   91ACTN    C3 1364   2.508   6.651   2.831
   91ACTN    H4 1365   2.608   6.667   2.792
   91ACTN    H5 1366   2.453   6.591   2.759
   91ACTN    C2 1367   2.439   6.782   2.854
   91ACTN    O1 1368   2.488   6.864   2.931
   91ACTN    C1 1369   2.310   6.809   2.784
   91ACTN    H1 1370   2.269   6.907   2.811
   91ACTN    H2 1371   2.236   6.734   2.810
   91ACTN    H3 1372   2.324   6.807   2.677
   92ACTN    H6 1373   1.167   0.863   7.155
   92ACTN    C3 1374   1.146   0.762   7.191
   92ACTN    H4 1375   1.052   0.730   7.147
   92ACTN    H5 1376   1.225   0.696   7.155
   92ACTN    C2 1377   1.141   0.761   7.340
   92ACTN    O1 1378   1.241   0.788   7.405
   92ACTN    C1 1379   1.015   0.720   7.410
   92ACTN    H1 1380   0.977   0.802   7.471
   92ACTN    H2 1381   1.033   0.635   7.475
   92ACTN    H3 1382   0.937   0.693   7.339
   93ACTN    H6 1383   1.935   5.129   1.662
   93ACTN    C3 1384   1.841   5.148   1.610
   93ACTN    H4 1385   1.864   5.176   1.508
   93ACTN    H5 1386   1.785   5.055   1.608
   93ACTN    C2 1387   1.761   5.255   1.677
   93ACTN    O1 1388   1.801   5.309   1.780
   93ACTN    C1 1389   1.629   5.294   1.618
   93ACTN    H1 1390   1.629   5.399   1.591
   93ACTN    H2 1391   1.549   5.276   1.689
   93ACTN    H3 1392   1.609   5.236   1.528
   94ACTN    H6 1393   3.628   4.107   1.149
   94ACTN    C3 1394   3.532   4.069   1.115
   94ACTN    H4 1395   3.488   4.142   1.047
   94ACTN    H5 1396   3.466   4.059   1.201
   94ACTN    C2 1397   3.547   3.937   1.046
   94ACTN    O1 1398   3.658   3.888   1.028
   94ACTN    C1 1399   3.424   3.866   0.999
   94ACTN    H1 1400   3.367   3.930   0.932
   94ACTN    H2 1401   3.361   3.839   1.084
   94ACTN    H3 1402   3.449   3.775   0.945
   95ACTN    H6 1403   1.182   6.911   2.668
   95ACTN    C3 1404   1.233   6.995   2.623
   95ACTN    H4 1405   1.275   7.056   2.702
   95ACTN    H5 1406   1.315   6.957   2.561
   95ACTN    C2 1407   1.139   7.078   2.540
   95ACTN    O1 1408   1.181   7.147   2.448
   95ACTN    C1 1409   0.992   7.063   2.563
   95ACTN    H1 1410   0.970   6.978   2.627
   95ACTN    H2 1411   0.938   7.051   2.469
   95ACTN    H3 1412   0.953   7.152   2.612
   96ACTN    H6 1413   4.919   4.923   1.919
   96ACTN    C3 1414   4.998   4.858   1.959
   96ACTN    H4 1415   4.951   4.769   2.000
   96ACTN    H5 1416   5.062   4.829   1.877
   96ACTN    C2 1417   5.075   4.930   2.064
   96ACTN    O1 1418   5.021   4.962   2.170
   96ACTN    C1 1419   5.222   4.952   2.045
   96ACTN    H1 1420   5.240   4.996   1.947
   96ACTN    H2 1421   5.276   4.858   2.051
   96ACTN    H3 1422   5.263   5.021   2.119
   97ACTN    H6 1423   6.243   4.834   5.057
   97ACTN    C3 1424   6.197   4.824   5.155
   97ACTN    H4 1425   6.106   4.766   5.143
   97ACTN    H5 1426   6.265   4.768   5.219
   97ACTN    C2 1427   6.166   4.958   5.214
   97ACTN    O1 1428   6.203   5.062   5.160
   97ACTN    C1 1429   6.089   4.964   5.342
   97ACTN    H1 1430   5.996   5.019   5.328
   97ACTN    H2 1431   6.147   5.015   5.419
   97ACTN    H3 1432   6.065   4.865   5.378
   98ACTN    H6 1433   0.998   7.240   1.952
   98ACTN    C3 1434   1.096   7.259   1.910
   98ACTN    H4 1435   1.105   7.366   1.893
   98ACTN    H5 1436   1.171   7.230   1.983
   98ACTN    C2 1437   1.114   7.186   1.780
   98ACTN    O1 1438   1.027   7.192   1.694
   98ACTN    C1 1439   1.232   7.096   1.761
   98ACTN    H1 1440   1.297   7.097   1.848
   98ACTN    H2 1441   1.290   7.129   1.675
   98ACTN    H3 1442   1.200   6.994   1.743
   99ACTN    H6 1443   0.894   1.728   5.812
   99ACTN    C3 1444   0.927   1.809   5.876
   99ACTN    H4 1445   1.005   1.770   5.942
   99ACTN    H5 1446   0.972   1.886   5.814
   99ACTN    C2 1447   0.812   1.864   5.954
   99ACTN    O1 1448   0.807   1.851   6.076
   99ACTN    C1 1449   0.697   1.923   5.879
   99ACTN    H1 1450   0.624   1.969   5.945
   99ACTN    H2 1451   0.646   1.846   5.821
   99ACTN    H3 1452   0.732   2.000   5.810
  100ACTN    H6 1453   2.867   6.000   4.907
  100ACTN    C3 1454   2.761   6.022   4.920
  100ACTN    H4 1455   2.719   5.948   4.988
  100ACTN    H5 1456   2.751   6.120   4.965
  100ACTN    C2 1457   2.688   6.017   4.789
  100ACTN    O1 1458   2.568   6.043   4.785
  100ACTN    C1 1459   2.764   5.989   4.663
  100ACTN    H1 1460   2.757   6.073   4.595
  100ACTN    H2 1461   2.723   5.901   4.614
  100ACTN    H3 1462   2.869   5.970   4.683
  101ACTN    H6 1463   0.053   5.394   5.409
  101ACTN    C3 1464   0.031   5.433   5.310
  101ACTN    H4 1465   8.935   5.393   5.278
  101ACTN    H5 1466   0.023   5.541   5.318
  101ACTN    C2 1467   0.140   5.396   5.214
  101ACTN    O1 1468   0.114   5.350   5.103
  101ACTN    C1 1469   0.280   5.438   5.248
  101ACTN    H1 1470   0.351   5.403   5.173
  101ACTN    H2 1471   0.309   5.397   5.344
  101ACTN    H3 1472   0.286   5.546   5.254
  102ACTN    H6 1473   4.137   4.822   0.280
  102ACTN    C3 1474   4.034   4.787   0.272
  102ACTN    H4 1475   3.980   4.818   0.362
  102ACTN    H5 1476   3.988   4.835   0.186
  102ACTN    C2 1477   4.030   4.638   0.258
  102ACTN    O1 1478   4.085   4.584   0.162
  102ACTN    C1 1479   3.962   4.556   0.363
  102ACTN    H1 1480   3.964   4.450   0.339
  102ACTN    H2 1481   3.858   4.588   0.372
  102ACTN    H3 1482   4.011   4.571   0.458
  103ACTN    H6 1483   5.982   0.612   5.895
  103ACTN    C3 1484   6.039   0.520   5.892
  103ACTN    H4 1485   6.145   0.545   5.895
  103ACTN    H5 1486   6.016   0.462   5.980
  103ACTN    C2 1487   6.008   0.443   5.767
  103ACTN    O1 1488   6.035   0.490   5.657
  103ACTN    C1 1489   5.952   0.305   5.780
  103ACTN    H1 1490   6.025   0.238   5.824
  103ACTN    H2 1491   5.921   0.265   5.683
  103ACTN    H3 1492   5.864   0.306   5.844
  104ACTN    H6 1493   5.427   4.180   5.194
  104ACTN    C3 1494   5.388   4.100   5.132
  104ACTN    H4 1495   5.357   4.144   5.037
  104ACTN    H5 1496   5.467   4.029   5.113
  104ACTN    C2 1497   5.272   4.034   5.201
  104ACTN    O1 1498   5.289   3.977   5.308
  104ACTN    C1 1499   5.137   4.033   5.137
  104ACTN    H1 1500   5.106   3.931   5.114
  104ACTN    H2 1501   5.138   4.091   5.046
  104ACTN    H3 1502   5.064   4.077   5.204
  105ACTN    H6 1503   0.228   6.365   3.462
  105ACTN    C3 1504   0.305   6.295   3.494
  105ACTN    H4 1505   0.354   6.335   3.583
  105ACTN    H5 1506   0.258   6.201   3.520
  105ACTN    C2 1507   0.407   6.273   3.386
  105ACTN    O1 1508   0.392   6.324   3.275
  105ACTN    C1 1509   0.524   6.185   3.415
  105ACTN    H1 1510   0.588   6.175   3.328
  105ACTN    H2 1511   0.490   6.086   3.445
  105ACTN    H3 1512   0.584   6.227   3.496
  106ACTN    H6 1513   6.823   4.117   3.457
  106ACTN    C3 1514   6.827   4.058   3.366
  106ACTN    H4 1515   6.853   4.124   3.283
  106ACTN    H5 1516   6.728   4.017   3.347
  106ACTN    C2 1517   6.929   3.949   3.380
  106ACTN    O1 1518   7.046   3.977   3.402
  106ACTN    C1 1519   6.888   3.806   3.362
  106ACTN    H1 1520   6.785   3.798   3.331
  106ACTN    H2 1521   6.898   3.752   3.456
  106ACTN    H3 1522   6.951   3.757   3.288
  107ACTN    H6 1523   6.312   3.524   4.331
  107ACTN    C3 1524   6.320   3.432   4.388
  107ACTN    H4 1525   6.220   3.391   4.403
  107ACTN    H5 1526   6.377   3.360   4.330
  107ACTN    C2 1527   6.388   3.458   4.519
  107ACTN    O1 1528   6.504   3.498   4.521
  107ACTN    C1 1529   6.314   3.439   4.647
  107ACTN    H1 1530   6.314   3.532   4.705
  107ACTN    H2 1531   6.362   3.362   4.707
  107ACTN    H3 1532   6.211   3.409   4.629
  108ACTN    H6 1533   6.335   5.489   2.306
  108ACTN    C3 1534   6.330   5.439   2.210
  108ACTN    H4 1535   6.431   5.415   2.178
  108ACTN    H5 1536   6.275   5.345   2.223
  108ACTN    C2 1537   6.261   5.525   2.110
  108ACTN    O1 1538   6.151   5.575   2.136
  108ACTN    C1 1539   6.332   5.558   1.982
  108ACTN    H1 1540   6.426   5.608   2.003
  108ACTN    H2 1541   6.272   5.623   1.919
  108ACTN    H3 1542   6.352   5.467   1.926
  109ACTN    H6 1543   3.197   4.546   5.408
  109ACTN    C3 1544   3.271   4.503   5.341
  109ACTN    H4 1545   3.277   4.566   5.252
  109ACTN    H5 1546   3.367   4.506   5.390
  109ACTN    C2 1547   3.235   4.363   5.306
  109ACTN    O1 1548   3.212   4.281   5.394
  109ACTN    C1 1549   3.219   4.322   5.163
  109ACTN    H1 1550   3.119   4.284   5.144
  109ACTN    H2 1551   3.291   4.244   5.138
  109ACTN    H3 1552   3.237   4.406   5.096
  110ACTN    H6 1553   3.460   0.091   3.531
  110ACTN    C3 1554   3.390   0.010   3.547
  110ACTN    H4 1555   3.363   8.969   3.449
  110ACTN    H5 1556   3.440   8.933   3.604
  110ACTN    C2 1557   3.269   0.060   3.620
  110ACTN    O1 1558   3.160   0.067   3.564
  110ACTN    C1 1559   3.287   0.113   3.759
  110ACTN    H1 1560   3.326   0.035   3.824
  110ACTN    H2 1561   3.192   0.148   3.800
  110ACTN    H3 1562   3.357   0.196   3.758
  111ACTN    H6 1563   7.041   0.515   3.610
  111ACTN    C3 1564   7.013   0.573   3.697
  111ACTN    H4 1565   6.914   0.616   3.679
  111ACTN    H5 1566   7.006   0.507   3.782
  111ACTN    C2 1567   7.113   0.682   3.720
  111ACTN    O1 1568   7.136   0.765   3.633
  111ACTN    C1 1569   7.183   0.690   3.853
  111ACTN    H1 1570   7.146   0.615   3.922
  111ACTN    H2 1571   7.169   0.788   3.898
  111ACTN    H3 1572   7.289   0.674   3.839
  112ACTN    H6 1573   7.022   2.805   6.313
  112ACTN    C3 1574   7.083   2.827   6.400
  112ACTN    H4 1575   7.112   2.932   6.396
  112ACTN    H5 1576   7.023   2.811   6.490
  112ACTN    C2 1577   7.205   2.740   6.405
  112ACTN    O1 1578   7.221   2.651   6.322
  112ACTN    C1 1579   7.305   2.761   6.514
  112ACTN    H1 1580   7.400   2.794   6.474
  112ACTN    H2 1581   7.321   2.667   6.568
  112ACTN    H3 1582   7.270   2.835   6.585
  113ACTN    H6 1583   5.176   4.162   3.504
  113ACTN    C3 1584   5.249   4.239   3.481
  113ACTN    H4 1585   5.295   4.216   3.385
  113ACTN    H5 1586   5.327   4.236   3.557
  113ACTN    C2 1587   5.184   4.374   3.476
  113ACTN    O1 1588   5.087   4.392   3.404
  113ACTN    C1 1589   5.240   4.482   3.563
  113ACTN    H1 1590   5.230   4.456   3.668
  113ACTN    H2 1591   5.190   4.577   3.545
  113ACTN    H3 1592   5.346   4.496   3.542
  114ACTN    H6 1593   5.254   4.878   3.619
  114ACTN    C3 1594   5.228   4.959   3.688
  114ACTN    H4 1595   5.302   5.037   3.679
  114ACTN    H5 1596   5.132   5.000   3.658
  114ACTN    C2 1597   5.221   4.909   3.829
  114ACTN    O1 1598   5.167   4.976   3.916
  114ACTN    C1 1599   5.287   4.779   3.860
  114ACTN    H1 1600   5.282   4.757   3.967
  114ACTN    H2 1601   5.391   4.780   3.831
  114ACTN    H3 1602   5.237   4.698   3.807
  115ACTN    H6 1603   5.877   1.917   5.591
  115ACTN    C3 1604   5.979   1.922   5.628
  115ACTN    H4 1605   6.004   2.027   5.643
  115ACTN    H5 1606   5.983   1.872   5.725
  115ACTN    C2 1607   6.076   1.860   5.532
  115ACTN    O1 1608   6.036   1.797   5.435
  115ACTN    C1 1609   6.222   1.863   5.566
  115ACTN    H1 1610   6.240   1.808   5.658
  115ACTN    H2 1611   6.255   1.965   5.581
  115ACTN    H3 1612   6.282   1.818   5.488
  116ACTN    H6 1613   5.448   5.555   4.008
  116ACTN    C3 1614   5.443   5.448   4.028
  116ACTN    H4 1615   5.346   5.412   3.996
  116ACTN    H5 1616   5.519   5.399   3.967
  116ACTN    C2 1617   5.465   5.422   4.173
  116ACTN    O1 1618   5.568   5.367   4.214
  116ACTN    C1 1619   5.369   5.481   4.271
  116ACTN    H1 1620   5.388   5.446   4.372
  116ACTN    H2 1621   5.267   5.455   4.244
  116ACTN    H3 1622   5.378   5.589   4.270
  117ACTN    H6 1623   6.850   1.169   5.338
  117ACTN    C3 1624   6.789   1.085   5.367
  117ACTN    H4 1625   6.787   1.013   5.285
  117ACTN    H5 1626   6.835   1.037   5.453
  117ACTN    C2 1627   6.650   1.131   5.401
  117ACTN    O1 1628   6.631   1.202   5.499
  117ACTN    C1 1629   6.535   1.072   5.326
  117ACTN    H1 1630   6.441   1.121   5.352
  117ACTN    H2 1631   6.526   0.966   5.348
  117ACTN    H3 1632   6.550   1.084   5.219
  118ACTN    H6 1633   6.442   5.332   7.530
  118ACTN    C3 1634   6.521   5.319   7.455
  118ACTN    H4 1635   6.577   5.412   7.448
  118ACTN    H5 1636   6.588   5.241   7.490
  118ACTN    C2 1637   6.465   5.283   7.321
  118ACTN    O1 1638   6.344   5.268   7.306
  118ACTN    C1 1639   6.560   5.259   7.208
  118ACTN    H1 1640   6.623   5.173   7.229
  118ACTN    H2 1641   6.625   5.346   7.194
  118ACTN    H3 1642   6.507   5.241   7.114
  119ACTN    H6 1643   2.071   2.008   2.774
  119ACTN    C3 1644   2.136   1.946   2.835
  119ACTN    H4 1645   2.216   1.908   2.772
  119ACTN    H5 1646   2.180   2.009   2.912
  119ACTN    C2 1647   2.059   1.834   2.896
  119ACTN    O1 1648   1.966   1.858   2.972
  119ACTN    C1 1649   2.098   1.693   2.865
  119ACTN    H1 1650   2.199   1.672   2.901
  119ACTN    H2 1651   2.097   1.676   2.758
  119ACTN    H3 1652   2.030   1.622   2.911
  120ACTN    H6 1653   4.613   2.154   1.522
  120ACTN    C3 1654   4.671   2.168   1.431
  120ACTN    H4 1655   4.761   2.107   1.438
  120ACTN    H5 1656   4.611   2.133   1.347
  120ACTN    C2 1657   4.708   2.311   1.412
  120ACTN    O1 1658   4.777   2.344   1.317
  120ACTN    C1 1659   4.657   2.413   1.510
  120ACTN    H1 1660   4.686   2.386   1.611
  120ACTN    H2 1661   4.549   2.419   1.505
  120ACTN    H3 1662   4.698   2.512   1.488
  121ACTN    H6 1663   6.678   6.277   5.449
  121ACTN    C3 1664   6.681   6.360   5.380
  121ACTN    H4 1665   6.580   6.399   5.369
  121ACTN    H5 1666   6.743   6.438   5.423
  121ACTN    C2 1667   6.735   6.315   5.247
  121ACTN    O1 1668   6.837   6.364   5.201
  121ACTN    C1 1669   6.662   6.209   5.172
  121ACTN    H1 1670   6.726   6.123   5.156
  121ACTN    H2 1671   6.630   6.246   5.075
  121ACTN    H3 1672   6.573   6.176   5.226
  122ACTN    H6 1673   4.959   0.228   4.469
  122ACTN    C3 1674   4.917   0.250   4.567
  122ACTN    H4 1675   4.890   0.355   4.569
  122ACTN    H5 1676   4.827   0.191   4.580
  122ACTN    C2 1677   5.017   0.221   4.674
  122ACTN    O1 1678   5.131   0.265   4.665
  122ACTN    C1 1679   4.980   0.126   4.784
  122ACTN    H1 1680   5.062   0.113   4.854
  122ACTN    H2 1681   4.955   0.029   4.742
  122ACTN    H3 1682   4.893   0.164   4.837
  123ACTN    H6 1683   2.087   6.378   4.937
  123ACTN    C3 1684   1.993   6.425   4.909
  123ACTN    H4 1685   2.000   6.453   4.804
  123ACTN    H5 1686   1.913   6.353   4.920
  123ACTN    C2 1687   1.969   6.546   4.994
  123ACTN    O1 1688   1.868   6.555   5.063
  123ACTN    C1 1689   2.068   6.658   4.990
  123ACTN    H1 1690   2.151   6.635   4.924
  123ACTN    H2 1691   2.108   6.676   5.090
  123ACTN    H3 1692   2.021   6.750   4.955
  124ACTN    H6 1693   0.485   2.340   3.827
  124ACTN    C3 1694   0.509   2.425   3.891
  124ACTN    H4 1695   0.487   2.516   3.836
  124ACTN    H5 1696   0.443   2.421   3.978
  124ACTN    C2 1697   0.653   2.421   3.931
  124ACTN    O1 1698   0.740   2.431   3.846
  124ACTN    C1 1699   0.690   2.405   4.075
  124ACTN    H1 1700   0.751   2.489   4.109
  124ACTN    H2 1701   0.747   2.313   4.089
  124ACTN    H3 1702   0.602   2.399   4.139
  125ACTN    H6 1703   4.898   5.726   2.744
  125ACTN    C3 1704   4.937   5.670   2.659
  125ACTN    H4 1705   5.045   5.662   2.671
  125ACTN    H5 1706   4.916   5.725   2.568
  125ACTN    C2 1707   4.875   5.534   2.653
  125ACTN    O1 1708   4.920   5.450   2.576
  125ACTN    C1 1709   4.771   5.497   2.754
  125ACTN    H1 1710   4.811   5.505   2.855
  125ACTN    H2 1711   4.736   5.395   2.740
  125ACTN    H3 1712   4.686   5.563   2.746
  126ACTN    H6 1713   3.499   6.117   0.222
  126ACTN    C3 1714   3.430   6.165   0.152
  126ACTN    H4 1715   3.479   6.171   0.055
  126ACTN    H5 1716   3.342   6.102   0.143
  126ACTN    C2 1717   3.395   6.302   0.201
  126ACTN    O1 1718   3.483   6.384   0.223
  126ACTN    C1 1719   3.251   6.337   0.224
  126ACTN    H1 1720   3.241   6.436   0.270
  126ACTN    H2 1721   3.205   6.265   0.291
  126ACTN    H3 1722   3.197   6.338   0.130
  127ACTN    H6 1723   2.555   5.902   2.124
  127ACTN    C3 1724   2.525   5.877   2.225
  127ACTN    H4 1725   2.613   5.884   2.289
  127ACTN    H5 1726   2.453   5.950   2.260
  127ACTN    C2 1727   2.466   5.739   2.230
  127ACTN    O1 1728   2.371   5.711   2.159
  127ACTN    C1 1729   2.525   5.636   2.322
  127ACTN    H1 1730   2.558   5.549   2.265
  127ACTN    H2 1731   2.451   5.603   2.394
  127ACTN    H3 1732   2.610   5.676   2.376
  128ACTN    H6 1733   7.411   6.001   2.018
  128ACTN    C3 1734   7.308   5.990   1.983
  128ACTN    H4 1735   7.292   5.885   1.958
  128ACTN    H5 1736   7.241   6.016   2.064
  128ACTN    C2 1737   7.280   6.077   1.865
  128ACTN    O1 1738   7.370   6.141   1.812
  128ACTN    C1 1739   7.143   6.074   1.805
  128ACTN    H1 1740   7.119   5.975   1.769
  128ACTN    H2 1741   7.133   6.144   1.723
  128ACTN    H3 1742   7.069   6.100   1.881
  129ACTN    H6 1743   5.789   4.742   5.059
  129ACTN    C3 1744   5.790   4.638   5.028
  129ACTN    H4 1745   5.829   4.633   4.926
  129ACTN    H5 1746   5.858   4.583   5.093
  129ACTN    C2 1747   5.652   4.579   5.036
  129ACTN    O1 1748   5.601   4.523   4.940
  129ACTN    C1 1749   5.580   4.585   5.168
  129ACTN    H1 1750   5.571   4.688   5.201
  129ACTN    H2 1751   5.636   4.529   5.243
  129ACTN    H3 1752   5.481   4.542   5.161
  130ACTN    H6 1753   2.198   5.522   4.968
  130ACTN    C3 1754   2.115   5.454   4.951
  130ACTN    H4 1755   2.046   5.462   5.035
  130ACTN    H5 1756   2.063   5.484   4.861
  130ACTN    C2 1757   2.163   5.313   4.938
  130ACTN    O1 1758   2.278   5.283   4.967
  130ACTN    C1 1759   2.063   5.207   4.901
  130ACTN    H1 1760   2.087   5.165   4.804
  130ACTN    H2 1761   1.962   5.247   4.898
  130ACTN    H3 1762   2.066   5.126   4.974
  131ACTN    H6 1763   0.175   5.617   1.449
  131ACTN    C3 1764   0.090   5.620   1.518
  131ACTN    H4 1765   0.001   5.586   1.465
  131ACTN    H5 1766   0.109   5.549   1.598
  131ACTN    C2 1767   0.069   5.757   1.572
  131ACTN    O1 1768   0.047   5.851   1.495
  131ACTN    C1 1769   0.086   5.783   1.718
  131ACTN    H1 1770   0.189   5.761   1.748
  131ACTN    H2 1771   0.020   5.718   1.775
  131ACTN    H3 1772   0.063   5.886   1.744
  132ACTN    H6 1773   4.291   2.467   7.104
  132ACTN    C3 1774   4.380   2.502   7.051
  132ACTN    H4 1775   4.385   2.450   6.955
  132ACTN    H5 1776   4.369   2.608   7.032
  132ACTN    C2 1777   4.502   2.474   7.132
  132ACTN    O1 1778   4.529   2.358   7.164
  132ACTN    C1 1779   4.592   2.587   7.171
  132ACTN    H1 1780   4.675   2.553   7.233
  132ACTN    H2 1781   4.537   2.662   7.226
  132ACTN    H3 1782   4.634   2.633   7.082
  133ACTN    H6 1783   2.295   0.957   4.859
  133ACTN    C3 1784   2.288   1.048   4.799
  133ACTN    H4 1785   2.386   1.096   4.799
  133ACTN    H5 1786   2.264   1.020   4.697
  133ACTN    C2 1787   2.183   1.138   4.855
  133ACTN    O1 1788   2.212   1.252   4.892
  133ACTN    C1 1789   2.041   1.091   4.858
  133ACTN    H1 1790   2.003   1.093   4.960
  133ACTN    H2 1791   2.034   0.990   4.820
  133ACTN    H3 1792   1.978   1.155   4.797
  134ACTN    H6 1793   0.101   2.703   5.692
  134ACTN    C3 1794   0.186   2.640   5.717
  134ACTN    H4 1795   0.270   2.671   5.655
  134ACTN    H5 1796   0.211   2.659   5.821
  134ACTN    C2 1797   0.154   2.495   5.696
  134ACTN    O1 1798   0.047   2.461   5.648
  134ACTN    C1 1799   0.260   2.394   5.728
  134ACTN    H1 1800   0.349   2.412   5.668
  134ACTN    H2 1801   0.225   2.293   5.707
  134ACTN    H3 1802   0.287   2.399   5.833
  135ACTN    H6 1803   4.124   1.892   2.934
  135ACTN    C3 1804   4.159   1.951   3.019
  135ACTN    H4 1805   4.102   2.044   3.021
  135ACTN    H5 1806   4.138   1.897   3.110
  135ACTN    C2 1807   4.305   1.981   3.005
  135ACTN    O1 1808   4.346   2.040   2.906
  135ACTN    C1 1809   4.401   1.932   3.109
  135ACTN    H1 1810   4.475   1.866   3.065
  135ACTN    H2 1811   4.349   1.877   3.188
  135ACTN    H3 1812   4.452   2.016   3.155
  136ACTN    H6 1813   0.345   3.892   3.818
  136ACTN    C3 1814   0.443   3.935   3.797
  136ACTN    H4 1815   0.468   4.003   3.878
  136ACTN    H5 1816   0.515   3.854   3.796
  136ACTN    C2 1817   0.443   4.006   3.666
  136ACTN    O1 1818   0.543   4.065   3.628
  136ACTN    C1 1819   0.317   4.010   3.584
  136ACTN    H1 1820   0.332   4.062   3.490
  136ACTN    H2 1821   0.238   4.061   3.639
  136ACTN    H3 1822   0.283   3.909   3.563
  137ACTN    H6 1823   6.637   4.937   0.816
  137ACTN    C3 1824   6.709   4.889   0.881
  137ACTN    H4 1825   6.661   4.866   0.975
  137ACTN    H5 1826   6.740   4.796   0.835
  137ACTN    C2 1827   6.828   4.977   0.904
  137ACTN    O1 1828   6.913   4.944   0.986
  137ACTN    C1 1829   6.836   5.112   0.839
  137ACTN    H1 1830   6.929   5.121   0.783
  137ACTN    H2 1831   6.832   5.190   0.913
  137ACTN    H3 1832   6.754   5.126   0.769
  138ACTN    H6 1833   5.564   1.541   2.540
  138ACTN    C3 1834   5.484   1.490   2.486
  138ACTN    H4 1835   5.516   1.474   2.384
  138ACTN    H5 1836   5.468   1.393   2.533
  138ACTN    C2 1837   5.359   1.573   2.488
  138ACTN    O1 1838   5.258   1.534   2.548
  138ACTN    C1 1839   5.364   1.707   2.423
  138ACTN    H1 1840   5.384   1.697   2.317
  138ACTN    H2 1841   5.442   1.768   2.468
  138ACTN    H3 1842   5.270   1.760   2.434
  139ACTN    H6 1843   0.093   7.250   3.591
  139ACTN    C3 1844   0.171   7.199   3.534
  139ACTN    H4 1845   0.267   7.235   3.569
  139ACTN    H5 1846   0.164   7.092   3.553
  139ACTN    C2 1847   0.158   7.228   3.387
  139ACTN    O1 1848   0.064   7.294   3.345
  139ACTN    C1 1849   0.256   7.166   3.293
  139ACTN    H1 1850   0.323   7.098   3.345
  139ACTN    H2 1851   0.315   7.243   3.245
  139ACTN    H3 1852   0.204   7.110   3.215
  140ACTN    H6 1853   0.476   0.866   6.364
  140ACTN    C3 1854   0.566   0.925   6.382
  140ACTN    H4 1855   0.626   0.874   6.457
  140ACTN    H5 1856   0.624   0.929   6.290
  140ACTN    C2 1857   0.530   1.063   6.426
  140ACTN    O1 1858   0.571   1.109   6.532
  140ACTN    C1 1859   0.443   1.147   6.338
  140ACTN    H1 1860   0.492   1.239   6.310
  140ACTN    H2 1861   0.350   1.171   6.388
  140ACTN    H3 1862   0.417   1.093   6.247
  141ACTN    H6 1863   0.383   7.122   2.230
  141ACTN    C3 1864   0.389   7.066   2.322
  141ACTN    H4 1865   0.466   6.990   2.312
  141ACTN    H5 1866   0.418   7.134   2.402
  141ACTN    C2 1867   0.256   7.004   2.354
  141ACTN    O1 1868   0.249   6.888   2.392
  141ACTN    C1 1869   0.136   7.094   2.361
  141ACTN    H1 1870   0.126   7.150   2.269
  141ACTN    H2 1871   0.146   7.164   2.444
  141ACTN    H3 1872   0.045   7.036   2.376
  142ACTN    H6 1873   6.912   2.141   3.109
  142ACTN    C3 1874   6.855   2.050   3.123
  142ACTN    H4 1875   6.761   2.077   3.171
  142ACTN    H5 1876   6.910   1.985   3.191
  142ACTN    C2 1877   6.831   1.983   2.991
  142ACTN    O1 1878   6.920   1.922   2.933
  142ACTN    C1 1879   6.693   1.976   2.936
  142ACTN    H1 1880   6.624   2.036   2.995
  142ACTN    H2 1881   6.658   1.874   2.936
  142ACTN    H3 1882   6.691   2.013   2.834
  143ACTN    H6 1883   0.251   1.136   4.080
  143ACTN    C3 1884   0.315   1.141   3.992
  143ACTN    H4 1885   0.410   1.093   4.016
  143ACTN    H5 1886   0.267   1.084   3.912
  143ACTN    C2 1887   0.337   1.282   3.948
  143ACTN    O1 1888   0.415   1.308   3.857
  143ACTN    C1 1889   0.265   1.394   4.018
  143ACTN    H1 1890   0.337   1.464   4.061
  143ACTN    H2 1891   0.203   1.356   4.099
  143ACTN    H3 1892   0.202   1.448   3.948
  144ACTN    H6 1893   7.142   5.253   2.171
  144ACTN    C3 1894   7.041   5.221   2.193
  144ACTN    H4 1895   6.983   5.224   2.100
  144ACTN    H5 1896   7.044   5.118   2.227
  144ACTN    C2 1897   6.976   5.308   2.296
  144ACTN    O1 1898   6.861   5.286   2.331
  144ACTN    C1 1899   7.054   5.420   2.358
  144ACTN    H1 1900   7.060   5.407   2.466
  144ACTN    H2 1901   7.005   5.515   2.338
  144ACTN    H3 1902   7.155   5.425   2.319
  145ACTN    H6 1903   0.498   4.491   2.755
  145ACTN    C3 1904   0.474   4.392   2.716
  145ACTN    H4 1905   0.565   4.348   2.677
  145ACTN    H5 1906   0.438   4.331   2.798
  145ACTN    C2 1907   0.370   4.404   2.610
  145ACTN    O1 1908   0.256   4.440   2.639
  145ACTN    C1 1909   0.406   4.366   2.469
  145ACTN    H1 1910   0.490   4.425   2.434
  145ACTN    H2 1911   0.323   4.382   2.401
  145ACTN    H3 1912   0.433   4.261   2.464
  146ACTN    H6 1913   0.630   2.239   3.658
  146ACTN    C3 1914   0.604   2.239   3.552
  146ACTN    H4 1915   0.574   2.340   3.524
  146ACTN    H5 1916   0.519   2.173   3.538
  146ACTN    C2 1917   0.720   2.191   3.471
  146ACTN    O1 1918   0.774   2.265   3.389
  146ACTN    C1 1919   0.781   2.058   3.502
  146ACTN    H1 1920   0.886   2.068   3.527
  146ACTN    H2 1921   0.772   1.992   3.416
  146ACTN    H3 1922   0.730   2.011   3.587
  147ACTN    H6 1923   6.774   4.400   3.579
  147ACTN    C3 1924   6.848   4.422   3.656
  147ACTN    H4 1925   6.809   4.501   3.719
  147ACTN    H5 1926   6.860   4.333   3.717
  147ACTN    C2 1927   6.978   4.463   3.595
  147ACTN    O1 1928   7.073   4.490   3.668
  147ACTN    C1 1929   6.992   4.473   3.446
  147ACTN    H1 1930   6.899   4.450   3.396
  147ACTN    H2 1931   7.068   4.404   3.411
  147ACTN    H3 1932   7.022   4.573   3.418
  148ACTN    H6 1933   4.949   2.506   0.609
  148ACTN    C3 1934   5.015   2.429   0.648
  148ACTN    H4 1935   5.065   2.468   0.736
  148ACTN    H5 1936   4.955   2.343   0.677
  148ACTN    C2 1937   5.114   2.388   0.543
  148ACTN    O1 1938   5.075   2.347   0.434
  148ACTN    C1 1939   5.261   2.403   0.570
  148ACTN    H1 1940   5.309   2.306   0.573
  148ACTN    H2 1941   5.279   2.454   0.664
  148ACTN    H3 1942   5.307   2.462   0.491
  149ACTN    H6 1943   4.918   5.522   0.264
  149ACTN    C3 1944   4.971   5.429   0.287
  149ACTN    H4 1945   5.059   5.453   0.346
  149ACTN    H5 1946   4.905   5.367   0.346
  149ACTN    C2 1947   5.010   5.361   0.160
  149ACTN    O1 1948   5.089   5.415   0.083
  149ACTN    C1 1949   4.961   5.221   0.135
  149ACTN    H1 1950   5.007   5.152   0.205
  149ACTN    H2 1951   4.985   5.188   0.034
  149ACTN    H3 1952   4.853   5.217   0.148
  150ACTN    H6 1953   5.761   0.256   1.693
  150ACTN    C3 1954   5.775   0.294   1.794
  150ACTN    H4 1955   5.881   0.303   1.813
  150ACTN    H5 1956   5.730   0.393   1.800
  150ACTN    C2 1957   5.711   0.204   1.895
  150ACTN    O1 1958   5.724   0.225   2.015
  150ACTN    C1 1959   5.640   0.080   1.847
  150ACTN    H1 1960   5.597   0.024   1.929
  150ACTN    H2 1961   5.710   0.016   1.794
  150ACTN    H3 1962   5.560   0.108   1.779
  151ACTN    H6 1963   6.002   0.876   4.187
  151ACTN    C3 1964   5.903   0.921   4.194
  151ACTN    H4 1965   5.901   1.008   4.129
  151ACTN    H5 1966   5.830   0.849   4.158
  151ACTN    C2 1967   5.874   0.958   4.336
  151ACTN    O1 1968   5.866   1.076   4.369
  151ACTN    C1 1969   5.863   0.849   4.438
  151ACTN    H1 1970   5.937   0.862   4.516
  151ACTN    H2 1971   5.878   0.751   4.392
  151ACTN    H3 1972   5.764   0.850   4.483
  152ACTN    H6 1973   1.766   8.919   2.115
  152ACTN    C3 1974   1.695   8.896   2.194
  152ACTN    H4 1975   1.626   8.821   2.157
  152ACTN    H5 1976   1.750   8.854   2.277
  152ACTN    C2 1977   1.623   0.021   2.236
  152ACTN    O1 1978   1.501   0.025   2.238
  152ACTN    C1 1979   1.703   0.139   2.281
  152ACTN    H1 1980   1.682   0.162   2.385
  152ACTN    H2 1981   1.678   0.227   2.222
  152ACTN    H3 1982   1.810   0.121   2.270
  153ACTN    H6 1983   6.936   2.758   0.918
  153ACTN    C3 1984   6.915   2.675   0.851
  153ACTN    H4 1985   6.879   2.592   0.911
  153ACTN    H5 1986   7.009   2.644   0.805
  153ACTN    C2 1987   6.813   2.714   0.749
  153ACTN    O1 1988   6.839   2.710   0.629
  153ACTN    C1 1989   6.680   2.765   0.796
  153ACTN    H1 1990   6.614   2.788   0.713
  153ACTN    H2 1991   6.694   2.856   0.855
  153ACTN    H3 1992   6.631   2.691   0.858
  154ACTN    H6 1993   0.996   0.570   2.825
  154ACTN    C3 1994   1.027   0.477   2.778
  154ACTN    H4 1995   1.011   0.396   2.848
  154ACTN    H5 1996   1.133   0.483   2.756
  154ACTN    C2 1997   0.950   0.456   2.651
  154ACTN    O1 1998   0.886   0.353   2.634
  154ACTN    C1 1999   0.959   0.560   2.544
  154ACTN    H1 2000   0.989   0.515   2.450
  154ACTN    H2 2001   1.031   0.637   2.570
  154ACTN    H3 2002   0.862   0.608   2.529
  155ACTN    H6 2003   1.596   0.298   1.826
  155ACTN    C3 2004   1.585   0.239   1.917
  155ACTN    H4 2005   1.660   0.273   1.988
  155ACTN    H5 2006   1.487   0.260   1.958
  155ACTN    C2 2007   1.601   0.094   1.886
  155ACTN    O1 2008   1.712   0.047   1.864
  155ACTN    C1 2009   1.484   0.001   1.901
  155ACTN    H1 2010   1.508   8.919   1.969
  155ACTN    H2 2011   1.456   8.961   1.805
  155ACTN    H3 2012   1.398   0.054   1.942
  156ACTN    H6 2013   4.890   0.492   3.367
  156ACTN    C3 2014   4.884   0.598   3.390
  156ACTN    H4 2015   4.835   0.649   3.307
  156ACTN    H5 2016   4.823   0.611   3.478
  156ACTN    C2 2017   5.021   0.654   3.411
  156ACTN    O1 2018   5.050   0.714   3.514
  156ACTN    C1 2019   5.120   0.640   3.300
  156ACTN    H1 2020   5.215   0.687   3.325
  156ACTN    H2 2021   5.082   0.686   3.209
  156ACTN    H3 2022   5.139   0.535   3.280
  157ACTN    H6 2023   0.307   1.828   7.148
  157ACTN    C3 2024   0.204   1.822   7.112
  157ACTN    H4 2025   0.164   1.725   7.142
  157ACTN    H5 2026   0.206   1.825   7.003
  157ACTN    C2 2027   0.123   1.934   7.168
  157ACTN    O1 2028   0.061   2.009   7.095
  157ACTN    C1 2029   0.108   1.945   7.317
  157ACTN    H1 2030   0.004   1.935   7.347
  157ACTN    H2 2031   0.144   2.042   7.351
  157ACTN    H3 2032   0.166   1.868   7.368
  158ACTN    H6 2033   2.046   6.344   3.408
  158ACTN    C3 2034   1.987   6.378   3.492
  158ACTN    H4 2035   1.926   6.295   3.527
  158ACTN    H5 2036   2.055   6.407   3.572
  158ACTN    C2 2037   1.900   6.494   3.455
  158ACTN    O1 2038   1.836   6.554   3.541
  158ACTN    C1 2039   1.897   6.543   3.313
  158ACTN    H1 2040   1.930   6.647   3.309
  158ACTN    H2 2041   1.796   6.538   3.273
  158ACTN    H3 2042   1.962   6.484   3.250
  159ACTN    H6 2043   2.619   2.515   5.145
  159ACTN    C3 2044   2.673   2.501   5.052
  159ACTN    H4 2045   2.701   2.396   5.045
  159ACTN    H5 2046   2.607   2.525   4.970
  159ACTN    C2 2047   2.796   2.587   5.047
  159ACTN    O1 2048   2.821   2.665   5.137
  159ACTN    C1 2049   2.887   2.578   4.928
  159ACTN    H1 2050   2.852   2.502   4.859
  159ACTN    H2 2051   2.988   2.554   4.959
  159ACTN    H3 2052   2.889   2.673   4.875
  160ACTN    H6 2053   0.333   0.650   4.413
  160ACTN    C3 2054   0.356   0.658   4.519
  160ACTN    H4 2055   0.389   0.561   4.554
  160ACTN    H5 2056   0.438   0.728   4.531
  160ACTN    C2 2057   0.237   0.703   4.597
  160ACTN    O1 2058   0.244   0.714   4.719
  160ACTN    C1 2059   0.109   0.732   4.524
  160ACTN    H1 2060   0.124   0.808   4.449
  160ACTN    H2 2061   0.032   0.766   4.593
  160ACTN    H3 2062   0.072   0.642   4.475
  161ACTN    H6 2063   0.942   5.936   5.420
  161ACTN    C3 2064   0.928   6.036   5.380
  161ACTN    H4 2065   0.852   6.086   5.439
  161ACTN    H5 2066   1.021   6.090   5.390
  161ACTN    C2 2067   0.885   6.028   5.237
  161ACTN    O1 2068   0.959   6.066   5.147
  161ACTN    C1 2069   0.755   5.959   5.206
  161ACTN    H1 2070   0.673   6.009   5.257
  161ACTN    H2 2071   0.759   5.856   5.239
  161ACTN    H3 2072   0.735   5.960   5.099
  162ACTN    H6 2073   1.566   6.275   0.745
  162ACTN    C3 2074   1.595   6.237   0.647
  162ACTN    H4 2075   1.581   6.316   0.574
  162ACTN    H5 2076   1.701   6.213   0.650
  162ACTN    C2 2077   1.513   6.118   0.611
  162ACTN    O1 2078   1.565   6.008   0.592
  162ACTN    C1 2079   1.364   6.135   0.600
  162ACTN    H1 2080   1.316   6.043   0.567
  162ACTN    H2 2081   1.340   6.214   0.530
  162ACTN    H3 2082   1.323   6.161   0.697
  163ACTN    H6 2083   5.214   4.631   1.891
  163ACTN    C3 2084   5.204   4.527   1.862
  163ACTN    H4 2085   5.235   4.517   1.758
  163ACTN    H5 2086   5.271   4.467   1.923
  163ACTN    C2 2087   5.062   4.482   1.882
  163ACTN    O1 2088   5.010   4.491   1.992
  163ACTN    C1 2089   4.983   4.430   1.766
  163ACTN    H1 2090   4.950   4.328   1.785
  163ACTN    H2 2091   5.043   4.430   1.675
  163ACTN    H3 2092   4.895   4.492   1.749
  164ACTN    H6 2093   2.381   2.864   5.305
  164ACTN    C3 2094   2.340   2.775   5.257
  164ACTN    H4 2095   2.232   2.786   5.251
  164ACTN    H5 2096   2.362   2.689   5.320
  164ACTN    C2 2097   2.398   2.756   5.120
  164ACTN    O1 2098   2.365   2.659   5.053
  164ACTN    C1 2099   2.497   2.855   5.066
  164ACTN    H1 2100   2.591   2.806   5.043
  164ACTN    H2 2101   2.517   2.934   5.139
  164ACTN    H3 2102   2.459   2.901   4.976
  165ACTN    H6 2103   5.456   7.090   6.276
  165ACTN    C3 2104   5.464   7.186   6.326
  165ACTN    H4 2105   5.528   7.174   6.413
  165ACTN    H5 2106   5.513   7.256   6.258
  165ACTN    C2 2107   5.329   7.237   6.364
  165ACTN    O1 2108   5.244   7.257   6.278
  165ACTN    C1 2109   5.301   7.267   6.508
  165ACTN    H1 2110   5.367   7.345   6.544
  165ACTN    H2 2111   5.317   7.178   6.569
  165ACTN    H3 2112   5.198   7.300   6.523
  166ACTN    H6 2113   4.051   6.596   2.830
  166ACTN    C3 2114   4.064   6.631   2.728
  166ACTN    H4 2115   4.115   6.726   2.732
  166ACTN    H5 2116   4.127   6.560   2.675
  166ACTN    C2 2117   3.931   6.644   2.661
  166ACTN    O1 2118   3.856   6.546   2.657
  166ACTN    C1 2119   3.884   6.776   2.608
  166ACTN    H1 2120   3.787   6.802   2.651
  166ACTN    H2 2121   3.875   6.772   2.500
  166ACTN    H3 2122   3.955   6.854   2.634
  167ACTN    H6 2123   6.286   4.040   4.140
  167ACTN    C3 2124   6.283   4.064   4.034
  167ACTN    H4 2125   6.277   4.172   4.023
  167ACTN    H5 2126   6.377   4.031   3.989
  167ACTN    C2 2127   6.167   3.998   3.966
  167ACTN    O1 2128   6.156   4.002   3.844
  167ACTN    C1 2129   6.070   3.919   4.049
  167ACTN    H1 2130   6.122   3.837   4.099
  167ACTN    H2 2131   5.990   3.878   3.988
  167ACTN    H3 2132   6.026   3.983   4.126
  168ACTN    H6 2133   0.103   1.275   6.100
  168ACTN    C3 2134   0.078   1.376   6.130
  168ACTN    H4 2135   0.072   1.439   6.041
  168ACTN    H5 2136   8.980   1.375   6.177
  168ACTN    C2 2137   0.182   1.430   6.223
  168ACTN    O1 2138   0.300   1.433   6.189
  168ACTN    C1 2139   0.140   1.472   6.361
  168ACTN    H1 2140   0.224   1.509   6.418
  168ACTN    H2 2141   0.097   1.387   6.414
  168ACTN    H3 2142   0.065   1.551   6.355
  169ACTN    H6 2143   3.171   1.824   3.052
  169ACTN    C3 2144   3.266   1.848   3.005
  169ACTN    H4 2145   3.336   1.769   3.027
  169ACTN    H5 2146   3.251   1.852   2.898
  169ACTN    C2 2147   3.317   1.980   3.054
  169ACTN    O1 2148   3.243   2.078   3.055
  169ACTN    C1 2149   3.454   1.988   3.115
  169ACTN    H1 2150   3.481   2.091   3.137
  169ACTN    H2 2151   3.527   1.946   3.047
  169ACTN    H3 2152   3.456   1.932   3.208
  170ACTN    H6 2153   6.427   6.655   2.921
  170ACTN    C3 2154   6.535   6.647   2.935
  170ACTN    H4 2155   6.574   6.747   2.954
  170ACTN    H5 2156   6.554   6.586   3.023
  170ACTN    C2 2157   6.598   6.586   2.814
  170ACTN    O1 2158   6.681   6.649   2.747
  170ACTN    C1 2159   6.557   6.448   2.775
  170ACTN    H1 2160   6.611   6.413   2.686
  170ACTN    H2 2161   6.451   6.445   2.754
  170ACTN    H3 2162   6.578   6.378   2.856
  171ACTN    H6 2163   4.833   6.919   6.306
  171ACTN    C3 2164   4.936   6.928   6.275
  171ACTN    H4 2165   4.996   6.961   6.359
  171ACTN    H5 2166   4.971   6.829   6.245
  171ACTN    C2 2167   4.947   7.025   6.162
  171ACTN    O1 2168   4.987   6.988   6.051
  171ACTN    C1 2169   4.902   7.166   6.184
  171ACTN    H1 2170   4.820   7.191   6.118
  171ACTN    H2 2171   4.984   7.235   6.164
  171ACTN    H3 2172   4.869   7.181   6.286
  172ACTN    H6 2173   2.121   5.507   1.400
  172ACTN    C3 2174   2.040   5.481   1.468
  172ACTN    H4 2175   2.004   5.382   1.440
  172ACTN    H5 2176   2.080   5.475   1.568
  172ACTN    C2 2177   1.931   5.583   1.461
  172ACTN    O1 2178   1.814   5.549   1.448
  172ACTN    C1 2179   1.965   5.727   1.486
  172ACTN    H1 2180   1.909   5.766   1.571
  172ACTN    H2 2181   1.940   5.787   1.399
  172ACTN    H3 2182   2.071   5.739   1.506
  173ACTN    H6 2183   5.851   5.025   5.531
  173ACTN    C3 2184   5.776   4.951   5.556
  173ACTN    H4 2185   5.803   4.907   5.652
  173ACTN    H5 2186   5.680   5.001   5.567
  173ACTN    C2 2187   5.768   4.845   5.451
  173ACTN    O1 2188   5.743   4.876   5.335
  173ACTN    C1 2189   5.791   4.702   5.488
  173ACTN    H1 2190   5.790   4.637   5.401
  173ACTN    H2 2191   5.713   4.669   5.556
  173ACTN    H3 2192   5.887   4.691   5.539
  174ACTN    H6 2193   1.563   0.387   4.561
  174ACTN    C3 2194   1.458   0.362   4.575
  174ACTN    H4 2195   1.423   0.312   4.485
  174ACTN    H5 2196   1.450   0.294   4.659
  174ACTN    C2 2197   1.379   0.487   4.603
  174ACTN    O1 2198   1.296   0.528   4.523
  174ACTN    C1 2199   1.409   0.563   4.728
  174ACTN    H1 2200   1.384   0.502   4.815
  174ACTN    H2 2201   1.353   0.656   4.733
  174ACTN    H3 2202   1.515   0.586   4.734
  175ACTN    H6 2203   0.442   3.544   4.927
  175ACTN    C3 2204   0.395   3.448   4.948
  175ACTN    H4 2205   0.472   3.377   4.977
  175ACTN    H5 2206   0.327   3.461   5.031
  175ACTN    C2 2207   0.324   3.397   4.827
  175ACTN    O1 2208   0.383   3.388   4.719
  175ACTN    C1 2209   0.177   3.368   4.833
  175ACTN    H1 2210   0.138   3.386   4.933
  175ACTN    H2 2211   0.159   3.263   4.808
  175ACTN    H3 2212   0.122   3.430   4.763
  176ACTN    H6 2213   5.095   0.399   4.919
  176ACTN    C3 2214   5.178   0.399   4.990
  176ACTN    H4 2215   5.161   0.320   5.062
  176ACTN    H5 2216   5.269   0.377   4.935
  176ACTN    C2 2217   5.186   0.532   5.058
  176ACTN    O1 2218   5.289   0.599   5.054
  176ACTN    C1 2219   5.069   0.578   5.140
  176ACTN    H1 2220   4.993   0.500   5.146
  176ACTN    H2 2221   5.024   0.665   5.095
  176ACTN    H3 2222   5.100   0.603   5.241
  177ACTN    H6 2223   7.059   1.702   5.521
  177ACTN    C3 2224   7.164   1.729   5.522
  177ACTN    H4 2225   7.194   1.753   5.420
  177ACTN    H5 2226   7.176   1.818   5.583
  177ACTN    C2 2227   7.247   1.616   5.575
  177ACTN    O1 2228   7.236   1.503   5.528
  177ACTN    C1 2229   7.340   1.643   5.690
  177ACTN    H1 2230   7.283   1.676   5.777
  177ACTN    H2 2231   7.411   1.721   5.664
  177ACTN    H3 2232   7.395   1.554   5.718
  178ACTN    H6 2233   3.133   6.725   3.782
  178ACTN    C3 2234   3.196   6.675   3.856
  178ACTN    H4 2235   3.298   6.675   3.819
  178ACTN    H5 2236   3.163   6.572   3.865
  178ACTN    C2 2237   3.188   6.747   3.988
  178ACTN    O1 2238   3.218   6.866   3.994
  178ACTN    C1 2239   3.139   6.674   4.109
  178ACTN    H1 2240   3.053   6.725   4.152
  178ACTN    H2 2241   3.217   6.671   4.185
  178ACTN    H3 2242   3.110   6.572   4.086
  179ACTN    H6 2243   1.308   4.852   2.249
  179ACTN    C3 2244   1.218   4.894   2.204
  179ACTN    H4 2245   1.245   4.941   2.110
  179ACTN    H5 2246   1.150   4.812   2.182
  179ACTN    C2 2247   1.154   4.994   2.295
  179ACTN    O1 2248   1.219   5.091   2.334
  179ACTN    C1 2249   1.014   4.974   2.343
  179ACTN    H1 2250   0.973   4.881   2.305
  179ACTN    H2 2251   0.951   5.056   2.307
  179ACTN    H3 2252   1.010   4.973   2.451
  180ACTN    H6 2253   3.928   5.701   2.338
  180ACTN    C3 2254   4.006   5.732   2.407
  180ACTN    H4 2255   4.054   5.643   2.447
  180ACTN    H5 2256   4.080   5.789   2.352
  180ACTN    C2 2257   3.950   5.814   2.519
  180ACTN    O1 2258   3.829   5.821   2.538
  180ACTN    C1 2259   4.045   5.878   2.616
  180ACTN    H1 2260   4.112   5.946   2.563
  180ACTN    H2 2261   4.105   5.803   2.665
  180ACTN    H3 2262   3.992   5.935   2.692
  181ACTN    H6 2263   4.349   0.077   4.325
  181ACTN    C3 2264   4.406   0.163   4.359
  181ACTN    H4 2265   4.498   0.168   4.301
  181ACTN    H5 2266   4.348   0.252   4.338
  181ACTN    C2 2267   4.437   0.156   4.505
  181ACTN    O1 2268   4.414   0.053   4.569
  181ACTN    C1 2269   4.511   0.268   4.570
  181ACTN    H1 2270   4.604   0.233   4.613
  181ACTN    H2 2271   4.451   0.312   4.650
  181ACTN    H3 2272   4.534   0.346   4.498
  182ACTN    H6 2273   7.256   1.733   6.118
  182ACTN    C3 2274   7.263   1.625   6.121
  182ACTN    H4 2275   7.353   1.595   6.068
  182ACTN    H5 2276   7.271   1.593   6.224
  182ACTN    C2 2277   7.140   1.565   6.059
  182ACTN    O1 2278   7.150   1.480   5.971
  182ACTN    C1 2279   7.007   1.597   6.119
  182ACTN    H1 2280   6.993   1.705   6.121
  182ACTN    H2 2281   7.001   1.560   6.221
  182ACTN    H3 2282   6.926   1.554   6.062
  183ACTN    H6 2283   3.863   2.148   4.043
  183ACTN    C3 2284   3.775   2.089   4.063
  183ACTN    H4 2285   3.734   2.121   4.159
  183ACTN    H5 2286   3.700   2.109   3.986
  183ACTN    C2 2287   3.807   1.943   4.068
  183ACTN    O1 2288   3.718   1.861   4.087
  183ACTN    C1 2289   3.947   1.896   4.042
  183ACTN    H1 2290   4.013   1.979   4.021
  183ACTN    H2 2291   3.949   1.828   3.957
  183ACTN    H3 2292   3.985   1.843   4.129
  184ACTN    H6 2293   4.647   4.932   0.395
  184ACTN    C3 2294   4.601   5.009   0.333
  184ACTN    H4 2295   4.673   5.041   0.258
  184ACTN    H5 2296   4.515   4.966   0.283
  184ACTN    C2 2297   4.560   5.126   0.418
  184ACTN    O1 2298   4.644   5.187   0.483
  184ACTN    C1 2299   4.416   5.165   0.420
  184ACTN    H1 2300   4.355   5.085   0.460
  184ACTN    H2 2301   4.381   5.187   0.320
  184ACTN    H3 2302   4.399   5.254   0.482
  185ACTN    H6 2303   6.465   3.144   3.060
  185ACTN    C3 2304   6.495   3.042   3.039
  185ACTN    H4 2305   6.525   2.995   3.133
  185ACTN    H5 2306   6.409   2.988   3.001
  185ACTN    C2 2307   6.608   3.037   2.941
  185ACTN    O1 2308   6.656   3.140   2.895
  185ACTN    C1 2309   6.661   2.904   2.898
  185ACTN    H1 2310   6.648   2.892   2.790
  185ACTN    H2 2311   6.767   2.897   2.920
  185ACTN    H3 2312   6.610   2.823   2.948
  186ACTN    H6 2313   6.694   6.839   5.017
  186ACTN    C3 2314   6.638   6.791   4.937
  186ACTN    H4 2315   6.588   6.869   4.881
  186ACTN    H5 2316   6.709   6.740   4.872
  186ACTN    C2 2317   6.541   6.694   4.996
  186ACTN    O1 2318   6.420   6.706   4.977
  186ACTN    C1 2319   6.592   6.578   5.076
  186ACTN    H1 2320   6.700   6.579   5.081
  186ACTN    H2 2321   6.559   6.484   5.033
  186ACTN    H3 2322   6.554   6.584   5.178
  187ACTN    H6 2323   6.603   6.093   3.152
  187ACTN    C3 2324   6.669   6.163   3.101
  187ACTN    H4 2325   6.648   6.159   2.995
  187ACTN    H5 2326   6.646   6.263   3.137
  187ACTN    C2 2327   6.812   6.130   3.130
  187ACTN    O1 2328   6.891   6.107   3.039
  187ACTN    C1 2329   6.859   6.127   3.272
  187ACTN    H1 2330   6.896   6.028   3.298
  187ACTN    H2 2331   6.778   6.151   3.340
  187ACTN    H3 2332   6.939   6.198   3.287
  188ACTN    H6 2333   6.052   5.237   2.369
  188ACTN    C3 2334   6.063   5.332   2.422
  188ACTN    H4 2335   6.076   5.410   2.347
  188ACTN    H5 2336   5.970   5.352   2.475
  188ACTN    C2 2337   6.178   5.331   2.517
  188ACTN    O1 2338   6.252   5.233   2.524
  188ACTN    C1 2339   6.205   5.451   2.601
  188ACTN    H1 2340   6.203   5.425   2.707
  188ACTN    H2 2341   6.130   5.528   2.584
  188ACTN    H3 2342   6.303   5.493   2.578
  189ACTN    H6 2343   4.410   0.698   4.625
  189ACTN    C3 2344   4.342   0.616   4.644
  189ACTN    H4 2345   4.380   0.527   4.594
  189ACTN    H5 2346   4.340   0.595   4.751
  189ACTN    C2 2347   4.204   0.649   4.597
  189ACTN    O1 2348   4.150   0.583   4.508
  189ACTN    C1 2349   4.136   0.770   4.654
  189ACTN    H1 2350   4.192   0.859   4.629
  189ACTN    H2 2351   4.132   0.763   4.763
  189ACTN    H3 2352   4.035   0.781   4.617
  190ACTN    H6 2353   4.195   2.455   1.440
  190ACTN    C3 2354   4.128   2.527   1.394
  190ACTN    H4 2355   4.030   2.519   1.442
  190ACTN    H5 2356   4.168   2.627   1.413
  190ACTN    C2 2357   4.117   2.500   1.247
  190ACTN    O1 2358   4.143   2.586   1.164
  190ACTN    C1 2359   4.067   2.367   1.202
  190ACTN    H1 2360   4.039   2.304   1.286
  190ACTN    H2 2361   4.145   2.315   1.146
  190ACTN    H3 2362   3.980   2.378   1.138
  191ACTN    H6 2363   0.983   5.203   3.469
  191ACTN    C3 2364   0.919   5.180   3.383
  191ACTN    H4 2365   0.857   5.267   3.363
  191ACTN    H5 2366   0.983   5.162   3.297
  191ACTN    C2 2367   0.836   5.059   3.412
  191ACTN    O1 2368   0.890   4.954   3.444
  191ACTN    C1 2369   0.687   5.067   3.403
  191ACTN    H1 2370   0.642   5.041   3.499
  191ACTN    H2 2371   0.649   4.998   3.328
  191ACTN    H3 2372   0.654   5.168   3.377
  192ACTN    H6 2373   4.341   2.823   0.180
  192ACTN    C3 2374   4.372   2.731   0.131
  192ACTN    H4 2375   4.282   2.677   0.103
  192ACTN    H5 2376   4.426   2.758   0.041
  192ACTN    C2 2377   4.459   2.650   0.222
  192ACTN    O1 2378   4.496   2.539   0.186
  192ACTN    C1 2379   4.497   2.704   0.356
  192ACTN    H1 2380   4.558   2.633   0.412
  192ACTN    H2 2381   4.407   2.725   0.415
  192ACTN    H3 2382   4.553   2.796   0.345
  193ACTN    H6 2383   7.057   0.750   4.285
  193ACTN    C3 2384   7.165   0.742   4.275
  193ACTN    H4 2385   7.191   0.637   4.284
  193ACTN    H5 2386   7.192   0.777   4.176
  193ACTN    C2 2387   7.234   0.823   4.380
  193ACTN    O1 2388   7.356   0.820   4.386
  193ACTN    C1 2389   7.153   0.899   4.479
  193ACTN    H1 2390   7.217   0.957   4.546
  193ACTN    H2 2391   7.094   0.831   4.540
  193ACTN    H3 2392   7.086   0.968   4.429
  194ACTN    H6 2393   2.566   0.249   4.641
  194ACTN    C3 2394   2.534   0.353   4.643
  194ACTN    H4 2395   2.579   0.400   4.730
  194ACTN    H5 2396   2.570   0.404   4.554
  194ACTN    C2 2397   2.385   0.362   4.652
  194ACTN    O1 2398   2.329   0.470   4.641
  194ACTN    C1 2399   2.305   0.235   4.659
  194ACTN    H1 2400   2.319   0.177   4.568
  194ACTN    H2 2401   2.199   0.255   4.672
  194ACTN    H3 2402   2.339   0.175   4.743
  195ACTN    H6 2403   2.117   4.888   5.242
  195ACTN    C3 2404   2.205   4.862   5.184
  195ACTN    H4 2405   2.203   4.919   5.091
  195ACTN    H5 2406   2.293   4.893   5.240
  195ACTN    C2 2407   2.209   4.715   5.157
  195ACTN    O1 2408   2.124   4.664   5.084
  195ACTN    C1 2409   2.324   4.635   5.206
  195ACTN    H1 2410   2.313   4.529   5.182
  195ACTN    H2 2411   2.332   4.643   5.315
  195ACTN    H3 2412   2.417   4.671   5.162
  196ACTN    H6 2413   1.900   6.475   4.161
  196ACTN    C3 2414   1.829   6.476   4.079
  196ACTN    H4 2415   1.865   6.407   4.002
  196ACTN    H5 2416   1.733   6.441   4.115
  196ACTN    C2 2417   1.818   6.613   4.020
  196ACTN    O1 2418   1.919   6.672   3.984
  196ACTN    C1 2419   1.685   6.682   4.014
  196ACTN    H1 2420   1.606   6.619   4.055
  196ACTN    H2 2421   1.659   6.705   3.911
  196ACTN    H3 2422   1.687   6.775   4.071
  197ACTN    H6 2423   3.112   0.963   4.236
  197ACTN    C3 2424   3.032   0.992   4.303
  197ACTN    H4 2425   2.950   1.032   4.243
  197ACTN    H5 2426   2.996   0.904   4.355
  197ACTN    C2 2427   3.078   1.095   4.401
  197ACTN    O1 2428   3.000   1.142   4.484
  197ACTN    C1 2429   3.221   1.140   4.400
  197ACTN    H1 2430   3.227   1.247   4.383
  197ACTN    H2 2431   3.277   1.090   4.322
  197ACTN    H3 2432   3.268   1.118   4.496
  198ACTN    H6 2433   2.063   3.009   4.526
  198ACTN    C3 2434   2.162   3.027   4.487
  198ACTN    H4 2435   2.162   3.121   4.432
  198ACTN    H5 2436   2.232   3.036   4.570
  198ACTN    C2 2437   2.203   2.913   4.398
  198ACTN    O1 2438   2.218   2.801   4.445
  198ACTN    C1 2439   2.235   2.942   4.254
  198ACTN    H1 2440   2.260   2.851   4.200
  198ACTN    H2 2441   2.320   3.010   4.247
  198ACTN    H3 2442   2.150   2.988   4.205
  199ACTN    H6 2443   2.102   2.949   6.582
  199ACTN    C3 2444   2.079   2.887   6.668
  199ACTN    H4 2445   1.971   2.872   6.671
  199ACTN    H5 2446   2.126   2.790   6.655
  199ACTN    C2 2447   2.128   2.952   6.794
  199ACTN    O1 2448   2.247   2.977   6.809
  199ACTN    C1 2449   2.028   2.988   6.900
  199ACTN    H1 2450   1.969   2.901   6.927
  199ACTN    H2 2451   1.961   3.065   6.865
  199ACTN    H3 2452   2.077   3.023   6.991
  200ACTN    H6 2453   1.672   7.272   0.757
  200ACTN    C3 2454   1.570   7.258   0.722
  200ACTN    H4 2455   1.572   7.223   0.619
  200ACTN    H5 2456   1.523   7.182   0.784
  200ACTN    C2 2457   1.491   7.385   0.731
  200ACTN    O1 2458   1.549   7.493   0.734
  200ACTN    C1 2459   1.345   7.379   0.699
  200ACTN    H1 2460   1.331   7.360   0.592
  200ACTN    H2 2461   1.295   7.472   0.725
  200ACTN    H3 2462   1.298   7.298   0.754
  201ACTN    H6 2463   3.576   6.748   3.865
  201ACTN    C3 2464   3.680   6.768   3.889
  201ACTN    H4 2465   3.715   6.694   3.960
  201ACTN    H5 2466   3.739   6.759   3.797
  201ACTN    C2 2467   3.694   6.906   3.946
  201ACTN    O1 2468   3.641   6.934   4.053
  201ACTN    C1 2469   3.773   7.008   3.872
  201ACTN    H1 2470   3.725   7.031   3.777
  201ACTN    H2 2471   3.873   6.971   3.851
  201ACTN    H3 2472   3.783   7.100   3.929
  202ACTN    H6 2473   4.856   3.441   2.204
  202ACTN    C3 2474   4.789   3.485   2.131
  202ACTN    H4 2475   4.790   3.423   2.042
  202ACTN    H5 2476   4.688   3.485   2.172
  202ACTN    C2 2477   4.830   3.625   2.097
  202ACTN    O1 2478   4.924   3.679   2.156
  202ACTN    C1 2479   4.751   3.698   1.993
  202ACTN    H1 2480   4.751   3.642   1.900
  202ACTN    H2 2481   4.793   3.797   1.974
  202ACTN    H3 2482   4.649   3.711   2.026
  203ACTN    H6 2483   0.093   6.265   3.289
  203ACTN    C3 2484   0.042   6.281   3.195
  203ACTN    H4 2485   8.957   6.213   3.190
  203ACTN    H5 2486   0.004   6.383   3.193
  203ACTN    C2 2487   0.136   6.255   3.081
  203ACTN    O1 2488   0.150   6.338   2.992
  203ACTN    C1 2489   0.201   6.120   3.070
  203ACTN    H1 2490   0.169   6.055   3.151
  203ACTN    H2 2491   0.309   6.131   3.076
  203ACTN    H3 2492   0.175   6.073   2.976
  204ACTN    H6 2493   5.114   1.407   2.049
  204ACTN    C3 2494   5.177   1.423   2.136
  204ACTN    H4 2495   5.239   1.511   2.119
  204ACTN    H5 2496   5.113   1.442   2.222
  204ACTN    C2 2497   5.264   1.303   2.162
  204ACTN    O1 2498   5.335   1.299   2.261
  204ACTN    C1 2499   5.259   1.188   2.066
  204ACTN    H1 2500   5.285   1.221   1.966
  204ACTN    H2 2501   5.159   1.146   2.064
  204ACTN    H3 2502   5.328   1.109   2.096
  205ACTN    H6 2503   6.043   6.106   1.951
  205ACTN    C3 2504   6.131   6.044   1.954
  205ACTN    H4 2505   6.217   6.108   1.971
  205ACTN    H5 2506   6.122   5.975   2.037
  205ACTN    C2 2507   6.147   5.967   1.825
  205ACTN    O1 2508   6.253   5.910   1.800
  205ACTN    C1 2509   6.040   5.974   1.722
  205ACTN    H1 2510   6.000   5.875   1.704
  205ACTN    H2 2511   6.079   6.012   1.628
  205ACTN    H3 2512   5.958   6.038   1.753
  206ACTN    H6 2513   0.776   5.184   5.754
  206ACTN    C3 2514   0.705   5.148   5.681
  206ACTN    H4 2515   0.750   5.157   5.582
  206ACTN    H5 2516   0.685   5.043   5.700
  206ACTN    C2 2517   0.577   5.227   5.687
  206ACTN    O1 2518   0.486   5.201   5.609
  206ACTN    C1 2519   0.561   5.335   5.789
  206ACTN    H1 2520   0.476   5.313   5.854
  206ACTN    H2 2521   0.543   5.430   5.741
  206ACTN    H3 2522   0.649   5.345   5.851
  207ACTN    H6 2523   0.801   0.604   4.389
  207ACTN    C3 2524   0.757   0.700   4.361
  207ACTN    H4 2525   0.707   0.741   4.449
  207ACTN    H5 2526   0.837   0.768   4.333
  207ACTN    C2 2527   0.659   0.682   4.250
  207ACTN    O1 2528   0.563   0.607   4.264
  207ACTN    C1 2529   0.682   0.750   4.119
  207ACTN    H1 2530   0.783   0.789   4.112
  207ACTN    H2 2531   0.613   0.834   4.109
  207ACTN    H3 2532   0.664   0.682   4.036
  208ACTN    H6 2533   5.277   0.971   4.573
  208ACTN    C3 2534   5.300   0.941   4.471
  208ACTN    H4 2535   5.254   0.845   4.452
  208ACTN    H5 2536   5.255   1.014   4.404
  208ACTN    C2 2537   5.448   0.935   4.449
  208ACTN    O1 2538   5.527   0.970   4.536
  208ACTN    C1 2539   5.500   0.889   4.316
  208ACTN    H1 2540   5.565   0.803   4.328
  208ACTN    H2 2541   5.557   0.969   4.268
  208ACTN    H3 2542   5.419   0.862   4.250
  209ACTN    H6 2543   2.385   4.777   2.409
  209ACTN    C3 2544   2.335   4.697   2.463
  209ACTN    H4 2545   2.227   4.712   2.455
  209ACTN    H5 2546   2.360   4.603   2.415
  209ACTN    C2 2547   2.379   4.695   2.607
  209ACTN    O1 2548   2.299   4.720   2.696
  209ACTN    C1 2549   2.524   4.676   2.638
  209ACTN    H1 2550   2.562   4.760   2.694
  209ACTN    H2 2551   2.582   4.666   2.547
  209ACTN    H3 2552   2.538   4.586   2.698
  210ACTN    H6 2553   0.600   6.393   0.770
  210ACTN    C3 2554   0.611   6.495   0.734
  210ACTN    H4 2555   0.516   6.547   0.743
  210ACTN    H5 2556   0.685   6.545   0.797
  210ACTN    C2 2557   0.658   6.494   0.592
  210ACTN    O1 2558   0.766   6.444   0.563
  210ACTN    C1 2559   0.573   6.559   0.487
  210ACTN    H1 2560   0.560   6.664   0.509
  210ACTN    H2 2561   0.475   6.512   0.484
  210ACTN    H3 2562   0.618   6.549   0.389
  211ACTN    H6 2563   3.518   6.782   4.245
  211ACTN    C3 2564   3.502   6.709   4.324
  211ACTN    H4 2565   3.396   6.684   4.326
  211ACTN    H5 2566   3.557   6.618   4.299
  211ACTN    C2 2567   3.545   6.765   4.455
  211ACTN    O1 2568   3.488   6.863   4.502
  211ACTN    C1 2569   3.647   6.689   4.535
  211ACTN    H1 2570   3.678   6.747   4.623
  211ACTN    H2 2571   3.735   6.670   4.475
  211ACTN    H3 2572   3.606   6.595   4.569
  212ACTN    H6 2573   5.271   2.926   4.212
  212ACTN    C3 2574   5.366   2.873   4.216
  212ACTN    H4 2575   5.369   2.801   4.134
  212ACTN    H5 2576   5.446   2.946   4.200
  212ACTN    C2 2577   5.381   2.804   4.347
  212ACTN    O1 2578   5.469   2.836   4.426
  212ACTN    C1 2579   5.280   2.700   4.384
  212ACTN    H1 2580   5.203   2.691   4.308
  212ACTN    H2 2581   5.232   2.724   4.479
  212ACTN    H3 2582   5.328   2.603   4.394
  213ACTN    H6 2583   4.091   4.942   0.783
  213ACTN    C3 2584   4.064   5.027   0.846
  213ACTN    H4 2585   4.156   5.074   0.880
  213ACTN    H5 2586   4.009   5.098   0.786
  213ACTN    C2 2587   3.980   4.981   0.961
  213ACTN    O1 2588   4.013   5.006   1.077
  213ACTN    C1 2589   3.852   4.909   0.934
  213ACTN    H1 2590   3.833   4.902   0.827
  213ACTN    H2 2591   3.769   4.962   0.980
  213ACTN    H3 2592   3.855   4.808   0.975
  214ACTN    H6 2593   5.563   2.424   6.717
  214ACTN    C3 2594   5.608   2.349   6.782
  214ACTN    H4 2595   5.700   2.315   6.736
  214ACTN    H5 2596   5.632   2.396   6.877
  214ACTN    C2 2597   5.514   2.233   6.800
  214ACTN    O1 2598   5.470   2.174   6.702
  214ACTN    C1 2599   5.466   2.197   6.937
  214ACTN    H1 2600   5.496   2.095   6.961
  214ACTN    H2 2601   5.357   2.203   6.942
  214ACTN    H3 2602   5.507   2.263   7.013
  215ACTN    H6 2603   3.316   6.404   3.300
  215ACTN    C3 2604   3.313   6.316   3.364
  215ACTN    H4 2605   3.224   6.258   3.339
  215ACTN    H5 2606   3.401   6.256   3.342
  215ACTN    C2 2607   3.312   6.354   3.509
  215ACTN    O1 2608   3.303   6.472   3.543
  215ACTN    C1 2609   3.312   6.246   3.612
  215ACTN    H1 2610   3.398   6.258   3.678
  215ACTN    H2 2611   3.319   6.149   3.565
  215ACTN    H3 2612   3.222   6.250   3.673
  216ACTN    H6 2613   5.557   0.481   5.348
  216ACTN    C3 2614   5.640   0.481   5.278
  216ACTN    H4 2615   5.652   0.582   5.239
  216ACTN    H5 2616   5.730   0.454   5.333
  216ACTN    C2 2617   5.617   0.385   5.166
  216ACTN    O1 2618   5.699   0.371   5.077
  216ACTN    C1 2619   5.492   0.303   5.167
  216ACTN    H1 2620   5.494   0.233   5.250
  216ACTN    H2 2621   5.481   0.246   5.074
  216ACTN    H3 2622   5.406   0.367   5.179
  217ACTN    H6 2623   0.855   5.022   1.153
  217ACTN    C3 2624   0.872   5.021   1.046
  217ACTN    H4 2625   0.826   4.931   1.006
  217ACTN    H5 2626   0.979   5.016   1.027
  217ACTN    C2 2627   0.813   5.142   0.980
  217ACTN    O1 2628   0.758   5.229   1.046
  217ACTN    C1 2629   0.826   5.156   0.832
  217ACTN    H1 2630   0.931   5.162   0.804
  217ACTN    H2 2631   0.776   5.246   0.795
  217ACTN    H3 2632   0.783   5.070   0.781
  218ACTN    H6 2633   3.044   5.823   2.718
  218ACTN    C3 2634   3.008   5.917   2.760
  218ACTN    H4 2635   2.924   5.894   2.826
  218ACTN    H5 2636   3.088   5.960   2.819
  218ACTN    C2 2637   2.964   6.009   2.651
  218ACTN    O1 2638   2.878   5.972   2.572
  218ACTN    C1 2639   3.021   6.147   2.643
  218ACTN    H1 2640   3.095   6.164   2.720
  218ACTN    H2 2641   2.942   6.221   2.654
  218ACTN    H3 2642   3.068   6.162   2.546
  219ACTN    H6 2643   6.317   1.684   5.074
  219ACTN    C3 2644   6.372   1.718   5.161
  219ACTN    H4 2645   6.305   1.777   5.223
  219ACTN    H5 2646   6.402   1.630   5.218
  219ACTN    C2 2647   6.492   1.797   5.120
  219ACTN    O1 2648   6.579   1.744   5.051
  219ACTN    C1 2649   6.510   1.937   5.168
  219ACTN    H1 2650   6.603   1.948   5.223
  219ACTN    H2 2651   6.428   1.968   5.232
  219ACTN    H3 2652   6.512   2.006   5.083
  220ACTN    H6 2653   1.773   5.768   2.863
  220ACTN    C3 2654   1.752   5.863   2.912
  220ACTN    H4 2655   1.655   5.899   2.878
  220ACTN    H5 2656   1.747   5.845   3.019
  220ACTN    C2 2657   1.861   5.961   2.881
  220ACTN    O1 2658   1.835   6.070   2.831
  220ACTN    C1 2659   2.002   5.926   2.914
  220ACTN    H1 2660   2.044   5.998   2.984
  220ACTN    H2 2661   2.064   5.926   2.824
  220ACTN    H3 2662   2.008   5.827   2.959
  221ACTN    H6 2663   0.442   7.463   6.428
  221ACTN    C3 2664   0.526   7.402   6.395
  221ACTN    H4 2665   0.556   7.436   6.296
  221ACTN    H5 2666   0.609   7.417   6.463
  221ACTN    C2 2667   0.487   7.257   6.392
  221ACTN    O1 2668   0.439   7.205   6.492
  221ACTN    C1 2669   0.500   7.179   6.265
  221ACTN    H1 2670   0.535   7.241   6.184
  221ACTN    H2 2671   0.404   7.137   6.236
  221ACTN    H3 2672   0.571   7.097   6.278
  222ACTN    H6 2673   2.516   0.273   0.908
  222ACTN    C3 2674   2.415   0.266   0.869
  222ACTN    H4 2675   2.346   0.288   0.950
  222ACTN    H5 2676   2.398   0.163   0.837
  222ACTN    C2 2677   2.393   0.360   0.755
  222ACTN    O1 2678   2.484   0.432   0.715
  222ACTN    C1 2679   2.258   0.363   0.690
  222ACTN    H1 2680   2.182   0.390   0.763
  222ACTN    H2 2681   2.233   0.266   0.649
  222ACTN    H3 2682   2.255   0.436   0.609
  223ACTN    H6 2683   1.185   5.581   6.135
  223ACTN    C3 2684   1.113   5.657   6.167
  223ACTN    H4 2685   1.165   5.753   6.169
  223ACTN    H5 2686   1.034   5.662   6.093
  223ACTN    C2 2687   1.057   5.626   6.302
  223ACTN    O1 2688   1.083   5.520   6.357
  223ACTN    C1 2689   0.960   5.722   6.363
  223ACTN    H1 2690   0.943   5.808   6.299
  223ACTN    H2 2691   0.998   5.758   6.459
  223ACTN    H3 2692   0.864   5.674   6.381
  224ACTN    H6 2693   6.325   3.424   5.130
  224ACTN    C3 2694   6.309   3.489   5.044
  224ACTN    H4 2695   6.225   3.555   5.066
  224ACTN    H5 2696   6.283   3.427   4.959
  224ACTN    C2 2697   6.432   3.570   5.014
  224ACTN    O1 2698   6.431   3.651   4.923
  224ACTN    C1 2699   6.553   3.551   5.100
  224ACTN    H1 2700   6.531   3.579   5.203
  224ACTN    H2 2701   6.636   3.613   5.065
  224ACTN    H3 2702   6.585   3.447   5.098
  225ACTN    H6 2703   0.652   0.062   2.801
  225ACTN    C3 2704   0.585   0.133   2.754
  225ACTN    H4 2705   0.603   0.132   2.647
  225ACTN    H5 2706   0.482   0.100   2.772
  225ACTN    C2 2707   0.606   0.271   2.808
  225ACTN    O1 2708   0.539   0.365   2.766
  225ACTN    C1 2709   0.705   0.290   2.919
  225ACTN    H1 2710   0.676   0.233   3.007
  225ACTN    H2 2711   0.714   0.395   2.946
  225ACTN    H3 2712   0.803   0.255   2.886
  226ACTN    H6 2713   6.980   7.047   5.375
  226ACTN    C3 2714   6.910   7.047   5.291
  226ACTN    H4 2715   6.838   7.126   5.308
  226ACTN    H5 2716   6.966   7.070   5.201
  226ACTN    C2 2717   6.845   6.913   5.279
  226ACTN    O1 2718   6.722   6.903   5.286
  226ACTN    C1 2719   6.929   6.793   5.251
  226ACTN    H1 2720   7.034   6.820   5.246
  226ACTN    H2 2721   6.901   6.747   5.157
  226ACTN    H3 2722   6.916   6.719   5.330
  227ACTN    H6 2723   6.419   4.687   4.973
  227ACTN    C3 2724   6.478   4.752   4.909
  227ACTN    H4 2725   6.570   4.699   4.883
  227ACTN    H5 2726   6.422   4.770   4.817
  227ACTN    C2 2727   6.510   4.880   4.979
  227ACTN    O1 2728   6.564   4.879   5.088
  227ACTN    C1 2729   6.467   5.009   4.915
  227ACTN    H1 2730   6.503   5.094   4.973
  227ACTN    H2 2731   6.359   5.015   4.911
  227ACTN    H3 2732   6.506   5.016   4.814
  228ACTN    H6 2733   0.326   6.733   6.124
  228ACTN    C3 2734   0.334   6.841   6.121
  228ACTN    H4 2735   0.252   6.880   6.061
  228ACTN    H5 2736   0.323   6.879   6.222
  228ACTN    C2 2737   0.466   6.882   6.063
  228ACTN    O1 2738   0.570   6.850   6.120
  228ACTN    C1 2739   0.469   6.965   5.939
  228ACTN    H1 2740   0.417   6.914   5.858
  228ACTN    H2 2741   0.571   6.984   5.906
  228ACTN    H3 2742   0.420   7.060   5.956
  229ACTN    H6 2743   3.162   7.235   2.843
  229ACTN    C3 2744   3.197   7.169   2.922
  229ACTN    H4 2745   3.127   7.175   3.005
  229ACTN    H5 2746   3.196   7.067   2.884
  229ACTN    C2 2747   3.334   7.211   2.966
  229ACTN    O1 2748   3.429   7.133   2.959
  229ACTN    C1 2749   3.355   7.347   3.025
  229ACTN    H1 2750   3.422   7.405   2.962
  229ACTN    H2 2751   3.399   7.339   3.124
  229ACTN    H3 2752   3.261   7.400   3.033
  230ACTN    H6 2753   3.328   7.477   5.979
  230ACTN    C3 2754   3.336   7.398   6.053
  230ACTN    H4 2755   3.380   7.311   6.007
  230ACTN    H5 2756   3.402   7.433   6.133
  230ACTN    C2 2757   3.200   7.364   6.108
  230ACTN    O1 2758   3.169   7.391   6.223
  230ACTN    C1 2759   3.100   7.305   6.014
  230ACTN    H1 2760   3.136   7.210   5.976
  230ACTN    H2 2761   3.083   7.371   5.930
  230ACTN    H3 2762   3.005   7.287   6.064
  231ACTN    H6 2763   3.596   0.211   2.621
  231ACTN    C3 2764   3.511   0.198   2.688
  231ACTN    H4 2765   3.546   0.200   2.791
  231ACTN    H5 2766   3.443   0.282   2.673
  231ACTN    C2 2767   3.442   0.068   2.659
  231ACTN    O1 2768   3.326   0.066   2.620
  231ACTN    C1 2769   3.517   8.940   2.683
  231ACTN    H1 2770   3.458   8.875   2.748
  231ACTN    H2 2771   3.612   8.958   2.733
  231ACTN    H3 2772   3.534   8.887   2.590
  232ACTN    H6 2773   3.545   6.969   2.364
  232ACTN    C3 2774   3.653   6.984   2.356
  232ACTN    H4 2775   3.671   7.088   2.329
  232ACTN    H5 2776   3.697   6.967   2.454
  232ACTN    C2 2777   3.712   6.891   2.256
  232ACTN    O1 2778   3.778   6.934   2.162
  232ACTN    C1 2779   3.693   6.743   2.274
  232ACTN    H1 2780   3.789   6.693   2.280
  232ACTN    H2 2781   3.637   6.702   2.190
  232ACTN    H3 2782   3.638   6.722   2.365
  233ACTN    H6 2783   5.337   7.302   5.054
  233ACTN    C3 2784   5.397   7.285   5.143
  233ACTN    H4 2785   5.498   7.257   5.113
  233ACTN    H5 2786   5.403   7.377   5.200
  233ACTN    C2 2787   5.337   7.175   5.225
  233ACTN    O1 2788   5.282   7.199   5.332
  233ACTN    C1 2789   5.338   7.036   5.170
  233ACTN    H1 2790   5.440   7.006   5.147
  233ACTN    H2 2791   5.280   7.032   5.078
  233ACTN    H3 2792   5.296   6.964   5.240
  234ACTN    H6 2793   2.708   1.565   4.560
  234ACTN    C3 2794   2.633   1.642   4.572
  234ACTN    H4 2795   2.659   1.700   4.660
  234ACTN    H5 2796   2.636   1.707   4.485
  234ACTN    C2 2797   2.498   1.579   4.589
  234ACTN    O1 2798   2.402   1.620   4.525
  234ACTN    C1 2799   2.482   1.470   4.690
  234ACTN    H1 2800   2.379   1.435   4.696
  234ACTN    H2 2801   2.511   1.506   4.788
  234ACTN    H3 2802   2.545   1.385   4.665
  235ACTN    H6 2803   5.620   3.533   4.265
  235ACTN    C3 2804   5.564   3.450   4.221
  235ACTN    H4 2805   5.458   3.472   4.233
  235ACTN    H5 2806   5.587   3.445   4.115
  235ACTN    C2 2807   5.596   3.323   4.292
  235ACTN    O1 2808   5.577   3.313   4.413
  235ACTN    C1 2809   5.646   3.205   4.214
  235ACTN    H1 2810   5.644   3.225   4.107
  235ACTN    H2 2811   5.584   3.118   4.233
  235ACTN    H3 2812   5.748   3.181   4.243
  236ACTN    H6 2813   1.412   1.146   0.241
  236ACTN    C3 2814   1.313   1.101   0.234
  236ACTN    H4 2815   1.316   1.022   0.160
  236ACTN    H5 2816   1.244   1.178   0.200
  236ACTN    C2 2817   1.269   1.047   0.367
  236ACTN    O1 2818   1.342   1.053   0.465
  236ACTN    C1 2819   1.134   0.983   0.378
  236ACTN    H1 2820   1.073   1.034   0.452
  236ACTN    H2 2821   1.143   0.879   0.408
  236ACTN    H3 2822   1.081   0.986   0.283
  237ACTN    H6 2823   6.060   2.296   5.928
  237ACTN    C3 2824   6.065   2.403   5.911
  237ACTN    H4 2825   5.998   2.453   5.981
  237ACTN    H5 2826   6.166   2.436   5.930
  237ACTN    C2 2827   6.026   2.433   5.769
  237ACTN    O1 2828   6.091   2.386   5.677
  237ACTN    C1 2829   5.908   2.523   5.743
  237ACTN    H1 2830   5.896   2.541   5.637
  237ACTN    H2 2831   5.921   2.619   5.793
  237ACTN    H3 2832   5.817   2.476   5.780
  238ACTN    H6 2833   2.702   2.174   3.837
  238ACTN    C3 2834   2.724   2.274   3.802
  238ACTN    H4 2835   2.701   2.344   3.882
  238ACTN    H5 2836   2.830   2.281   3.781
  238ACTN    C2 2837   2.645   2.305   3.678
  238ACTN    O1 2838   2.573   2.404   3.673
  238ACTN    C1 2839   2.664   2.217   3.558
  238ACTN    H1 2840   2.643   2.113   3.583
  238ACTN    H2 2841   2.766   2.224   3.522
  238ACTN    H3 2842   2.597   2.246   3.477
  239ACTN    H6 2843   6.915   3.483   0.822
  239ACTN    C3 2844   6.985   3.517   0.746
  239ACTN    H4 2845   7.020   3.430   0.691
  239ACTN    H5 2846   6.931   3.581   0.677
  239ACTN    C2 2847   7.099   3.589   0.810
  239ACTN    O1 2848   7.175   3.529   0.884
  239ACTN    C1 2849   7.126   3.732   0.773
  239ACTN    H1 2850   7.113   3.796   0.860
  239ACTN    H2 2851   7.058   3.767   0.696
  239ACTN    H3 2852   7.228   3.744   0.736
  240ACTN    H6 2853   6.243   2.601   5.443
  240ACTN    C3 2854   6.206   2.703   5.437
  240ACTN    H4 2855   6.211   2.747   5.536
  240ACTN    H5 2856   6.271   2.760   5.371
  240ACTN    C2 2857   6.066   2.704   5.384
  240ACTN    O1 2858   5.974   2.752   5.451
  240ACTN    C1 2859   6.041   2.648   5.248
  240ACTN    H1 2860   5.936   2.654   5.220
  240ACTN    H2 2861   6.071   2.543   5.244
  240ACTN    H3 2862   6.099   2.702   5.174
  241ACTN    H6 2863   5.045   3.884   7.460
  241ACTN    C3 2864   5.012   3.780   7.458
  241ACTN    H4 2865   5.067   3.724   7.533
  241ACTN    H5 2866   4.907   3.778   7.486
  241ACTN    C2 2867   5.032   3.721   7.323
  241ACTN    O1 2868   5.146   3.705   7.280
  241ACTN    C1 2869   4.914   3.684   7.238
  241ACTN    H1 2870   4.914   3.577   7.217
  241ACTN    H2 2871   4.916   3.738   7.144
  241ACTN    H3 2872   4.820   3.708   7.289
  242ACTN    H6 2873   2.025   5.945   0.938
  242ACTN    C3 2874   1.920   5.973   0.934
  242ACTN    H4 2875   1.903   6.027   0.841
  242ACTN    H5 2876   1.860   5.882   0.931
  242ACTN    C2 2877   1.882   6.054   1.053
  242ACTN    O1 2878   1.833   6.166   1.041
  242ACTN    C1 2879   1.899   5.995   1.190
  242ACTN    H1 2880   1.943   5.895   1.183
  242ACTN    H2 2881   1.803   5.987   1.240
  242ACTN    H3 2882   1.965   6.057   1.250
  243ACTN    H6 2883   6.416   1.357   3.862
  243ACTN    C3 2884   6.374   1.291   3.787
  243ACTN    H4 2885   6.265   1.294   3.795
  243ACTN    H5 2886   6.400   1.329   3.689
  243ACTN    C2 2887   6.426   1.151   3.803
  243ACTN    O1 2888   6.547   1.133   3.813
  243ACTN    C1 2889   6.331   1.038   3.823
  243ACTN    H1 2890   6.333   0.973   3.736
  243ACTN    H2 2891   6.230   1.073   3.838
  243ACTN    H3 2892   6.361   0.978   3.909
  244ACTN    H6 2893   2.536   1.670   3.927
  244ACTN    C3 2894   2.596   1.588   3.966
  244ACTN    H4 2895   2.529   1.514   4.008
  244ACTN    H5 2896   2.648   1.542   3.882
  244ACTN    C2 2897   2.692   1.638   4.068
  244ACTN    O1 2898   2.651   1.684   4.174
  244ACTN    C1 2899   2.839   1.621   4.043
  244ACTN    H1 2900   2.867   1.671   3.951
  244ACTN    H2 2901   2.863   1.516   4.034
  244ACTN    H3 2902   2.898   1.664   4.124
  245ACTN    H6 2903   4.699   5.797   1.241
  245ACTN    C3 2904   4.786   5.732   1.233
  245ACTN    H4 2905   4.822   5.711   1.333
  245ACTN    H5 2906   4.755   5.638   1.188
  245ACTN    C2 2907   4.893   5.798   1.152
  245ACTN    O1 2908   4.924   5.754   1.041
  245ACTN    C1 2909   4.952   5.926   1.202
  245ACTN    H1 2910   5.028   5.964   1.134
  245ACTN    H2 2911   4.997   5.911   1.299
  245ACTN    H3 2912   4.875   6.002   1.212
  246ACTN    H6 2913   1.054   5.706   5.706
  246ACTN    C3 2914   1.052   5.803   5.657
  246ACTN    H4 2915   1.112   5.798   5.567
  246ACTN    H5 2916   0.949   5.825   5.629
  246ACTN    C2 2917   1.104   5.911   5.747
  246ACTN    O1 2918   1.103   6.027   5.709
  246ACTN    C1 2919   1.151   5.876   5.885
  246ACTN    H1 2920   1.254   5.907   5.899
  246ACTN    H2 2921   1.145   5.769   5.903
  246ACTN    H3 2922   1.090   5.927   5.959
  247ACTN    H6 2923   1.486   1.755   5.568
  247ACTN    C3 2924   1.451   1.845   5.618
  247ACTN    H4 2925   1.453   1.827   5.725
  247ACTN    H5 2926   1.520   1.926   5.596
  247ACTN    C2 2927   1.314   1.880   5.570
  247ACTN    O1 2928   1.219   1.881   5.648
  247ACTN    C1 2929   1.292   1.912   5.426
  247ACTN    H1 2930   1.217   1.846   5.383
  247ACTN    H2 2931   1.384   1.902   5.369
  247ACTN    H3 2932   1.256   2.015   5.415
  248ACTN    H6 2933   6.858   6.348   3.726
  248ACTN    C3 2934   6.761   6.299   3.726
  248ACTN    H4 2935   6.702   6.338   3.808
  248ACTN    H5 2936   6.778   6.193   3.743
  248ACTN    C2 2937   6.690   6.320   3.596
  248ACTN    O1 2938   6.743   6.382   3.505
  248ACTN    C1 2939   6.554   6.260   3.579
  248ACTN    H1 2940   6.558   6.152   3.590
  248ACTN    H2 2941   6.512   6.282   3.481
  248ACTN    H3 2942   6.485   6.299   3.654
  249ACTN    H6 2943   5.915   6.913   0.911
  249ACTN    C3 2944   5.818   6.956   0.890
  249ACTN    H4 2945   5.822   7.004   0.792
  249ACTN    H5 2946   5.745   6.876   0.886
  249ACTN    C2 2947   5.781   7.056   0.994
  249ACTN    O1 2948   5.850   7.156   1.012
  249ACTN    C1 2949   5.657   7.033   1.075
  249ACTN    H1 2950   5.641   7.113   1.148
  249ACTN    H2 2951   5.665   6.939   1.130
  249ACTN    H3 2952   5.570   7.028   1.011
  250ACTN    H6 2953   4.324   6.922   3.350
  250ACTN    C3 2954   4.381   7.011   3.378
  250ACTN    H4 2955   4.458   6.981   3.448
  250ACTN    H5 2956   4.429   7.051   3.289
  250ACTN    C2 2957   4.291   7.114   3.440
  250ACTN    O1 2958   4.338   7.221   3.478
  250ACTN    C1 2959   4.146   7.083   3.455
  250ACTN    H1 2960   4.132   6.996   3.518
  250ACTN    H2 2961   4.101   7.063   3.358
  250ACTN    H3 2962   4.092   7.167   3.501
  251ACTN    H6 2963   5.577   5.200   3.488
  251ACTN    C3 2964   5.662   5.257   3.525
  251ACTN    H4 2965   5.741   5.255   3.451
  251ACTN    H5 2966   5.699   5.209   3.615
  251ACTN    C2 2967   5.622   5.399   3.554
  251ACTN    O1 2968   5.577   5.468   3.464
  251ACTN    C1 2969   5.628   5.451   3.694
  251ACTN    H1 2970   5.653   5.372   3.763
  251ACTN    H2 2971   5.532   5.494   3.723
  251ACTN    H3 2972   5.704   5.528   3.702
  252ACTN    H6 2973   4.761   5.959   1.830
  252ACTN    C3 2974   4.763   6.036   1.753
  252ACTN    H4 2975   4.783   6.132   1.801
  252ACTN    H5 2976   4.845   6.015   1.685
  252ACTN    C2 2977   4.633   6.039   1.678
  252ACTN    O1 2978   4.561   6.138   1.680
  252ACTN    C1 2979   4.592   5.916   1.603
  252ACTN    H1 2980   4.499   5.932   1.548
  252ACTN    H2 2981   4.576   5.834   1.673
  252ACTN    H3 2982   4.669   5.886   1.533
  253ACTN    H6 2983   2.262   3.236   2.784
  253ACTN    C3 2984   2.364   3.212   2.813
  253ACTN    H4 2985   2.361   3.163   2.910
  253ACTN    H5 2986   2.405   3.142   2.741
  253ACTN    C2 2987   2.449   3.335   2.820
  253ACTN    O1 2988   2.403   3.445   2.793
  253ACTN    C1 2989   2.593   3.320   2.860
  253ACTN    H1 2990   2.645   3.415   2.856
  253ACTN    H2 2991   2.643   3.251   2.793
  253ACTN    H3 2992   2.600   3.282   2.961
  254ACTN    H6 2993   7.138   7.295   4.449
  254ACTN    C3 2994   7.174   7.291   4.346
  254ACTN    H4 2995   7.140   7.198   4.301
  254ACTN    H5 2996   7.131   7.373   4.290
  254ACTN    C2 2997   7.324   7.298   4.342
  254ACTN    O1 2998   7.382   7.301   4.235
  254ACTN    C1 2999   7.400   7.303   4.471
  254ACTN    H1 3000   7.507   7.311   4.454
  254ACTN    H2 3001   7.382   7.213   4.529
  254ACTN    H3 3002   7.368   7.388   4.531
  255ACTN    H6 3003   4.880   4.307   1.527
  255ACTN    C3 3004   4.834   4.286   1.431
  255ACTN    H4 3005   4.741   4.343   1.424
  255ACTN    H5 3006   4.901   4.320   1.353
  255ACTN    C2 3007   4.805   4.140   1.419
  255ACTN    O1 3008   4.841   4.077   1.320
  255ACTN    C1 3009   4.719   4.074   1.523
  255ACTN    H1 3010   4.685   4.145   1.597
  255ACTN    H2 3011   4.776   3.996   1.574
  255ACTN    H3 3012   4.632   4.028   1.476
  256ACTN    H6 3013   6.743   0.006   5.465
  256ACTN    C3 3014   6.660   0.014   5.395
  256ACTN    H4 3015   6.644   8.917   5.349
  256ACTN    H5 3016   6.571   0.041   5.452
  256ACTN    C2 3017   6.686   0.119   5.291
  256ACTN    O1 3018   6.792   0.181   5.289
  256ACTN    C1 3019   6.584   0.141   5.184
  256ACTN    H1 3020   6.548   0.244   5.187
  256ACTN    H2 3021   6.498   0.076   5.197
  256ACTN    H3 3022   6.626   0.122   5.085
  257ACTN    H6 3023   3.949   5.123   4.341
  257ACTN    C3 3024   3.883   5.156   4.262
  257ACTN    H4 3025   3.780   5.134   4.291
  257ACTN    H5 3026   3.893   5.263   4.252
  257ACTN    C2 3027   3.917   5.084   4.135
  257ACTN    O1 3028   3.981   5.142   4.047
  257ACTN    C1 3029   3.888   4.938   4.126
  257ACTN    H1 3030   3.980   4.881   4.113
  257ACTN    H2 3031   3.823   4.918   4.041
  257ACTN    H3 3032   3.837   4.903   4.215
  258ACTN    H6 3033   3.179   2.401   5.242
  258ACTN    C3 3034   3.152   2.357   5.146
  258ACTN    H4 3035   3.051   2.388   5.121
  258ACTN    H5 3036   3.220   2.396   5.070
  258ACTN    C2 3037   3.159   2.207   5.150
  258ACTN    O1 3038   3.172   2.148   5.257
  258ACTN    C1 3039   3.145   2.130   5.023
  258ACTN    H1 3040   3.134   2.197   4.938
  258ACTN    H2 3041   3.058   2.065   5.027
  258ACTN    H3 3042   3.233   2.068   5.006
  259ACTN    H6 3043   1.621   0.895   3.968
  259ACTN    C3 3044   1.716   0.842   3.964
  259ACTN    H4 3045   1.796   0.916   3.956
  259ACTN    H5 3046   1.718   0.782   3.874
  259ACTN    C2 3047   1.737   0.756   4.084
  259ACTN    O1 3048   1.652   0.749   4.172
  259ACTN    C1 3049   1.863   0.675   4.093
  259ACTN    H1 3050   1.839   0.569   4.100
  259ACTN    H2 3051   1.920   0.704   4.181
  259ACTN    H3 3052   1.924   0.690   4.005
  260ACTN    H6 3053   1.826   1.585   2.452
  260ACTN    C3 3054   1.914   1.522   2.465
  260ACTN    H4 3055   1.925   1.459   2.377
  260ACTN    H5 3056   2.001   1.587   2.473
  260ACTN    C2 3057   1.897   1.438   2.588
  260ACTN    O1 3058   1.984   1.434   2.674
  260ACTN    C1 3059   1.778   1.346   2.595
  260ACTN    H1 3060   1.686   1.403   2.587
  260ACTN    H2 3061   1.776   1.293   2.690
  260ACTN    H3 3062   1.782   1.273   2.515
  261ACTN    H6 3063   1.597   7.184   1.532
  261ACTN    C3 3064   1.553   7.110   1.465
  261ACTN    H4 3065   1.630   7.039   1.436
  261ACTN    H5 3066   1.476   7.056   1.519
  261ACTN    C2 3067   1.498   7.178   1.343
  261ACTN    O1 3068   1.574   7.226   1.260
  261ACTN    C1 3069   1.349   7.185   1.325
  261ACTN    H1 3070   1.320   7.129   1.236
  261ACTN    H2 3071   1.318   7.288   1.311
  261ACTN    H3 3072   1.296   7.144   1.411
  262ACTN    H6 3073   1.432   6.126   3.867
  262ACTN    C3 3074   1.535   6.128   3.900
  262ACTN    H4 3075   1.538   6.124   4.008
  262ACTN    H5 3076   1.585   6.038   3.862
  262ACTN    C2 3077   1.603   6.252   3.851
  262ACTN    O1 3078   1.567   6.362   3.890
  262ACTN    C1 3079   1.717   6.239   3.754
  262ACTN    H1 3080   1.686   6.185   3.665
  262ACTN    H2 3081   1.799   6.184   3.800
  262ACTN    H3 3082   1.755   6.336   3.724
  263ACTN    H6 3083   2.894   0.554   5.576
  263ACTN    C3 3084   2.796   0.588   5.609
  263ACTN    H4 3085   2.751   0.648   5.530
  263ACTN    H5 3086   2.733   0.500   5.625
  263ACTN    C2 3087   2.808   0.668   5.734
  263ACTN    O1 3088   2.880   0.767   5.736
  263ACTN    C1 3089   2.737   0.622   5.857
  263ACTN    H1 3090   2.752   0.690   5.941
  263ACTN    H2 3091   2.773   0.524   5.886
  263ACTN    H3 3092   2.630   0.615   5.838
  264ACTN    H6 3093   5.245   3.036   4.441
  264ACTN    C3 3094   5.210   3.037   4.543
  264ACTN    H4 3095   5.143   2.954   4.558
  264ACTN    H5 3096   5.296   3.024   4.609
  264ACTN    C2 3097   5.144   3.168   4.573
  264ACTN    O1 3098   5.034   3.170   4.627
  264ACTN    C1 3099   5.222   3.294   4.552
  264ACTN    H1 3100   5.316   3.274   4.501
  264ACTN    H2 3101   5.245   3.341   4.648
  264ACTN    H3 3102   5.165   3.365   4.492
  265ACTN    H6 3103   5.802   6.443   1.730
  265ACTN    C3 3104   5.750   6.531   1.768
  265ACTN    H4 3105   5.814   6.580   1.841
  265ACTN    H5 3106   5.734   6.600   1.685
  265ACTN    C2 3107   5.619   6.494   1.830
  265ACTN    O1 3108   5.543   6.582   1.869
  265ACTN    C1 3109   5.580   6.350   1.843
  265ACTN    H1 3110   5.486   6.332   1.791
  265ACTN    H2 3111   5.567   6.324   1.948
  265ACTN    H3 3112   5.656   6.285   1.800
  266ACTN    H6 3113   0.059   6.309   3.918
  266ACTN    C3 3114   0.159   6.272   3.902
  266ACTN    H4 3115   0.193   6.303   3.803
  266ACTN    H5 3116   0.157   6.163   3.904
  266ACTN    C2 3117   0.252   6.326   4.006
  266ACTN    O1 3118   0.256   6.446   4.028
  266ACTN    C1 3119   0.332   6.232   4.092
  266ACTN    H1 3120   0.313   6.251   4.197
  266ACTN    H2 3121   0.438   6.245   4.073
  266ACTN    H3 3122   0.306   6.128   4.071
  267ACTN    H6 3123   3.127   4.723   1.577
  267ACTN    C3 3124   3.129   4.766   1.676
  267ACTN    H4 3125   3.032   4.811   1.695
  267ACTN    H5 3126   3.145   4.687   1.749
  267ACTN    C2 3127   3.236   4.871   1.685
  267ACTN    O1 3128   3.333   4.857   1.758
  267ACTN    C1 3129   3.227   4.989   1.593
  267ACTN    H1 3130   3.221   5.081   1.651
  267ACTN    H2 3131   3.138   4.983   1.531
  267ACTN    H3 3132   3.314   4.995   1.528
  268ACTN    H6 3133   0.286   1.992   6.478
  268ACTN    C3 3134   0.259   1.891   6.507
  268ACTN    H4 3135   0.200   1.847   6.427
  268ACTN    H5 3136   0.351   1.833   6.518
  268ACTN    C2 3137   0.181   1.891   6.634
  268ACTN    O1 3138   0.142   1.785   6.682
  268ACTN    C1 3139   0.157   2.021   6.704
  268ACTN    H1 3140   0.102   2.088   6.639
  268ACTN    H2 3141   0.251   2.068   6.730
  268ACTN    H3 3142   0.100   2.006   6.796
  269ACTN    H6 3143   7.052   4.842   0.177
  269ACTN    C3 3144   6.945   4.858   0.185
  269ACTN    H4 3145   6.894   4.765   0.160
  269ACTN    H5 3146   6.922   4.882   0.289
  269ACTN    C2 3147   6.900   4.968   0.095
  269ACTN    O1 3148   6.784   5.007   0.099
  269ACTN    C1 3149   6.997   5.029   9.000
  269ACTN    H1 3150   6.965   5.015   8.897
  269ACTN    H2 3151   7.096   4.985   0.011
  269ACTN    H3 3152   7.006   5.136   0.018
  270ACTN    H6 3153   3.561   2.315   7.301
  270ACTN    C3 3154   3.532   2.420   7.294
  270ACTN    H4 3155   3.548   2.467   7.390
  270ACTN    H5 3156   3.595   2.469   7.220
  270ACTN    C2 3157   3.389   2.431   7.252
  270ACTN    O1 3158   3.351   2.379   7.147
  270ACTN    C1 3159   3.290   2.503   7.339
  270ACTN    H1 3160   3.337   2.540   7.429
  270ACTN    H2 3161   3.209   2.436   7.367
  270ACTN    H3 3162   3.248   2.588   7.285
  271ACTN    H6 3163   6.291   4.417   6.889
  271ACTN    C3 3164   6.316   4.361   6.800
  271ACTN    H4 3165   6.233   4.295   6.777
  271ACTN    H5 3166   6.328   4.432   6.718
  271ACTN    C2 3167   6.442   4.283   6.820
  271ACTN    O1 3168   6.547   4.344   6.842
  271ACTN    C1 3169   6.439   4.134   6.810
  271ACTN    H1 3170   6.412   4.104   6.709
  271ACTN    H2 3171   6.366   4.093   6.878
  271ACTN    H3 3172   6.536   4.090   6.833
  272ACTN    H6 3173   7.167   2.018   5.273
  272ACTN    C3 3174   7.059   2.027   5.281
  272ACTN    H4 3175   7.022   2.068   5.187
  272ACTN    H5 3176   7.016   1.929   5.295
  272ACTN    C2 3177   7.021   2.118   5.394
  272ACTN    O1 3178   7.106   2.161   5.471
  272ACTN    C1 3179   6.876   2.149   5.417
  272ACTN    H1 3180   6.813   2.099   5.343
  272ACTN    H2 3181   6.859   2.256   5.410
  272ACTN    H3 3182   6.845   2.116   5.516
  273ACTN    H6 3183   4.598   5.686   0.135
  273ACTN    C3 3184   4.551   5.781   0.157
  273ACTN    H4 3185   4.536   5.788   0.265
  273ACTN    H5 3186   4.618   5.862   0.127
  273ACTN    C2 3187   4.422   5.793   0.083
  273ACTN    O1 3188   4.419   5.781   8.962
  273ACTN    C1 3189   4.295   5.815   0.160
  273ACTN    H1 3190   4.226   5.732   0.143
  273ACTN    H2 3191   4.245   5.905   0.127
  273ACTN    H3 3192   4.314   5.822   0.266
  274ACTN    H6 3193   5.801   5.268   5.410
  274ACTN    C3 3194   5.788   5.339   5.492
  274ACTN    H4 3195   5.718   5.295   5.563
  274ACTN    H5 3196   5.883   5.353   5.542
  274ACTN    C2 3197   5.737   5.469   5.439
  274ACTN    O1 3198   5.620   5.503   5.459
  274ACTN    C1 3199   5.825   5.551   5.351
  274ACTN    H1 3200   5.920   5.501   5.334
  274ACTN    H2 3201   5.846   5.647   5.398
  274ACTN    H3 3202   5.777   5.570   5.255
  275ACTN    H6 3203   6.352   3.485   0.619
  275ACTN    C3 3204   6.384   3.487   0.723
  275ACTN    H4 3205   6.426   3.390   0.749
  275ACTN    H5 3206   6.296   3.504   0.785
  275ACTN    C2 3207   6.484   3.597   0.745
  275ACTN    O1 3208   6.457   3.713   0.712
  275ACTN    C1 3209   6.619   3.565   0.800
  275ACTN    H1 3210   6.638   3.623   0.890
  275ACTN    H2 3211   6.696   3.589   0.727
  275ACTN    H3 3212   6.627   3.460   0.826
  276ACTN    H6 3213   2.362   0.254   3.974
  276ACTN    C3 3214   2.333   0.188   3.893
  276ACTN    H4 3215   2.418   0.177   3.826
  276ACTN    H5 3216   2.307   0.091   3.934
  276ACTN    C2 3217   2.216   0.247   3.819
  276ACTN    O1 3218   2.108   0.260   3.876
  276ACTN    C1 3219   2.230   0.279   3.674
  276ACTN    H1 3220   2.141   0.326   3.635
  276ACTN    H2 3221   2.249   0.188   3.617
  276ACTN    H3 3222   2.314   0.346   3.659
  277ACTN    H6 3223   3.609   2.127   0.258
  277ACTN    C3 3224   3.638   2.040   0.317
  277ACTN    H4 3225   3.737   2.058   0.359
  277ACTN    H5 3226   3.568   2.031   0.400
  277ACTN    C2 3227   3.636   1.916   0.234
  277ACTN    O1 3228   3.670   1.808   0.283
  277ACTN    C1 3229   3.597   1.926   0.090
  277ACTN    H1 3230   3.596   1.828   0.041
  277ACTN    H2 3231   3.667   1.989   0.037
  277ACTN    H3 3232   3.498   1.970   0.080
  278ACTN    H6 3233   1.585   7.361   5.344
  278ACTN    C3 3234   1.640   7.436   5.401
  278ACTN    H4 3235   1.667   7.517   5.334
  278ACTN    H5 3236   1.573   7.476   5.477
  278ACTN    C2 3237   1.763   7.375   5.462
  278ACTN    O1 3238   1.779   7.375   5.584
  278ACTN    C1 3239   1.861   7.309   5.371
  278ACTN    H1 3240   1.815   7.225   5.320
  278ACTN    H2 3241   1.948   7.273   5.426
  278ACTN    H3 3242   1.896   7.380   5.296
  279ACTN    H6 3243   0.861   2.837   3.568
  279ACTN    C3 3244   0.790   2.919   3.575
  279ACTN    H4 3245   0.841   3.011   3.545
  279ACTN    H5 3246   0.709   2.901   3.506
  279ACTN    C2 3247   0.737   2.929   3.715
  279ACTN    O1 3248   0.727   3.039   3.768
  279ACTN    C1 3249   0.676   2.808   3.777
  279ACTN    H1 3250   0.750   2.728   3.783
  279ACTN    H2 3251   0.593   2.772   3.716
  279ACTN    H3 3252   0.640   2.828   3.877
  280ACTN    H6 3253   3.534   1.279   1.656
  280ACTN    C3 3254   3.452   1.227   1.608
  280ACTN    H4 3255   3.443   1.127   1.652
  280ACTN    H5 3256   3.360   1.281   1.630
  280ACTN    C2 3257   3.475   1.215   1.461
  280ACTN    O1 3258   3.398   1.267   1.381
  280ACTN    C1 3259   3.594   1.140   1.411
  280ACTN    H1 3260   3.657   1.205   1.351
  280ACTN    H2 3261   3.563   1.056   1.350
  280ACTN    H3 3262   3.652   1.102   1.494
  281ACTN    H6 3263   1.166   2.447   3.900
  281ACTN    C3 3264   1.098   2.509   3.959
  281ACTN    H4 3265   1.121   2.613   3.940
  281ACTN    H5 3266   0.996   2.489   3.926
  281ACTN    C2 3267   1.111   2.479   4.105
  281ACTN    O1 3268   1.035   2.531   4.185
  281ACTN    C1 3269   1.212   2.378   4.150
  281ACTN    H1 3270   1.191   2.281   4.105
  281ACTN    H2 3271   1.212   2.367   4.258
  281ACTN    H3 3272   1.312   2.409   4.119
  282ACTN    H6 3273   4.483   2.084   0.523
  282ACTN    C3 3274   4.547   2.115   0.441
  282ACTN    H4 3275   4.486   2.123   0.352
  282ACTN    H5 3276   4.587   2.214   0.464
  282ACTN    C2 3277   4.658   2.016   0.420
  282ACTN    O1 3278   4.632   1.898   0.399
  282ACTN    C1 3279   4.800   2.061   0.432
  282ACTN    H1 3280   4.854   2.040   0.341
  282ACTN    H2 3281   4.850   2.009   0.514
  282ACTN    H3 3282   4.807   2.168   0.451
  283ACTN    H6 3283   3.161   4.658   4.715
  283ACTN    C3 3284   3.161   4.689   4.819
  283ACTN    H4 3285   3.073   4.649   4.867
  283ACTN    H5 3286   3.249   4.648   4.867
  283ACTN    C2 3287   3.162   4.839   4.831
  283ACTN    O1 3288   3.179   4.909   4.732
  283ACTN    C1 3289   3.154   4.899   4.968
  283ACTN    H1 3290   3.157   5.007   4.964
  283ACTN    H2 3291   3.237   4.864   5.029
  283ACTN    H3 3292   3.061   4.870   5.016
  284ACTN    H6 3293   3.941   4.606   7.098
  284ACTN    C3 3294   3.853   4.548   7.127
  284ACTN    H4 3295   3.768   4.586   7.071
  284ACTN    H5 3296   3.869   4.445   7.098
  284ACTN    C2 3297   3.828   4.561   7.274
  284ACTN    O1 3298   3.813   4.671   7.324
  284ACTN    C1 3299   3.827   4.437   7.359
  284ACTN    H1 3300   3.753   4.367   7.323
  284ACTN    H2 3301   3.804   4.461   7.462
  284ACTN    H3 3302   3.925   4.389   7.356
  285ACTN    H6 3303   0.534   6.060   4.283
  285ACTN    C3 3304   0.641   6.050   4.266
  285ACTN    H4 3305   0.670   6.127   4.194
  285ACTN    H5 3306   0.692   6.070   4.360
  285ACTN    C2 3307   0.676   5.915   4.214
  285ACTN    O1 3308   0.595   5.823   4.216
  285ACTN    C1 3309   0.816   5.893   4.166
  285ACTN    H1 3310   0.886   5.906   4.249
  285ACTN    H2 3311   0.841   5.964   4.088
  285ACTN    H3 3312   0.829   5.792   4.127
  286ACTN    H6 3313   6.270   1.493   6.685
  286ACTN    C3 3314   6.187   1.436   6.726
  286ACTN    H4 3315   6.228   1.357   6.789
  286ACTN    H5 3316   6.128   1.501   6.789
  286ACTN    C2 3317   6.105   1.376   6.616
  286ACTN    O1 3318   5.989   1.411   6.600
  286ACTN    C1 3319   6.170   1.281   6.520
  286ACTN    H1 3320   6.117   1.186   6.521
  286ACTN    H2 3321   6.273   1.262   6.548
  286ACTN    H3 3322   6.168   1.321   6.419
  287ACTN    H6 3323   5.499   6.305   7.172
  287ACTN    C3 3324   5.594   6.356   7.163
  287ACTN    H4 3325   5.600   6.434   7.239
  287ACTN    H5 3326   5.598   6.404   7.065
  287ACTN    C2 3327   5.707   6.259   7.176
  287ACTN    O1 3328   5.793   6.273   7.262
  287ACTN    C1 3329   5.714   6.142   7.082
  287ACTN    H1 3330   5.704   6.049   7.137
  287ACTN    H2 3331   5.809   6.142   7.030
  287ACTN    H3 3332   5.635   6.148   7.008
  288ACTN    H6 3333   1.892   1.195   6.282
  288ACTN    C3 3334   1.803   1.254   6.299
  288ACTN    H4 3335   1.807   1.342   6.235
  288ACTN    H5 3336   1.716   1.194   6.271
  288ACTN    C2 3337   1.794   1.292   6.444
  288ACTN    O1 3338   1.799   1.410   6.479
  288ACTN    C1 3339   1.784   1.185   6.547
  288ACTN    H1 3340   1.787   1.086   6.500
  288ACTN    H2 3341   1.690   1.193   6.601
  288ACTN    H3 3342   1.866   1.192   6.618
  289ACTN    H6 3343   2.340   1.078   2.852
  289ACTN    C3 3344   2.415   1.012   2.896
  289ACTN    H4 3345   2.412   1.024   3.004
  289ACTN    H5 3346   2.387   0.909   2.873
  289ACTN    C2 3347   2.551   1.045   2.844
  289ACTN    O1 3348   2.614   0.965   2.776
  289ACTN    C1 3349   2.607   1.180   2.873
  289ACTN    H1 3350   2.694   1.171   2.939
  289ACTN    H2 3351   2.534   1.244   2.922
  289ACTN    H3 3352   2.639   1.229   2.781
  290ACTN    H6 3353   4.091   5.198   1.811
  290ACTN    C3 3354   4.066   5.303   1.799
  290ACTN    H4 3355   3.970   5.309   1.748
  290ACTN    H5 3356   4.055   5.346   1.898
  290ACTN    C2 3357   4.173   5.373   1.721
  290ACTN    O1 3358   4.208   5.329   1.612
  290ACTN    C1 3359   4.240   5.494   1.778
  290ACTN    H1 3360   4.196   5.522   1.874
  290ACTN    H2 3361   4.229   5.579   1.710
  290ACTN    H3 3362   4.346   5.475   1.794
  291ACTN    H6 3363   0.479   5.294   3.489
  291ACTN    C3 3364   0.482   5.402   3.480
  291ACTN    H4 3365   0.493   5.428   3.375
  291ACTN    H5 3366   0.387   5.441   3.515
  291ACTN    C2 3367   0.594   5.460   3.561
  291ACTN    O1 3368   0.675   5.385   3.613
  291ACTN    C1 3369   0.611   5.608   3.567
  291ACTN    H1 3370   0.710   5.637   3.533
  291ACTN    H2 3371   0.597   5.643   3.668
  291ACTN    H3 3372   0.538   5.658   3.503
  292ACTN    H6 3373   3.181   4.770   3.486
  292ACTN    C3 3374   3.211   4.788   3.383
  292ACTN    H4 3375   3.297   4.855   3.385
  292ACTN    H5 3376   3.242   4.694   3.339
  292ACTN    C2 3377   3.099   4.849   3.303
  292ACTN    O1 3378   2.987   4.859   3.351
  292ACTN    C1 3379   3.124   4.881   3.159
  292ACTN    H1 3380   3.207   4.952   3.150
  292ACTN    H2 3381   3.036   4.925   3.112
  292ACTN    H3 3382   3.151   4.791   3.104
  293ACTN    H6 3383   0.291   5.716   4.503
  293ACTN    C3 3384   0.272   5.813   4.547
  293ACTN    H4 3385   0.166   5.824   4.564
  293ACTN    H5 3386   0.323   5.819   4.643
  293ACTN    C2 3387   0.320   5.921   4.455
  293ACTN    O1 3388   0.393   6.010   4.498
  293ACTN    C1 3389   0.264   5.930   4.317
  293ACTN    H1 3390   0.213   6.025   4.302
  293ACTN    H2 3391   0.193   5.850   4.298
  293ACTN    H3 3392   0.343   5.922   4.244
  294ACTN    H6 3393   1.941   0.378   2.659
  294ACTN    C3 3394   1.878   0.458   2.697
  294ACTN    H4 3395   1.784   0.456   2.643
  294ACTN    H5 3396   1.857   0.438   2.802
  294ACTN    C2 3397   1.945   0.591   2.679
  294ACTN    O1 3398   1.986   0.625   2.569
  294ACTN    C1 3399   1.971   0.677   2.799
  294ACTN    H1 3400   2.076   0.702   2.807
  294ACTN    H2 3401   1.941   0.627   2.891
  294ACTN    H3 3402   1.914   0.769   2.791
  295ACTN    H6 3403   1.729   1.808   3.880
  295ACTN    C3 3404   1.723   1.789   3.987
  295ACTN    H4 3405   1.744   1.882   4.040
  295ACTN    H5 3406   1.622   1.758   4.011
  295ACTN    C2 3407   1.820   1.681   4.026
  295ACTN    O1 3408   1.916   1.706   4.099
  295ACTN    C1 3409   1.804   1.547   3.962
  295ACTN    H1 3410   1.816   1.555   3.854
  295ACTN    H2 3411   1.705   1.507   3.983
  295ACTN    H3 3412   1.878   1.476   3.999
  296ACTN    H6 3413   4.668   6.366   1.531
  296ACTN    C3 3414   4.729   6.451   1.500
  296ACTN    H4 3415   4.688   6.541   1.545
  296ACTN    H5 3416   4.829   6.436   1.539
  296ACTN    C2 3417   4.730   6.462   1.351
  296ACTN    O1 3418   4.626   6.482   1.289
  296ACTN    C1 3419   4.859   6.450   1.276
  296ACTN    H1 3420   4.943   6.434   1.344
  296ACTN    H2 3421   4.879   6.541   1.219
  296ACTN    H3 3422   4.855   6.367   1.206
  297ACTN    H6 3423   0.956   4.862   6.516
  297ACTN    C3 3424   0.891   4.814   6.444
  297ACTN    H4 3425   0.929   4.834   6.344
  297ACTN    H5 3426   0.894   4.706   6.461
  297ACTN    C2 3427   0.751   4.866   6.458
  297ACTN    O1 3428   0.656   4.790   6.455
  297ACTN    C1 3429   0.729   5.014   6.448
  297ACTN    H1 3430   0.795   5.066   6.517
  297ACTN    H2 3431   0.627   5.040   6.474
  297ACTN    H3 3432   0.749   5.049   6.347
  298ACTN    H6 3433   6.733   6.610   1.388
  298ACTN    C3 3434   6.753   6.529   1.457
  298ACTN    H4 3435   6.705   6.439   1.420
  298ACTN    H5 3436   6.861   6.511   1.459
  298ACTN    C2 3437   6.704   6.564   1.594
  298ACTN    O1 3438   6.744   6.666   1.648
  298ACTN    C1 3439   6.610   6.472   1.666
  298ACTN    H1 3440   6.519   6.526   1.692
  298ACTN    H2 3441   6.655   6.436   1.758
  298ACTN    H3 3442   6.583   6.387   1.605
  299ACTN    H6 3443   3.163   1.335   5.851
  299ACTN    C3 3444   3.082   1.277   5.807
  299ACTN    H4 3445   2.997   1.279   5.874
  299ACTN    H5 3446   3.053   1.325   5.714
  299ACTN    C2 3447   3.126   1.136   5.783
  299ACTN    O1 3448   3.144   1.093   5.670
  299ACTN    C1 3449   3.163   1.052   5.902
  299ACTN    H1 3450   3.248   1.096   5.954
  299ACTN    H2 3451   3.188   0.951   5.873
  299ACTN    H3 3452   3.079   1.048   5.971
  300ACTN    H6 3453   1.433   1.193   5.938
  300ACTN    C3 3454   1.470   1.213   5.838
  300ACTN    H4 3455   1.413   1.152   5.768
  300ACTN    H5 3456   1.452   1.317   5.815
  300ACTN    C2 3457   1.616   1.181   5.827
  300ACTN    O1 3458   1.681   1.144   5.924
  300ACTN    C1 3459   1.684   1.203   5.695
  300ACTN    H1 3460   1.726   1.109   5.659
  300ACTN    H2 3461   1.764   1.275   5.705
  300ACTN    H3 3462   1.613   1.240   5.621
  301ACTN    H6 3463   2.160   3.110   1.413
  301ACTN    C3 3464   2.252   3.168   1.416
  301ACTN    H4 3465   2.300   3.161   1.318
  301ACTN    H5 3466   2.226   3.272   1.435
  301ACTN    C2 3467   2.342   3.116   1.524
  301ACTN    O1 3468   2.433   3.039   1.497
  301ACTN    C1 3469   2.303   3.136   1.667
  301ACTN    H1 3470   2.291   3.041   1.717
  301ACTN    H2 3471   2.209   3.191   1.674
  301ACTN    H3 3472   2.379   3.193   1.719
  302ACTN    H6 3473   3.682   3.797   1.720
  302ACTN    C3 3474   3.595   3.743   1.683
  302ACTN    H4 3475   3.589   3.756   1.576
  302ACTN    H5 3476   3.610   3.637   1.704
  302ACTN    C2 3477   3.471   3.793   1.749
  302ACTN    O1 3478   3.436   3.910   1.732
  302ACTN    C1 3479   3.387   3.702   1.832
  302ACTN    H1 3480   3.287   3.693   1.791
  302ACTN    H2 3481   3.379   3.740   1.934
  302ACTN    H3 3482   3.430   3.602   1.837
  303ACTN    H6 3483   1.142   1.473   4.847
  303ACTN    C3 3484   1.066   1.397   4.831
  303ACTN    H4 3485   1.115   1.306   4.798
  303ACTN    H5 3486   1.018   1.377   4.927
  303ACTN    C2 3487   0.965   1.445   4.732
  303ACTN    O1 3488   0.951   1.388   4.624
  303ACTN    C1 3489   0.880   1.563   4.767
  303ACTN    H1 3490   0.816   1.592   4.684
  303ACTN    H2 3491   0.944   1.648   4.793
  303ACTN    H3 3492   0.817   1.540   4.852
  304ACTN    H6 3493   6.389   1.441   4.861
  304ACTN    C3 3494   6.476   1.376   4.866
  304ACTN    H4 3495   6.474   1.309   4.781
  304ACTN    H5 3496   6.565   1.438   4.858
  304ACTN    C2 3497   6.477   1.299   4.994
  304ACTN    O1 3498   6.566   1.313   5.076
  304ACTN    C1 3499   6.364   1.204   5.021
  304ACTN    H1 3500   6.313   1.231   5.113
  304ACTN    H2 3501   6.402   1.102   5.030
  304ACTN    H3 3502   6.291   1.207   4.940
  305ACTN    H6 3503   1.566   1.898   2.774
  305ACTN    C3 3504   1.672   1.901   2.794
  305ACTN    H4 3505   1.705   2.005   2.789
  305ACTN    H5 3506   1.688   1.866   2.896
  305ACTN    C2 3507   1.747   1.815   2.697
  305ACTN    O1 3508   1.725   1.695   2.694
  305ACTN    C1 3509   1.849   1.876   2.606
  305ACTN    H1 3510   1.945   1.827   2.619
  305ACTN    H2 3511   1.861   1.982   2.625
  305ACTN    H3 3512   1.819   1.863   2.502
  306ACTN    H6 3513   6.959   3.816   0.180
  306ACTN    C3 3514   7.059   3.777   0.194
  306ACTN    H4 3515   7.063   3.677   0.152
  306ACTN    H5 3516   7.129   3.840   0.139
  306ACTN    C2 3517   7.094   3.774   0.340
  306ACTN    O1 3518   7.027   3.707   0.418
  306ACTN    C1 3519   7.214   3.849   0.388
  306ACTN    H1 3520   7.224   3.843   0.497
  306ACTN    H2 3521   7.207   3.954   0.361
  306ACTN    H3 3522   7.304   3.808   0.343
  307ACTN    H6 3523   2.495   6.454   3.624
  307ACTN    C3 3524   2.419   6.410   3.560
  307ACTN    H4 3525   2.356   6.490   3.523
  307ACTN    H5 3526   2.469   6.362   3.476
  307ACTN    C2 3527   2.337   6.312   3.639
  307ACTN    O1 3528   2.272   6.349   3.735
  307ACTN    C1 3529   2.331   6.168   3.595
  307ACTN    H1 3530   2.368   6.104   3.674
  307ACTN    H2 3531   2.390   6.151   3.506
  307ACTN    H3 3532   2.228   6.140   3.574
  308ACTN    H6 3533   3.154   3.963   1.453
  308ACTN    C3 3534   3.259   3.972   1.425
  308ACTN    H4 3535   3.266   4.042   1.342
  308ACTN    H5 3536   3.313   4.014   1.509
  308ACTN    C2 3537   3.315   3.839   1.387
  308ACTN    O1 3538   3.432   3.829   1.350
  308ACTN    C1 3539   3.225   3.720   1.387
  308ACTN    H1 3540   3.143   3.734   1.317
  308ACTN    H2 3541   3.183   3.704   1.486
  308ACTN    H3 3542   3.279   3.629   1.359
  309ACTN    H6 3543   0.962   3.949   2.787
  309ACTN    C3 3544   1.040   3.922   2.858
  309ACTN    H4 3545   1.047   4.000   2.933
  309ACTN    H5 3546   1.010   3.829   2.908
  309ACTN    C2 3547   1.171   3.903   2.788
  309ACTN    O1 3548   1.181   3.820   2.698
  309ACTN    C1 3549   1.287   3.990   2.826
  309ACTN    H1 3550   1.377   3.963   2.771
  309ACTN    H2 3551   1.308   3.979   2.932
  309ACTN    H3 3552   1.264   4.094   2.806
  310ACTN    H6 3553   6.768   1.026   4.179
  310ACTN    C3 3554   6.737   0.993   4.080
  310ACTN    H4 3555   6.657   0.920   4.090
  310ACTN    H5 3556   6.699   1.079   4.026
  310ACTN    C2 3557   6.852   0.934   4.004
  310ACTN    O1 3558   6.961   0.918   4.057
  310ACTN    C1 3559   6.829   0.891   3.862
  310ACTN    H1 3560   6.758   0.809   3.859
  310ACTN    H2 3561   6.922   0.860   3.814
  310ACTN    H3 3562   6.787   0.974   3.805
  311ACTN    H6 3563   3.767   6.690   1.393
  311ACTN    C3 3564   3.856   6.630   1.377
  311ACTN    H4 3565   3.847   6.539   1.437
  311ACTN    H5 3566   3.860   6.601   1.272
  311ACTN    C2 3567   3.979   6.706   1.416
  311ACTN    O1 3568   4.007   6.811   1.359
  311ACTN    C1 3569   4.065   6.652   1.526
  311ACTN    H1 3570   4.150   6.717   1.546
  311ACTN    H2 3571   4.104   6.554   1.498
  311ACTN    H3 3572   4.007   6.642   1.618
  312ACTN    H6 3573   1.464   5.884   2.148
  312ACTN    C3 3574   1.552   5.924   2.198
  312ACTN    H4 3575   1.628   5.943   2.123
  312ACTN    H5 3576   1.526   6.018   2.245
  312ACTN    C2 3577   1.601   5.827   2.301
  312ACTN    O1 3578   1.713   5.779   2.293
  312ACTN    C1 3579   1.511   5.790   2.415
  312ACTN    H1 3580   1.416   5.843   2.409
  312ACTN    H2 3581   1.558   5.814   2.510
  312ACTN    H3 3582   1.490   5.683   2.413
  313ACTN    H6 3583   3.459   6.752   4.847
  313ACTN    C3 3584   3.533   6.677   4.874
  313ACTN    H4 3585   3.532   6.599   4.798
  313ACTN    H5 3586   3.632   6.724   4.874
  313ACTN    C2 3587   3.502   6.617   5.007
  313ACTN    O1 3588   3.394   6.562   5.026
  313ACTN    C1 3589   3.606   6.623   5.115
  313ACTN    H1 3590   3.638   6.725   5.131
  313ACTN    H2 3591   3.692   6.563   5.086
  313ACTN    H3 3592   3.567   6.584   5.209
  314ACTN    H6 3593   7.342   5.057   6.693
  314ACTN    C3 3594   7.274   5.044   6.610
  314ACTN    H4 3595   7.259   4.937   6.594
  314ACTN    H5 3596   7.178   5.087   6.638
  314ACTN    C2 3597   7.327   5.111   6.488
  314ACTN    O1 3598   7.337   5.051   6.381
  314ACTN    C1 3599   7.362   5.256   6.495
  314ACTN    H1 3600   7.343   5.296   6.594
  314ACTN    H2 3601   7.304   5.314   6.423
  314ACTN    H3 3602   7.468   5.271   6.472
  315ACTN    H6 3603   3.180   0.506   4.395
  315ACTN    C3 3604   3.099   0.574   4.422
  315ACTN    H4 3605   3.136   0.676   4.408
  315ACTN    H5 3606   3.017   0.558   4.353
  315ACTN    C2 3607   3.056   0.551   4.563
  315ACTN    O1 3608   3.060   0.641   4.646
  315ACTN    C1 3609   3.006   0.414   4.600
  315ACTN    H1 3610   2.919   0.389   4.540
  315ACTN    H2 3611   2.978   0.410   4.705
  315ACTN    H3 3612   3.084   0.341   4.582
  316ACTN    H6 3613   1.017   5.418   3.699
  316ACTN    C3 3614   1.018   5.516   3.651
  316ACTN    H4 3615   1.114   5.528   3.601
  316ACTN    H5 3616   0.939   5.519   3.577
  316ACTN    C2 3617   0.996   5.623   3.754
  316ACTN    O1 3618   1.079   5.712   3.771
  316ACTN    C1 3619   0.868   5.625   3.830
  316ACTN    H1 3620   0.812   5.716   3.809
  316ACTN    H2 3621   0.888   5.622   3.937
  316ACTN    H3 3622   0.806   5.539   3.805
  317ACTN    H6 3623   2.097   1.854   3.279
  317ACTN    C3 3624   2.154   1.892   3.364
  317ACTN    H4 3625   2.099   1.869   3.455
  317ACTN    H5 3626   2.249   1.839   3.367
  317ACTN    C2 3627   2.178   2.039   3.353
  317ACTN    O1 3628   2.137   2.102   3.256
  317ACTN    C1 3629   2.259   2.107   3.459
  317ACTN    H1 3630   2.197   2.179   3.513
  317ACTN    H2 3631   2.342   2.161   3.414
  317ACTN    H3 3632   2.298   2.035   3.530
  318ACTN    H6 3633   2.135   0.170   4.152
  318ACTN    C3 3634   2.200   0.175   4.240
  318ACTN    H4 3635   2.141   0.141   4.326
  318ACTN    H5 3636   2.282   0.105   4.225
  318ACTN    C2 3637   2.248   0.315   4.261
  318ACTN    O1 3638   2.168   0.406   4.279
  318ACTN    C1 3639   2.395   0.343   4.262
  318ACTN    H1 3640   2.453   0.251   4.253
  318ACTN    H2 3641   2.423   0.393   4.355
  318ACTN    H3 3642   2.421   0.408   4.179
  319ACTN    H6 3643   5.338   2.448   6.867
  319ACTN    C3 3644   5.329   2.555   6.881
  319ACTN    H4 3645   5.424   2.594   6.917
  319ACTN    H5 3646   5.308   2.600   6.785
  319ACTN    C2 3647   5.217   2.584   6.977
  319ACTN    O1 3648   5.104   2.545   6.953
  319ACTN    C1 3649   5.245   2.663   7.101
  319ACTN    H1 3650   5.221   2.603   7.189
  319ACTN    H2 3651   5.183   2.752   7.103
  319ACTN    H3 3652   5.349   2.693   7.107
  320ACTN    H6 3653   6.092   7.069   0.884
  320ACTN    C3 3654   6.192   7.033   0.863
  320ACTN    H4 3655   6.190   6.924   0.866
  320ACTN    H5 3656   6.219   7.064   0.763
  320ACTN    C2 3657   6.288   7.084   0.965
  320ACTN    O1 3658   6.368   7.173   0.935
  320ACTN    C1 3659   6.277   7.034   1.105
  320ACTN    H1 3660   6.349   7.082   1.171
  320ACTN    H2 3661   6.294   6.927   1.108
  320ACTN    H3 3662   6.177   7.054   1.143
  321ACTN    H6 3663   3.131   1.695   2.062
  321ACTN    C3 3664   3.126   1.651   2.162
  321ACTN    H4 3665   3.119   1.732   2.234
  321ACTN    H5 3666   3.035   1.593   2.169
  321ACTN    C2 3667   3.245   1.566   2.191
  321ACTN    O1 3668   3.336   1.554   2.109
  321ACTN    C1 3669   3.254   1.496   2.323
  321ACTN    H1 3670   3.346   1.524   2.374
  321ACTN    H2 3671   3.254   1.388   2.310
  321ACTN    H3 3672   3.171   1.524   2.387
  322ACTN    H6 3673   2.578   3.661   6.718
  322ACTN    C3 3674   2.556   3.762   6.753
  322ACTN    H4 3675   2.448   3.771   6.762
  322ACTN    H5 3676   2.600   3.774   6.852
  322ACTN    C2 3677   2.610   3.865   6.660
  322ACTN    O1 3678   2.589   3.984   6.682
  322ACTN    C1 3679   2.687   3.824   6.538
  322ACTN    H1 3680   2.694   3.716   6.531
  322ACTN    H2 3681   2.788   3.864   6.543
  322ACTN    H3 3682   2.639   3.862   6.448
  323ACTN    H6 3683   2.264   1.446   3.522
  323ACTN    C3 3684   2.170   1.499   3.512
  323ACTN    H4 3685   2.192   1.606   3.506
  323ACTN    H5 3686   2.124   1.469   3.418
  323ACTN    C2 3687   2.078   1.471   3.627
  323ACTN    O1 3688   1.972   1.531   3.637
  323ACTN    C1 3689   2.119   1.373   3.733
  323ACTN    H1 3690   2.051   1.288   3.732
  323ACTN    H2 3691   2.114   1.420   3.831
  323ACTN    H3 3692   2.220   1.337   3.717
  324ACTN    H6 3693   3.689   6.393   4.445
  324ACTN    C3 3694   3.770   6.341   4.396
  324ACTN    H4 3695   3.818   6.275   4.468
  324ACTN    H5 3696   3.729   6.281   4.315
  324ACTN    C2 3697   3.869   6.440   4.341
  324ACTN    O1 3698   3.833   6.524   4.259
  324ACTN    C1 3699   4.012   6.433   4.385
  324ACTN    H1 3700   4.019   6.442   4.493
  324ACTN    H2 3701   4.071   6.512   4.340
  324ACTN    H3 3702   4.056   6.338   4.356
  325ACTN    H6 3703   1.466   6.052   3.220
  325ACTN    C3 3704   1.539   6.107   3.161
  325ACTN    H4 3705   1.592   6.036   3.098
  325ACTN    H5 3706   1.485   6.176   3.096
  325ACTN    C2 3707   1.633   6.182   3.251
  325ACTN    O1 3708   1.753   6.156   3.251
  325ACTN    C1 3709   1.576   6.286   3.341
  325ACTN    H1 3710   1.524   6.362   3.283
  325ACTN    H2 3711   1.654   6.335   3.399
  325ACTN    H3 3712   1.505   6.241   3.410
  326ACTN    H6 3713   6.595   4.005   5.847
  326ACTN    C3 3714   6.640   3.910   5.876
  326ACTN    H4 3715   6.748   3.918   5.866
  326ACTN    H5 3716   6.617   3.892   5.981
  326ACTN    C2 3717   6.586   3.799   5.791
  326ACTN    O1 3718   6.466   3.778   5.788
  326ACTN    C1 3719   6.681   3.718   5.709
  326ACTN    H1 3720   6.735   3.782   5.640
  326ACTN    H2 3721   6.628   3.642   5.651
  326ACTN    H3 3722   6.753   3.668   5.773
  327ACTN    H6 3723   6.148   1.320   0.985
  327ACTN    C3 3724   6.103   1.418   0.998
  327ACTN    H4 3725   6.068   1.453   0.900
  327ACTN    H5 3726   6.017   1.409   1.064
  327ACTN    C2 3727   6.201   1.516   1.054
  327ACTN    O1 3728   6.319   1.485   1.070
  327ACTN    C1 3729   6.156   1.656   1.084
  327ACTN    H1 3730   6.214   1.727   1.027
  327ACTN    H2 3731   6.170   1.677   1.190
  327ACTN    H3 3732   6.051   1.668   1.060
  328ACTN    H6 3733   2.401   0.199   0.396
  328ACTN    C3 3734   2.326   0.244   0.330
  328ACTN    H4 3735   2.290   0.167   0.262
  328ACTN    H5 3736   2.243   0.277   0.391
  328ACTN    C2 3737   2.385   0.360   0.256
  328ACTN    O1 3738   2.376   0.367   0.134
  328ACTN    C1 3739   2.448   0.471   0.335
  328ACTN    H1 3740   2.450   0.447   0.441
  328ACTN    H2 3741   2.391   0.562   0.323
  328ACTN    H3 3742   2.549   0.489   0.301
  329ACTN    H6 3743   4.378   1.538   2.852
  329ACTN    C3 3744   4.472   1.483   2.846
  329ACTN    H4 3745   4.539   1.536   2.778
  329ACTN    H5 3746   4.518   1.483   2.944
  329ACTN    C2 3747   4.447   1.343   2.800
  329ACTN    O1 3748   4.502   1.299   2.699
  329ACTN    C1 3749   4.354   1.257   2.879
  329ACTN    H1 3750   4.408   1.176   2.926
  329ACTN    H2 3751   4.278   1.214   2.814
  329ACTN    H3 3752   4.303   1.314   2.956
  330ACTN    H6 3753   2.428   5.607   1.828
  330ACTN    C3 3754   2.382   5.636   1.734
  330ACTN    H4 3755   2.455   5.692   1.676
  330ACTN    H5 3756   2.357   5.545   1.679
  330ACTN    C2 3757   2.258   5.716   1.760
  330ACTN    O1 3758   2.248   5.831   1.719
  330ACTN    C1 3759   2.148   5.653   1.839
  330ACTN    H1 3760   2.184   5.625   1.938
  330ACTN    H2 3761   2.111   5.563   1.789
  330ACTN    H3 3762   2.064   5.721   1.852
  331ACTN    H6 3763   1.580   6.269   6.764
  331ACTN    C3 3764   1.502   6.194   6.758
  331ACTN    H4 3765   1.428   6.213   6.835
  331ACTN    H5 3766   1.454   6.204   6.661
  331ACTN    C2 3767   1.558   6.056   6.774
  331ACTN    O1 3768   1.666   6.038   6.830
  331ACTN    C1 3769   1.473   5.939   6.738
  331ACTN    H1 3770   1.519   5.882   6.657
  331ACTN    H2 3771   1.374   5.971   6.706
  331ACTN    H3 3772   1.462   5.873   6.823
  332ACTN    H6 3773   3.499   1.261   4.434
  332ACTN    C3 3774   3.530   1.353   4.483
  332ACTN    H4 3775   3.618   1.332   4.543
  332ACTN    H5 3776   3.559   1.425   4.406
  332ACTN    C2 3777   3.421   1.407   4.569
  332ACTN    O1 3778   3.363   1.511   4.539
  332ACTN    C1 3779   3.375   1.326   4.686
  332ACTN    H1 3780   3.393   1.381   4.779
  332ACTN    H2 3781   3.427   1.231   4.692
  332ACTN    H3 3782   3.268   1.307   4.679
  333ACTN    H6 3783   8.876   6.547   1.655
  333ACTN    C3 3784   8.980   6.564   1.629
  333ACTN    H4 3785   0.037   6.473   1.647
  333ACTN    H5 3786   8.985   6.586   1.522
  333ACTN    C2 3787   0.038   6.678   1.707
  333ACTN    O1 3788   0.156   6.708   1.694
  333ACTN    C1 3789   8.952   6.745   1.811
  333ACTN    H1 3790   0.004   6.829   1.857
  333ACTN    H2 3791   8.926   6.675   1.889
  333ACTN    H3 3792   8.861   6.783   1.766
  334ACTN    H6 3793   0.211   6.891   4.078
  334ACTN    C3 3794   0.184   6.996   4.070
  334ACTN    H4 3795   0.109   7.019   4.146
  334ACTN    H5 3796   0.272   7.056   4.089
  334ACTN    C2 3797   0.131   7.024   3.932
  334ACTN    O1 3798   0.201   6.999   3.835
  334ACTN    C1 3799   8.992   7.076   3.917
  334ACTN    H1 3800   8.968   7.094   3.812
  334ACTN    H2 3801   8.980   7.170   3.970
  334ACTN    H3 3802   8.920   7.004   3.955
  335ACTN    H6 3803   1.265   0.155   0.476
  335ACTN    C3 3804   1.250   0.263   0.478
  335ACTN    H4 3805   1.147   0.283   0.507
  335ACTN    H5 3806   1.316   0.304   0.554
  335ACTN    C2 3807   1.279   0.325   0.345
  335ACTN    O1 3808   1.329   0.259   0.254
  335ACTN    C1 3809   1.246   0.470   0.326
  335ACTN    H1 3810   1.275   0.504   0.227
  335ACTN    H2 3811   1.299   0.530   0.399
  335ACTN    H3 3812   1.140   0.486   0.338
  336ACTN    H6 3813   0.682   5.600   2.914
  336ACTN    C3 3814   0.707   5.641   3.011
  336ACTN    H4 3815   0.679   5.746   3.012
  336ACTN    H5 3816   0.815   5.636   3.024
  336ACTN    C2 3817   0.639   5.565   3.121
  336ACTN    O1 3818   0.568   5.623   3.202
  336ACTN    C1 3819   0.664   5.418   3.134
  336ACTN    H1 3820   0.703   5.395   3.233
  336ACTN    H2 3821   0.736   5.384   3.060
  336ACTN    H3 3822   0.572   5.362   3.120
  337ACTN    H6 3823   0.837   6.353   3.187
  337ACTN    C3 3824   0.921   6.420   3.207
  337ACTN    H4 3825   1.011   6.373   3.171
  337ACTN    H5 3826   0.905   6.512   3.152
  337ACTN    C2 3827   0.932   6.449   3.354
  337ACTN    O1 3828   0.861   6.391   3.435
  337ACTN    C1 3829   1.038   6.543   3.402
  337ACTN    H1 3830   0.992   6.626   3.455
  337ACTN    H2 3831   1.095   6.583   3.318
  337ACTN    H3 3832   1.106   6.493   3.470
  338ACTN    H6 3833   0.650   5.727   0.781
  338ACTN    C3 3834   0.705   5.801   0.722
  338ACTN    H4 3835   0.770   5.856   0.789
  338ACTN    H5 3836   0.768   5.748   0.651
  338ACTN    C2 3837   0.612   5.892   0.650
  338ACTN    O1 3838   0.523   5.845   0.579
  338ACTN    C1 3839   0.620   6.040   0.674
  338ACTN    H1 3840   0.551   6.095   0.610
  338ACTN    H2 3841   0.721   6.075   0.653
  338ACTN    H3 3842   0.597   6.062   0.778
  339ACTN    H6 3843   5.181   0.220   5.676
  339ACTN    C3 3844   5.165   0.145   5.599
  339ACTN    H4 3845   5.195   0.049   5.637
  339ACTN    H5 3846   5.058   0.142   5.576
  339ACTN    C2 3847   5.244   0.180   5.476
  339ACTN    O1 3848   5.365   0.198   5.485
  339ACTN    C1 3849   5.173   0.196   5.346
  339ACTN    H1 3850   5.115   0.107   5.323
  339ACTN    H2 3851   5.243   0.213   5.264
  339ACTN    H3 3852   5.105   0.281   5.350
  340ACTN    H6 3853   6.828   4.522   1.953
  340ACTN    C3 3854   6.853   4.627   1.943
  340ACTN    H4 3855   6.789   4.685   2.008
  340ACTN    H5 3856   6.957   4.641   1.974
  340ACTN    C2 3857   6.837   4.671   1.800
  340ACTN    O1 3858   6.895   4.611   1.710
  340ACTN    C1 3859   6.738   4.779   1.768
  340ACTN    H1 3860   6.760   4.868   1.827
  340ACTN    H2 3861   6.637   4.745   1.792
  340ACTN    H3 3862   6.741   4.806   1.663
  341ACTN    H6 3863   0.855   3.006   3.203
  341ACTN    C3 3864   0.823   3.107   3.181
  341ACTN    H4 3865   0.912   3.168   3.171
  341ACTN    H5 3866   0.771   3.107   3.085
  341ACTN    C2 3867   0.734   3.159   3.289
  341ACTN    O1 3868   0.627   3.103   3.311
  341ACTN    C1 3869   0.774   3.280   3.368
  341ACTN    H1 3870   0.784   3.254   3.473
  341ACTN    H2 3871   0.699   3.357   3.359
  341ACTN    H3 3872   0.869   3.319   3.334
  342ACTN    H6 3873   5.534   2.470   4.978
  342ACTN    C3 3874   5.442   2.499   4.927
  342ACTN    H4 3875   5.358   2.460   4.984
  342ACTN    H5 3876   5.436   2.607   4.927
  342ACTN    C2 3877   5.440   2.445   4.788
  342ACTN    O1 3878   5.455   2.325   4.767
  342ACTN    C1 3879   5.428   2.540   4.673
  342ACTN    H1 3880   5.517   2.602   4.666
  342ACTN    H2 3881   5.343   2.606   4.688
  342ACTN    H3 3882   5.415   2.488   4.579
  343ACTN    H6 3883   6.738   1.439   2.254
  343ACTN    C3 3884   6.654   1.507   2.250
  343ACTN    H4 3885   6.671   1.588   2.321
  343ACTN    H5 3886   6.648   1.550   2.150
  343ACTN    C2 3887   6.527   1.435   2.285
  343ACTN    O1 3888   6.434   1.430   2.205
  343ACTN    C1 3889   6.519   1.367   2.418
  343ACTN    H1 3890   6.597   1.292   2.426
  343ACTN    H2 3891   6.423   1.319   2.432
  343ACTN    H3 3892   6.533   1.439   2.498
  344ACTN    H6 3893   1.770   6.429   1.819
  344ACTN    C3 3894   1.705   6.490   1.757
  344ACTN    H4 3895   1.747   6.494   1.657
  344ACTN    H5 3896   1.608   6.442   1.751
  344ACTN    C2 3897   1.692   6.629   1.812
  344ACTN    O1 3898   1.743   6.659   1.920
  344ACTN    C1 3899   1.611   6.729   1.737
  344ACTN    H1 3900   1.674   6.811   1.703
  344ACTN    H2 3901   1.533   6.771   1.800
  344ACTN    H3 3902   1.564   6.684   1.649
  345ACTN    H6 3903   4.638   2.582   2.884
  345ACTN    C3 3904   4.717   2.508   2.896
  345ACTN    H4 3905   4.771   2.498   2.803
  345ACTN    H5 3906   4.786   2.544   2.972
  345ACTN    C2 3907   4.660   2.376   2.938
  345ACTN    O1 3908   4.733   2.280   2.962
  345ACTN    C1 3909   4.511   2.363   2.950
  345ACTN    H1 3910   4.463   2.383   2.854
  345ACTN    H2 3911   4.473   2.435   3.023
  345ACTN    H3 3912   4.482   2.263   2.983
  346ACTN    H6 3913   6.160   1.826   0.236
  346ACTN    C3 3914   6.244   1.760   0.219
  346ACTN    H4 3915   6.273   1.769   0.114
  346ACTN    H5 3916   6.327   1.793   0.281
  346ACTN    C2 3917   6.207   1.619   0.252
  346ACTN    O1 3918   6.222   1.529   0.170
  346ACTN    C1 3919   6.162   1.588   0.392
  346ACTN    H1 3920   6.077   1.650   0.419
  346ACTN    H2 3921   6.242   1.607   0.462
  346ACTN    H3 3922   6.132   1.484   0.401
  347ACTN    H6 3923   6.223   3.040   4.126
  347ACTN    C3 3924   6.141   3.037   4.196
  347ACTN    H4 3925   6.159   2.955   4.266
  347ACTN    H5 3926   6.140   3.129   4.253
  347ACTN    C2 3927   6.011   3.019   4.124
  347ACTN    O1 3928   5.938   2.923   4.145
  347ACTN    C1 3929   5.972   3.123   4.023
  347ACTN    H1 3930   6.046   3.128   3.944
  347ACTN    H2 3931   5.967   3.221   4.070
  347ACTN    H3 3932   5.875   3.101   3.978
  348ACTN    H6 3933   2.735   2.624   4.480
  348ACTN    C3 3934   2.663   2.701   4.506
  348ACTN    H4 3935   2.713   2.797   4.504
  348ACTN    H5 3936   2.584   2.702   4.431
  348ACTN    C2 3937   2.604   2.676   4.641
  348ACTN    O1 3938   2.629   2.573   4.703
  348ACTN    C1 3939   2.507   2.775   4.697
  348ACTN    H1 3940   2.423   2.787   4.629
  348ACTN    H2 3941   2.555   2.872   4.710
  348ACTN    H3 3942   2.468   2.743   4.793
  349ACTN    H6 3943   2.625   7.282   6.702
  349ACTN    C3 3944   2.537   7.315   6.647
  349ACTN    H4 3945   2.563   7.316   6.541
  349ACTN    H5 3946   2.513   7.416   6.678
  349ACTN    C2 3947   2.422   7.223   6.670
  349ACTN    O1 3948   2.311   7.253   6.626
  349ACTN    C1 3949   2.438   7.109   6.766
  349ACTN    H1 3950   2.347   7.049   6.773
  349ACTN    H2 3951   2.462   7.146   6.865
  349ACTN    H3 3952   2.519   7.044   6.733
  350ACTN    H6 3953   2.191   1.664   4.080
  350ACTN    C3 3954   2.266   1.633   4.153
  350ACTN    H4 3955   2.364   1.652   4.112
  350ACTN    H5 3956   2.254   1.695   4.242
  350ACTN    C2 3957   2.247   1.489   4.188
  350ACTN    O1 3958   2.333   1.405   4.160
  350ACTN    C1 3959   2.118   1.447   4.251
  350ACTN    H1 3960   2.118   1.342   4.277
  350ACTN    H2 3961   2.036   1.465   4.182
  350ACTN    H3 3962   2.099   1.505   4.341
  351ACTN    H6 3963   0.318   2.991   4.691
  351ACTN    C3 3964   0.394   2.943   4.752
  351ACTN    H4 3965   0.394   2.837   4.729
  351ACTN    H5 3966   0.491   2.984   4.724
  351ACTN    C2 3967   0.367   2.966   4.898
  351ACTN    O1 3968   0.357   3.081   4.941
  351ACTN    C1 3969   0.351   2.849   4.990
  351ACTN    H1 3970   0.251   2.849   5.033
  351ACTN    H2 3971   0.422   2.855   5.071
  351ACTN    H3 3972   0.365   2.755   4.938
  352ACTN    H6 3973   1.523   7.093   2.507
  352ACTN    C3 3974   1.504   7.195   2.540
  352ACTN    H4 3975   1.451   7.247   2.461
  352ACTN    H5 3976   1.440   7.192   2.627
  352ACTN    C2 3977   1.631   7.266   2.572
  352ACTN    O1 3978   1.740   7.216   2.544
  352ACTN    C1 3979   1.624   7.401   2.638
  352ACTN    H1 3980   1.521   7.434   2.646
  352ACTN    H2 3981   1.679   7.474   2.580
  352ACTN    H3 3982   1.666   7.396   2.737
  353ACTN    H6 3983   1.274   5.328   5.517
  353ACTN    C3 3984   1.215   5.396   5.455
  353ACTN    H4 3985   1.111   5.367   5.463
  353ACTN    H5 3986   1.226   5.496   5.494
  353ACTN    C2 3987   1.261   5.387   5.313
  353ACTN    O1 3988   1.298   5.487   5.252
  353ACTN    C1 3989   1.246   5.256   5.242
  353ACTN    H1 3990   1.287   5.259   5.141
  353ACTN    H2 3991   1.141   5.229   5.234
  353ACTN    H3 3992   1.297   5.177   5.297
  354ACTN    H6 3993   5.551   6.198   0.149
  354ACTN    C3 3994   5.445   6.221   0.153
  354ACTN    H4 3995   5.428   6.316   0.102
  354ACTN    H5 3996   5.391   6.143   0.099
  354ACTN    C2 3997   5.395   6.229   0.294
  354ACTN    O1 3998   5.472   6.213   0.389
  354ACTN    C1 3999   5.252   6.267   0.317
  354ACTN    H1 4000   5.246   6.358   0.377
  354ACTN    H2 4001   5.200   6.188   0.370
  354ACTN    H3 4002   5.201   6.284   0.223
  355ACTN    H6 4003   0.194   0.534   3.430
  355ACTN    C3 4004   0.283   0.499   3.482
  355ACTN    H4 4005   0.290   0.392   3.471
  355ACTN    H5 4006   0.370   0.544   3.434
  355ACTN    C2 4007   0.280   0.537   3.627
  355ACTN    O1 4008   0.186   0.599   3.675
  355ACTN    C1 4009   0.397   0.497   3.711
  355ACTN    H1 4010   0.364   0.429   3.790
  355ACTN    H2 4011   0.473   0.447   3.653
  355ACTN    H3 4012   0.441   0.585   3.758
  356ACTN    H6 4013   6.209   2.457   2.992
  356ACTN    C3 4014   6.302   2.435   2.940
  356ACTN    H4 4015   6.319   2.512   2.866
  356ACTN    H5 4016   6.383   2.439   3.013
  356ACTN    C2 4017   6.294   2.301   2.874
  356ACTN    O1 4018   6.380   2.216   2.894
  356ACTN    C1 4019   6.186   2.278   2.772
  356ACTN    H1 4020   6.201   2.344   2.687
  356ACTN    H2 4021   6.089   2.299   2.816
  356ACTN    H3 4022   6.186   2.175   2.738
  357ACTN    H6 4023   5.699   5.901   2.884
  357ACTN    C3 4024   5.648   5.963   2.958
  357ACTN    H4 4025   5.541   5.944   2.949
  357ACTN    H5 4026   5.680   5.932   3.057
  357ACTN    C2 4027   5.677   6.108   2.933
  357ACTN    O1 4028   5.733   6.176   3.019
  357ACTN    C1 4029   5.636   6.167   2.802
  357ACTN    H1 4030   5.660   6.274   2.797
  357ACTN    H2 4031   5.529   6.156   2.788
  357ACTN    H3 4032   5.686   6.118   2.720
  358ACTN    H6 4033   7.022   6.681   5.855
  358ACTN    C3 4034   7.061   6.713   5.759
  358ACTN    H4 4035   7.127   6.798   5.776
  358ACTN    H5 4036   7.121   6.632   5.718
  358ACTN    C2 4037   6.949   6.746   5.666
  358ACTN    O1 4038   6.954   6.849   5.598
  358ACTN    C1 4039   6.840   6.647   5.643
  358ACTN    H1 4040   6.833   6.621   5.538
  358ACTN    H2 4041   6.744   6.689   5.674
  358ACTN    H3 4042   6.858   6.556   5.700
  359ACTN    H6 4043   3.839   3.953   3.200
  359ACTN    C3 4044   3.810   3.854   3.233
  359ACTN    H4 4045   3.787   3.858   3.339
  359ACTN    H5 4046   3.720   3.825   3.180
  359ACTN    C2 4047   3.921   3.757   3.207
  359ACTN    O1 4048   4.024   3.761   3.275
  359ACTN    C1 4049   3.904   3.650   3.104
  359ACTN    H1 4050   3.914   3.552   3.149
  359ACTN    H2 4051   3.980   3.660   3.026
  359ACTN    H3 4052   3.806   3.656   3.057
  360ACTN    H6 4053   5.274   5.299   0.340
  360ACTN    C3 4054   5.351   5.374   0.352
  360ACTN    H4 4055   5.447   5.329   0.328
  360ACTN    H5 4056   5.333   5.455   0.281
  360ACTN    C2 4057   5.351   5.428   0.492
  360ACTN    O1 4058   5.249   5.477   0.540
  360ACTN    C1 4059   5.476   5.419   0.573
  360ACTN    H1 4060   5.462   5.459   0.673
  360ACTN    H2 4061   5.556   5.474   0.524
  360ACTN    H3 4062   5.507   5.315   0.582
  361ACTN    H6 4063   0.418   0.542   3.997
  361ACTN    C3 4064   0.320   0.572   4.034
  361ACTN    H4 4065   0.311   0.539   4.137
  361ACTN    H5 4066   0.245   0.522   3.973
  361ACTN    C2 4067   0.303   0.720   4.025
  361ACTN    O1 4068   0.387   0.791   3.971
  361ACTN    C1 4069   0.177   0.779   4.081
  361ACTN    H1 4070   0.163   0.749   4.184
  361ACTN    H2 4071   0.092   0.746   4.022
  361ACTN    H3 4072   0.180   0.888   4.077
  362ACTN    H6 4073   7.195   5.492   0.356
  362ACTN    C3 4074   7.154   5.582   0.309
  362ACTN    H4 4075   7.179   5.580   0.204
  362ACTN    H5 4076   7.046   5.578   0.319
  362ACTN    C2 4077   7.209   5.704   0.375
  362ACTN    O1 4078   7.196   5.720   0.496
  362ACTN    C1 4079   7.281   5.805   0.292
  362ACTN    H1 4080   7.217   5.842   0.213
  362ACTN    H2 4081   7.369   5.760   0.247
  362ACTN    H3 4082   7.315   5.890   0.352
  363ACTN    H6 4083   3.374   6.534   4.532
  363ACTN    C3 4084   3.314   6.518   4.621
  363ACTN    H4 4085   3.365   6.446   4.685
  363ACTN    H5 4086   3.306   6.612   4.675
  363ACTN    C2 4087   3.178   6.469   4.582
  363ACTN    O1 4088   3.137   6.361   4.622
  363ACTN    C1 4089   3.093   6.557   4.495
  363ACTN    H1 4090   2.995   6.512   4.477
  363ACTN    H2 4091   3.141   6.571   4.399
  363ACTN    H3 4092   3.078   6.654   4.541
  364ACTN    H6 4093   6.944   0.326   7.354
  364ACTN    C3 4094   7.051   0.346   7.364
  364ACTN    H4 4095   7.105   0.265   7.316
  364ACTN    H5 4096   7.075   0.346   7.469
  364ACTN    C2 4097   7.085   0.476   7.299
  364ACTN    O1 4098   7.058   0.496   7.181
  364ACTN    C1 4099   7.147   0.586   7.380
  364ACTN    H1 4100   7.085   0.676   7.375
  364ACTN    H2 4101   7.246   0.611   7.343
  364ACTN    H3 4102   7.156   0.558   7.484
  365ACTN    H6 4103   8.962   4.963   5.249
  365ACTN    C3 4104   0.052   4.903   5.263
  365ACTN    H4 4105   0.062   4.882   5.369
  365ACTN    H5 4106   0.038   4.808   5.211
  365ACTN    C2 4107   0.171   4.975   5.209
  365ACTN    O1 4108   0.248   5.032   5.286
  365ACTN    C1 4109   0.180   5.000   5.062
  365ACTN    H1 4110   0.104   5.070   5.031
  365ACTN    H2 4111   0.166   4.907   5.007
  365ACTN    H3 4112   0.277   5.040   5.035
  366ACTN    H6 4113   1.544   5.496   0.955
  366ACTN    C3 4114   1.490   5.582   0.994
  366ACTN    H4 4115   1.420   5.616   0.918
  366ACTN    H5 4116   1.433   5.550   1.080
  366ACTN    C2 4117   1.586   5.691   1.033
  366ACTN    O1 4118   1.578   5.803   0.983
  366ACTN    C1 4119   1.691   5.662   1.134
  366ACTN    H1 4120   1.688   5.558   1.166
  366ACTN    H2 4121   1.679   5.725   1.222
  366ACTN    H3 4122   1.790   5.681   1.093
  367ACTN    H6 4123   0.082   1.262   5.583
  367ACTN    C3 4124   0.034   1.279   5.679
  367ACTN    H4 4125   0.035   1.386   5.700
  367ACTN    H5 4126   8.931   1.247   5.672
  367ACTN    C2 4127   0.108   1.204   5.786
  367ACTN    O1 4128   0.048   1.127   5.860
  367ACTN    C1 4129   0.252   1.235   5.812
  367ACTN    H1 4130   0.266   1.271   5.913
  367ACTN    H2 4131   0.288   1.311   5.742
  367ACTN    H3 4132   0.312   1.145   5.799
  368ACTN    H6 4133   0.505   1.272   4.163
  368ACTN    C3 4134   0.608   1.305   4.174
  368ACTN    H4 4135   0.648   1.328   4.076
  368ACTN    H5 4136   0.608   1.395   4.234
  368ACTN    C2 4137   0.688   1.197   4.241
  368ACTN    O1 4138   0.720   1.096   4.178
  368ACTN    C1 4139   0.737   1.219   4.380
  368ACTN    H1 4140   0.807   1.302   4.383
  368ACTN    H2 4141   0.788   1.131   4.419
  368ACTN    H3 4142   0.654   1.242   4.446
  369ACTN    H6 4143   3.018   0.665   0.407
  369ACTN    C3 4144   3.047   0.768   0.428
  369ACTN    H4 4145   3.140   0.788   0.376
  369ACTN    H5 4146   2.971   0.834   0.388
  369ACTN    C2 4147   3.065   0.791   0.575
  369ACTN    O1 4148   3.067   0.697   0.653
  369ACTN    C1 4149   3.088   0.930   0.625
  369ACTN    H1 4150   3.011   0.958   0.697
  369ACTN    H2 4151   3.086   1.002   0.544
  369ACTN    H3 4152   3.184   0.937   0.675
  370ACTN    H6 4153   3.303   7.069   0.145
  370ACTN    C3 4154   3.281   6.998   0.224
  370ACTN    H4 4155   3.368   6.992   0.290
  370ACTN    H5 4156   3.197   7.036   0.282
  370ACTN    C2 4157   3.249   6.863   0.167
  370ACTN    O1 4158   3.155   6.850   0.089
  370ACTN    C1 4159   3.332   6.745   0.207
  370ACTN    H1 4160   3.436   6.762   0.179
  370ACTN    H2 4161   3.299   6.654   0.158
  370ACTN    H3 4162   3.328   6.730   0.314
  371ACTN    H6 4163   6.566   7.150   5.560
  371ACTN    C3 4164   6.517   7.053   5.565
  371ACTN    H4 4165   6.434   7.052   5.496
  371ACTN    H5 4166   6.589   6.977   5.534
  371ACTN    C2 4167   6.469   7.027   5.705
  371ACTN    O1 4168   6.513   6.933   5.770
  371ACTN    C1 4169   6.371   7.123   5.764
  371ACTN    H1 4170   6.346   7.096   5.867
  371ACTN    H2 4171   6.279   7.121   5.706
  371ACTN    H3 4172   6.410   7.224   5.764
  372ACTN    H6 4173   1.352   6.598   6.150
  372ACTN    C3 4174   1.362   6.503   6.097
  372ACTN    H4 4175   1.264   6.456   6.094
  372ACTN    H5 4176   1.392   6.525   5.995
  372ACTN    C2 4177   1.460   6.414   6.166
  372ACTN    O1 4178   1.443   6.380   6.282
  372ACTN    C1 4179   1.584   6.369   6.093
  372ACTN    H1 4180   1.592   6.261   6.096
  372ACTN    H2 4181   1.672   6.411   6.140
  372ACTN    H3 4182   1.582   6.400   5.989
  373ACTN    H6 4183   0.174   4.281   3.398
  373ACTN    C3 4184   0.254   4.351   3.378
  373ACTN    H4 4185   0.212   4.452   3.386
  373ACTN    H5 4186   0.330   4.340   3.455
  373ACTN    C2 4187   0.311   4.330   3.242
  373ACTN    O1 4188   0.239   4.343   3.143
  373ACTN    C1 4189   0.457   4.299   3.229
  373ACTN    H1 4190   0.517   4.382   3.266
  373ACTN    H2 4191   0.484   4.280   3.125
  373ACTN    H3 4192   0.481   4.211   3.287
  374ACTN    H6 4193   1.105   4.595   4.682
  374ACTN    C3 4194   1.034   4.513   4.686
  374ACTN    H4 4195   0.964   4.524   4.603
  374ACTN    H5 4196   1.087   4.420   4.673
  374ACTN    C2 4197   0.961   4.515   4.817
  374ACTN    O1 4198   1.022   4.491   4.921
  374ACTN    C1 4199   0.812   4.524   4.817
  374ACTN    H1 4200   0.773   4.529   4.919
  374ACTN    H2 4201   0.768   4.438   4.768
  374ACTN    H3 4202   0.780   4.614   4.765
  375ACTN    H6 4203   3.020   1.677   4.749
  375ACTN    C3 4204   3.126   1.701   4.755
  375ACTN    H4 4205   3.176   1.654   4.671
  375ACTN    H5 4206   3.138   1.808   4.746
  375ACTN    C2 4207   3.183   1.651   4.883
  375ACTN    O1 4208   3.173   1.532   4.915
  375ACTN    C1 4209   3.248   1.749   4.977
  375ACTN    H1 4210   3.174   1.820   5.013
  375ACTN    H2 4211   3.326   1.804   4.925
  375ACTN    H3 4212   3.293   1.699   5.062
  376ACTN    H6 4213   6.698   1.878   5.637
  376ACTN    C3 4214   6.650   1.789   5.598
  376ACTN    H4 4215   6.612   1.731   5.682
  376ACTN    H5 4216   6.565   1.820   5.537
  376ACTN    C2 4217   6.746   1.709   5.516
  376ACTN    O1 4218   6.797   1.758   5.416
  376ACTN    C1 4219   6.781   1.569   5.558
  376ACTN    H1 4220   6.889   1.558   5.568
  376ACTN    H2 4221   6.746   1.498   5.484
  376ACTN    H3 4222   6.735   1.544   5.653
  377ACTN    H6 4223   2.395   0.825   2.565
  377ACTN    C3 4224   2.289   0.803   2.581
  377ACTN    H4 4225   2.273   0.697   2.566
  377ACTN    H5 4226   2.265   0.827   2.684
  377ACTN    C2 4227   2.204   0.882   2.486
  377ACTN    O1 4228   2.128   0.968   2.527
  377ACTN    C1 4229   2.223   0.864   2.338
  377ACTN    H1 4230   2.303   0.793   2.317
  377ACTN    H2 4231   2.248   0.958   2.291
  377ACTN    H3 4232   2.132   0.826   2.293
  378ACTN    H6 4233   5.981   3.056   6.302
  378ACTN    C3 4234   5.902   2.992   6.341
  378ACTN    H4 4235   5.852   3.046   6.422
  378ACTN    H5 4236   5.830   2.975   6.262
  378ACTN    C2 4237   5.959   2.864   6.393
  378ACTN    O1 4238   5.919   2.756   6.353
  378ACTN    C1 4239   6.066   2.872   6.497
  378ACTN    H1 4240   6.101   2.773   6.526
  378ACTN    H2 4241   6.029   2.922   6.586
  378ACTN    H3 4242   6.152   2.928   6.460
  379ACTN    H6 4243   1.354   2.519   3.559
  379ACTN    C3 4244   1.369   2.477   3.658
  379ACTN    H4 4245   1.335   2.550   3.731
  379ACTN    H5 4246   1.308   2.388   3.668
  379ACTN    C2 4247   1.513   2.444   3.681
  379ACTN    O1 4248   1.550   2.406   3.792
  379ACTN    C1 4249   1.612   2.466   3.571
  379ACTN    H1 4250   1.584   2.407   3.484
  379ACTN    H2 4251   1.712   2.437   3.601
  379ACTN    H3 4252   1.614   2.570   3.542
  380ACTN    H6 4253   6.358   1.552   4.103
  380ACTN    C3 4254   6.315   1.618   4.029
  380ACTN    H4 4255   6.245   1.561   3.968
  380ACTN    H5 4256   6.259   1.696   4.080
  380ACTN    C2 4257   6.423   1.679   3.945
  380ACTN    O1 4258   6.420   1.668   3.823
  380ACTN    C1 4259   6.531   1.757   4.014
  380ACTN    H1 4260   6.489   1.843   4.064
  380ACTN    H2 4261   6.606   1.792   3.943
  380ACTN    H3 4262   6.581   1.695   4.088
  381ACTN    H6 4263   0.075   1.636   4.900
  381ACTN    C3 4264   0.117   1.687   4.987
  381ACTN    H4 4265   0.225   1.674   4.986
  381ACTN    H5 4266   0.095   1.793   4.979
  381ACTN    C2 4267   0.060   1.630   5.113
  381ACTN    O1 4268   0.070   1.509   5.135
  381ACTN    C1 4269   8.987   1.719   5.209
  381ACTN    H1 4270   8.988   1.822   5.176
  381ACTN    H2 4271   0.033   1.714   5.307
  381ACTN    H3 4272   8.883   1.687   5.219
  382ACTN    H6 4273   0.399   6.868   1.876
  382ACTN    C3 4274   0.341   6.880   1.967
  382ACTN    H4 4275   0.301   6.782   1.995
  382ACTN    H5 4276   0.406   6.914   2.047
  382ACTN    C2 4277   0.228   6.977   1.947
  382ACTN    O1 4278   0.142   6.988   2.032
  382ACTN    C1 4279   0.216   7.050   1.817
  382ACTN    H1 4280   0.290   7.016   1.744
  382ACTN    H2 4281   0.231   7.156   1.833
  382ACTN    H3 4282   0.117   7.036   1.774
  383ACTN    H6 4283   2.870   6.414   4.670
  383ACTN    C3 4284   2.779   6.385   4.722
  383ACTN    H4 4285   2.694   6.414   4.662
  383ACTN    H5 4286   2.778   6.277   4.732
  383ACTN    C2 4287   2.771   6.452   4.856
  383ACTN    O1 4288   2.771   6.385   4.959
  383ACTN    C1 4289   2.771   6.601   4.861
  383ACTN    H1 4290   2.771   6.637   4.964
  383ACTN    H2 4291   2.683   6.641   4.811
  383ACTN    H3 4292   2.860   6.641   4.811
  384ACTN    H6 4293   7.246   6.979   3.558
  384ACTN    C3 4294   7.152   7.024   3.527
  384ACTN    H4 4295   7.110   7.078   3.612
  384ACTN    H5 4296   7.173   7.096   3.448
  384ACTN    C2 4297   7.055   6.921   3.479
  384ACTN    O1 4298   6.944   6.954   3.439
  384ACTN    C1 4299   7.094   6.776   3.477
  384ACTN    H1 4300   7.198   6.763   3.505
  384ACTN    H2 4301   7.080   6.735   3.377
  384ACTN    H3 4302   7.033   6.720   3.546
  385ACTN    H6 4303   1.252   4.761   2.595
  385ACTN    C3 4304   1.328   4.729   2.665
  385ACTN    H4 4305   1.399   4.666   2.610
  385ACTN    H5 4306   1.382   4.816   2.701
  385ACTN    C2 4307   1.268   4.652   2.778
  385ACTN    O1 4308   1.197   4.554   2.755
  385ACTN    C1 4309   1.287   4.701   2.918
  385ACTN    H1 4310   1.245   4.801   2.930
  385ACTN    H2 4311   1.394   4.706   2.941
  385ACTN    H3 4312   1.240   4.635   2.990
  386ACTN    H6 4313   3.754   3.450   7.065
  386ACTN    C3 4314   3.669   3.385   7.085
  386ACTN    H4 4315   3.655   3.320   6.999
  386ACTN    H5 4316   3.694   3.322   7.171
  386ACTN    C2 4317   3.545   3.464   7.113
  386ACTN    O1 4318   3.439   3.405   7.133
  386ACTN    C1 4319   3.550   3.613   7.109
  386ACTN    H1 4320   3.648   3.648   7.078
  386ACTN    H2 4321   3.531   3.654   7.208
  386ACTN    H3 4322   3.475   3.652   7.041
  387ACTN    H6 4323   6.369   0.117   2.886
  387ACTN    C3 4324   6.268   0.147   2.859
  387ACTN    H4 4325   6.204   0.130   2.945
  387ACTN    H5 4326   6.269   0.253   2.837
  387ACTN    C2 4327   6.217   0.069   2.742
  387ACTN    O1 4328   6.289   8.987   2.685
  387ACTN    C1 4329   6.079   0.097   2.693
  387ACTN    H1 4330   6.072   0.200   2.657
  387ACTN    H2 4331   6.007   0.084   2.773
  387ACTN    H3 4332   6.051   0.031   2.611
  388ACTN    H6 4333   3.052   4.844   6.798
  388ACTN    C3 4334   2.959   4.789   6.785
  388ACTN    H4 4335   2.879   4.860   6.767
  388ACTN    H5 4336   2.939   4.736   6.878
  388ACTN    C2 4337   2.971   4.694   6.670
  388ACTN    O1 4338   2.936   4.577   6.682
  388ACTN    C1 4339   3.007   4.748   6.535
  388ACTN    H1 4340   3.020   4.856   6.539
  388ACTN    H2 4341   2.931   4.725   6.462
  388ACTN    H3 4342   3.101   4.705   6.502
  389ACTN    H6 4343   4.427   6.412   7.159
  389ACTN    C3 4344   4.416   6.305   7.169
  389ACTN    H4 4345   4.510   6.265   7.208
  389ACTN    H5 4346   4.338   6.285   7.242
  389ACTN    C2 4347   4.384   6.242   7.037
  389ACTN    O1 4348   4.357   6.122   7.032
  389ACTN    C1 4349   4.371   6.329   6.916
  389ACTN    H1 4350   4.355   6.270   6.826
  389ACTN    H2 4351   4.462   6.387   6.902
  389ACTN    H3 4352   4.288   6.397   6.927
  390ACTN    H6 4353   7.119   6.455   0.757
  390ACTN    C3 4354   7.168   6.535   0.702
  390ACTN    H4 4355   7.130   6.536   0.601
  390ACTN    H5 4356   7.141   6.629   0.750
  390ACTN    C2 4357   7.317   6.516   0.705
  390ACTN    O1 4358   7.382   6.519   0.601
  390ACTN    C1 4359   7.386   6.502   0.837
  390ACTN    H1 4360   7.314   6.508   0.919
  390ACTN    H2 4361   7.459   6.582   0.850
  390ACTN    H3 4362   7.437   6.407   0.843
  391ACTN    H6 4363   2.243   6.277   6.710
  391ACTN    C3 4364   2.281   6.178   6.688
  391ACTN    H4 4365   2.379   6.187   6.643
  391ACTN    H5 4366   2.290   6.124   6.782
  391ACTN    C2 4367   2.189   6.104   6.596
  391ACTN    O1 4368   2.086   6.156   6.554
  391ACTN    C1 4369   2.222   5.963   6.557
  391ACTN    H1 4370   2.141   5.896   6.584
  391ACTN    H2 4371   2.313   5.930   6.607
  391ACTN    H3 4372   2.238   5.957   6.450
  392ACTN    H6 4373   2.942   4.954   2.320
  392ACTN    C3 4374   2.935   4.859   2.372
  392ACTN    H4 4375   3.035   4.816   2.379
  392ACTN    H5 4376   2.898   4.877   2.473
  392ACTN    C2 4377   2.842   4.767   2.301
  392ACTN    O1 4378   2.726   4.801   2.281
  392ACTN    C1 4379   2.896   4.642   2.240
  392ACTN    H1 4380   2.816   4.580   2.199
  392ACTN    H2 4381   2.949   4.584   2.315
  392ACTN    H3 4382   2.965   4.665   2.159
  393ACTN    H6 4383   6.938   0.355   1.544
  393ACTN    C3 4384   6.967   0.353   1.649
  393ACTN    H4 4385   7.050   0.422   1.662
  393ACTN    H5 4386   6.883   0.387   1.709
  393ACTN    C2 4387   7.007   0.216   1.693
  393ACTN    O1 4388   6.995   0.120   1.616
  393ACTN    C1 4389   7.056   0.198   1.833
  393ACTN    H1 4390   7.082   0.094   1.853
  393ACTN    H2 4391   6.980   0.228   1.904
  393ACTN    H3 4392   7.145   0.259   1.849
  394ACTN    H6 4393   0.658   1.273   4.764
  394ACTN    C3 4394   0.555   1.243   4.747
  394ACTN    H4 4395   0.538   1.239   4.640
  394ACTN    H5 4396   0.541   1.143   4.788
  394ACTN    C2 4397   0.461   1.341   4.811
  394ACTN    O1 4398   0.376   1.304   4.890
  394ACTN    C1 4399   0.470   1.485   4.770
  394ACTN    H1 4400   0.493   1.547   4.857
  394ACTN    H2 4401   0.375   1.519   4.729
  394ACTN    H3 4402   0.547   1.501   4.696
  395ACTN    H6 4403   3.232   1.933   4.053
  395ACTN    C3 4404   3.319   1.869   4.040
  395ACTN    H4 4405   3.406   1.920   4.082
  395ACTN    H5 4406   3.304   1.777   4.095
  395ACTN    C2 4407   3.340   1.838   3.894
  395ACTN    O1 4408   3.247   1.790   3.829
  395ACTN    C1 4409   3.468   1.874   3.827
  395ACTN    H1 4410   3.450   1.939   3.742
  395ACTN    H2 4411   3.519   1.784   3.792
  395ACTN    H3 4412   3.535   1.926   3.896
  396ACTN    H6 4413   4.372   3.881   1.092
  396ACTN    C3 4414   4.278   3.927   1.062
  396ACTN    H4 4415   4.278   3.937   0.954
  396ACTN    H5 4416   4.197   3.861   1.091
  396ACTN    C2 4417   4.264   4.061   1.128
  396ACTN    O1 4418   4.348   4.148   1.108
  396ACTN    C1 4419   4.147   4.089   1.218
  396ACTN    H1 4420   4.182   4.106   1.319
  396ACTN    H2 4421   4.077   4.006   1.218
  396ACTN    H3 4422   4.094   4.178   1.184
  397ACTN    H6 4423   2.701   0.542   3.984
  397ACTN    C3 4424   2.762   0.590   4.059
  397ACTN    H4 4425   2.866   0.582   4.029
  397ACTN    H5 4426   2.736   0.696   4.063
  397ACTN    C2 4427   2.741   0.525   4.193
  397ACTN    O1 4428   2.693   0.586   4.287
  397ACTN    C1 4429   2.775   0.380   4.208
  397ACTN    H1 4430   2.856   0.367   4.280
  397ACTN    H2 4431   2.807   0.337   4.113
  397ACTN    H3 4432   2.689   0.324   4.244
  398ACTN    H6 4433   0.719   1.002   3.872
  398ACTN    C3 4434   0.695   1.092   3.816
  398ACTN    H4 4435   0.631   1.155   3.876
  398ACTN    H5 4436   0.788   1.147   3.798
  398ACTN    C2 4437   0.628   1.057   3.687
  398ACTN    O1 4438   0.687   1.067   3.580
  398ACTN    C1 4439   0.492   0.994   3.691
  398ACTN    H1 4440   0.494   0.897   3.641
  398ACTN    H2 4441   0.420   1.057   3.641
  398ACTN    H3 4442   0.460   0.978   3.794
  399ACTN    H6 4443   4.627   6.342   2.305
  399ACTN    C3 4444   4.555   6.376   2.232
  399ACTN    H4 4445   4.569   6.482   2.216
  399ACTN    H5 4446   4.575   6.324   2.138
  399ACTN    C2 4447   4.415   6.348   2.280
  399ACTN    O1 4448   4.376   6.399   2.384
  399ACTN    C1 4449   4.323   6.262   2.200
  399ACTN    H1 4450   4.231   6.315   2.178
  399ACTN    H2 4451   4.299   6.171   2.255
  399ACTN    H3 4452   4.368   6.233   2.105
  400ACTN    H6 4453   1.520   6.764   2.081
  400ACTN    C3 4454   1.427   6.820   2.079
  400ACTN    H4 4455   1.367   6.784   1.995
  400ACTN    H5 4456   1.373   6.800   2.171
  400ACTN    C2 4457   1.455   6.966   2.064
  400ACTN    O1 4458   1.529   7.006   1.975
  400ACTN    C1 4459   1.392   7.062   2.161
  400ACTN    H1 4460   1.424   7.040   2.262
  400ACTN    H2 4461   1.284   7.054   2.157
  400ACTN    H3 4462   1.419   7.165   2.138
  401ACTN    H6 4463   6.911   0.911   4.794
  401ACTN    C3 4464   6.820   0.871   4.838
  401ACTN    H4 4465   6.781   0.793   4.772
  401ACTN    H5 4466   6.846   0.825   4.933
  401ACTN    C2 4467   6.718   0.978   4.860
  401ACTN    O1 4468   6.608   0.949   4.906
  401ACTN    C1 4469   6.748   1.119   4.820
  401ACTN    H1 4470   6.848   1.128   4.779
  401ACTN    H2 4471   6.741   1.185   4.907
  401ACTN    H3 4472   6.677   1.155   4.746
  402ACTN    H6 4473   6.021   4.696   2.310
  402ACTN    C3 4474   6.100   4.621   2.304
  402ACTN    H4 4475   6.054   4.525   2.284
  402ACTN    H5 4476   6.164   4.647   2.220
  402ACTN    C2 4477   6.179   4.615   2.431
  402ACTN    O1 4478   6.148   4.684   2.527
  402ACTN    C1 4479   6.298   4.525   2.438
  402ACTN    H1 4480   6.388   4.582   2.458
  402ACTN    H2 4481   6.310   4.469   2.345
  402ACTN    H3 4482   6.284   4.453   2.519
  403ACTN    H6 4483   5.259   3.159   1.240
  403ACTN    C3 4484   5.161   3.136   1.199
  403ACTN    H4 4485   5.156   3.028   1.182
  403ACTN    H5 4486   5.086   3.163   1.273
  403ACTN    C2 4487   5.142   3.209   1.071
  403ACTN    O1 4488   5.052   3.293   1.059
  403ACTN    C1 4489   5.241   3.188   0.961
  403ACTN    H1 4490   5.334   3.239   0.985
  403ACTN    H2 4491   5.205   3.226   0.866
  403ACTN    H3 4492   5.263   3.082   0.950
  404ACTN    H6 4493   0.514   1.333   7.322
  404ACTN    C3 4494   0.407   1.353   7.322
  404ACTN    H4 4495   0.362   1.300   7.238
  404ACTN    H5 4496   0.365   1.313   7.413
  404ACTN    C2 4497   0.381   1.500   7.310
  404ACTN    O1 4498   0.419   1.561   7.211
  404ACTN    C1 4499   0.307   1.572   7.418
  404ACTN    H1 4500   0.368   1.653   7.457
  404ACTN    H2 4501   0.283   1.506   7.500
  404ACTN    H3 4502   0.214   1.614   7.380
  405ACTN    H6 4503   5.410   1.751   2.085
  405ACTN    C3 4504   5.494   1.688   2.057
  405ACTN    H4 4505   5.583   1.750   2.057
  405ACTN    H5 4506   5.506   1.610   2.132
  405ACTN    C2 4507   5.472   1.630   1.921
  405ACTN    O1 4508   5.465   1.509   1.906
  405ACTN    C1 4509   5.456   1.722   1.804
  405ACTN    H1 4510   5.463   1.826   1.835
  405ACTN    H2 4511   5.361   1.706   1.755
  405ACTN    H3 4512   5.535   1.703   1.731
  406ACTN    H6 4513   4.811   1.013   2.424
  406ACTN    C3 4514   4.715   0.979   2.386
  406ACTN    H4 4515   4.671   1.058   2.326
  406ACTN    H5 4516   4.733   0.893   2.321
  406ACTN    C2 4517   4.622   0.941   2.497
  406ACTN    O1 4518   4.512   0.894   2.472
  406ACTN    C1 4519   4.665   0.959   2.640
  406ACTN    H1 4520   4.671   0.863   2.690
  406ACTN    H2 4521   4.593   1.021   2.693
  406ACTN    H3 4522   4.762   1.007   2.645
  407ACTN    H6 4523   5.022   6.572   5.324
  407ACTN    C3 4524   5.113   6.525   5.286
  407ACTN    H4 4525   5.181   6.508   5.369
  407ACTN    H5 4526   5.086   6.429   5.244
  407ACTN    C2 4527   5.175   6.613   5.181
  407ACTN    O1 4528   5.288   6.658   5.195
  407ACTN    C1 4529   5.099   6.645   5.056
  407ACTN    H1 4530   5.080   6.752   5.049
  407ACTN    H2 4531   5.003   6.593   5.055
  407ACTN    H3 4532   5.155   6.614   4.968
  408ACTN    H6 4533   6.908   0.816   3.352
  408ACTN    C3 4534   6.925   0.708   3.348
  408ACTN    H4 4535   7.013   0.686   3.407
  408ACTN    H5 4536   6.840   0.659   3.394
  408ACTN    C2 4537   6.942   0.664   3.206
  408ACTN    O1 4538   6.849   0.677   3.127
  408ACTN    C1 4539   7.069   0.598   3.164
  408ACTN    H1 4540   7.154   0.661   3.187
  408ACTN    H2 4541   7.070   0.579   3.057
  408ACTN    H3 4542   7.081   0.502   3.214
  409ACTN    H6 4543   4.198   1.756   6.520
  409ACTN    C3 4544   4.090   1.744   6.515
  409ACTN    H4 4545   4.057   1.691   6.604
  409ACTN    H5 4546   4.045   1.843   6.515
  409ACTN    C2 4547   4.050   1.668   6.393
  409ACTN    O1 4548   3.931   1.648   6.370
  409ACTN    C1 4549   4.156   1.618   6.300
  409ACTN    H1 4550   4.113   1.570   6.212
  409ACTN    H2 4551   4.218   1.544   6.351
  409ACTN    H3 4552   4.220   1.699   6.267
  410ACTN    H6 4553   0.425   5.634   2.286
  410ACTN    C3 4554   0.401   5.712   2.359
  410ACTN    H4 4555   0.350   5.665   2.443
  410ACTN    H5 4556   0.494   5.755   2.395
  410ACTN    C2 4557   0.315   5.818   2.298
  410ACTN    O1 4558   0.270   5.806   2.185
  410ACTN    C1 4559   0.276   5.936   2.382
  410ACTN    H1 4560   0.307   6.028   2.334
  410ACTN    H2 4561   0.324   5.932   2.480
  410ACTN    H3 4562   0.168   5.939   2.396
  411ACTN    H6 4563   1.414   3.202   6.752
  411ACTN    C3 4564   1.509   3.199   6.804
  411ACTN    H4 4565   1.490   3.208   6.911
  411ACTN    H5 4566   1.555   3.102   6.786
  411ACTN    C2 4567   1.599   3.310   6.759
  411ACTN    O1 4568   1.715   3.315   6.800
  411ACTN    C1 4569   1.548   3.410   6.660
  411ACTN    H1 4570   1.444   3.392   6.635
  411ACTN    H2 4571   1.606   3.406   6.569
  411ACTN    H3 4572   1.556   3.511   6.701
  412ACTN    H6 4573   6.394   2.528   1.950
  412ACTN    C3 4574   6.401   2.433   1.897
  412ACTN    H4 4575   6.350   2.443   1.802
  412ACTN    H5 4576   6.506   2.413   1.877
  412ACTN    C2 4577   6.342   2.322   1.978
  412ACTN    O1 4578   6.375   2.309   2.096
  412ACTN    C1 4579   6.229   2.243   1.922
  412ACTN    H1 4580   6.258   2.197   1.827
  412ACTN    H2 4581   6.143   2.307   1.904
  412ACTN    H3 4582   6.198   2.164   1.990
  413ACTN    H6 4583   3.726   5.358   1.488
  413ACTN    C3 4584   3.834   5.367   1.486
  413ACTN    H4 4585   3.861   5.464   1.528
  413ACTN    H5 4586   3.875   5.289   1.550
  413ACTN    C2 4587   3.884   5.354   1.346
  413ACTN    O1 4588   3.841   5.428   1.259
  413ACTN    C1 4589   3.991   5.253   1.317
  413ACTN    H1 4590   4.016   5.251   1.211
  413ACTN    H2 4591   3.957   5.153   1.345
  413ACTN    H3 4592   4.081   5.275   1.373
  414ACTN    H6 4593   1.100   6.750   1.279
  414ACTN    C3 4594   1.187   6.814   1.290
  414ACTN    H4 4595   1.204   6.865   1.196
  414ACTN    H5 4596   1.165   6.889   1.367
  414ACTN    C2 4597   1.307   6.732   1.326
  414ACTN    O1 4598   1.377   6.764   1.422
  414ACTN    C1 4599   1.345   6.618   1.237
  414ACTN    H1 4600   1.264   6.547   1.229
  414ACTN    H2 4601   1.433   6.566   1.276
  414ACTN    H3 4602   1.369   6.655   1.138
  415ACTN    H6 4603   1.539   5.710   5.633
  415ACTN    C3 4604   1.510   5.609   5.605
  415ACTN    H4 4605   1.428   5.616   5.533
  415ACTN    H5 4606   1.594   5.563   5.554
  415ACTN    C2 4607   1.469   5.531   5.725
  415ACTN    O1 4608   1.533   5.433   5.761
  415ACTN    C1 4609   1.350   5.578   5.803
  415ACTN    H1 4610   1.368   5.677   5.843
  415ACTN    H2 4611   1.329   5.511   5.887
  415ACTN    H3 4612   1.262   5.581   5.740
  416ACTN    H6 4613   1.643   6.413   2.037
  416ACTN    C3 4614   1.637   6.318   2.089
  416ACTN    H4 4615   1.589   6.246   2.024
  416ACTN    H5 4616   1.576   6.331   2.178
  416ACTN    C2 4617   1.774   6.273   2.128
  416ACTN    O1 4618   1.815   6.161   2.099
  416ACTN    C1 4619   1.859   6.365   2.211
  416ACTN    H1 4620   1.809   6.386   2.305
  416ACTN    H2 4621   1.874   6.459   2.159
  416ACTN    H3 4622   1.956   6.321   2.232
  417ACTN    H6 4623   5.427   3.323   3.436
  417ACTN    C3 4624   5.431   3.408   3.370
  417ACTN    H4 4625   5.514   3.394   3.301
  417ACTN    H5 4626   5.339   3.411   3.312
  417ACTN    C2 4627   5.447   3.535   3.448
  417ACTN    O1 4628   5.536   3.615   3.420
  417ACTN    C1 4629   5.344   3.567   3.552
  417ACTN    H1 4630   5.338   3.488   3.626
  417ACTN    H2 4631   5.246   3.578   3.506
  417ACTN    H3 4632   5.367   3.660   3.603
  418ACTN    H6 4633   5.648   1.106   2.156
  418ACTN    C3 4634   5.618   1.016   2.210
  418ACTN    H4 4635   5.663   0.931   2.160
  418ACTN    H5 4636   5.510   1.006   2.203
  418ACTN    C2 4637   5.661   1.021   2.353
  418ACTN    O1 4638   5.631   0.930   2.429
  418ACTN    C1 4639   5.734   1.141   2.405
  418ACTN    H1 4640   5.831   1.111   2.445
  418ACTN    H2 4641   5.678   1.189   2.485
  418ACTN    H3 4642   5.751   1.214   2.326
  419ACTN    H6 4643   2.672   0.477   6.092
  419ACTN    C3 4644   2.635   0.488   6.194
  419ACTN    H4 4645   2.630   0.389   6.239
  419ACTN    H5 4646   2.705   0.548   6.251
  419ACTN    C2 4647   2.499   0.552   6.192
  419ACTN    O1 4648   2.490   0.673   6.175
  419ACTN    C1 4649   2.381   0.471   6.236
  419ACTN    H1 4650   2.373   0.381   6.176
  419ACTN    H2 4651   2.289   0.528   6.226
  419ACTN    H3 4652   2.392   0.442   6.340
  420ACTN    H6 4653   6.900   5.026   2.675
  420ACTN    C3 4654   6.993   5.047   2.623
  420ACTN    H4 4655   6.968   5.083   2.523
  420ACTN    H5 4656   7.045   5.126   2.676
  420ACTN    C2 4657   7.077   4.923   2.617
  420ACTN    O1 4658   7.118   4.880   2.509
  420ACTN    C1 4659   7.116   4.856   2.745
  420ACTN    H1 4660   7.076   4.755   2.748
  420ACTN    H2 4661   7.079   4.911   2.831
  420ACTN    H3 4662   7.224   4.849   2.753
  421ACTN    H6 4663   0.943   6.816   0.378
  421ACTN    C3 4664   0.882   6.740   0.331
  421ACTN    H4 4665   0.942   6.686   0.258
  421ACTN    H5 4666   0.852   6.669   0.408
  421ACTN    C2 4667   0.761   6.802   0.267
  421ACTN    O1 4668   0.729   6.774   0.152
  421ACTN    C1 4669   0.671   6.888   0.350
  421ACTN    H1 4670   0.570   6.847   0.352
  421ACTN    H2 4671   0.667   6.988   0.309
  421ACTN    H3 4672   0.708   6.895   0.452
  422ACTN    H6 4673   3.255   2.841   3.460
  422ACTN    C3 4674   3.207   2.834   3.363
  422ACTN    H4 4675   3.119   2.770   3.373
  422ACTN    H5 4676   3.174   2.933   3.334
  422ACTN    C2 4677   3.301   2.776   3.262
  422ACTN    O1 4678   3.333   2.839   3.162
  422ACTN    C1 4679   3.356   2.639   3.287
  422ACTN    H1 4680   3.276   2.566   3.290
  422ACTN    H2 4681   3.408   2.636   3.382
  422ACTN    H3 4682   3.427   2.610   3.209
  423ACTN    H6 4683   2.980   3.880   5.915
  423ACTN    C3 4684   2.892   3.939   5.939
  423ACTN    H4 4685   2.925   4.031   5.987
  423ACTN    H5 4686   2.842   3.965   5.846
  423ACTN    C2 4687   2.800   3.860   6.027
  423ACTN    O1 4688   2.776   3.898   6.141
  423ACTN    C1 4689   2.743   3.733   5.974
  423ACTN    H1 4690   2.784   3.710   5.875
  423ACTN    H2 4691   2.635   3.741   5.963
  423ACTN    H3 4692   2.765   3.650   6.040
  424ACTN    H6 4693   1.018   0.651   1.030
  424ACTN    C3 4694   1.034   0.545   1.012
  424ACTN    H4 4695   1.039   0.495   1.109
  424ACTN    H5 4696   0.949   0.506   0.957
  424ACTN    C2 4697   1.162   0.524   0.937
  424ACTN    O1 4698   1.268   0.562   0.984
  424ACTN    C1 4699   1.157   0.462   0.800
  424ACTN    H1 4700   1.257   0.450   0.758
  424ACTN    H2 4701   1.100   0.526   0.733
  424ACTN    H3 4702   1.109   0.365   0.804
  425ACTN    H6 4703   1.264   5.077   4.462
  425ACTN    C3 4704   1.295   4.978   4.495
  425ACTN    H4 4705   1.331   4.923   4.408
  425ACTN    H5 4706   1.377   4.990   4.565
  425ACTN    C2 4707   1.179   4.907   4.558
  425ACTN    O1 4708   1.191   4.856   4.669
  425ACTN    C1 4709   1.056   4.884   4.476
  425ACTN    H1 4710   0.980   4.832   4.533
  425ACTN    H2 4711   1.080   4.824   4.388
  425ACTN    H3 4712   1.015   4.979   4.443
  426ACTN    H6 4713   6.661   1.837   3.680
  426ACTN    C3 4714   6.719   1.929   3.676
  426ACTN    H4 4715   6.696   1.988   3.765
  426ACTN    H5 4716   6.824   1.901   3.680
  426ACTN    C2 4717   6.690   2.006   3.552
  426ACTN    O1 4718   6.604   1.968   3.473
  426ACTN    C1 4719   6.762   2.135   3.528
  426ACTN    H1 4720   6.820   2.129   3.436
  426ACTN    H2 4721   6.829   2.158   3.610
  426ACTN    H3 4722   6.691   2.217   3.517
  427ACTN    H6 4723   0.244   0.290   5.226
  427ACTN    C3 4724   0.290   0.244   5.140
  427ACTN    H4 4725   0.213   0.209   5.072
  427ACTN    H5 4726   0.347   0.157   5.174
  427ACTN    C2 4727   0.383   0.338   5.069
  427ACTN    O1 4728   0.441   0.303   4.968
  427ACTN    C1 4729   0.400   0.478   5.120
  427ACTN    H1 4730   0.336   0.498   5.206
  427ACTN    H2 4731   0.376   0.551   5.043
  427ACTN    H3 4732   0.503   0.494   5.151
  428ACTN    H6 4733   1.387   1.742   6.135
  428ACTN    C3 4734   1.312   1.748   6.057
  428ACTN    H4 4735   1.240   1.824   6.086
  428ACTN    H5 4736   1.360   1.779   5.965
  428ACTN    C2 4737   1.245   1.615   6.042
  428ACTN    O1 4738   1.187   1.562   6.136
  428ACTN    C1 4739   1.249   1.544   5.910
  428ACTN    H1 4740   1.295   1.447   5.921
  428ACTN    H2 4741   1.306   1.601   5.836
  428ACTN    H3 4742   1.148   1.530   5.871
  429ACTN    H6 4743   6.510   1.292   1.162
  429ACTN    C3 4744   6.565   1.207   1.202
  429ACTN    H4 4745   6.660   1.243   1.240
  429ACTN    H5 4746   6.508   1.166   1.285
  429ACTN    C2 4747   6.583   1.103   1.096
  429ACTN    O1 4748   6.486   1.047   1.046
  429ACTN    C1 4749   6.722   1.063   1.055
  429ACTN    H1 4750   6.737   1.083   0.949
  429ACTN    H2 4751   6.739   0.957   1.072
  429ACTN    H3 4752   6.797   1.118   1.111
  430ACTN    H6 4753   1.206   4.747   6.088
  430ACTN    C3 4754   1.276   4.696   6.153
  430ACTN    H4 4755   1.225   4.672   6.246
  430ACTN    H5 4756   1.305   4.602   6.106
  430ACTN    C2 4757   1.398   4.780   6.178
  430ACTN    O1 4758   1.427   4.817   6.291
  430ACTN    C1 4759   1.479   4.824   6.060
  430ACTN    H1 4760   1.419   4.884   5.992
  430ACTN    H2 4761   1.514   4.737   6.004
  430ACTN    H3 4762   1.566   4.882   6.090
  431ACTN    H6 4763   5.059   5.332   4.150
  431ACTN    C3 4764   5.105   5.233   4.150
  431ACTN    H4 4765   5.036   5.165   4.100
  431ACTN    H5 4766   5.196   5.238   4.091
  431ACTN    C2 4767   5.134   5.185   4.289
  431ACTN    O1 4768   5.173   5.071   4.309
  431ACTN    C1 4769   5.113   5.277   4.405
  431ACTN    H1 4770   5.036   5.238   4.470
  431ACTN    H2 4771   5.082   5.376   4.372
  431ACTN    H3 4772   5.205   5.287   4.462
  432ACTN    H6 4773   1.273   7.142   4.383
  432ACTN    C3 4774   1.281   7.153   4.275
  432ACTN    H4 4775   1.359   7.225   4.253
  432ACTN    H5 4776   1.188   7.193   4.238
  432ACTN    C2 4777   1.314   7.021   4.212
  432ACTN    O1 4778   1.232   6.963   4.141
  432ACTN    C1 4779   1.445   6.959   4.245
  432ACTN    H1 4780   1.451   6.936   4.351
  432ACTN    H2 4781   1.526   7.028   4.221
  432ACTN    H3 4782   1.462   6.868   4.189
  433ACTN    H6 4783   1.676   5.095   0.175
  433ACTN    C3 4784   1.711   5.073   0.075
  433ACTN    H4 4785   1.800   5.010   0.083
  433ACTN    H5 4786   1.634   5.017   0.022
  433ACTN    C2 4787   1.743   5.200   0.003
  433ACTN    O1 4788   1.855   5.221   8.958
  433ACTN    C1 4789   1.632   5.298   8.980
  433ACTN    H1 4790   1.586   5.325   0.075
  433ACTN    H2 4791   1.556   5.255   8.915
  433ACTN    H3 4792   1.669   5.389   8.935
  434ACTN    H6 4793   5.112   6.719   5.758
  434ACTN    C3 4794   5.040   6.733   5.678
  434ACTN    H4 4795   5.036   6.643   5.618
  434ACTN    H5 4796   4.942   6.749   5.723
  434ACTN    C2 4797   5.077   6.851   5.594
  434ACTN    O1 4798   5.094   6.962   5.644
  434ACTN    C1 4799   5.103   6.831   5.448
  434ACTN    H1 4800   5.183   6.759   5.434
  434ACTN    H2 4801   5.132   6.923   5.399
  434ACTN    H3 4802   5.013   6.793   5.400
  435ACTN    H6 4803   2.434   0.501   2.710
  435ACTN    C3 4804   2.406   0.473   2.811
  435ACTN    H4 4805   2.304   0.505   2.830
  435ACTN    H5 4806   2.409   0.364   2.818
  435ACTN    C2 4807   2.500   0.536   2.909
  435ACTN    O1 4808   2.501   0.657   2.924
  435ACTN    C1 4809   2.583   0.447   2.997
  435ACTN    H1 4810   2.646   0.506   3.064
  435ACTN    H2 4811   2.648   0.385   2.936
  435ACTN    H3 4812   2.520   0.383   3.057
  436ACTN    H6 4813   0.886   2.779   1.839
  436ACTN    C3 4814   0.926   2.697   1.780
  436ACTN    H4 4815   0.861   2.611   1.791
  436ACTN    H5 4816   0.925   2.727   1.675
  436ACTN    C2 4817   1.065   2.664   1.825
  436ACTN    O1 4818   1.085   2.624   1.939
  436ACTN    C1 4819   1.180   2.680   1.730
  436ACTN    H1 4820   1.147   2.720   1.635
  436ACTN    H2 4821   1.227   2.584   1.712
  436ACTN    H3 4822   1.255   2.747   1.772
  437ACTN    H6 4823   2.565   3.360   2.429
  437ACTN    C3 4824   2.607   3.441   2.489
  437ACTN    H4 4825   2.625   3.404   2.589
  437ACTN    H5 4826   2.702   3.469   2.445
  437ACTN    C2 4827   2.515   3.559   2.493
  437ACTN    O1 4828   2.405   3.554   2.439
  437ACTN    C1 4829   2.559   3.682   2.566
  437ACTN    H1 4830   2.563   3.767   2.498
  437ACTN    H2 4831   2.657   3.669   2.610
  437ACTN    H3 4832   2.489   3.706   2.645
  438ACTN    H6 4833   1.288   8.960   4.774
  438ACTN    C3 4834   1.276   0.058   4.728
  438ACTN    H4 4835   1.182   0.101   4.762
  438ACTN    H5 4836   1.357   0.121   4.765
  438ACTN    C2 4837   1.282   0.046   4.579
  438ACTN    O1 4838   1.181   0.063   4.512
  438ACTN    C1 4839   1.410   0.001   4.516
  438ACTN    H1 4840   1.403   8.999   4.408
  438ACTN    H2 4841   1.435   8.900   4.550
  438ACTN    H3 4842   1.492   0.066   4.545
  439ACTN    H6 4843   1.414   3.817   4.874
  439ACTN    C3 4844   1.400   3.787   4.977
  439ACTN    H4 4845   1.488   3.816   5.034
  439ACTN    H5 4846   1.314   3.841   5.017
  439ACTN    C2 4847   1.379   3.639   4.986
  439ACTN    O1 4848   1.273   3.592   5.026
  439ACTN    C1 4849   1.489   3.548   4.941
  439ACTN    H1 4850   1.580   3.570   4.997
  439ACTN    H2 4851   1.509   3.563   4.836
  439ACTN    H3 4852   1.465   3.443   4.957
  440ACTN    H6 4853   1.736   5.519   2.655
  440ACTN    C3 4854   1.791   5.588   2.592
  440ACTN    H4 4855   1.743   5.592   2.494
  440ACTN    H5 4856   1.784   5.687   2.636
  440ACTN    C2 4857   1.933   5.544   2.577
  440ACTN    O1 4858   2.024   5.609   2.628
  440ACTN    C1 4859   1.962   5.414   2.508
  440ACTN    H1 4860   1.870   5.364   2.480
  440ACTN    H2 4861   2.019   5.349   2.574
  440ACTN    H3 4862   2.020   5.432   2.418
  441ACTN    H6 4863   7.151   1.799   0.462
  441ACTN    C3 4864   7.088   1.869   0.517
  441ACTN    H4 4865   7.092   1.841   0.622
  441ACTN    H5 4866   7.131   1.968   0.507
  441ACTN    C2 4867   6.947   1.867   0.468
  441ACTN    O1 4868   6.916   1.802   0.369
  441ACTN    C1 4869   6.846   1.952   0.538
  441ACTN    H1 4870   6.747   1.943   0.493
  441ACTN    H2 4871   6.876   2.057   0.535
  441ACTN    H3 4872   6.839   1.922   0.642
  442ACTN    H6 4873   2.514   4.691   1.522
  442ACTN    C3 4874   2.588   4.761   1.562
  442ACTN    H4 4875   2.684   4.710   1.564
  442ACTN    H5 4876   2.594   4.844   1.493
  442ACTN    C2 4877   2.547   4.805   1.699
  442ACTN    O1 4878   2.554   4.924   1.730
  442ACTN    C1 4879   2.521   4.702   1.804
  442ACTN    H1 4880   2.418   4.709   1.838
  442ACTN    H2 4881   2.587   4.715   1.889
  442ACTN    H3 4882   2.536   4.602   1.764
  443ACTN    H6 4883   2.374   3.864   6.162
  443ACTN    C3 4884   2.316   3.790   6.218
  443ACTN    H4 4885   2.241   3.843   6.276
  443ACTN    H5 4886   2.265   3.726   6.147
  443ACTN    C2 4887   2.407   3.709   6.305
  443ACTN    O1 4888   2.378   3.689   6.423
  443ACTN    C1 4889   2.523   3.640   6.242
  443ACTN    H1 4890   2.617   3.680   6.280
  443ACTN    H2 4891   2.521   3.652   6.134
  443ACTN    H3 4892   2.521   3.534   6.264
  444ACTN    H6 4893   1.532   5.204   2.647
  444ACTN    C3 4894   1.462   5.228   2.567
  444ACTN    H4 4895   1.501   5.313   2.513
  444ACTN    H5 4896   1.458   5.144   2.499
  444ACTN    C2 4897   1.326   5.256   2.623
  444ACTN    O1 4898   1.266   5.360   2.595
  444ACTN    C1 4899   1.261   5.151   2.708
  444ACTN    H1 4900   1.324   5.127   2.794
  444ACTN    H2 4901   1.246   5.060   2.650
  444ACTN    H3 4902   1.164   5.184   2.746
  445ACTN    H6 4903   1.602   0.458   3.214
  445ACTN    C3 4904   1.631   0.422   3.313
  445ACTN    H4 4905   1.723   0.473   3.342
  445ACTN    H5 4906   1.553   0.449   3.383
  445ACTN    C2 4907   1.653   0.274   3.310
  445ACTN    O1 4908   1.743   0.226   3.241
  445ACTN    C1 4909   1.570   0.185   3.396
  445ACTN    H1 4910   1.518   0.110   3.336
  445ACTN    H2 4911   1.495   0.242   3.451
  445ACTN    H3 4912   1.631   0.132   3.469
  446ACTN    H6 4913   4.531   2.556   6.482
  446ACTN    C3 4914   4.437   2.556   6.537
  446ACTN    H4 4915   4.369   2.485   6.491
  446ACTN    H5 4916   4.458   2.524   6.639
  446ACTN    C2 4917   4.377   2.693   6.538
  446ACTN    O1 4918   4.269   2.713   6.592
  446ACTN    C1 4919   4.447   2.804   6.466
  446ACTN    H1 4920   4.395   2.899   6.478
  446ACTN    H2 4921   4.454   2.782   6.360
  446ACTN    H3 4922   4.548   2.816   6.505
  447ACTN    H6 4923   3.199   1.528   4.135
  447ACTN    C3 4924   3.169   1.563   4.234
  447ACTN    H4 4925   3.258   1.565   4.297
  447ACTN    H5 4926   3.132   1.665   4.224
  447ACTN    C2 4927   3.065   1.475   4.294
  447ACTN    O1 4928   3.021   1.379   4.232
  447ACTN    C1 4929   3.010   1.509   4.430
  447ACTN    H1 4930   3.027   1.426   4.499
  447ACTN    H2 4931   2.903   1.527   4.424
  447ACTN    H3 4932   3.059   1.597   4.470
  448ACTN    H6 4933   5.015   4.776   3.160
  448ACTN    C3 4934   4.983   4.676   3.190
  448ACTN    H4 4935   5.011   4.661   3.294
  448ACTN    H5 4936   4.875   4.671   3.183
  448ACTN    C2 4937   5.049   4.573   3.104
  448ACTN    O1 4938   4.983   4.489   3.043
  448ACTN    C1 4939   5.198   4.570   3.101
  448ACTN    H1 4940   5.237   4.667   3.072
  448ACTN    H2 4941   5.235   4.497   3.031
  448ACTN    H3 4942   5.236   4.546   3.200
  449ACTN    H6 4943   5.249   4.022   6.287
  449ACTN    C3 4944   5.183   4.088   6.231
  449ACTN    H4 4945   5.245   4.155   6.171
  449ACTN    H5 4946   5.123   4.027   6.164
  449ACTN    C2 4947   5.095   4.168   6.322
  449ACTN    O1 4948   5.091   4.144   6.442
  449ACTN    C1 4949   5.000   4.266   6.261
  449ACTN    H1 4950   5.053   4.337   6.199
  449ACTN    H2 4951   4.946   4.322   6.337
  449ACTN    H3 4952   4.927   4.214   6.199
  450ACTN    H6 4953   7.217   5.212   1.146
  450ACTN    C3 4954   7.180   5.140   1.073
  450ACTN    H4 4955   7.103   5.080   1.120
  450ACTN    H5 4956   7.136   5.194   0.990
  450ACTN    C2 4957   7.292   5.054   1.023
  450ACTN    O1 4958   7.390   5.107   0.971
  450ACTN    C1 4959   7.283   4.906   1.038
  450ACTN    H1 4960   7.270   4.880   1.143
  450ACTN    H2 4961   7.372   4.856   1.002
  450ACTN    H3 4962   7.197   4.868   0.983
  451ACTN    H6 4963   7.142   0.286   1.200
  451ACTN    C3 4964   7.060   0.356   1.218
  451ACTN    H4 4965   7.090   0.424   1.297
  451ACTN    H5 4966   7.044   0.413   1.127
  451ACTN    C2 4967   6.935   0.283   1.256
  451ACTN    O1 4968   6.837   0.344   1.297
  451ACTN    C1 4969   6.935   0.133   1.255
  451ACTN    H1 4970   6.963   0.096   1.157
  451ACTN    H2 4971   6.836   0.095   1.281
  451ACTN    H3 4972   7.007   0.096   1.328
  452ACTN    H6 4973   1.278   6.206   4.184
  452ACTN    C3 4974   1.193   6.158   4.137
  452ACTN    H4 4975   1.105   6.220   4.154
  452ACTN    H5 4976   1.211   6.155   4.029
  452ACTN    C2 4977   1.172   6.021   4.192
  452ACTN    O1 4978   1.144   6.007   4.311
  452ACTN    C1 4979   1.185   5.901   4.103
  452ACTN    H1 4980   1.208   5.930   4.001
  452ACTN    H2 4981   1.093   5.843   4.103
  452ACTN    H3 4982   1.265   5.836   4.139
  453ACTN    H6 4983   6.964   6.245   4.468
  453ACTN    C3 4984   7.018   6.333   4.433
  453ACTN    H4 4985   7.055   6.389   4.519
  453ACTN    H5 4986   7.104   6.299   4.375
  453ACTN    C2 4987   6.931   6.420   4.348
  453ACTN    O1 4988   6.976   6.522   4.298
  453ACTN    C1 4989   6.787   6.383   4.327
  453ACTN    H1 4990   6.768   6.368   4.220
  453ACTN    H2 4991   6.722   6.462   4.363
  453ACTN    H3 4992   6.762   6.291   4.378
  454ACTN    H6 4993   2.964   0.415   0.760
  454ACTN    C3 4994   2.863   0.376   0.772
  454ACTN    H4 4995   2.867   0.288   0.836
  454ACTN    H5 4996   2.803   0.451   0.823
  454ACTN    C2 4997   2.802   0.344   0.639
  454ACTN    O1 4998   2.770   0.229   0.610
  454ACTN    C1 4999   2.791   0.453   0.537
  454ACTN    H1 5000   2.842   0.425   0.445
  454ACTN    H2 5001   2.835   0.545   0.574
  454ACTN    H3 5002   2.686   0.472   0.514
  455ACTN    H6 5003   5.806   4.324   4.934
  455ACTN    C3 5004   5.796   4.257   4.849
  455ACTN    H4 5005   5.700   4.206   4.856
  455ACTN    H5 5006   5.796   4.317   4.758
  455ACTN    C2 5007   5.910   4.160   4.845
  455ACTN    O1 5008   5.891   4.041   4.871
  455ACTN    C1 5009   6.048   4.216   4.836
  455ACTN    H1 5010   6.073   4.273   4.925
  455ACTN    H2 5011   6.055   4.282   4.750
  455ACTN    H3 5012   6.122   4.137   4.822
  456ACTN    H6 5013   1.061   5.318   1.052
  456ACTN    C3 5014   1.133   5.302   1.132
  456ACTN    H4 5015   1.230   5.339   1.098
  456ACTN    H5 5016   1.143   5.195   1.148
  456ACTN    C2 5017   1.091   5.370   1.258
  456ACTN    O1 5018   1.164   5.369   1.356
  456ACTN    C1 5019   0.962   5.446   1.262
  456ACTN    H1 5020   0.913   5.445   1.165
  456ACTN    H2 5021   0.979   5.549   1.292
  456ACTN    H3 5022   0.895   5.400   1.334
  457ACTN    H6 5023   2.736   5.739   3.526
  457ACTN    C3 5024   2.776   5.795   3.610
  457ACTN    H4 5025   2.882   5.811   3.593
  457ACTN    H5 5026   2.726   5.892   3.613
  457ACTN    C2 5027   2.754   5.720   3.738
  457ACTN    O1 5028   2.640   5.695   3.775
  457ACTN    C1 5029   2.871   5.684   3.824
  457ACTN    H1 5030   2.856   5.723   3.925
  457ACTN    H2 5031   2.963   5.726   3.785
  457ACTN    H3 5032   2.881   5.576   3.829
  458ACTN    H6 5033   1.550   5.865   6.348
  458ACTN    C3 5034   1.561   5.827   6.247
  458ACTN    H4 5035   1.509   5.893   6.179
  458ACTN    H5 5036   1.667   5.829   6.222
  458ACTN    C2 5037   1.509   5.687   6.236
  458ACTN    O1 5038   1.514   5.629   6.128
  458ACTN    C1 5039   1.452   5.619   6.357
  458ACTN    H1 5040   1.448   5.687   6.441
  458ACTN    H2 5041   1.513   5.534   6.384
  458ACTN    H3 5042   1.351   5.584   6.336
  459ACTN    H6 5043   7.101   5.388   6.551
  459ACTN    C3 5044   7.009   5.364   6.498
  459ACTN    H4 5045   6.969   5.272   6.539
  459ACTN    H5 5046   6.937   5.443   6.517
  459ACTN    C2 5047   7.034   5.352   6.350
  459ACTN    O1 5048   7.006   5.249   6.290
  459ACTN    C1 5049   7.097   5.465   6.276
  459ACTN    H1 5050   7.124   5.546   6.343
  459ACTN    H2 5051   7.027   5.504   6.202
  459ACTN    H3 5052   7.186   5.432   6.224
  460ACTN    H6 5053   6.469   4.333   5.661
  460ACTN    C3 5054   6.444   4.426   5.611
  460ACTN    H4 5055   6.499   4.506   5.659
  460ACTN    H5 5056   6.477   4.419   5.507
  460ACTN    C2 5057   6.297   4.453   5.617
  460ACTN    O1 5058   6.220   4.373   5.669
  460ACTN    C1 5059   6.244   4.578   5.555
  460ACTN    H1 5060   6.288   4.665   5.604
  460ACTN    H2 5061   6.136   4.585   5.564
  460ACTN    H3 5062   6.271   4.582   5.449
  461ACTN    H6 5063   1.908   4.303   1.534
  461ACTN    C3 5064   2.012   4.275   1.521
  461ACTN    H4 5065   2.032   4.264   1.415
  461ACTN    H5 5066   2.073   4.356   1.559
  461ACTN    C2 5067   2.041   4.147   1.593
  461ACTN    O1 5068   1.983   4.044   1.561
  461ACTN    C1 5069   2.150   4.145   1.696
  461ACTN    H1 5070   2.159   4.046   1.742
  461ACTN    H2 5071   2.129   4.217   1.775
  461ACTN    H3 5072   2.245   4.170   1.650
  462ACTN    H6 5073   4.398   1.357   0.115
  462ACTN    C3 5074   4.350   1.368   0.212
  462ACTN    H4 5075   4.401   1.302   0.281
  462ACTN    H5 5076   4.362   1.470   0.246
  462ACTN    C2 5077   4.205   1.332   0.202
  462ACTN    O1 5078   4.130   1.400   0.132
  462ACTN    C1 5079   4.151   1.215   0.279
  462ACTN    H1 5080   4.077   1.248   0.351
  462ACTN    H2 5081   4.230   1.164   0.333
  462ACTN    H3 5082   4.103   1.144   0.212
  463ACTN    H6 5083   0.263   2.964   4.248
  463ACTN    C3 5084   0.268   2.860   4.217
  463ACTN    H4 5085   0.232   2.798   4.299
  463ACTN    H5 5086   0.200   2.846   4.133
  463ACTN    C2 5087   0.407   2.820   4.178
  463ACTN    O1 5088   0.492   2.906   4.160
  463ACTN    C1 5089   0.438   2.678   4.147
  463ACTN    H1 5090   0.350   2.615   4.162
  463ACTN    H2 5091   0.518   2.642   4.212
  463ACTN    H3 5092   0.470   2.668   4.044
  464ACTN    H6 5093   7.130   0.798   7.129
  464ACTN    C3 5094   7.236   0.818   7.111
  464ACTN    H4 5095   7.243   0.900   7.041
  464ACTN    H5 5096   7.281   0.850   7.205
  464ACTN    C2 5097   7.303   0.695   7.057
  464ACTN    O1 5098   7.396   0.643   7.118
  464ACTN    C1 5099   7.256   0.640   6.926
  464ACTN    H1 5100   7.268   0.714   6.847
  464ACTN    H2 5101   7.151   0.614   6.933
  464ACTN    H3 5102   7.311   0.551   6.898
  465ACTN    H6 5103   0.903   6.368   5.030
  465ACTN    C3 5104   0.842   6.383   4.942
  465ACTN    H4 5105   0.900   6.356   4.854
  465ACTN    H5 5106   0.757   6.315   4.948
  465ACTN    C2 5107   0.796   6.525   4.933
  465ACTN    O1 5108   0.684   6.556   4.971
  465ACTN    C1 5109   0.897   6.631   4.904
  465ACTN    H1 5110   0.850   6.728   4.888
  465ACTN    H2 5111   0.954   6.606   4.815
  465ACTN    H3 5112   0.967   6.641   4.987
  466ACTN    H6 5113   5.355   5.202   3.408
  466ACTN    C3 5114   5.262   5.242   3.446
  466ACTN    H4 5115   5.212   5.297   3.367
  466ACTN    H5 5116   5.198   5.158   3.474
  466ACTN    C2 5117   5.286   5.330   3.565
  466ACTN    O1 5118   5.346   5.286   3.663
  466ACTN    C1 5119   5.243   5.473   3.559
  466ACTN    H1 5120   5.135   5.480   3.556
  466ACTN    H2 5121   5.283   5.520   3.470
  466ACTN    H3 5122   5.278   5.528   3.646
  467ACTN    H6 5123   3.530   4.089   6.718
  467ACTN    C3 5124   3.536   3.985   6.688
  467ACTN    H4 5125   3.616   3.975   6.614
  467ACTN    H5 5126   3.564   3.926   6.775
  467ACTN    C2 5127   3.406   3.940   6.630
  467ACTN    O1 5128   3.346   3.844   6.677
  467ACTN    C1 5129   3.352   4.009   6.509
  467ACTN    H1 5130   3.346   3.940   6.425
  467ACTN    H2 5131   3.416   4.092   6.480
  467ACTN    H3 5132   3.252   4.048   6.529
  468ACTN    H6 5133   1.194   0.411   3.945
  468ACTN    C3 5134   1.284   0.351   3.936
  468ACTN    H4 5135   1.335   0.350   4.032
  468ACTN    H5 5136   1.255   0.249   3.912
  468ACTN    C2 5137   1.374   0.409   3.831
  468ACTN    O1 5138   1.406   0.342   3.733
  468ACTN    C1 5139   1.431   0.546   3.850
  468ACTN    H1 5140   1.400   0.611   3.769
  468ACTN    H2 5141   1.539   0.542   3.852
  468ACTN    H3 5142   1.396   0.589   3.944
  469ACTN    H6 5143   4.303   3.662   6.130
  469ACTN    C3 5144   4.270   3.595   6.052
  469ACTN    H4 5145   4.256   3.496   6.094
  469ACTN    H5 5146   4.173   3.629   6.016
  469ACTN    C2 5147   4.368   3.588   5.939
  469ACTN    O1 5148   4.478   3.642   5.948
  469ACTN    C1 5149   4.335   3.503   5.821
  469ACTN    H1 5150   4.315   3.400   5.852
  469ACTN    H2 5151   4.417   3.501   5.749
  469ACTN    H3 5152   4.247   3.541   5.771
  470ACTN    H6 5153   3.096   1.095   2.406
  470ACTN    C3 5154   3.008   1.045   2.445
  470ACTN    H4 5155   2.982   1.091   2.540
  470ACTN    H5 5156   3.032   0.941   2.462
  470ACTN    C2 5157   2.894   1.056   2.348
  470ACTN    O1 5158   2.782   1.018   2.382
  470ACTN    C1 5159   2.913   1.130   2.220
  470ACTN    H1 5160   2.928   1.236   2.240
  470ACTN    H2 5161   2.828   1.119   2.154
  470ACTN    H3 5162   3.001   1.092   2.169
  471ACTN    H6 5163   4.665   0.527   3.969
  471ACTN    C3 5164   4.563   0.560   3.986
  471ACTN    H4 5165   4.497   0.502   3.923
  471ACTN    H5 5166   4.538   0.541   4.090
  471ACTN    C2 5167   4.548   0.706   3.955
  471ACTN    O1 5168   4.636   0.768   3.897
  471ACTN    C1 5169   4.414   0.769   3.977
  471ACTN    H1 5170   4.418   0.877   3.966
  471ACTN    H2 5171   4.378   0.747   4.077
  471ACTN    H3 5172   4.343   0.730   3.905
  472ACTN    H6 5173   6.087   4.573   6.832
  472ACTN    C3 5174   6.064   4.643   6.752
  472ACTN    H4 5175   6.156   4.662   6.697
  472ACTN    H5 5176   5.992   4.598   6.685
  472ACTN    C2 5177   6.010   4.771   6.809
  472ACTN    O1 5178   5.910   4.768   6.880
  472ACTN    C1 5179   6.081   4.901   6.785
  472ACTN    H1 5180   6.107   4.948   6.880
  472ACTN    H2 5181   6.018   4.969   6.729
  472ACTN    H3 5182   6.173   4.885   6.729
  473ACTN    H6 5183   7.161   6.146   4.031
  473ACTN    C3 5184   7.230   6.154   4.114
  473ACTN    H4 5185   7.180   6.116   4.203
  473ACTN    H5 5186   7.316   6.091   4.094
  473ACTN    C2 5187   7.272   6.296   4.137
  473ACTN    O1 5188   7.356   6.322   4.222
  473ACTN    C1 5189   7.217   6.405   4.050
  473ACTN    H1 5190   7.154   6.365   3.971
  473ACTN    H2 5191   7.297   6.462   4.004
  473ACTN    H3 5192   7.157   6.473   4.109
  474ACTN    H6 5193   6.785   1.208   6.093
  474ACTN    C3 5194   6.887   1.244   6.085
  474ACTN    H4 5195   6.890   1.324   6.011
  474ACTN    H5 5196   6.917   1.286   6.181
  474ACTN    C2 5197   6.980   1.133   6.046
  474ACTN    O1 5198   6.990   1.035   6.119
  474ACTN    C1 5199   7.059   1.142   5.920
  474ACTN    H1 5200   7.038   1.234   5.867
  474ACTN    H2 5201   7.038   1.058   5.855
  474ACTN    H3 5202   7.165   1.142   5.944
  475ACTN    H6 5203   0.968   3.633   2.422
  475ACTN    C3 5204   0.888   3.585   2.476
  475ACTN    H4 5205   0.794   3.633   2.448
  475ACTN    H5 5206   0.883   3.481   2.445
  475ACTN    C2 5207   0.911   3.594   2.624
  475ACTN    O1 5208   1.006   3.535   2.674
  475ACTN    C1 5209   0.811   3.667   2.708
  475ACTN    H1 5210   0.842   3.671   2.812
  475ACTN    H2 5211   0.715   3.617   2.703
  475ACTN    H3 5212   0.799   3.769   2.673
  476ACTN    H6 5213   1.812   6.134   5.811
  476ACTN    C3 5214   1.709   6.160   5.788
  476ACTN    H4 5215   1.660   6.188   5.881
  476ACTN    H5 5216   1.709   6.246   5.722
  476ACTN    C2 5217   1.640   6.044   5.723
  476ACTN    O1 5218   1.687   5.996   5.620
  476ACTN    C1 5219   1.518   5.985   5.786
  476ACTN    H1 5220   1.435   5.987   5.715
  476ACTN    H2 5221   1.488   6.040   5.874
  476ACTN    H3 5222   1.537   5.881   5.814
  477ACTN    H6 5223   4.682   1.850   1.100
  477ACTN    C3 5224   4.731   1.870   1.194
  477ACTN    H4 5225   4.837   1.852   1.182
  477ACTN    H5 5226   4.717   1.976   1.218
  477ACTN    C2 5227   4.675   1.784   1.304
  477ACTN    O1 5228   4.576   1.715   1.285
  477ACTN    C1 5229   4.737   1.791   1.440
  477ACTN    H1 5230   4.844   1.768   1.434
  477ACTN    H2 5231   4.691   1.720   1.508
  477ACTN    H3 5232   4.726   1.891   1.482
  478ACTN    H6 5233   1.028   0.060   3.469
  478ACTN    C3 5234   0.940   0.065   3.532
  478ACTN    H4 5235   0.959   0.006   3.622
  478ACTN    H5 5236   0.857   0.020   3.479
  478ACTN    C2 5237   0.909   0.207   3.567
  478ACTN    O1 5238   0.877   0.286   3.479
  478ACTN    C1 5239   0.911   0.248   3.711
  478ACTN    H1 5240   0.832   0.197   3.766
  478ACTN    H2 5241   0.896   0.356   3.722
  478ACTN    H3 5242   1.006   0.222   3.756
  479ACTN    H6 5243   1.676   3.947   3.268
  479ACTN    C3 5244   1.728   3.892   3.347
  479ACTN    H4 5245   1.656   3.834   3.403
  479ACTN    H5 5246   1.798   3.823   3.300
  479ACTN    C2 5247   1.800   3.987   3.438
  479ACTN    O1 5248   1.736   4.069   3.503
  479ACTN    C1 5249   1.949   3.978   3.449
  479ACTN    H1 5250   1.995   3.986   3.351
  479ACTN    H2 5251   1.977   3.883   3.493
  479ACTN    H3 5252   1.989   4.058   3.511
  480ACTN    H6 5253   0.361   5.164   1.194
  480ACTN    C3 5254   0.370   5.252   1.130
  480ACTN    H4 5255   0.476   5.270   1.112
  480ACTN    H5 5256   0.322   5.229   1.035
  480ACTN    C2 5257   0.307   5.371   1.195
  480ACTN    O1 5258   0.341   5.404   1.308
  480ACTN    C1 5259   0.200   5.446   1.121
  480ACTN    H1 5260   0.115   5.381   1.102
  480ACTN    H2 5261   0.239   5.482   1.026
  480ACTN    H3 5262   0.166   5.531   1.179
  481ACTN    H6 5263   2.446   5.220   6.852
  481ACTN    C3 5264   2.440   5.111   6.851
  481ACTN    H4 5265   2.499   5.073   6.934
  481ACTN    H5 5266   2.336   5.082   6.868
  481ACTN    C2 5267   2.488   5.057   6.720
  481ACTN    O1 5268   2.586   4.983   6.715
  481ACTN    C1 5269   2.416   5.095   6.595
  481ACTN    H1 5270   2.485   5.142   6.525
  481ACTN    H2 5271   2.335   5.164   6.616
  481ACTN    H3 5272   2.375   5.006   6.548
  482ACTN    H6 5273   0.759   2.238   2.710
  482ACTN    C3 5274   0.768   2.130   2.697
  482ACTN    H4 5275   0.866   2.109   2.654
  482ACTN    H5 5276   0.762   2.083   2.794
  482ACTN    C2 5277   0.658   2.079   2.609
  482ACTN    O1 5278   0.683   2.015   2.507
  482ACTN    C1 5279   0.516   2.105   2.648
  482ACTN    H1 5280   0.464   2.159   2.569
  482ACTN    H2 5281   0.511   2.164   2.738
  482ACTN    H3 5282   0.464   2.011   2.665
  483ACTN    H6 5283   0.210   6.166   5.477
  483ACTN    C3 5284   0.190   6.148   5.372
  483ACTN    H4 5285   0.285   6.153   5.319
  483ACTN    H5 5286   0.151   6.047   5.362
  483ACTN    C2 5287   0.092   6.246   5.315
  483ACTN    O1 5288   0.029   6.323   5.387
  483ACTN    C1 5289   0.064   6.239   5.168
  483ACTN    H1 5290   8.997   6.319   5.136
  483ACTN    H2 5291   0.019   6.144   5.143
  483ACTN    H3 5292   0.157   6.248   5.112
  484ACTN    H6 5293   0.720   6.041   2.940
  484ACTN    C3 5294   0.654   6.113   2.891
  484ACTN    H4 5295   0.554   6.072   2.890
  484ACTN    H5 5296   0.654   6.204   2.950
  484ACTN    C2 5297   0.700   6.142   2.751
  484ACTN    O1 5298   0.641   6.225   2.684
  484ACTN    C1 5299   0.823   6.076   2.698
  484ACTN    H1 5300   0.797   6.013   2.612
  484ACTN    H2 5301   0.870   6.013   2.773
  484ACTN    H3 5302   0.895   6.150   2.665
  485ACTN    H6 5303   6.262   6.953   4.324
  485ACTN    C3 5304   6.315   6.961   4.229
  485ACTN    H4 5305   6.365   6.867   4.210
  485ACTN    H5 5306   6.242   6.978   4.151
  485ACTN    C2 5307   6.412   7.075   4.235
  485ACTN    O1 5308   6.531   7.056   4.211
  485ACTN    C1 5309   6.361   7.212   4.266
  485ACTN    H1 5310   6.317   7.213   4.366
  485ACTN    H2 5311   6.284   7.240   4.195
  485ACTN    H3 5312   6.440   7.286   4.263
  486ACTN    H6 5313   6.956   6.306   1.847
  486ACTN    C3 5314   6.991   6.408   1.830
  486ACTN    H4 5315   7.051   6.408   1.740
  486ACTN    H5 5316   6.904   6.471   1.813
  486ACTN    C2 5317   7.069   6.456   1.948
  486ACTN    O1 5318   7.182   6.413   1.971
  486ACTN    C1 5319   7.011   6.566   2.032
  486ACTN    H1 5320   6.914   6.537   2.069
  486ACTN    H2 5321   6.999   6.657   1.973
  486ACTN    H3 5322   7.075   6.589   2.117
  487ACTN    H6 5323   0.932   6.940   1.651
  487ACTN    C3 5324   0.877   6.847   1.655
  487ACTN    H4 5325   0.923   6.777   1.586
  487ACTN    H5 5326   0.886   6.806   1.756
  487ACTN    C2 5327   0.733   6.870   1.622
  487ACTN    O1 5328   0.679   6.807   1.531
  487ACTN    C1 5329   0.654   6.966   1.706
  487ACTN    H1 5330   0.554   6.979   1.667
  487ACTN    H2 5331   0.703   7.063   1.709
  487ACTN    H3 5332   0.647   6.929   1.808
  488ACTN    H6 5333   0.606   1.401   5.984
  488ACTN    C3 5334   0.676   1.482   5.966
  488ACTN    H4 5335   0.645   1.535   5.876
  488ACTN    H5 5336   0.669   1.552   6.050
  488ACTN    C2 5337   0.816   1.429   5.954
  488ACTN    O1 5338   0.883   1.455   5.855
  488ACTN    C1 5339   0.873   1.349   6.066
  488ACTN    H1 5340   0.961   1.398   6.107
  488ACTN    H2 5341   0.902   1.250   6.030
  488ACTN    H3 5342   0.800   1.335   6.146
  489ACTN    H6 5343   5.577   2.212   4.477
  489ACTN    C3 5344   5.613   2.111   4.457
  489ACTN    H4 5345   5.689   2.086   4.530
  489ACTN    H5 5346   5.529   2.042   4.470
  489ACTN    C2 5347   5.669   2.103   4.318
  489ACTN    O1 5348   5.630   2.018   4.239
  489ACTN    C1 5349   5.780   2.196   4.280
  489ACTN    H1 5350   5.869   2.140   4.252
  489ACTN    H2 5351   5.806   2.262   4.363
  489ACTN    H3 5352   5.750   2.258   4.196
  490ACTN    H6 5353   1.034   1.891   6.582
  490ACTN    C3 5354   1.025   1.829   6.671
  490ACTN    H4 5355   0.984   1.890   6.751
  490ACTN    H5 5356   0.956   1.748   6.650
  490ACTN    C2 5357   1.160   1.776   6.710
  490ACTN    O1 5358   1.251   1.854   6.738
  490ACTN    C1 5359   1.180   1.628   6.718
  490ACTN    H1 5360   1.280   1.603   6.752
  490ACTN    H2 5361   1.166   1.583   6.620
  490ACTN    H3 5362   1.109   1.584   6.787
  491ACTN    H6 5363   2.165   5.271   6.900
  491ACTN    C3 5364   2.069   5.296   6.854
  491ACTN    H4 5365   1.990   5.257   6.917
  491ACTN    H5 5366   2.060   5.405   6.852
  491ACTN    C2 5367   2.060   5.239   6.716
  491ACTN    O1 5368   2.074   5.118   6.699
  491ACTN    C1 5369   2.039   5.331   6.601
  491ACTN    H1 5370   2.034   5.277   6.506
  491ACTN    H2 5371   2.121   5.402   6.594
  491ACTN    H3 5372   1.947   5.386   6.613
  492ACTN    H6 5373   5.354   0.460   4.488
  492ACTN    C3 5374   5.302   0.551   4.456
  492ACTN    H4 5375   5.372   0.634   4.461
  492ACTN    H5 5376   5.271   0.538   4.353
  492ACTN    C2 5377   5.185   0.575   4.547
  492ACTN    O1 5378   5.071   0.573   4.503
  492ACTN    C1 5379   5.212   0.608   4.690
  492ACTN    H1 5380   5.119   0.621   4.746
  492ACTN    H2 5381   5.270   0.700   4.698
  492ACTN    H3 5382   5.269   0.528   4.736
  493ACTN    H6 5383   0.386   7.087   4.434
  493ACTN    C3 5384   0.466   7.105   4.506
  493ACTN    H4 5385   0.424   7.156   4.592
  493ACTN    H5 5386   0.505   7.009   4.539
  493ACTN    C2 5387   0.575   7.187   4.445
  493ACTN    O1 5388   0.562   7.236   4.333
  493ACTN    C1 5389   0.696   7.218   4.528
  493ACTN    H1 5390   0.785   7.174   4.483
  493ACTN    H2 5391   0.686   7.178   4.628
  493ACTN    H3 5392   0.711   7.325   4.535
  494ACTN    H6 5393   0.600   1.783   6.341
  494ACTN    C3 5394   0.561   1.685   6.365
  494ACTN    H4 5395   0.453   1.691   6.373
  494ACTN    H5 5396   0.586   1.617   6.283
  494ACTN    C2 5397   0.620   1.637   6.494
  494ACTN    O1 5398   0.608   1.704   6.596
  494ACTN    C1 5399   0.688   1.504   6.497
  494ACTN    H1 5400   0.618   1.425   6.472
  494ACTN    H2 5401   0.730   1.482   6.595
  494ACTN    H3 5402   0.770   1.502   6.425
  495ACTN    H6 5403   5.557   0.096   0.336
  495ACTN    C3 5404   5.590   0.173   0.406
  495ACTN    H4 5405   5.509   0.246   0.414
  495ACTN    H5 5406   5.606   0.128   0.504
  495ACTN    C2 5407   5.714   0.240   0.357
  495ACTN    O1 5408   5.769   0.326   0.427
  495ACTN    C1 5409   5.775   0.195   0.228
  495ACTN    H1 5410   5.864   0.252   0.204
  495ACTN    H2 5411   5.704   0.207   0.147
  495ACTN    H3 5412   5.803   0.090   0.234
  496ACTN    H6 5413   0.760   6.662   4.163
  496ACTN    C3 5414   0.806   6.754   4.199
  496ACTN    H4 5415   0.879   6.728   4.275
  496ACTN    H5 5416   0.858   6.801   4.115
  496ACTN    C2 5417   0.701   6.846   4.253
  496ACTN    O1 5418   0.701   6.878   4.372
  496ACTN    C1 5419   0.593   6.895   4.161
  496ACTN    H1 5420   0.532   6.811   4.128
  496ACTN    H2 5421   0.638   6.941   4.073
  496ACTN    H3 5422   0.530   6.968   4.209
  497ACTN    H6 5423   0.669   6.555   2.819
  497ACTN    C3 5424   0.600   6.551   2.903
  497ACTN    H4 5425   0.503   6.587   2.869
  497ACTN    H5 5426   0.589   6.448   2.934
  497ACTN    C2 5427   0.649   6.635   3.017
  497ACTN    O1 5428   0.758   6.690   3.013
  497ACTN    C1 5429   0.565   6.642   3.141
  497ACTN    H1 5430   0.612   6.703   3.218
  497ACTN    H2 5431   0.547   6.542   3.181
  497ACTN    H3 5432   0.468   6.687   3.117
  498ACTN    H6 5433   7.123   5.129   3.616
  498ACTN    C3 5434   7.180   5.183   3.541
  498ACTN    H4 5435   7.150   5.146   3.443
  498ACTN    H5 5436   7.155   5.289   3.547
  498ACTN    C2 5437   7.327   5.161   3.561
  498ACTN    O1 5438   7.403   5.255   3.581
  498ACTN    C1 5439   7.380   5.021   3.553
  498ACTN    H1 5440   7.331   4.958   3.627
  498ACTN    H2 5441   7.487   5.018   3.572
  498ACTN    H3 5442   7.361   4.979   3.455
  499ACTN    H6 5443   6.500   8.919   3.670
  499ACTN    C3 5444   6.506   8.936   3.777
  499ACTN    H4 5445   6.406   8.924   3.818
  499ACTN    H5 5446   6.571   8.861   3.821
  499ACTN    C2 5447   6.557   0.074   3.806
  499ACTN    O1 5448   6.560   0.114   3.922
  499ACTN    C1 5449   6.598   0.161   3.692
  499ACTN    H1 5450   6.512   0.182   3.628
  499ACTN    H2 5451   6.673   0.111   3.632
  499ACTN    H3 5452   6.638   0.256   3.726
  500ACTN    H6 5453   2.717   1.490   5.383
  500ACTN    C3 5454   2.632   1.429   5.354
  500ACTN    H4 5455   2.619   1.435   5.247
  500ACTN    H5 5456   2.653   1.325   5.381
  500ACTN    C2 5457   2.508   1.474   5.425
  500ACTN    O1 5458   2.400   1.421   5.399
  500ACTN    C1 5459   2.515   1.585   5.526
  500ACTN    H1 5460   2.455   1.669   5.493
  500ACTN    H2 5461   2.617   1.618   5.540
  500ACTN    H3 5462   2.477   1.550   5.622
  501ACTN    H6 5463   7.053   5.786   5.583
  501ACTN    C3 5464   7.082   5.682   5.568
  501ACTN    H4 5465   7.186   5.681   5.534
  501ACTN    H5 5466   7.076   5.631   5.663
  501ACTN    C2 5467   6.995   5.615   5.467
  501ACTN    O1 5468   6.911   5.678   5.403
  501ACTN    C1 5469   7.016   5.470   5.437
  501ACTN    H1 5470   7.038   5.456   5.331
  501ACTN    H2 5471   6.927   5.412   5.462
  501ACTN    H3 5472   7.099   5.430   5.495
  502ACTN    H6 5473   4.326   7.068   0.322
  502ACTN    C3 5474   4.274   7.141   0.382
  502ACTN    H4 5475   4.304   7.130   0.486
  502ACTN    H5 5476   4.304   7.240   0.349
  502ACTN    C2 5477   4.126   7.123   0.369
  502ACTN    O1 5478   4.059   7.205   0.307
  502ACTN    C1 5479   4.061   7.000   0.424
  502ACTN    H1 5480   4.007   6.946   0.346
  502ACTN    H2 5481   3.989   7.026   0.502
  502ACTN    H3 5482   4.134   6.932   0.466
  503ACTN    H6 5483   4.816   3.523   0.671
  503ACTN    C3 5484   4.725   3.463   0.662
  503ACTN    H4 5485   4.639   3.529   0.671
  503ACTN    H5 5486   4.724   3.417   0.563
  503ACTN    C2 5487   4.723   3.357   0.768
  503ACTN    O1 5488   4.809   3.269   0.770
  503ACTN    C1 5489   4.610   3.355   0.866
  503ACTN    H1 5490   4.516   3.337   0.815
  503ACTN    H2 5491   4.603   3.451   0.917
  503ACTN    H3 5492   4.623   3.278   0.941
  504ACTN    H6 5493   2.664   2.217   5.485
  504ACTN    C3 5494   2.655   2.262   5.387
  504ACTN    H4 5495   2.603   2.192   5.322
  504ACTN    H5 5496   2.593   2.351   5.396
  504ACTN    C2 5497   2.790   2.297   5.333
  504ACTN    O1 5498   2.830   2.249   5.227
  504ACTN    C1 5499   2.872   2.397   5.409
  504ACTN    H1 5500   2.969   2.412   5.362
  504ACTN    H2 5501   2.889   2.362   5.510
  504ACTN    H3 5502   2.821   2.493   5.413
  505ACTN    H6 5503   6.048   4.540   6.178
  505ACTN    C3 5504   6.080   4.448   6.226
  505ACTN    H4 5505   6.019   4.367   6.186
  505ACTN    H5 5506   6.183   4.429   6.199
  505ACTN    C2 5507   6.064   4.458   6.374
  505ACTN    O1 5508   5.954   4.482   6.423
  505ACTN    C1 5509   6.183   4.435   6.462
  505ACTN    H1 5510   6.155   4.438   6.567
  505ACTN    H2 5511   6.258   4.512   6.445
  505ACTN    H3 5512   6.228   4.338   6.441
  506ACTN    H6 5513   6.695   1.771   3.177
  506ACTN    C3 5514   6.774   1.703   3.148
  506ACTN    H4 5515   6.869   1.756   3.152
  506ACTN    H5 5516   6.757   1.670   3.046
  506ACTN    C2 5517   6.781   1.585   3.240
  506ACTN    O1 5518   6.701   1.574   3.332
  506ACTN    C1 5519   6.885   1.481   3.214
  506ACTN    H1 5520   6.869   1.434   3.117
  506ACTN    H2 5521   6.882   1.404   3.291
  506ACTN    H3 5522   6.983   1.526   3.215
  507ACTN    H6 5523   2.306   4.052   2.408
  507ACTN    C3 5524   2.330   4.089   2.308
  507ACTN    H4 5525   2.395   4.175   2.319
  507ACTN    H5 5526   2.238   4.121   2.261
  507ACTN    C2 5527   2.397   3.982   2.228
  507ACTN    O1 5528   2.493   3.920   2.274
  507ACTN    C1 5529   2.341   3.948   2.093
  507ACTN    H1 5530   2.336   4.037   2.031
  507ACTN    H2 5531   2.241   3.908   2.104
  507ACTN    H3 5532   2.403   3.875   2.042
  508ACTN    H6 5533   5.668   4.678   2.212
  508ACTN    C3 5534   5.706   4.704   2.311
  508ACTN    H4 5535   5.783   4.780   2.300
  508ACTN    H5 5536   5.753   4.615   2.353
  508ACTN    C2 5537   5.595   4.753   2.399
  508ACTN    O1 5538   5.535   4.856   2.371
  508ACTN    C1 5539   5.566   4.680   2.526
  508ACTN    H1 5540   5.652   4.687   2.593
  508ACTN    H2 5541   5.548   4.575   2.506
  508ACTN    H3 5542   5.479   4.720   2.577
  509ACTN    H6 5543   2.321   6.466   5.095
  509ACTN    C3 5544   2.421   6.431   5.067
  509ACTN    H4 5545   2.415   6.388   4.967
  509ACTN    H5 5546   2.487   6.517   5.062
  509ACTN    C2 5547   2.471   6.332   5.167
  509ACTN    O1 5548   2.491   6.366   5.283
  509ACTN    C1 5549   2.503   6.192   5.125
  509ACTN    H1 5550   2.437   6.122   5.176
  509ACTN    H2 5551   2.606   6.168   5.151
  509ACTN    H3 5552   2.490   6.179   5.018
  510ACTN    H6 5553   1.249   1.489   1.191
  510ACTN    C3 5554   1.199   1.398   1.224
  510ACTN    H4 5555   1.158   1.415   1.323
  510ACTN    H5 5556   1.117   1.377   1.156
  510ACTN    C2 5557   1.294   1.282   1.227
  510ACTN    O1 5558   1.413   1.298   1.200
  510ACTN    C1 5559   1.241   1.149   1.268
  510ACTN    H1 5560   1.198   1.154   1.368
  510ACTN    H2 5561   1.319   1.073   1.269
  510ACTN    H3 5562   1.163   1.116   1.199
  511ACTN    H6 5563   1.067   3.058   4.138
  511ACTN    C3 5564   1.110   2.976   4.082
  511ACTN    H4 5565   1.182   3.016   4.012
  511ACTN    H5 5566   1.162   2.911   4.152
  511ACTN    C2 5567   1.001   2.900   4.012
  511ACTN    O1 5568   1.010   2.873   3.893
  511ACTN    C1 5569   0.885   2.849   4.092
  511ACTN    H1 5570   0.878   2.740   4.084
  511ACTN    H2 5571   0.793   2.893   4.057
  511ACTN    H3 5572   0.897   2.874   4.198
  512ACTN    H6 5573   1.418   7.182   3.200
  512ACTN    C3 5574   1.408   7.199   3.093
  512ACTN    H4 5575   1.336   7.128   3.053
  512ACTN    H5 5576   1.368   7.299   3.077
  512ACTN    C2 5577   1.540   7.185   3.025
  512ACTN    O1 5578   1.635   7.256   3.058
  512ACTN    C1 5579   1.557   7.081   2.918
  512ACTN    H1 5580   1.656   7.083   2.875
  512ACTN    H2 5581   1.484   7.096   2.839
  512ACTN    H3 5582   1.540   6.982   2.961
  513ACTN    H6 5583   5.300   3.393   0.207
  513ACTN    C3 5584   5.229   3.442   0.273
  513ACTN    H4 5585   5.267   3.540   0.298
  513ACTN    H5 5586   5.135   3.454   0.219
  513ACTN    C2 5587   5.206   3.361   0.397
  513ACTN    O1 5588   5.138   3.406   0.489
  513ACTN    C1 5589   5.276   3.229   0.411
  513ACTN    H1 5590   5.247   3.163   0.330
  513ACTN    H2 5591   5.250   3.180   0.505
  513ACTN    H3 5592   5.383   3.243   0.409
  514ACTN    H6 5593   2.696   3.598   7.305
  514ACTN    C3 5594   2.592   3.626   7.301
  514ACTN    H4 5595   2.585   3.727   7.261
  514ACTN    H5 5596   2.552   3.626   7.402
  514ACTN    C2 5597   2.516   3.530   7.214
  514ACTN    O1 5598   2.426   3.460   7.259
  514ACTN    C1 5599   2.557   3.519   7.070
  514ACTN    H1 5600   2.660   3.486   7.062
  514ACTN    H2 5601   2.548   3.615   7.021
  514ACTN    H3 5602   2.495   3.447   7.017
  515ACTN    H6 5603   2.725   5.802   5.767
  515ACTN    C3 5604   2.776   5.885   5.718
  515ACTN    H4 5605   2.721   5.976   5.739
  515ACTN    H5 5606   2.875   5.894   5.761
  515ACTN    C2 5607   2.784   5.860   5.571
  515ACTN    O1 5608   2.841   5.760   5.528
  515ACTN    C1 5609   2.721   5.958   5.476
  515ACTN    H1 5610   2.614   5.964   5.495
  515ACTN    H2 5611   2.736   5.928   5.373
  515ACTN    H3 5612   2.764   6.057   5.490
  516ACTN    H6 5613   2.933   6.725   2.572
  516ACTN    C3 5614   2.885   6.819   2.598
  516ACTN    H4 5615   2.934   6.899   2.544
  516ACTN    H5 5616   2.781   6.814   2.565
  516ACTN    C2 5617   2.890   6.844   2.745
  516ACTN    O1 5618   2.950   6.767   2.821
  516ACTN    C1 5619   2.825   6.968   2.798
  516ACTN    H1 5620   2.720   6.968   2.773
  516ACTN    H2 5621   2.872   7.055   2.755
  516ACTN    H3 5622   2.834   6.973   2.907
  517ACTN    H6 5623   3.621   2.119   3.655
  517ACTN    C3 5624   3.578   2.214   3.624
  517ACTN    H4 5625   3.542   2.266   3.713
  517ACTN    H5 5626   3.655   2.274   3.578
  517ACTN    C2 5627   3.464   2.193   3.529
  517ACTN    O1 5628   3.431   2.081   3.493
  517ACTN    C1 5629   3.396   2.314   3.471
  517ACTN    H1 5630   3.293   2.320   3.507
  517ACTN    H2 5631   3.393   2.308   3.363
  517ACTN    H3 5632   3.448   2.405   3.500
  518ACTN    H6 5633   1.347   0.094   5.012
  518ACTN    C3 5634   1.368   0.154   5.100
  518ACTN    H4 5635   1.357   0.091   5.188
  518ACTN    H5 5636   1.472   0.188   5.094
  518ACTN    C2 5637   1.276   0.272   5.106
  518ACTN    O1 5638   1.276   0.355   5.016
  518ACTN    C1 5639   1.184   0.289   5.224
  518ACTN    H1 5640   1.208   0.380   5.278
  518ACTN    H2 5641   1.192   0.205   5.293
  518ACTN    H3 5642   1.081   0.296   5.190
  519ACTN    H6 5643   1.820   3.078   4.780
  519ACTN    C3 5644   1.924   3.094   4.808
  519ACTN    H4 5645   1.974   3.146   4.726
  519ACTN    H5 5646   1.926   3.158   4.896
  519ACTN    C2 5647   1.993   2.964   4.837
  519ACTN    O1 5648   1.932   2.858   4.829
  519ACTN    C1 5649   2.138   2.966   4.875
  519ACTN    H1 5650   2.195   2.905   4.805
  519ACTN    H2 5651   2.151   2.926   4.975
  519ACTN    H3 5652   2.177   3.067   4.872
  520ACTN    H6 5653   0.157   2.644   1.596
  520ACTN    C3 5654   0.174   2.554   1.538
  520ACTN    H4 5655   0.166   2.468   1.604
  520ACTN    H5 5656   0.096   2.547   1.463
  520ACTN    C2 5657   0.309   2.556   1.472
  520ACTN    O1 5658   0.380   2.656   1.479
  520ACTN    C1 5659   0.353   2.436   1.394
  520ACTN    H1 5660   0.354   2.348   1.458
  520ACTN    H2 5661   0.453   2.450   1.353
  520ACTN    H3 5662   0.285   2.418   1.312
  521ACTN    H6 5663   2.722   6.203   3.550
  521ACTN    C3 5664   2.725   6.199   3.659
  521ACTN    H4 5665   2.624   6.184   3.696
  521ACTN    H5 5666   2.785   6.113   3.688
  521ACTN    C2 5667   2.787   6.324   3.714
  521ACTN    O1 5668   2.726   6.393   3.795
  521ACTN    C1 5669   2.927   6.358   3.675
  521ACTN    H1 5670   2.994   6.279   3.708
  521ACTN    H2 5671   2.959   6.452   3.720
  521ACTN    H3 5672   2.935   6.367   3.567
  522ACTN    H6 5673   6.640   0.356   4.193
  522ACTN    C3 5674   6.687   0.381   4.099
  522ACTN    H4 5675   6.778   0.322   4.089
  522ACTN    H5 5676   6.620   0.355   4.018
  522ACTN    C2 5677   6.718   0.527   4.093
  522ACTN    O1 5678   6.630   0.608   4.121
  522ACTN    C1 5679   6.858   0.573   4.063
  522ACTN    H1 5680   6.893   0.642   4.139
  522ACTN    H2 5681   6.860   0.623   3.966
  522ACTN    H3 5682   6.926   0.488   4.059
  523ACTN    H6 5683   0.328   1.725   5.860
  523ACTN    C3 5684   0.374   1.709   5.957
  523ACTN    H4 5685   0.369   1.603   5.981
  523ACTN    H5 5686   0.478   1.738   5.950
  523ACTN    C2 5687   0.302   1.789   6.062
  523ACTN    O1 5688   0.186   1.762   6.091
  523ACTN    C1 5689   0.376   1.895   6.138
  523ACTN    H1 5690   0.482   1.895   6.113
  523ACTN    H2 5691   0.366   1.880   6.245
  523ACTN    H3 5692   0.336   1.993   6.113
  524ACTN    H6 5693   3.672   3.701   6.679
  524ACTN    C3 5694   3.618   3.624   6.623
  524ACTN    H4 5695   3.669   3.610   6.528
  524ACTN    H5 5696   3.518   3.661   6.602
  524ACTN    C2 5697   3.614   3.496   6.700
  524ACTN    O1 5698   3.718   3.435   6.721
  524ACTN    C1 5699   3.483   3.440   6.746
  524ACTN    H1 5700   3.401   3.505   6.719
  524ACTN    H2 5701   3.483   3.426   6.853
  524ACTN    H3 5702   3.466   3.343   6.699
  525ACTN    H6 5703   7.130   4.542   4.519
  525ACTN    C3 5704   7.026   4.513   4.528
  525ACTN    H4 5705   6.966   4.586   4.474
  525ACTN    H5 5706   7.013   4.416   4.480
  525ACTN    C2 5707   6.985   4.506   4.672
  525ACTN    O1 5708   7.043   4.430   4.748
  525ACTN    C1 5709   6.880   4.598   4.725
  525ACTN    H1 5710   6.915   4.650   4.814
  525ACTN    H2 5711   6.790   4.541   4.751
  525ACTN    H3 5712   6.853   4.673   4.651
  526ACTN    H6 5713   6.587   3.690   4.093
  526ACTN    C3 5714   6.515   3.760   4.049
  526ACTN    H4 5715   6.467   3.815   4.129
  526ACTN    H5 5716   6.571   3.830   3.987
  526ACTN    C2 5717   6.413   3.685   3.969
  526ACTN    O1 5718   6.410   3.694   3.847
  526ACTN    C1 5719   6.322   3.591   4.041
  526ACTN    H1 5720   6.380   3.509   4.084
  526ACTN    H2 5721   6.248   3.548   3.974
  526ACTN    H3 5722   6.271   3.643   4.121
  527ACTN    H6 5723   3.260   6.926   4.804
  527ACTN    C3 5724   3.198   6.905   4.717
  527ACTN    H4 5725   3.254   6.843   4.649
  527ACTN    H5 5726   3.110   6.851   4.750
  527ACTN    C2 5727   3.158   7.032   4.648
  527ACTN    O1 5728   3.081   7.029   4.553
  527ACTN    C1 5729   3.207   7.162   4.703
  527ACTN    H1 5730   3.176   7.246   4.641
  527ACTN    H2 5731   3.316   7.162   4.709
  527ACTN    H3 5732   3.167   7.178   4.803
  528ACTN    H6 5733   2.378   4.866   2.934
  528ACTN    C3 5734   2.428   4.854   3.029
  528ACTN    H4 5735   2.383   4.922   3.101
  528ACTN    H5 5736   2.411   4.753   3.064
  528ACTN    C2 5737   2.575   4.880   3.018
  528ACTN    O1 5738   2.619   4.946   2.923
  528ACTN    C1 5739   2.664   4.849   3.134
  528ACTN    H1 5740   2.717   4.938   3.168
  528ACTN    H2 5741   2.737   4.773   3.106
  528ACTN    H3 5742   2.606   4.810   3.217
  529ACTN    H6 5743   1.987   5.428   4.196
  529ACTN    C3 5744   2.079   5.386   4.159
  529ACTN    H4 5745   2.161   5.451   4.188
  529ACTN    H5 5746   2.075   5.384   4.050
  529ACTN    C2 5747   2.099   5.247   4.211
  529ACTN    O1 5748   2.197   5.219   4.278
  529ACTN    C1 5749   1.992   5.145   4.186
  529ACTN    H1 5750   1.909   5.188   4.130
  529ACTN    H2 5751   1.954   5.106   4.280
  529ACTN    H3 5752   2.032   5.062   4.128
  530ACTN    H6 5753   4.644   4.507   0.572
  530ACTN    C3 5754   4.639   4.576   0.488
  530ACTN    H4 5755   4.676   4.673   0.522
  530ACTN    H5 5756   4.706   4.540   0.410
  530ACTN    C2 5757   4.499   4.585   0.437
  530ACTN    O1 5758   4.440   4.693   0.432
  530ACTN    C1 5759   4.432   4.462   0.385
  530ACTN    H1 5760   4.500   4.377   0.388
  530ACTN    H2 5761   4.400   4.476   0.282
  530ACTN    H3 5762   4.345   4.438   0.445
  531ACTN    H6 5763   1.132   0.511   4.160
  531ACTN    C3 5764   1.087   0.442   4.232
  531ACTN    H4 5765   1.148   0.352   4.235
  531ACTN    H5 5766   1.091   0.489   4.330
  531ACTN    C2 5767   0.946   0.409   4.195
  531ACTN    O1 5768   0.881   0.333   4.266
  531ACTN    C1 5769   0.888   0.465   4.069
  531ACTN    H1 5770   0.782   0.441   4.060
  531ACTN    H2 5771   0.939   0.424   3.983
  531ACTN    H3 5772   0.900   0.573   4.067
  532ACTN    H6 5773   1.579   5.707   7.084
  532ACTN    C3 5774   1.646   5.676   7.164
  532ACTN    H4 5775   1.648   5.756   7.238
  532ACTN    H5 5776   1.605   5.587   7.211
  532ACTN    C2 5777   1.783   5.649   7.109
  532ACTN    O1 5778   1.879   5.716   7.145
  532ACTN    C1 5779   1.799   5.540   7.008
  532ACTN    H1 5780   1.705   5.490   6.987
  532ACTN    H2 5781   1.870   5.466   7.044
  532ACTN    H3 5782   1.837   5.581   6.914
  533ACTN    H6 5783   3.797   3.830   7.025
  533ACTN    C3 5784   3.797   3.904   7.105
  533ACTN    H4 5785   3.703   3.896   7.159
  533ACTN    H5 5786   3.877   3.879   7.173
  533ACTN    C2 5787   3.814   4.042   7.052
  533ACTN    O1 5788   3.816   4.064   6.931
  533ACTN    C1 5789   3.829   4.155   7.149
  533ACTN    H1 5790   3.750   4.229   7.131
  533ACTN    H2 5791   3.925   4.204   7.137
  533ACTN    H3 5792   3.820   4.120   7.251
  534ACTN    H6 5793   0.525   2.023   1.660
  534ACTN    C3 5794   0.488   2.123   1.682
  534ACTN    H4 5795   0.416   2.150   1.606
  534ACTN    H5 5796   0.437   2.119   1.778
  534ACTN    C2 5797   0.600   2.223   1.687
  534ACTN    O1 5798   0.715   2.190   1.663
  534ACTN    C1 5799   0.567   2.366   1.719
  534ACTN    H1 5800   0.596   2.431   1.637
  534ACTN    H2 5801   0.620   2.397   1.808
  534ACTN    H3 5802   0.460   2.378   1.737
  535ACTN    H6 5803   5.439   5.880   0.998
  535ACTN    C3 5804   5.400   5.792   1.049
  535ACTN    H4 5805   5.299   5.775   1.015
  535ACTN    H5 5806   5.461   5.707   1.020
  535ACTN    C2 5807   5.403   5.808   1.198
  535ACTN    O1 5808   5.456   5.906   1.249
  535ACTN    C1 5809   5.339   5.703   1.283
  535ACTN    H1 5810   5.261   5.746   1.345
  535ACTN    H2 5811   5.413   5.657   1.348
  535ACTN    H3 5812   5.294   5.625   1.222
  536ACTN    H6 5813   2.421   6.821   6.948
  536ACTN    C3 5814   2.381   6.755   7.024
  536ACTN    H4 5815   2.419   6.786   7.121
  536ACTN    H5 5816   2.273   6.766   7.026
  536ACTN    C2 5817   2.418   6.613   6.994
  536ACTN    O1 5818   2.504   6.556   7.061
  536ACTN    C1 5819   2.363   6.550   6.870
  536ACTN    H1 5820   2.390   6.445   6.864
  536ACTN    H2 5821   2.401   6.601   6.782
  536ACTN    H3 5822   2.254   6.557   6.870
  537ACTN    H6 5823   6.691   7.174   6.151
  537ACTN    C3 5824   6.626   7.100   6.103
  537ACTN    H4 5825   6.566   7.052   6.180
  537ACTN    H5 5826   6.560   7.152   6.035
  537ACTN    C2 5827   6.709   7.000   6.029
  537ACTN    O1 5828   6.791   7.037   5.945
  537ACTN    C1 5829   6.699   6.855   6.067
  537ACTN    H1 5830   6.728   6.842   6.171
  537ACTN    H2 5831   6.763   6.793   6.005
  537ACTN    H3 5832   6.596   6.820   6.056
  538ACTN    H6 5833   0.261   2.267   2.935
  538ACTN    C3 5834   0.281   2.352   2.871
  538ACTN    H4 5835   0.382   2.343   2.831
  538ACTN    H5 5836   0.211   2.350   2.788
  538ACTN    C2 5837   0.264   2.479   2.949
  538ACTN    O1 5838   0.362   2.541   2.990
  538ACTN    C1 5839   0.126   2.518   2.993
  538ACTN    H1 5840   0.122   2.530   3.101
  538ACTN    H2 5841   0.054   2.443   2.963
  538ACTN    H3 5842   0.098   2.613   2.947
  539ACTN    H6 5843   4.104   1.863   0.380
  539ACTN    C3 5844   4.049   1.954   0.403
  539ACTN    H4 5845   4.103   2.039   0.360
  539ACTN    H5 5846   3.951   1.948   0.356
  539ACTN    C2 5847   4.038   1.970   0.552
  539ACTN    O1 5848   3.929   1.969   0.607
  539ACTN    C1 5849   4.164   1.982   0.632
  539ACTN    H1 5850   4.167   2.077   0.683
  539ACTN    H2 5851   4.251   1.974   0.568
  539ACTN    H3 5852   4.168   1.902   0.706
  540ACTN    H6 5853   2.453   0.736   4.080
  540ACTN    C3 5854   2.435   0.742   3.973
  540ACTN    H4 5855   2.384   0.835   3.952
  540ACTN    H5 5856   2.531   0.744   3.923
  540ACTN    C2 5857   2.352   0.626   3.927
  540ACTN    O1 5858   2.399   0.543   3.849
  540ACTN    C1 5859   2.211   0.613   3.973
  540ACTN    H1 5860   2.143   0.616   3.888
  540ACTN    H2 5861   2.184   0.692   4.042
  540ACTN    H3 5862   2.195   0.518   4.024
  541ACTN    H6 5863   2.829   4.806   4.157
  541ACTN    C3 5864   2.834   4.698   4.140
  541ACTN    H4 5865   2.928   4.676   4.090
  541ACTN    H5 5866   2.752   4.670   4.075
  541ACTN    C2 5867   2.827   4.626   4.271
  541ACTN    O1 5868   2.907   4.651   4.359
  541ACTN    C1 5869   2.714   4.530   4.294
  541ACTN    H1 5870   2.721   4.485   4.393
  541ACTN    H2 5871   2.716   4.450   4.221
  541ACTN    H3 5872   2.618   4.581   4.287
  542ACTN    H6 5873   1.609   2.894   4.000
  542ACTN    C3 5874   1.571   2.817   4.066
  542ACTN    H4 5875   1.647   2.739   4.075
  542ACTN    H5 5876   1.556   2.860   4.164
  542ACTN    C2 5877   1.443   2.759   4.014
  542ACTN    O1 5878   1.384   2.674   4.078
  542ACTN    C1 5879   1.388   2.810   3.884
  542ACTN    H1 5880   1.369   2.916   3.891
  542ACTN    H2 5881   1.295   2.760   3.858
  542ACTN    H3 5882   1.459   2.793   3.803
  543ACTN    H6 5883   0.267   5.385   3.168
  543ACTN    C3 5884   0.205   5.309   3.121
  543ACTN    H4 5885   0.101   5.343   3.125
  543ACTN    H5 5886   0.234   5.301   3.016
  543ACTN    C2 5887   0.220   5.176   3.189
  543ACTN    O1 5888   0.146   5.083   3.160
  543ACTN    C1 5889   0.314   5.165   3.305
  543ACTN    H1 5890   0.281   5.230   3.386
  543ACTN    H2 5891   0.414   5.194   3.274
  543ACTN    H3 5892   0.319   5.063   3.343
  544ACTN    H6 5893   3.318   4.810   2.193
  544ACTN    C3 5894   3.253   4.733   2.151
  544ACTN    H4 5895   3.202   4.684   2.234
  544ACTN    H5 5896   3.179   4.782   2.088
  544ACTN    C2 5897   3.331   4.634   2.072
  544ACTN    O1 5898   3.452   4.646   2.057
  544ACTN    C1 5899   3.256   4.520   2.008
  544ACTN    H1 5900   3.325   4.452   1.958
  544ACTN    H2 5901   3.185   4.557   1.935
  544ACTN    H3 5902   3.202   4.464   2.084
  545ACTN    H6 5903   2.979   4.570   2.921
  545ACTN    C3 5904   2.891   4.591   2.861
  545ACTN    H4 5905   2.841   4.496   2.839
  545ACTN    H5 5906   2.822   4.651   2.920
  545ACTN    C2 5907   2.927   4.663   2.736
  545ACTN    O1 5908   2.891   4.623   2.626
  545ACTN    C1 5909   3.001   4.793   2.750
  545ACTN    H1 5910   3.031   4.832   2.653
  545ACTN    H2 5911   3.091   4.778   2.809
  545ACTN    H3 5912   2.939   4.867   2.799
  546ACTN    H6 5913   4.964   2.891   5.854
  546ACTN    C3 5914   4.945   2.785   5.866
  546ACTN    H4 5915   4.851   2.774   5.921
  546ACTN    H5 5916   5.025   2.743   5.927
  546ACTN    C2 5917   4.936   2.714   5.735
  546ACTN    O1 5918   4.920   2.593   5.731
  546ACTN    C1 5919   4.953   2.792   5.608
  546ACTN    H1 5920   5.036   2.751   5.550
  546ACTN    H2 5921   4.974   2.896   5.628
  546ACTN    H3 5922   4.863   2.786   5.547
  547ACTN    H6 5923   5.475   4.925   2.696
  547ACTN    C3 5924   5.428   5.011   2.741
  547ACTN    H4 5925   5.336   5.032   2.688
  547ACTN    H5 5926   5.403   4.987   2.844
  547ACTN    C2 5927   5.520   5.130   2.734
  547ACTN    O1 5928   5.568   5.177   2.837
  547ACTN    C1 5929   5.560   5.182   2.600
  547ACTN    H1 5930   5.527   5.285   2.589
  547ACTN    H2 5931   5.515   5.123   2.520
  547ACTN    H3 5932   5.668   5.180   2.589
  548ACTN    H6 5933   0.345   6.156   4.764
  548ACTN    C3 5934   0.384   6.090   4.841
  548ACTN    H4 5935   0.306   6.020   4.869
  548ACTN    H5 5936   0.467   6.034   4.798
  548ACTN    C2 5937   0.431   6.168   4.960
  548ACTN    O1 5938   0.471   6.109   5.060
  548ACTN    C1 5939   0.420   6.317   4.958
  548ACTN    H1 5940   0.480   6.358   4.877
  548ACTN    H2 5941   0.456   6.361   5.052
  548ACTN    H3 5942   0.317   6.348   4.943
  549ACTN    H6 5943   5.914   6.035   6.079
  549ACTN    C3 5944   5.869   6.073   6.171
  549ACTN    H4 5945   5.911   6.171   6.191
  549ACTN    H5 5946   5.762   6.084   6.154
  549ACTN    C2 5947   5.897   5.979   6.284
  549ACTN    O1 5948   6.013   5.952   6.313
  549ACTN    C1 5949   5.784   5.917   6.360
  549ACTN    H1 5950   5.688   5.950   6.320
  549ACTN    H2 5951   5.789   5.946   6.464
  549ACTN    H3 5952   5.788   5.809   6.353
  550ACTN    H6 5953   0.551   7.191   3.832
  550ACTN    C3 5954   0.494   7.146   3.751
  550ACTN    H4 5955   0.403   7.203   3.739
  550ACTN    H5 5956   0.467   7.045   3.781
  550ACTN    C2 5957   0.573   7.146   3.625
  550ACTN    O1 5958   0.591   7.043   3.562
  550ACTN    C1 5959   0.628   7.276   3.574
  550ACTN    H1 5960   0.736   7.270   3.565
  550ACTN    H2 5961   0.604   7.357   3.642
  550ACTN    H3 5962   0.586   7.300   3.477
  551ACTN    H6 5963   4.534   3.041   6.696
  551ACTN    C3 5964   4.439   3.050   6.747
  551ACTN    H4 5965   4.360   3.053   6.672
  551ACTN    H5 5966   4.438   3.145   6.801
  551ACTN    C2 5967   4.416   2.936   6.842
  551ACTN    O1 5968   4.313   2.930   6.907
  551ACTN    C1 5969   4.521   2.831   6.859
  551ACTN    H1 5970   4.608   2.851   6.797
  551ACTN    H2 5971   4.482   2.733   6.832
  551ACTN    H3 5972   4.554   2.827   6.963
  552ACTN    H6 5973   0.461   3.671   2.849
  552ACTN    C3 5974   0.417   3.577   2.816
  552ACTN    H4 5975   0.484   3.496   2.843
  552ACTN    H5 5976   0.324   3.563   2.871
  552ACTN    C2 5977   0.390   3.577   2.669
  552ACTN    O1 5978   0.443   3.660   2.596
  552ACTN    C1 5979   0.312   3.462   2.612
  552ACTN    H1 5980   0.214   3.457   2.659
  552ACTN    H2 5981   0.364   3.368   2.630
  552ACTN    H3 5982   0.297   3.474   2.505
  553ACTN    H6 5983   2.007   0.381   4.573
  553ACTN    C3 5984   1.905   0.349   4.593
  553ACTN    H4 5985   1.908   0.259   4.653
  553ACTN    H5 5986   1.856   0.427   4.652
  553ACTN    C2 5987   1.832   0.327   4.465
  553ACTN    O1 5988   1.780   0.219   4.440
  553ACTN    C1 5989   1.819   0.440   4.368
  553ACTN    H1 5990   1.871   0.415   4.275
  553ACTN    H2 5991   1.863   0.531   4.408
  553ACTN    H3 5992   1.715   0.459   4.344
  554ACTN    H6 5993   7.477   4.123   1.128
  554ACTN    C3 5994   7.445   4.021   1.108
  554ACTN    H4 5995   7.507   3.955   1.168
  554ACTN    H5 5996   7.463   4.001   1.003
  554ACTN    C2 5997   7.300   4.003   1.141
  554ACTN    O1 5998   7.228   4.099   1.165
  554ACTN    C1 5999   7.243   3.864   1.135
  554ACTN    H1 6000   7.255   3.823   1.035
  554ACTN    H2 6001   7.137   3.864   1.159
  554ACTN    H3 6002   7.295   3.799   1.205
  555ACTN    H6 6003   0.337   5.535   1.727
  555ACTN    C3 6004   0.394   5.456   1.678
  555ACTN    H4 6005   0.361   5.450   1.575
  555ACTN    H5 6006   0.499   5.485   1.678
  555ACTN    C2 6007   0.375   5.326   1.748
  555ACTN    O1 6008   0.264   5.274   1.751
  555ACTN    C1 6009   0.492   5.258   1.811
  555ACTN    H1 6010   0.535   5.321   1.889
  555ACTN    H2 6011   0.569   5.239   1.737
  555ACTN    H3 6012   0.464   5.163   1.856
  556ACTN    H6 6013   4.414   5.710   1.431
  556ACTN    C3 6014   4.390   5.630   1.361
  556ACTN    H4 6015   4.483   5.580   1.335
  556ACTN    H5 6016   4.326   5.559   1.412
  556ACTN    C2 6017   4.323   5.683   1.238
  556ACTN    O1 6018   4.301   5.803   1.225
  556ACTN    C1 6019   4.281   5.587   1.130
  556ACTN    H1 6020   4.329   5.613   1.036
  556ACTN    H2 6021   4.174   5.590   1.116
  556ACTN    H3 6022   4.310   5.485   1.156
  557ACTN    H6 6023   0.306   8.931   3.963
  557ACTN    C3 6024   0.384   8.952   3.891
  557ACTN    H4 6025   0.460   8.875   3.900
  557ACTN    H5 6026   0.342   8.947   3.791
  557ACTN    C2 6027   0.444   0.087   3.917
  557ACTN    O1 6028   0.444   0.173   3.831
  557ACTN    C1 6029   0.505   0.115   4.051
  557ACTN    H1 6030   0.456   0.200   4.098
  557ACTN    H2 6031   0.611   0.138   4.041
  557ACTN    H3 6032   0.494   0.029   4.117
  558ACTN    H6 6033   3.207   2.052   4.306
  558ACTN    C3 6034   3.138   1.987   4.361
  558ACTN    H4 6035   3.179   1.886   4.359
  558ACTN    H5 6036   3.137   2.020   4.465
  558ACTN    C2 6037   3.001   1.991   4.303
  558ACTN    O1 6038   2.978   2.052   4.198
  558ACTN    C1 6039   2.893   1.909   4.367
  558ACTN    H1 6040   2.852   1.837   4.297
  558ACTN    H2 6041   2.811   1.974   4.400
  558ACTN    H3 6042   2.930   1.856   4.454
  559ACTN    H6 6043   4.126   6.083   1.713
  559ACTN    C3 6044   4.214   6.136   1.677
  559ACTN    H4 6045   4.243   6.208   1.753
  559ACTN    H5 6046   4.294   6.064   1.665
  559ACTN    C2 6047   4.183   6.206   1.548
  559ACTN    O1 6048   4.081   6.272   1.537
  559ACTN    C1 6049   4.274   6.188   1.430
  559ACTN    H1 6050   4.221   6.140   1.349
  559ACTN    H2 6051   4.361   6.128   1.456
  559ACTN    H3 6052   4.309   6.285   1.396
  560ACTN    H6 6053   0.503   0.375   4.499
  560ACTN    C3 6054   0.602   0.330   4.502
  560ACTN    H4 6055   0.590   0.224   4.524
  560ACTN    H5 6056   0.646   0.340   4.403
  560ACTN    C2 6057   0.689   0.396   4.604
  560ACTN    O1 6058   0.647   0.489   4.673
  560ACTN    C1 6059   0.827   0.342   4.625
  560ACTN    H1 6060   0.823   0.238   4.656
  560ACTN    H2 6061   0.880   0.398   4.702
  560ACTN    H3 6062   0.884   0.349   4.533
  561ACTN    H6 6063   1.070   0.659   3.242
  561ACTN    C3 6064   1.116   0.722   3.166
  561ACTN    H4 6065   1.117   0.668   3.072
  561ACTN    H5 6066   1.054   0.811   3.153
  561ACTN    C2 6067   1.256   0.758   3.207
  561ACTN    O1 6068   1.281   0.871   3.247
  561ACTN    C1 6069   1.356   0.648   3.221
  561ACTN    H1 6070   1.354   0.585   3.133
  561ACTN    H2 6071   1.335   0.587   3.308
  561ACTN    H3 6072   1.457   0.688   3.230
  562ACTN    H6 6073   6.111   3.168   0.565
  562ACTN    C3 6074   6.068   3.165   0.665
  562ACTN    H4 6075   6.149   3.154   0.736
  562ACTN    H5 6076   6.019   3.260   0.684
  562ACTN    C2 6077   5.971   3.052   0.680
  562ACTN    O1 6078   5.937   2.984   0.583
  562ACTN    C1 6079   5.907   3.031   0.814
  562ACTN    H1 6080   5.984   3.017   0.890
  562ACTN    H2 6081   5.842   2.945   0.814
  562ACTN    H3 6082   5.849   3.119   0.841
  563ACTN    H6 6083   2.150   1.191   4.000
  563ACTN    C3 6084   2.233   1.122   3.983
  563ACTN    H4 6085   2.324   1.181   3.971
  563ACTN    H5 6086   2.244   1.061   4.073
  563ACTN    C2 6087   2.206   1.036   3.864
  563ACTN    O1 6088   2.287   1.028   3.772
  563ACTN    C1 6089   2.080   0.955   3.862
  563ACTN    H1 6090   2.074   0.893   3.952
  563ACTN    H2 6091   2.076   0.889   3.775
  563ACTN    H3 6092   1.994   1.020   3.859
  564ACTN    H6 6093   1.124   5.895   3.023
  564ACTN    C3 6094   1.185   5.805   3.010
  564ACTN    H4 6095   1.220   5.773   3.108
  564ACTN    H5 6096   1.271   5.830   2.949
  564ACTN    C2 6097   1.104   5.698   2.945
  564ACTN    O1 6098   1.078   5.594   3.004
  564ACTN    C1 6099   1.051   5.722   2.806
  564ACTN    H1 6100   0.980   5.804   2.807
  564ACTN    H2 6101   1.002   5.634   2.766
  564ACTN    H3 6102   1.133   5.749   2.739
  565ACTN    H6 6103   3.401   1.207   1.976
  565ACTN    C3 6104   3.488   1.142   1.971
  565ACTN    H4 6105   3.454   1.039   1.975
  565ACTN    H5 6106   3.537   1.158   1.875
  565ACTN    C2 6107   3.583   1.170   2.083
  565ACTN    O1 6108   3.689   1.108   2.089
  565ACTN    C1 6109   3.551   1.279   2.181
  565ACTN    H1 6110   3.457   1.258   2.230
  565ACTN    H2 6111   3.543   1.374   2.130
  565ACTN    H3 6112   3.629   1.287   2.257
  566ACTN    H6 6113   4.156   4.941   3.862
  566ACTN    C3 6114   4.216   4.893   3.939
  566ACTN    H4 6115   4.223   4.961   4.024
  566ACTN    H5 6116   4.164   4.803   3.972
  566ACTN    C2 6117   4.353   4.861   3.887
  566ACTN    O1 6118   4.390   4.745   3.875
  566ACTN    C1 6119   4.439   4.973   3.838
  566ACTN    H1 6120   4.458   4.963   3.732
  566ACTN    H2 6121   4.535   4.972   3.889
  566ACTN    H3 6122   4.393   5.069   3.857
  567ACTN    H6 6123   0.645   6.714   2.494
  567ACTN    C3 6124   0.554   6.717   2.552
  567ACTN    H4 6125   0.473   6.749   2.487
  567ACTN    H5 6126   0.531   6.616   2.588
  567ACTN    C2 6127   0.566   6.811   2.668
  567ACTN    O1 6128   0.471   6.829   2.743
  567ACTN    C1 6129   0.695   6.885   2.688
  567ACTN    H1 6130   0.691   6.949   2.775
  567ACTN    H2 6131   0.718   6.946   2.601
  567ACTN    H3 6132   0.777   6.814   2.702
  568ACTN    H6 6133   2.976   0.386   6.420
  568ACTN    C3 6134   3.024   0.437   6.337
  568ACTN    H4 6135   2.987   0.393   6.245
  568ACTN    H5 6136   2.995   0.541   6.339
  568ACTN    C2 6137   3.173   0.424   6.347
  568ACTN    O1 6138   3.233   0.472   6.443
  568ACTN    C1 6139   3.250   0.356   6.238
  568ACTN    H1 6140   3.187   0.335   6.152
  568ACTN    H2 6141   3.289   0.262   6.274
  568ACTN    H3 6142   3.333   0.418   6.205
  569ACTN    H6 6143   5.524   2.294   1.156
  569ACTN    C3 6144   5.448   2.254   1.090
  569ACTN    H4 6145   5.455   2.306   0.994
  569ACTN    H5 6146   5.468   2.149   1.073
  569ACTN    C2 6147   5.312   2.275   1.149
  569ACTN    O1 6148   5.233   2.181   1.157
  569ACTN    C1 6149   5.267   2.413   1.183
  569ACTN    H1 6150   5.339   2.487   1.150
  569ACTN    H2 6151   5.255   2.424   1.290
  569ACTN    H3 6152   5.171   2.436   1.135
  570ACTN    H6 6153   2.587   5.895   5.191
  570ACTN    C3 6154   2.524   5.816   5.150
  570ACTN    H4 6155   2.479   5.853   5.058
  570ACTN    H5 6156   2.587   5.731   5.127
  570ACTN    C2 6157   2.418   5.776   5.248
  570ACTN    O1 6158   2.413   5.828   5.359
  570ACTN    C1 6159   2.315   5.677   5.204
  570ACTN    H1 6160   2.256   5.718   5.122
  570ACTN    H2 6161   2.247   5.652   5.285
  570ACTN    H3 6162   2.363   5.586   5.170
  571ACTN    H6 6163   4.105   1.740   2.368
  571ACTN    C3 6164   4.021   1.675   2.392
  571ACTN    H4 6165   4.028   1.586   2.330
  571ACTN    H5 6166   4.029   1.646   2.496
  571ACTN    C2 6167   3.891   1.746   2.367
  571ACTN    O1 6168   3.786   1.687   2.390
  571ACTN    C1 6169   3.893   1.888   2.319
  571ACTN    H1 6170   3.793   1.924   2.299
  571ACTN    H2 6171   3.951   1.896   2.228
  571ACTN    H3 6172   3.938   1.952   2.394
  572ACTN    H6 6173   2.780   2.771   5.874
  572ACTN    C3 6174   2.844   2.858   5.880
  572ACTN    H4 6175   2.863   2.880   5.985
  572ACTN    H5 6176   2.938   2.835   5.831
  572ACTN    C2 6177   2.778   2.974   5.812
  572ACTN    O1 6178   2.719   3.059   5.878
  572ACTN    C1 6179   2.765   2.972   5.663
  572ACTN    H1 6180   2.724   3.066   5.626
  572ACTN    H2 6181   2.700   2.891   5.632
  572ACTN    H3 6182   2.863   2.956   5.617
  573ACTN    H6 6183   5.751   1.680   5.563
  573ACTN    C3 6184   5.809   1.590   5.583
  573ACTN    H4 6185   5.819   1.534   5.490
  573ACTN    H5 6186   5.908   1.620   5.616
  573ACTN    C2 6187   5.743   1.508   5.689
  573ACTN    O1 6188   5.719   1.558   5.799
  573ACTN    C1 6189   5.703   1.367   5.658
  573ACTN    H1 6190   5.656   1.320   5.744
  573ACTN    H2 6191   5.791   1.309   5.631
  573ACTN    H3 6192   5.633   1.365   5.575
  574ACTN    H6 6193   3.320   0.704   4.957
  574ACTN    C3 6194   3.385   0.620   4.934
  574ACTN    H4 6195   3.451   0.649   4.853
  574ACTN    H5 6196   3.446   0.598   5.021
  574ACTN    C2 6197   3.303   0.500   4.897
  574ACTN    O1 6198   3.315   0.447   4.787
  574ACTN    C1 6199   3.202   0.449   4.995
  574ACTN    H1 6200   3.232   0.351   5.032
  574ACTN    H2 6201   3.105   0.439   4.947
  574ACTN    H3 6202   3.192   0.516   5.079
  575ACTN    H6 6203   4.113   5.326   0.054
  575ACTN    C3 6204   4.060   5.421   0.055
  575ACTN    H4 6205   4.100   5.482   0.136
  575ACTN    H5 6206   4.078   5.472   8.961
  575ACTN    C2 6207   3.913   5.398   0.074
  575ACTN    O1 6208   3.851   5.335   8.989
  575ACTN    C1 6209   3.844   5.455   0.194
  575ACTN    H1 6210   3.912   5.511   0.257
  575ACTN    H2 6211   3.799   5.376   0.253
  575ACTN    H3 6212   3.764   5.523   0.161
  576ACTN    H6 6213   3.733   4.681   5.874
  576ACTN    C3 6214   3.640   4.647   5.917
  576ACTN    H4 6215   3.566   4.727   5.907
  576ACTN    H5 6216   3.605   4.561   5.859
  576ACTN    C2 6217   3.659   4.610   6.060
  576ACTN    O1 6218   3.733   4.518   6.091
  576ACTN    C1 6219   3.579   4.682   6.165
  576ACTN    H1 6220   3.473   4.669   6.145
  576ACTN    H2 6221   3.602   4.788   6.164
  576ACTN    H3 6222   3.600   4.643   6.264
  577ACTN    H6 6223   6.412   5.002   6.632
  577ACTN    C3 6224   6.471   4.972   6.546
  577ACTN    H4 6225   6.450   5.041   6.465
  577ACTN    H5 6226   6.576   4.980   6.572
  577ACTN    C2 6227   6.438   4.832   6.504
  577ACTN    O1 6228   6.348   4.769   6.558
  577ACTN    C1 6229   6.511   4.773   6.387
  577ACTN    H1 6230   6.583   4.843   6.346
  577ACTN    H2 6231   6.442   4.744   6.309
  577ACTN    H3 6232   6.566   4.684   6.419
  578ACTN    H6 6233   6.715   2.149   6.537
  578ACTN    C3 6234   6.665   2.052   6.535
  578ACTN    H4 6235   6.737   1.977   6.506
  578ACTN    H5 6236   6.629   2.029   6.635
  578ACTN    C2 6237   6.551   2.058   6.438
  578ACTN    O1 6238   6.549   1.985   6.339
  578ACTN    C1 6239   6.437   2.151   6.465
  578ACTN    H1 6240   6.344   2.096   6.469
  578ACTN    H2 6241   6.430   2.225   6.386
  578ACTN    H3 6242   6.450   2.202   6.560
  579ACTN    H6 6243   4.306   4.850   1.694
  579ACTN    C3 6244   4.224   4.922   1.692
  579ACTN    H4 6245   4.161   4.903   1.779
  579ACTN    H5 6246   4.265   5.022   1.701
  579ACTN    C2 6247   4.146   4.908   1.565
  579ACTN    O1 6248   4.029   4.873   1.566
  579ACTN    C1 6249   4.217   4.934   1.436
  579ACTN    H1 6250   4.299   4.864   1.423
  579ACTN    H2 6251   4.257   5.035   1.435
  579ACTN    H3 6252   4.149   4.923   1.351
  580ACTN    H6 6253   7.223   7.023   1.970
  580ACTN    C3 6254   7.192   7.013   2.074
  580ACTN    H4 6255   7.179   6.907   2.095
  580ACTN    H5 6256   7.271   7.052   2.137
  580ACTN    C2 6257   7.065   7.089   2.097
  580ACTN    O1 6258   6.963   7.032   2.134
  580ACTN    C1 6259   7.064   7.237   2.073
  580ACTN    H1 6260   7.161   7.272   2.040
  580ACTN    H2 6261   7.039   7.289   2.165
  580ACTN    H3 6262   6.990   7.262   1.998
  581ACTN    H6 6263   3.675   4.126   5.614
  581ACTN    C3 6264   3.729   4.159   5.703
  581ACTN    H4 6265   3.835   4.163   5.678
  581ACTN    H5 6266   3.696   4.259   5.728
  581ACTN    C2 6267   3.706   4.063   5.815
  581ACTN    O1 6268   3.639   4.097   5.913
  581ACTN    C1 6269   3.751   3.921   5.800
  581ACTN    H1 6270   3.732   3.863   5.890
  581ACTN    H2 6271   3.857   3.917   5.778
  581ACTN    H3 6272   3.698   3.874   5.718
  582ACTN    H6 6273   0.805   2.559   5.982
  582ACTN    C3 6274   0.718   2.539   6.044
  582ACTN    H4 6275   0.740   2.452   6.106
  582ACTN    H5 6276   0.702   2.624   6.109
  582ACTN    C2 6277   0.597   2.516   5.959
  582ACTN    O1 6278   0.548   2.403   5.949
  582ACTN    C1 6279   0.545   2.628   5.874
  582ACTN    H1 6280   0.443   2.651   5.901
  582ACTN    H2 6281   0.548   2.601   5.769
  582ACTN    H3 6282   0.605   2.717   5.888
  583ACTN    H6 6283   4.402   4.841   8.959
  583ACTN    C3 6284   4.308   4.854   0.012
  583ACTN    H4 6285   4.235   4.784   8.971
  583ACTN    H5 6286   4.325   4.827   0.116
  583ACTN    C2 6287   4.259   4.995   8.999
  583ACTN    O1 6288   4.240   5.065   0.098
  583ACTN    C1 6289   4.234   5.051   8.862
  583ACTN    H1 6290   4.252   4.976   8.785
  583ACTN    H2 6291   4.298   5.136   8.843
  583ACTN    H3 6292   4.130   5.084   8.853
  584ACTN    H6 6293   0.176   1.073   4.927
  584ACTN    C3 6294   0.157   0.974   4.969
  584ACTN    H4 6295   0.150   0.903   4.887
  584ACTN    H5 6296   0.241   0.946   5.032
  584ACTN    C2 6297   0.029   0.975   5.047
  584ACTN    O1 6298   8.923   1.002   4.992
  584ACTN    C1 6299   0.033   0.941   5.193
  584ACTN    H1 6300   0.080   0.843   5.207
  584ACTN    H2 6301   8.934   0.938   5.236
  584ACTN    H3 6302   0.092   1.015   5.246
  585ACTN    H6 6303   1.110   2.613   2.233
  585ACTN    C3 6304   1.155   2.702   2.276
  585ACTN    H4 6305   1.116   2.715   2.376
  585ACTN    H5 6306   1.263   2.685   2.283
  585ACTN    C2 6307   1.124   2.821   2.191
  585ACTN    O1 6308   1.213   2.894   2.149
  585ACTN    C1 6309   0.980   2.858   2.171
  585ACTN    H1 6310   0.926   2.773   2.127
  585ACTN    H2 6311   0.970   2.943   2.103
  585ACTN    H3 6312   0.933   2.883   2.265
  586ACTN    H6 6313   7.165   6.382   5.533
  586ACTN    C3 6314   7.094   6.356   5.456
  586ACTN    H4 6315   7.037   6.445   5.429
  586ACTN    H5 6316   7.149   6.324   5.367
  586ACTN    C2 6317   7.002   6.248   5.504
  586ACTN    O1 6318   6.932   6.266   5.603
  586ACTN    C1 6319   6.997   6.118   5.429
  586ACTN    H1 6320   6.966   6.135   5.326
  586ACTN    H2 6321   6.928   6.048   5.475
  586ACTN    H3 6322   7.095   6.072   5.427
  587ACTN    H6 6323   1.658   5.203   2.028
  587ACTN    C3 6324   1.578   5.252   2.083
  587ACTN    H4 6325   1.535   5.328   2.019
  587ACTN    H5 6326   1.501   5.178   2.105
  587ACTN    C2 6327   1.631   5.311   2.210
  587ACTN    O1 6328   1.681   5.238   2.296
  587ACTN    C1 6329   1.621   5.457   2.236
  587ACTN    H1 6330   1.575   5.508   2.151
  587ACTN    H2 6331   1.720   5.499   2.251
  587ACTN    H3 6332   1.561   5.476   2.324
  588ACTN    H6 6333   0.574   4.624   2.967
  588ACTN    C3 6334   0.653   4.550   2.978
  588ACTN    H4 6335   0.607   4.454   2.996
  588ACTN    H5 6336   0.709   4.545   2.884
  588ACTN    C2 6337   0.746   4.586   3.090
  588ACTN    O1 6338   0.729   4.688   3.155
  588ACTN    C1 6339   0.859   4.493   3.122
  588ACTN    H1 6340   0.924   4.481   3.036
  588ACTN    H2 6341   0.821   4.395   3.149
  588ACTN    H3 6342   0.919   4.530   3.205
  589ACTN    H6 6343   6.801   3.796   1.406
  589ACTN    C3 6344   6.891   3.748   1.368
  589ACTN    H4 6345   6.969   3.822   1.361
  589ACTN    H5 6346   6.869   3.711   1.268
  589ACTN    C2 6347   6.934   3.634   1.456
  589ACTN    O1 6348   6.871   3.605   1.557
  589ACTN    C1 6349   7.056   3.556   1.419
  589ACTN    H1 6350   7.103   3.598   1.330
  589ACTN    H2 6351   7.030   3.453   1.399
  589ACTN    H3 6352   7.129   3.558   1.500
  590ACTN    H6 6353   7.114   6.423   3.380
  590ACTN    C3 6354   7.102   6.399   3.486
  590ACTN    H4 6355   7.066   6.488   3.537
  590ACTN    H5 6356   7.027   6.322   3.495
  590ACTN    C2 6357   7.232   6.356   3.545
  590ACTN    O1 6358   7.332   6.427   3.535
  590ACTN    C1 6359   7.241   6.220   3.609
  590ACTN    H1 6360   7.216   6.143   3.537
  590ACTN    H2 6361   7.170   6.213   3.692
  590ACTN    H3 6362   7.341   6.201   3.647
  591ACTN    H6 6363   1.727   1.279   4.809
  591ACTN    C3 6364   1.739   1.386   4.823
  591ACTN    H4 6365   1.810   1.402   4.904
  591ACTN    H5 6366   1.779   1.429   4.732
  591ACTN    C2 6367   1.607   1.448   4.859
  591ACTN    O1 6368   1.554   1.529   4.784
  591ACTN    C1 6369   1.540   1.408   4.987
  591ACTN    H1 6370   1.521   1.301   4.987
  591ACTN    H2 6371   1.446   1.460   5.001
  591ACTN    H3 6372   1.605   1.431   5.071
  592ACTN    H6 6373   1.832   6.799   5.399
  592ACTN    C3 6374   1.793   6.881   5.458
  592ACTN    H4 6375   1.811   6.859   5.563
  592ACTN    H5 6376   1.847   6.971   5.431
  592ACTN    C2 6377   1.646   6.900   5.434
  592ACTN    O1 6378   1.585   6.828   5.355
  592ACTN    C1 6379   1.576   7.011   5.506
  592ACTN    H1 6380   1.536   7.082   5.434
  592ACTN    H2 6381   1.642   7.062   5.574
  592ACTN    H3 6382   1.492   6.970   5.563
  593ACTN    H6 6383   1.024   6.773   0.680
  593ACTN    C3 6384   0.961   6.692   0.717
  593ACTN    H4 6385   0.857   6.723   0.710
  593ACTN    H5 6386   0.977   6.606   0.654
  593ACTN    C2 6387   0.996   6.659   0.859
  593ACTN    O1 6388   0.936   6.570   0.918
  593ACTN    C1 6389   1.102   6.739   0.928
  593ACTN    H1 6390   1.076   6.844   0.930
  593ACTN    H2 6391   1.196   6.729   0.874
  593ACTN    H3 6392   1.118   6.705   1.030
  594ACTN    H6 6393   5.991   7.305   1.282
  594ACTN    C3 6394   5.987   7.213   1.338
  594ACTN    H4 6395   5.921   7.227   1.423
  594ACTN    H5 6396   5.945   7.135   1.275
  594ACTN    C2 6397   6.123   7.173   1.385
  594ACTN    O1 6398   6.219   7.246   1.365
  594ACTN    C1 6399   6.141   7.044   1.459
  594ACTN    H1 6400   6.047   6.992   1.470
  594ACTN    H2 6401   6.181   7.063   1.559
  594ACTN    H3 6402   6.211   6.979   1.406
  595ACTN    H6 6403   0.542   6.125   2.362
  595ACTN    C3 6404   0.616   6.048   2.344
  595ACTN    H4 6405   0.615   5.979   2.428
  595ACTN    H5 6406   0.588   5.994   2.254
  595ACTN    C2 6407   0.752   6.108   2.327
  595ACTN    O1 6408   0.850   6.036   2.313
  595ACTN    C1 6409   0.769   6.257   2.332
  595ACTN    H1 6410   0.834   6.285   2.414
  595ACTN    H2 6411   0.673   6.307   2.346
  595ACTN    H3 6412   0.813   6.293   2.239
  596ACTN    H6 6413   2.148   1.488   5.091
  596ACTN    C3 6414   2.103   1.449   5.181
  596ACTN    H4 6415   2.137   1.347   5.194
  596ACTN    H5 6416   2.138   1.508   5.266
  596ACTN    C2 6417   1.953   1.456   5.172
  596ACTN    O1 6418   1.886   1.353   5.166
  596ACTN    C1 6419   1.887   1.589   5.159
  596ACTN    H1 6420   1.826   1.593   5.069
  596ACTN    H2 6421   1.960   1.669   5.155
  596ACTN    H3 6422   1.822   1.607   5.244
  597ACTN    H6 6423   5.904   6.760   0.697
  597ACTN    C3 6424   5.939   6.676   0.639
  597ACTN    H4 6425   5.868   6.594   0.651
  597ACTN    H5 6426   5.938   6.705   0.534
  597ACTN    C2 6427   6.077   6.635   0.680
  597ACTN    O1 6428   6.164   6.720   0.696
  597ACTN    C1 6429   6.100   6.493   0.721
  597ACTN    H1 6430   6.034   6.465   0.803
  597ACTN    H2 6431   6.202   6.477   0.753
  597ACTN    H3 6432   6.081   6.427   0.637
  598ACTN    H6 6433   1.939   5.554   2.888
  598ACTN    C3 6434   1.913   5.504   2.980
  598ACTN    H4 6435   1.911   5.579   3.060
  598ACTN    H5 6436   1.813   5.463   2.971
  598ACTN    C2 6437   2.011   5.396   3.010
  598ACTN    O1 6438   2.087   5.402   3.107
  598ACTN    C1 6439   2.022   5.280   2.916
  598ACTN    H1 6440   2.122   5.273   2.875
  598ACTN    H2 6441   1.951   5.290   2.834
  598ACTN    H3 6442   2.000   5.187   2.969
  599ACTN    H6 6443   6.625   4.349   2.287
  599ACTN    C3 6444   6.637   4.448   2.243
  599ACTN    H4 6445   6.669   4.435   2.139
  599ACTN    H5 6446   6.540   4.497   2.242
  599ACTN    C2 6447   6.740   4.526   2.318
  599ACTN    O1 6448   6.710   4.632   2.373
  599ACTN    C1 6449   6.879   4.473   2.329
  599ACTN    H1 6450   6.887   4.376   2.280
  599ACTN    H2 6451   6.908   4.461   2.433
  599ACTN    H3 6452   6.950   4.541   2.282
  600ACTN    H6 6453   3.521   1.078   3.810
  600ACTN    C3 6454   3.436   1.029   3.764
  600ACTN    H4 6455   3.465   0.927   3.740
  600ACTN    H5 6456   3.413   1.080   3.671
  600ACTN    C2 6457   3.317   1.031   3.855
  600ACTN    O1 6458   3.269   0.927   3.899
  600ACTN    C1 6459   3.262   1.165   3.897
  600ACTN    H1 6460   3.235   1.223   3.809
  600ACTN    H2 6461   3.337   1.220   3.954
  600ACTN    H3 6462   3.173   1.153   3.959
  601ACTN    H6 6463   1.447   7.173   3.985
  601ACTN    C3 6464   1.455   7.122   3.889
  601ACTN    H4 6465   1.370   7.055   3.879
  601ACTN    H5 6466   1.450   7.197   3.811
  601ACTN    C2 6467   1.584   7.046   3.879
  601ACTN    O1 6468   1.657   7.033   3.976
  601ACTN    C1 6469   1.616   6.977   3.750
  601ACTN    H1 6470   1.543   6.899   3.730
  601ACTN    H2 6471   1.715   6.932   3.753
  601ACTN    H3 6472   1.613   7.048   3.668
  602ACTN    H6 6473   0.586   6.669   6.566
  602ACTN    C3 6474   0.517   6.751   6.546
  602ACTN    H4 6475   0.564   6.844   6.579
  602ACTN    H5 6476   0.501   6.757   6.438
  602ACTN    C2 6477   0.389   6.730   6.620
  602ACTN    O1 6478   0.282   6.716   6.559
  602ACTN    C1 6479   0.395   6.717   6.768
  602ACTN    H1 6480   0.297   6.721   6.813
  602ACTN    H2 6481   0.456   6.796   6.810
  602ACTN    H3 6482   0.441   6.622   6.795
  603ACTN    H6 6483   1.665   1.660   6.304
  603ACTN    C3 6484   1.652   1.728   6.388
  603ACTN    H4 6485   1.742   1.724   6.450
  603ACTN    H5 6486   1.641   1.829   6.350
  603ACTN    C2 6487   1.530   1.690   6.467
  603ACTN    O1 6488   1.421   1.682   6.412
  603ACTN    C1 6489   1.544   1.658   6.613
  603ACTN    H1 6490   1.484   1.728   6.672
  603ACTN    H2 6491   1.647   1.666   6.646
  603ACTN    H3 6492   1.508   1.557   6.633
  604ACTN    H6 6493   0.772   1.877   8.974
  604ACTN    C3 6494   0.689   1.807   8.987
  604ACTN    H4 6495   0.636   1.800   8.892
  604ACTN    H5 6496   0.731   1.709   0.011
  604ACTN    C2 6497   0.597   1.853   0.095
  604ACTN    O1 6498   0.493   1.791   0.117
  604ACTN    C1 6499   0.626   1.978   0.171
  604ACTN    H1 6500   0.546   2.050   0.159
  604ACTN    H2 6501   0.718   2.024   0.136
  604ACTN    H3 6502   0.638   1.957   0.277
  605ACTN    H6 6503   2.789   2.829   6.215
  605ACTN    C3 6504   2.684   2.804   6.212
  605ACTN    H4 6505   2.642   2.818   6.311
  605ACTN    H5 6506   2.634   2.873   6.144
  605ACTN    C2 6507   2.666   2.662   6.169
  605ACTN    O1 6508   2.720   2.571   6.231
  605ACTN    C1 6509   2.583   2.629   6.048
  605ACTN    H1 6510   2.543   2.719   6.002
  605ACTN    H2 6511   2.499   2.565   6.076
  605ACTN    H3 6512   2.643   2.576   5.974
  606ACTN    H6 6513   0.795   3.257   2.276
  606ACTN    C3 6514   0.797   3.162   2.328
  606ACTN    H4 6515   0.782   3.083   2.255
  606ACTN    H5 6516   0.895   3.150   2.373
  606ACTN    C2 6517   0.691   3.155   2.434
  606ACTN    O1 6518   0.678   3.054   2.502
  606ACTN    C1 6519   0.601   3.273   2.456
  606ACTN    H1 6520   0.497   3.245   2.439
  606ACTN    H2 6521   0.626   3.355   2.390
  606ACTN    H3 6522   0.610   3.308   2.559
  607ACTN    H6 6523   1.788   0.442   1.641
  607ACTN    C3 6524   1.846   0.452   1.732
  607ACTN    H4 6525   1.827   0.366   1.795
  607ACTN    H5 6526   1.952   0.452   1.706
  607ACTN    C2 6527   1.810   0.578   1.804
  607ACTN    O1 6528   1.694   0.598   1.839
  607ACTN    C1 6529   1.915   0.681   1.828
  607ACTN    H1 6530   1.876   0.767   1.881
  607ACTN    H2 6531   1.957   0.716   1.733
  607ACTN    H3 6532   1.996   0.639   1.887
  608ACTN    H6 6533   2.632   5.407   5.889
  608ACTN    C3 6534   2.726   5.376   5.933
  608ACTN    H4 6535   2.720   5.390   6.041
  608ACTN    H5 6536   2.740   5.270   5.914
  608ACTN    C2 6537   2.840   5.454   5.875
  608ACTN    O1 6538   2.857   5.457   5.754
  608ACTN    C1 6539   2.925   5.536   5.967
  608ACTN    H1 6540   2.976   5.472   6.037
  608ACTN    H2 6541   2.863   5.606   6.023
  608ACTN    H3 6542   2.999   5.593   5.912
  609ACTN    H6 6543   6.697   6.176   1.507
  609ACTN    C3 6544   6.667   6.168   1.402
  609ACTN    H4 6545   6.571   6.217   1.390
  609ACTN    H5 6546   6.741   6.220   1.341
  609ACTN    C2 6547   6.658   6.025   1.360
  609ACTN    O1 6548   6.682   5.934   1.438
  609ACTN    C1 6549   6.619   5.994   1.218
  609ACTN    H1 6550   6.698   5.939   1.169
  609ACTN    H2 6551   6.600   6.085   1.162
  609ACTN    H3 6552   6.529   5.933   1.216
  610ACTN    H6 6553   0.977   6.918   4.701
  610ACTN    C3 6554   1.074   6.934   4.747
  610ACTN    H4 6555   1.073   7.031   4.797
  610ACTN    H5 6556   1.090   6.857   4.822
  610ACTN    C2 6557   1.183   6.927   4.644
  610ACTN    O1 6558   1.260   7.020   4.628
  610ACTN    C1 6559   1.195   6.803   4.560
  610ACTN    H1 6560   1.293   6.758   4.574
  610ACTN    H2 6561   1.183   6.827   4.455
  610ACTN    H3 6562   1.120   6.729   4.588
  611ACTN    H6 6563   6.271   1.975   6.150
  611ACTN    C3 6564   6.255   1.977   6.042
  611ACTN    H4 6565   6.223   1.878   6.010
  611ACTN    H5 6566   6.174   2.047   6.021
  611ACTN    C2 6567   6.380   2.019   5.972
  611ACTN    O1 6568   6.431   2.128   5.998
  611ACTN    C1 6569   6.445   1.928   5.873
  611ACTN    H1 6570   6.547   1.906   5.903
  611ACTN    H2 6571   6.449   1.976   5.775
  611ACTN    H3 6572   6.391   1.834   5.863
  612ACTN    H6 6573   4.602   6.196   1.156
  612ACTN    C3 6574   4.594   6.112   1.087
  612ACTN    H4 6575   4.591   6.020   1.145
  612ACTN    H5 6576   4.500   6.121   1.034
  612ACTN    C2 6577   4.708   6.109   0.991
  612ACTN    O1 6578   4.796   6.195   0.995
  612ACTN    C1 6579   4.711   6.003   0.886
  612ACTN    H1 6580   4.626   6.014   0.818
  612ACTN    H2 6581   4.705   5.904   0.931
  612ACTN    H3 6582   4.802   6.007   0.827
  613ACTN    H6 6583   2.506   5.043   2.344
  613ACTN    C3 6584   2.531   5.080   2.443
  613ACTN    H4 6585   2.462   5.037   2.515
  613ACTN    H5 6586   2.631   5.047   2.468
  613ACTN    C2 6587   2.521   5.230   2.446
  613ACTN    O1 6588   2.617   5.299   2.477
  613ACTN    C1 6589   2.391   5.295   2.409
  613ACTN    H1 6590   2.352   5.353   2.492
  613ACTN    H2 6591   2.317   5.220   2.382
  613ACTN    H3 6592   2.404   5.360   2.324
  614ACTN    H6 6593   6.760   5.434   5.119
  614ACTN    C3 6594   6.799   5.508   5.049
  614ACTN    H4 6595   6.716   5.570   5.016
  614ACTN    H5 6596   6.870   5.570   5.103
  614ACTN    C2 6597   6.862   5.440   4.932
  614ACTN    O1 6598   6.978   5.465   4.901
  614ACTN    C1 6599   6.779   5.344   4.852
  614ACTN    H1 6600   6.745   5.262   4.915
  614ACTN    H2 6601   6.837   5.302   4.770
  614ACTN    H3 6602   6.693   5.394   4.810
  615ACTN    H6 6603   1.698   6.913   2.207
  615ACTN    C3 6604   1.737   6.909   2.308
  615ACTN    H4 6605   1.842   6.880   2.303
  615ACTN    H5 6606   1.732   7.009   2.351
  615ACTN    C2 6607   1.659   6.812   2.392
  615ACTN    O1 6608   1.539   6.830   2.410
  615ACTN    C1 6609   1.728   6.689   2.443
  615ACTN    H1 6610   1.760   6.627   2.360
  615ACTN    H2 6611   1.661   6.631   2.507
  615ACTN    H3 6612   1.815   6.717   2.501
  616ACTN    H6 6613   5.531   5.776   0.095
  616ACTN    C3 6614   5.615   5.817   0.151
  616ACTN    H4 6615   5.708   5.782   0.107
  616ACTN    H5 6616   5.611   5.925   0.144
  616ACTN    C2 6617   5.607   5.773   0.294
  616ACTN    O1 6618   5.593   5.654   0.321
  616ACTN    C1 6619   5.613   5.876   0.401
  616ACTN    H1 6620   5.531   5.946   0.391
  616ACTN    H2 6621   5.707   5.931   0.395
  616ACTN    H3 6622   5.608   5.831   0.500
  617ACTN    H6 6623   6.941   5.842   0.950
  617ACTN    C3 6624   7.037   5.840   1.001
  617ACTN    H4 6625   7.021   5.814   1.105
  617ACTN    H5 6626   7.098   5.763   0.954
  617ACTN    C2 6627   7.104   5.973   0.989
  617ACTN    O1 6628   7.050   6.074   1.033
  617ACTN    C1 6629   7.239   5.982   0.924
  617ACTN    H1 6630   7.233   5.948   0.821
  617ACTN    H2 6631   7.310   5.918   0.977
  617ACTN    H3 6632   7.278   6.083   0.925
  618ACTN    H6 6633   2.863   5.383   2.231
  618ACTN    C3 6634   2.929   5.394   2.317
  618ACTN    H4 6635   3.005   5.468   2.293
  618ACTN    H5 6636   2.870   5.431   2.401
  618ACTN    C2 6637   2.993   5.263   2.350
  618ACTN    O1 6638   3.057   5.203   2.265
  618ACTN    C1 6639   2.974   5.206   2.487
  618ACTN    H1 6640   3.006   5.277   2.563
  618ACTN    H2 6641   3.031   5.114   2.501
  618ACTN    H3 6642   2.869   5.183   2.504
  619ACTN    H6 6643   2.779   8.952   5.777
  619ACTN    C3 6644   2.834   0.043   5.755
  619ACTN    H4 6645   2.939   0.026   5.775
  619ACTN    H5 6646   2.822   0.065   5.650
  619ACTN    C2 6647   2.783   0.156   5.840
  619ACTN    O1 6648   2.730   0.254   5.790
  619ACTN    C1 6649   2.790   0.145   5.989
  619ACTN    H1 6650   2.848   0.228   6.030
  619ACTN    H2 6651   2.837   0.051   6.019
  619ACTN    H3 6652   2.690   0.148   6.032
  620ACTN    H6 6653   3.298   0.958   8.997
  620ACTN    C3 6654   3.192   0.969   8.980
  620ACTN    H4 6655   3.177   1.032   8.892
  620ACTN    H5 6656   3.150   0.871   8.958
  620ACTN    C2 6657   3.122   1.028   0.099
  620ACTN    O1 6658   3.001   1.049   0.096
  620ACTN    C1 6659   3.202   1.069   0.219
  620ACTN    H1 6660   3.190   1.175   0.238
  620ACTN    H2 6661   3.308   1.049   0.206
  620ACTN    H3 6662   3.168   1.015   0.307
  621ACTN    H6 6663   2.804   1.601   5.078
  621ACTN    C3 6664   2.799   1.603   4.970
  621ACTN    H4 6665   2.696   1.623   4.941
  621ACTN    H5 6666   2.861   1.685   4.934
  621ACTN    C2 6667   2.845   1.474   4.911
  621ACTN    O1 6668   2.848   1.459   4.789
  621ACTN    C1 6669   2.883   1.362   5.003
  621ACTN    H1 6670   2.966   1.392   5.066
  621ACTN    H2 6671   2.913   1.273   4.947
  621ACTN    H3 6672   2.798   1.336   5.066
  622ACTN    H6 6673   1.361   6.213   4.547
  622ACTN    C3 6674   1.391   6.266   4.637
  622ACTN    H4 6675   1.413   6.369   4.610
  622ACTN    H5 6676   1.306   6.267   4.705
  622ACTN    C2 6677   1.508   6.200   4.701
  622ACTN    O1 6678   1.500   6.083   4.740
  622ACTN    C1 6679   1.639   6.272   4.715
  622ACTN    H1 6680   1.635   6.367   4.662
  622ACTN    H2 6681   1.721   6.213   4.675
  622ACTN    H3 6682   1.659   6.293   4.819
  623ACTN    H6 6683   5.073   1.990   1.016
  623ACTN    C3 6684   5.011   2.000   0.928
  623ACTN    H4 6685   4.963   1.905   0.909
  623ACTN    H5 6686   4.934   2.074   0.950
  623ACTN    C2 6687   5.093   2.043   0.810
  623ACTN    O1 6688   5.039   2.062   0.702
  623ACTN    C1 6689   5.240   2.065   0.827
  623ACTN    H1 6690   5.287   1.976   0.868
  623ACTN    H2 6691   5.258   2.147   0.895
  623ACTN    H3 6692   5.288   2.088   0.733
  624ACTN    H6 6693   3.735   2.555   4.065
  624ACTN    C3 6694   3.699   2.457   4.036
  624ACTN    H4 6695   3.703   2.450   3.928
  624ACTN    H5 6696   3.767   2.382   4.077
  624ACTN    C2 6697   3.560   2.433   4.086
  624ACTN    O1 6698   3.497   2.336   4.046
  624ACTN    C1 6699   3.492   2.537   4.169
  624ACTN    H1 6700   3.553   2.626   4.180
  624ACTN    H2 6701   3.472   2.498   4.268
  624ACTN    H3 6702   3.397   2.566   4.124
  625ACTN    H6 6703   8.959   6.724   3.782
  625ACTN    C3 6704   0.063   6.691   3.783
  625ACTN    H4 6705   0.110   6.733   3.872
  625ACTN    H5 6706   0.065   6.583   3.790
  625ACTN    C2 6707   0.134   6.738   3.660
  625ACTN    O1 6708   0.071   6.775   3.562
  625ACTN    C1 6709   0.282   6.716   3.650
  625ACTN    H1 6710   0.333   6.812   3.640
  625ACTN    H2 6711   0.306   6.654   3.564
  625ACTN    H3 6712   0.320   6.667   3.740
  626ACTN    H6 6713   2.951   0.596   5.287
  626ACTN    C3 6714   2.868   0.532   5.260
  626ACTN    H4 6715   2.905   0.456   5.192
  626ACTN    H5 6716   2.833   0.481   5.350
  626ACTN    C2 6717   2.758   0.611   5.196
  626ACTN    O1 6718   2.656   0.637   5.258
  626ACTN    C1 6719   2.782   0.664   5.058
  626ACTN    H1 6720   2.696   0.721   5.023
  626ACTN    H2 6721   2.800   0.583   4.989
  626ACTN    H3 6722   2.868   0.730   5.058
  627ACTN    H6 6723   5.126   4.338   6.856
  627ACTN    C3 6724   5.059   4.413   6.898
  627ACTN    H4 6725   5.103   4.511   6.881
  627ACTN    H5 6726   4.965   4.408   6.844
  627ACTN    C2 6727   5.035   4.390   7.044
  627ACTN    O1 6728   5.092   4.299   7.102
  627ACTN    C1 6729   4.950   4.488   7.119
  627ACTN    H1 6730   4.850   4.491   7.076
  627ACTN    H2 6731   4.992   4.587   7.113
  627ACTN    H3 6732   4.941   4.460   7.224
  628ACTN    H6 6733   1.579   1.356   4.393
  628ACTN    C3 6734   1.578   1.448   4.452
  628ACTN    H4 6735   1.484   1.453   4.506
  628ACTN    H5 6736   1.659   1.443   4.525
  628ACTN    C2 6737   1.595   1.569   4.366
  628ACTN    O1 6738   1.623   1.557   4.247
  628ACTN    C1 6739   1.586   1.705   4.428
  628ACTN    H1 6740   1.574   1.697   4.536
  628ACTN    H2 6741   1.502   1.759   4.387
  628ACTN    H3 6742   1.677   1.762   4.407
  629ACTN    H6 6743   4.091   0.345   3.926
  629ACTN    C3 6744   4.062   0.251   3.973
  629ACTN    H4 6745   3.993   0.273   4.054
  629ACTN    H5 6746   4.011   0.190   3.899
  629ACTN    C2 6747   4.183   0.179   4.025
  629ACTN    O1 6748   4.170   0.068   4.076
  629ACTN    C1 6749   4.317   0.243   4.015
  629ACTN    H1 6750   4.320   0.333   4.076
  629ACTN    H2 6751   4.338   0.271   3.912
  629ACTN    H3 6752   4.396   0.176   4.048
  630ACTN    H6 6753   2.098   0.604   4.456
  630ACTN    C3 6754   2.113   0.712   4.459
  630ACTN    H4 6755   2.016   0.761   4.451
  630ACTN    H5 6756   2.157   0.737   4.555
  630ACTN    C2 6757   2.205   0.754   4.348
  630ACTN    O1 6758   2.168   0.836   4.264
  630ACTN    C1 6759   2.344   0.700   4.345
  630ACTN    H1 6760   2.417   0.780   4.341
  630ACTN    H2 6761   2.357   0.635   4.259
  630ACTN    H3 6762   2.364   0.641   4.434
  631ACTN    H6 6763   1.780   5.058   6.168
  631ACTN    C3 6764   1.736   5.157   6.160
  631ACTN    H4 6765   1.639   5.156   6.207
  631ACTN    H5 6766   1.723   5.180   6.054
  631ACTN    C2 6767   1.825   5.259   6.224
  631ACTN    O1 6768   1.942   5.271   6.188
  631ACTN    C1 6769   1.770   5.343   6.335
  631ACTN    H1 6770   1.684   5.400   6.300
  631ACTN    H2 6771   1.844   5.413   6.373
  631ACTN    H3 6772   1.737   5.280   6.418
  632ACTN    H6 6773   0.335   1.841   5.167
  632ACTN    C3 6774   0.347   1.928   5.103
  632ACTN    H4 6775   0.362   1.894   5.001
  632ACTN    H5 6776   0.255   1.987   5.108
  632ACTN    C2 6777   0.463   2.010   5.149
  632ACTN    O1 6778   0.503   2.104   5.081
  632ACTN    C1 6779   0.535   1.971   5.275
  632ACTN    H1 6780   0.570   1.869   5.267
  632ACTN    H2 6781   0.467   1.978   5.360
  632ACTN    H3 6782   0.620   2.036   5.294
  633ACTN    H6 6783   6.666   1.379   3.872
  633ACTN    C3 6784   6.697   1.449   3.949
  633ACTN    H4 6785   6.736   1.538   3.900
  633ACTN    H5 6786   6.610   1.477   4.007
  633ACTN    C2 6787   6.803   1.389   4.036
  633ACTN    O1 6788   6.783   1.369   4.155
  633ACTN    C1 6789   6.928   1.338   3.972
  633ACTN    H1 6790   6.940   1.232   3.992
  633ACTN    H2 6791   7.013   1.391   4.014
  633ACTN    H3 6792   6.927   1.355   3.865
  634ACTN    H6 6793   5.992   0.911   5.597
  634ACTN    C3 6794   5.939   0.936   5.689
  634ACTN    H4 6795   5.984   0.879   5.771
  634ACTN    H5 6796   5.954   1.042   5.710
  634ACTN    C2 6797   5.794   0.903   5.677
  634ACTN    O1 6798   5.708   0.989   5.697
  634ACTN    C1 6799   5.755   0.761   5.647
  634ACTN    H1 6800   5.647   0.751   5.637
  634ACTN    H2 6801   5.788   0.696   5.727
  634ACTN    H3 6802   5.802   0.728   5.554
  635ACTN    H6 6803   6.700   6.029   0.818
  635ACTN    C3 6804   6.664   6.131   0.832
  635ACTN    H4 6805   6.569   6.126   0.885
  635ACTN    H5 6806   6.735   6.185   0.894
  635ACTN    C2 6807   6.646   6.200   0.700
  635ACTN    O1 6808   6.617   6.319   0.696
  635ACTN    C1 6809   6.679   6.124   0.575
  635ACTN    H1 6810   6.783   6.094   0.576
  635ACTN    H2 6811   6.660   6.183   0.486
  635ACTN    H3 6812   6.618   6.034   0.569
  636ACTN    H6 6813   4.517   4.488   0.793
  636ACTN    C3 6814   4.540   4.560   0.872
  636ACTN    H4 6815   4.572   4.506   0.960
  636ACTN    H5 6816   4.622   4.623   0.838
  636ACTN    C2 6817   4.418   4.642   0.903
  636ACTN    O1 6818   4.316   4.588   0.945
  636ACTN    C1 6819   4.421   4.791   0.883
  636ACTN    H1 6820   4.347   4.820   0.809
  636ACTN    H2 6821   4.519   4.824   0.850
  636ACTN    H3 6822   4.398   4.841   0.977
  637ACTN    H6 6823   3.709   1.359   3.807
  637ACTN    C3 6824   3.693   1.453   3.859
  637ACTN    H4 6825   3.757   1.455   3.947
  637ACTN    H5 6826   3.724   1.533   3.792
  637ACTN    C2 6827   3.548   1.469   3.895
  637ACTN    O1 6828   3.514   1.486   4.012
  637ACTN    C1 6829   3.447   1.465   3.785
  637ACTN    H1 6830   3.467   1.544   3.713
  637ACTN    H2 6831   3.346   1.478   3.823
  637ACTN    H3 6832   3.451   1.370   3.733
  638ACTN    H6 6833   1.617   0.510   2.275
  638ACTN    C3 6834   1.700   0.554   2.330
  638ACTN    H4 6835   1.668   0.649   2.371
  638ACTN    H5 6836   1.725   0.488   2.413
  638ACTN    C2 6837   1.819   0.572   2.241
  638ACTN    O1 6838   1.868   0.476   2.184
  638ACTN    C1 6839   1.873   0.710   2.219
  638ACTN    H1 6840   1.901   0.754   2.315
  638ACTN    H2 6841   1.797   0.773   2.174
  638ACTN    H3 6842   1.960   0.709   2.154
  639ACTN    H6 6843   0.299   5.103   6.768
  639ACTN    C3 6844   0.307   5.211   6.760
  639ACTN    H4 6845   0.212   5.250   6.724
  639ACTN    H5 6846   0.324   5.252   6.859
  639ACTN    C2 6847   0.417   5.249   6.666
  639ACTN    O1 6848   0.412   5.216   6.548
  639ACTN    C1 6849   0.529   5.336   6.713
  639ACTN    H1 6850   0.623   5.283   6.708
  639ACTN    H2 6851   0.513   5.369   6.815
  639ACTN    H3 6852   0.537   5.425   6.650
  640ACTN    H6 6853   0.865   0.426   6.524
  640ACTN    C3 6854   0.917   0.469   6.609
  640ACTN    H4 6855   0.956   0.388   6.670
  640ACTN    H5 6856   1.001   0.527   6.572
  640ACTN    C2 6857   0.823   0.554   6.690
  640ACTN    O1 6858   0.838   0.676   6.695
  640ACTN    C1 6859   0.703   0.490   6.753
  640ACTN    H1 6860   0.705   0.506   6.860
  640ACTN    H2 6861   0.703   0.382   6.735
  640ACTN    H3 6862   0.611   0.532   6.712
  641ACTN    H6 6863   4.969   4.831   7.196
  641ACTN    C3 6864   4.944   4.913   7.263
  641ACTN    H4 6865   4.959   5.006   7.209
  641ACTN    H5 6866   5.011   4.911   7.348
  641ACTN    C2 6867   4.802   4.899   7.309
  641ACTN    O1 6868   4.718   4.984   7.282
  641ACTN    C1 6869   4.762   4.777   7.386
  641ACTN    H1 6870   4.680   4.726   7.336
  641ACTN    H2 6871   4.730   4.804   7.486
  641ACTN    H3 6872   4.845   4.707   7.394
  642ACTN    H6 6873   3.889   2.289   0.274
  642ACTN    C3 6874   3.830   2.367   0.228
  642ACTN    H4 6875   3.735   2.325   0.197
  642ACTN    H5 6876   3.810   2.444   0.303
  642ACTN    C2 6877   3.899   2.427   0.109
  642ACTN    O1 6878   4.018   2.404   0.089
  642ACTN    C1 6879   3.829   2.532   0.028
  642ACTN    H1 6880   3.885   2.625   0.029
  642ACTN    H2 6881   3.730   2.551   0.069
  642ACTN    H3 6882   3.817   2.498   8.926
  643ACTN    H6 6883   3.135   3.372   2.586
  643ACTN    C3 6884   3.126   3.476   2.615
  643ACTN    H4 6885   3.032   3.515   2.577
  643ACTN    H5 6886   3.123   3.481   2.724
  643ACTN    C2 6887   3.243   3.555   2.563
  643ACTN    O1 6888   3.357   3.522   2.593
  643ACTN    C1 6889   3.221   3.669   2.468
  643ACTN    H1 6890   3.115   3.684   2.449
  643ACTN    H2 6891   3.270   3.649   2.374
  643ACTN    H3 6892   3.262   3.760   2.510
  644ACTN    H6 6893   6.841   6.758   4.319
  644ACTN    C3 6894   6.741   6.777   4.282
  644ACTN    H4 6895   6.738   6.878   4.241
  644ACTN    H5 6896   6.722   6.707   4.201
  644ACTN    C2 6897   6.640   6.763   4.391
  644ACTN    O1 6898   6.551   6.679   4.384
  644ACTN    C1 6899   6.648   6.857   4.508
  644ACTN    H1 6900   6.748   6.855   4.550
  644ACTN    H2 6901   6.578   6.828   4.586
  644ACTN    H3 6902   6.626   6.958   4.476
  645ACTN    H6 6903   7.197   1.172   4.128
  645ACTN    C3 6904   7.283   1.197   4.066
  645ACTN    H4 6905   7.333   1.283   4.110
  645ACTN    H5 6906   7.352   1.113   4.069
  645ACTN    C2 6907   7.240   1.224   3.925
  645ACTN    O1 6908   7.253   1.336   3.877
  645ACTN    C1 6909   7.170   1.115   3.850
  645ACTN    H1 6910   7.157   1.027   3.913
  645ACTN    H2 6911   7.227   1.086   3.763
  645ACTN    H3 6912   7.072   1.148   3.817
  646ACTN    H6 6913   3.047   6.938   3.248
  646ACTN    C3 6914   3.000   7.001   3.323
  646ACTN    H4 6915   2.892   6.984   3.318
  646ACTN    H5 6916   3.035   6.970   3.421
  646ACTN    C2 6917   3.034   7.145   3.301
  646ACTN    O1 6918   2.947   7.225   3.269
  646ACTN    C1 6919   3.178   7.185   3.304
  646ACTN    H1 6920   3.234   7.136   3.225
  646ACTN    H2 6921   3.222   7.156   3.399
  646ACTN    H3 6922   3.189   7.293   3.294
  647ACTN    H6 6923   5.880   3.571   4.468
  647ACTN    C3 6924   5.954   3.595   4.392
  647ACTN    H4 6925   6.053   3.581   4.434
  647ACTN    H5 6926   5.943   3.699   4.365
  647ACTN    C2 6927   5.935   3.506   4.272
  647ACTN    O1 6928   5.937   3.385   4.286
  647ACTN    C1 6929   5.911   3.566   4.137
  647ACTN    H1 6930   5.991   3.540   4.069
  647ACTN    H2 6931   5.905   3.675   4.143
  647ACTN    H3 6932   5.817   3.529   4.096
  648ACTN    H6 6933   6.793   5.109   5.190
  648ACTN    C3 6934   6.852   5.165   5.263
  648ACTN    H4 6935   6.811   5.265   5.270
  648ACTN    H5 6936   6.840   5.116   5.360
  648ACTN    C2 6937   6.996   5.169   5.223
  648ACTN    O1 6938   7.028   5.215   5.114
  648ACTN    C1 6939   7.099   5.114   5.317
  648ACTN    H1 6940   7.199   5.131   5.279
  648ACTN    H2 6941   7.084   5.007   5.329
  648ACTN    H3 6942   7.090   5.161   5.414
  649ACTN    H6 6943   8.945   2.043   0.846
  649ACTN    C3 6944   0.030   1.997   0.894
  649ACTN    H4 6945   0.120   2.044   0.853
  649ACTN    H5 6946   0.027   2.019   1.000
  649ACTN    C2 6947   0.029   1.849   0.872
  649ACTN    O1 6948   0.124   1.791   0.820
  649ACTN    C1 6949   8.910   1.771   0.915
  649ACTN    H1 6950   8.935   1.703   0.996
  649ACTN    H2 6951   8.870   1.712   0.832
  649ACTN    H3 6952   8.831   1.838   0.949
  650ACTN    H6 6953   3.570   2.296   5.461
  650ACTN    C3 6954   3.531   2.217   5.397
  650ACTN    H4 6955   3.551   2.121   5.444
  650ACTN    H5 6956   3.423   2.230   5.389
  650ACTN    C2 6957   3.596   2.223   5.262
  650ACTN    O1 6958   3.528   2.227   5.160
  650ACTN    C1 6959   3.745   2.211   5.254
  650ACTN    H1 6960   3.780   2.221   5.151
  650ACTN    H2 6961   3.776   2.114   5.291
  650ACTN    H3 6962   3.793   2.287   5.314
  651ACTN    H6 6963   4.482   6.212   5.926
  651ACTN    C3 6964   4.424   6.257   5.846
  651ACTN    H4 6965   4.452   6.361   5.838
  651ACTN    H5 6966   4.451   6.207   5.753
  651ACTN    C2 6967   4.278   6.241   5.872
  651ACTN    O1 6968   4.231   6.130   5.896
  651ACTN    C1 6969   4.190   6.362   5.875
  651ACTN    H1 6970   4.112   6.355   5.799
  651ACTN    H2 6971   4.247   6.453   5.856
  651ACTN    H3 6972   4.141   6.372   5.972
  652ACTN    H6 6973   5.173   4.139   5.903
  652ACTN    C3 6974   5.196   4.036   5.876
  652ACTN    H4 6975   5.284   4.004   5.931
  652ACTN    H5 6976   5.112   3.974   5.906
  652ACTN    C2 6977   5.220   4.021   5.729
  652ACTN    O1 6978   5.230   4.120   5.656
  652ACTN    C1 6979   5.239   3.884   5.672
  652ACTN    H1 6980   5.155   3.859   5.607
  652ACTN    H2 6981   5.245   3.810   5.751
  652ACTN    H3 6982   5.330   3.879   5.613
  653ACTN    H6 6983   1.508   5.308   3.989
  653ACTN    C3 6984   1.499   5.274   3.886
  653ACTN    H4 6985   1.590   5.219   3.861
  653ACTN    H5 6986   1.415   5.206   3.880
  653ACTN    C2 6987   1.482   5.390   3.794
  653ACTN    O1 6988   1.563   5.482   3.792
  653ACTN    C1 6989   1.360   5.396   3.707
  653ACTN    H1 6990   1.351   5.304   3.649
  653ACTN    H2 6991   1.363   5.480   3.639
  653ACTN    H3 6992   1.271   5.405   3.769
  654ACTN    H6 6993   0.498   0.216   6.860
  654ACTN    C3 6994   0.464   0.160   6.773
  654ACTN    H4 6995   0.538   0.172   6.694
  654ACTN    H5 6996   0.459   0.055   6.800
  654ACTN    C2 6997   0.329   0.208   6.730
  654ACTN    O1 6998   0.313   0.262   6.621
  654ACTN    C1 6999   0.216   0.199   6.828
  654ACTN    H1 7000   0.237   0.258   6.916
  654ACTN    H2 7001   0.200   0.096   6.858
  654ACTN    H3 7002   0.122   0.235   6.784
  655ACTN    H6 7003   1.444   6.616   7.343
  655ACTN    C3 7004   1.480   6.688   7.271
  655ACTN    H4 7005   1.538   6.763   7.323
  655ACTN    H5 7006   1.544   6.637   7.200
  655ACTN    C2 7007   1.365   6.753   7.201
  655ACTN    O1 7008   1.289   6.828   7.263
  655ACTN    C1 7009   1.351   6.738   7.053
  655ACTN    H1 7010   1.263   6.791   7.016
  655ACTN    H2 7011   1.341   6.633   7.027
  655ACTN    H3 7012   1.439   6.778   7.003
  656ACTN    H6 7013   0.440   5.107   7.088
  656ACTN    C3 7014   0.448   5.065   7.188
  656ACTN    H4 7015   0.464   4.957   7.178
  656ACTN    H5 7016   0.535   5.108   7.236
  656ACTN    C2 7017   0.322   5.092   7.265
  656ACTN    O1 7018   0.217   5.040   7.231
  656ACTN    C1 7019   0.330   5.173   7.391
  656ACTN    H1 7020   0.280   5.121   7.473
  656ACTN    H2 7021   0.281   5.269   7.378
  656ACTN    H3 7022   0.433   5.191   7.421
  657ACTN    H6 7023   8.952   5.497   3.967
  657ACTN    C3 7024   0.045   5.553   3.959
  657ACTN    H4 7025   0.103   5.537   4.050
  657ACTN    H5 7026   0.101   5.515   3.875
  657ACTN    C2 7027   0.016   5.699   3.943
  657ACTN    O1 7028   8.958   5.763   4.030
  657ACTN    C1 7029   0.057   5.766   3.815
  657ACTN    H1 7030   0.163   5.753   3.799
  657ACTN    H2 7031   0.035   5.873   3.817
  657ACTN    H3 7032   0.005   5.721   3.731
  658ACTN    H6 7033   6.237   6.978   2.004
  658ACTN    C3 7034   6.251   7.016   1.903
  658ACTN    H4 7035   6.158   7.002   1.849
  658ACTN    H5 7036   6.272   7.122   1.909
  658ACTN    C2 7037   6.363   6.943   1.836
  658ACTN    O1 7038   6.351   6.825   1.806
  658ACTN    C1 7039   6.482   7.021   1.789
  658ACTN    H1 7040   6.524   7.077   1.871
  658ACTN    H2 7041   6.453   7.090   1.710
  658ACTN    H3 7042   6.558   6.954   1.750
  659ACTN    H6 7043   7.493   6.639   2.474
  659ACTN    C3 7044   7.429   6.556   2.502
  659ACTN    H4 7045   7.491   6.468   2.516
  659ACTN    H5 7046   7.382   6.581   2.597
  659ACTN    C2 7047   7.324   6.531   2.398
  659ACTN    O1 7048   7.249   6.435   2.408
  659ACTN    C1 7049   7.317   6.620   2.277
  659ACTN    H1 7050   7.222   6.673   2.276
  659ACTN    H2 7051   7.324   6.560   2.187
  659ACTN    H3 7052   7.398   6.692   2.277
  660ACTN    H6 7053   4.656   7.057   2.253
  660ACTN    C3 7054   4.693   7.095   2.159
  660ACTN    H4 7055   4.651   7.035   2.078
  660ACTN    H5 7056   4.658   7.197   2.147
  660ACTN    C2 7057   4.843   7.091   2.156
  660ACTN    O1 7058   4.908   7.147   2.244
  660ACTN    C1 7059   4.911   7.011   2.050
  660ACTN    H1 7060   4.883   7.046   1.951
  660ACTN    H2 7061   4.883   6.906   2.058
  660ACTN    H3 7062   5.020   7.018   2.058
  661ACTN    H6 7063   0.442   2.271   3.317
  661ACTN    C3 7064   0.458   2.268   3.210
  661ACTN    H4 7065   0.364   2.290   3.161
  661ACTN    H5 7066   0.529   2.346   3.184
  661ACTN    C2 7067   0.509   2.134   3.166
  661ACTN    O1 7068   0.520   2.042   3.246
  661ACTN    C1 7069   0.543   2.112   3.022
  661ACTN    H1 7070   0.527   2.203   2.965
  661ACTN    H2 7071   0.481   2.033   2.980
  661ACTN    H3 7072   0.647   2.083   3.012
  662ACTN    H6 7073   6.051   6.018   0.631
  662ACTN    C3 7074   5.957   5.986   0.675
  662ACTN    H4 7075   5.885   5.975   0.594
  662ACTN    H5 7076   5.972   5.889   0.721
  662ACTN    C2 7077   5.911   6.085   0.777
  662ACTN    O1 7078   5.805   6.147   0.761
  662ACTN    C1 7079   5.997   6.111   0.897
  662ACTN    H1 7080   5.942   6.089   0.988
  662ACTN    H2 7081   6.028   6.215   0.899
  662ACTN    H3 7082   6.086   6.049   0.894
  663ACTN    H6 7083   6.660   1.486   6.237
  663ACTN    C3 7084   6.683   1.475   6.343
  663ACTN    H4 7085   6.784   1.436   6.352
  663ACTN    H5 7086   6.681   1.574   6.388
  663ACTN    C2 7087   6.585   1.382   6.409
  663ACTN    O1 7088   6.513   1.420   6.501
  663ACTN    C1 7089   6.574   1.242   6.359
  663ACTN    H1 7090   6.641   1.224   6.276
  663ACTN    H2 7091   6.473   1.221   6.325
  663ACTN    H3 7092   6.599   1.171   6.438
  664ACTN    H6 7093   7.410   6.077   4.509
  664ACTN    C3 7094   7.307   6.109   4.527
  664ACTN    H4 7095   7.297   6.212   4.495
  664ACTN    H5 7096   7.241   6.047   4.467
  664ACTN    C2 7097   7.272   6.096   4.672
  664ACTN    O1 7098   7.352   6.049   4.753
  664ACTN    C1 7099   7.136   6.141   4.717
  664ACTN    H1 7100   7.121   6.121   4.823
  664ACTN    H2 7101   7.060   6.088   4.661
  664ACTN    H3 7102   7.125   6.247   4.700
  665ACTN    H6 7103   0.448   4.313   3.697
  665ACTN    C3 7104   0.441   4.415   3.733
  665ACTN    H4 7105   0.377   4.472   3.666
  665ACTN    H5 7106   0.394   4.413   3.831
  665ACTN    C2 7107   0.576   4.479   3.742
  665ACTN    O1 7108   0.587   4.593   3.787
  665ACTN    C1 7109   0.698   4.404   3.700
  665ACTN    H1 7110   0.674   4.303   3.668
  665ACTN    H2 7111   0.769   4.397   3.782
  665ACTN    H3 7112   0.748   4.455   3.617
  666ACTN    H6 7113   0.090   5.249   2.158
  666ACTN    C3 7114   0.095   5.199   2.061
  666ACTN    H4 7115   0.032   5.253   1.992
  666ACTN    H5 7116   0.198   5.204   2.026
  666ACTN    C2 7117   0.050   5.057   2.072
  666ACTN    O1 7118   0.027   5.008   2.181
  666ACTN    C1 7119   0.049   4.974   1.947
  666ACTN    H1 7120   0.007   4.875   1.966
  666ACTN    H2 7121   0.150   4.960   1.910
  666ACTN    H3 7122   8.990   5.021   1.870
  667ACTN    H6 7123   1.995   6.220   0.741
  667ACTN    C3 7124   1.985   6.328   0.746
  667ACTN    H4 7125   1.881   6.353   0.768
  667ACTN    H5 7126   2.047   6.364   0.829
  667ACTN    C2 7127   2.028   6.390   0.617
  667ACTN    O1 7128   1.967   6.363   0.514
  667ACTN    C1 7129   2.140   6.489   0.617
  667ACTN    H1 7130   2.230   6.444   0.658
  667ACTN    H2 7131   2.115   6.575   0.679
  667ACTN    H3 7132   2.162   6.525   0.517
  668ACTN    H6 7133   0.044   2.457   6.137
  668ACTN    C3 7134   0.081   2.522   6.058
  668ACTN    H4 7135   0.189   2.532   6.070
  668ACTN    H5 7136   0.061   2.474   5.962
  668ACTN    C2 7137   0.016   2.656   6.068
  668ACTN    O1 7138   8.959   2.705   5.971
  668ACTN    C1 7139   0.028   2.732   6.197
  668ACTN    H1 7140   8.975   2.827   6.191
  668ACTN    H2 7141   0.132   2.751   6.219
  668ACTN    H3 7142   8.985   2.673   6.278
  669ACTN    H6 7143   1.798   0.671   5.104
  669ACTN    C3 7144   1.846   0.729   5.027
  669ACTN    H4 7145   1.783   0.814   5.003
  669ACTN    H5 7146   1.940   0.766   5.067
  669ACTN    C2 7147   1.869   0.645   4.905
  669ACTN    O1 7148   1.774   0.592   4.848
  669ACTN    C1 7149   2.008   0.629   4.850
  669ACTN    H1 7150   2.012   0.662   4.747
  669ACTN    H2 7151   2.038   0.524   4.854
  669ACTN    H3 7152   2.079   0.687   4.908
  670ACTN    H6 7153   3.671   2.411   2.718
  670ACTN    C3 7154   3.572   2.387   2.680
  670ACTN    H4 7155   3.540   2.470   2.617
  670ACTN    H5 7156   3.581   2.298   2.617
  670ACTN    C2 7157   3.476   2.368   2.792
  670ACTN    O1 7158   3.410   2.264   2.799
  670ACTN    C1 7159   3.452   2.479   2.889
  670ACTN    H1 7160   3.513   2.566   2.864
  670ACTN    H2 7161   3.477   2.447   2.990
  670ACTN    H3 7162   3.348   2.509   2.887
  671ACTN    H6 7163   3.055   6.139   3.475
  671ACTN    C3 7164   3.047   6.031   3.476
  671ACTN    H4 7165   2.943   6.004   3.459
  671ACTN    H5 7166   3.106   5.991   3.394
  671ACTN    C2 7167   3.094   5.975   3.607
  671ACTN    O1 7168   3.040   6.012   3.711
  671ACTN    C1 7169   3.210   5.880   3.611
  671ACTN    H1 7170   3.252   5.865   3.512
  671ACTN    H2 7171   3.177   5.784   3.648
  671ACTN    H3 7172   3.288   5.917   3.677
  672ACTN    H6 7173   3.274   3.907   2.786
  672ACTN    C3 7174   3.201   3.974   2.741
  672ACTN    H4 7175   3.180   4.054   2.812
  672ACTN    H5 7176   3.243   4.017   2.651
  672ACTN    C2 7177   3.073   3.902   2.709
  672ACTN    O1 7178   3.056   3.786   2.745
  672ACTN    C1 7179   2.966   3.974   2.633
  672ACTN    H1 7180   2.994   4.077   2.615
  672ACTN    H2 7181   2.874   3.973   2.690
  672ACTN    H3 7182   2.949   3.926   2.537
  673ACTN    H6 7183   4.992   4.497   3.681
  673ACTN    C3 7184   4.900   4.547   3.712
  673ACTN    H4 7185   4.817   4.493   3.668
  673ACTN    H5 7186   4.893   4.539   3.820
  673ACTN    C2 7187   4.898   4.690   3.668
  673ACTN    O1 7188   4.993   4.739   3.609
  673ACTN    C1 7189   4.777   4.773   3.699
  673ACTN    H1 7190   4.732   4.807   3.607
  673ACTN    H2 7191   4.806   4.860   3.757
  673ACTN    H3 7192   4.703   4.716   3.755
  674ACTN    H6 7193   6.114   4.893   6.389
  674ACTN    C3 7194   6.058   4.801   6.380
  674ACTN    H4 7195   6.082   4.755   6.285
  674ACTN    H5 7196   6.089   4.734   6.460
  674ACTN    C2 7197   5.911   4.828   6.390
  674ACTN    O1 7198   5.867   4.893   6.485
  674ACTN    C1 7199   5.821   4.786   6.278
  674ACTN    H1 7200   5.850   4.836   6.186
  674ACTN    H2 7201   5.717   4.810   6.299
  674ACTN    H3 7202   5.828   4.678   6.263
  675ACTN    H6 7203   6.870   0.873   0.075
  675ACTN    C3 7204   6.835   0.835   0.170
  675ACTN    H4 7205   6.767   0.752   0.150
  675ACTN    H5 7206   6.920   0.797   0.226
  675ACTN    C2 7207   6.766   0.942   0.248
  675ACTN    O1 7208   6.720   0.917   0.360
  675ACTN    C1 7209   6.756   1.080   0.194
  675ACTN    H1 7210   6.653   1.113   0.190
  675ACTN    H2 7211   6.796   1.085   0.093
  675ACTN    H3 7212   6.812   1.151   0.255
  676ACTN    H6 7213   7.477   1.413   2.015
  676ACTN    C3 7214   7.380   1.440   2.056
  676ACTN    H4 7215   7.315   1.468   1.973
  676ACTN    H5 7216   7.338   1.353   2.105
  676ACTN    C2 7217   7.396   1.554   2.152
  676ACTN    O1 7218   7.419   1.666   2.110
  676ACTN    C1 7219   7.358   1.533   2.295
  676ACTN    H1 7220   7.251   1.514   2.304
  676ACTN    H2 7221   7.382   1.621   2.355
  676ACTN    H3 7222   7.411   1.448   2.337
  677ACTN    H6 7223   0.247   6.692   4.265
  677ACTN    C3 7224   0.276   6.762   4.343
  677ACTN    H4 7225   0.376   6.798   4.322
  677ACTN    H5 7226   0.208   6.847   4.341
  677ACTN    C2 7227   0.270   6.695   4.477
  677ACTN    O1 7228   0.170   6.632   4.509
  677ACTN    C1 7229   0.393   6.688   4.562
  677ACTN    H1 7230   0.415   6.585   4.590
  677ACTN    H2 7231   0.379   6.746   4.653
  677ACTN    H3 7232   0.480   6.727   4.510
  678ACTN    H6 7233   5.958   0.633   3.614
  678ACTN    C3 7234   5.901   0.711   3.565
  678ACTN    H4 7235   5.879   0.680   3.463
  678ACTN    H5 7236   5.807   0.724   3.618
  678ACTN    C2 7237   5.979   0.839   3.566
  678ACTN    O1 7238   6.006   0.898   3.462
  678ACTN    C1 7239   6.021   0.897   3.698
  678ACTN    H1 7240   6.084   0.826   3.751
  678ACTN    H2 7241   5.935   0.919   3.759
  678ACTN    H3 7242   6.077   0.989   3.684
  679ACTN    H6 7243   3.621   1.786   3.305
  679ACTN    C3 7244   3.693   1.846   3.359
  679ACTN    H4 7245   3.641   1.900   3.438
  679ACTN    H5 7246   3.764   1.779   3.406
  679ACTN    C2 7247   3.764   1.940   3.267
  679ACTN    O1 7248   3.774   2.060   3.293
  679ACTN    C1 7249   3.829   1.884   3.144
  679ACTN    H1 7250   3.905   1.812   3.172
  679ACTN    H2 7251   3.875   1.961   3.084
  679ACTN    H3 7252   3.755   1.833   3.083
  680ACTN    H6 7253   0.612   0.885   0.565
  680ACTN    C3 7254   0.626   0.791   0.511
  680ACTN    H4 7255   0.655   0.715   0.582
  680ACTN    H5 7256   0.530   0.763   0.467
  680ACTN    C2 7257   0.730   0.805   0.405
  680ACTN    O1 7258   0.776   0.915   0.376
  680ACTN    C1 7259   0.769   0.684   0.326
  680ACTN    H1 7260   0.874   0.662   0.340
  680ACTN    H2 7261   0.752   0.702   0.220
  680ACTN    H3 7262   0.711   0.597   0.356
  681ACTN    H6 7263   2.878   4.834   1.855
  681ACTN    C3 7264   2.862   4.895   1.944
  681ACTN    H4 7265   2.756   4.917   1.951
  681ACTN    H5 7266   2.891   4.836   2.031
  681ACTN    C2 7267   2.942   5.021   1.937
  681ACTN    O1 7268   3.065   5.016   1.938
  681ACTN    C1 7269   2.870   5.152   1.937
  681ACTN    H1 7270   2.801   5.155   1.854
  681ACTN    H2 7271   2.939   5.235   1.927
  681ACTN    H3 7272   2.815   5.164   2.030
  682ACTN    H6 7273   0.461   7.399   5.018
  682ACTN    C3 7274   0.401   7.336   4.953
  682ACTN    H4 7275   0.460   7.247   4.929
  682ACTN    H5 7276   0.313   7.305   5.010
  682ACTN    C2 7277   0.363   7.410   4.829
  682ACTN    O1 7278   0.249   7.406   4.786
  682ACTN    C1 7279   0.472   7.470   4.745
  682ACTN    H1 7280   0.457   7.578   4.739
  682ACTN    H2 7281   0.469   7.430   4.644
  682ACTN    H3 7282   0.570   7.451   4.788
  683ACTN    H6 7283   3.630   0.004   5.792
  683ACTN    C3 7284   3.672   0.089   5.846
  683ACTN    H4 7285   3.762   0.122   5.795
  683ACTN    H5 7286   3.599   0.170   5.843
  683ACTN    C2 7287   3.701   0.052   5.988
  683ACTN    O1 7288   3.758   0.133   6.062
  683ACTN    C1 7289   3.671   8.913   6.035
  683ACTN    H1 7290   3.570   8.886   6.008
  683ACTN    H2 7291   3.680   8.905   6.143
  683ACTN    H3 7292   3.739   8.842   5.989
  684ACTN    H6 7293   0.521   6.474   0.994
  684ACTN    C3 7294   0.523   6.406   1.079
  684ACTN    H4 7295   0.519   6.466   1.170
  684ACTN    H5 7296   0.436   6.342   1.075
  684ACTN    C2 7297   0.648   6.324   1.075
  684ACTN    O1 7298   0.667   6.244   0.984
  684ACTN    C1 7299   0.748   6.341   1.185
  684ACTN    H1 7300   0.830   6.270   1.174
  684ACTN    H2 7301   0.702   6.324   1.282
  684ACTN    H3 7302   0.790   6.441   1.183
  685ACTN    H6 7303   6.956   6.877   4.715
  685ACTN    C3 7304   6.960   6.977   4.758
  685ACTN    H4 7305   6.967   7.050   4.677
  685ACTN    H5 7306   6.868   6.995   4.813
  685ACTN    C2 7307   7.078   6.989   4.850
  685ACTN    O1 7308   7.088   6.913   4.947
  685ACTN    C1 7309   7.186   7.089   4.823
  685ACTN    H1 7310   7.282   7.039   4.809
  685ACTN    H2 7311   7.195   7.158   4.907
  685ACTN    H3 7312   7.164   7.147   4.734
  686ACTN    H6 7313   0.331   0.803   3.476
  686ACTN    C3 7314   0.276   0.874   3.415
  686ACTN    H4 7315   0.176   0.884   3.456
  686ACTN    H5 7316   0.326   0.970   3.422
  686ACTN    C2 7317   0.270   0.829   3.272
  686ACTN    O1 7318   0.311   0.718   3.239
  686ACTN    C1 7319   0.194   0.914   3.174
  686ACTN    H1 7320   0.088   0.915   3.199
  686ACTN    H2 7321   0.205   0.877   3.073
  686ACTN    H3 7322   0.231   1.016   3.177
  687ACTN    H6 7323   4.778   8.796   5.735
  687ACTN    C3 7324   4.709   8.854   5.796
  687ACTN    H4 7325   4.611   8.849   5.749
  687ACTN    H5 7326   4.703   8.808   5.894
  687ACTN    C2 7327   4.753   8.996   5.808
  687ACTN    O1 7328   4.856   0.034   5.753
  687ACTN    C1 7329   4.666   0.094   5.881
  687ACTN    H1 7330   4.720   0.136   5.965
  687ACTN    H2 7331   4.577   0.045   5.919
  687ACTN    H3 7332   4.636   0.175   5.816
  688ACTN    H6 7333   6.941   5.840   1.657
  688ACTN    C3 7334   7.001   5.777   1.591
  688ACTN    H4 7335   7.104   5.783   1.624
  688ACTN    H5 7336   6.968   5.674   1.602
  688ACTN    C2 7337   6.989   5.825   1.450
  688ACTN    O1 7338   6.953   5.748   1.361
  688ACTN    C1 7339   7.027   5.967   1.419
  688ACTN    H1 7340   7.012   5.990   1.314
  688ACTN    H2 7341   7.131   5.984   1.444
  688ACTN    H3 7342   6.966   6.035   1.478
  689ACTN    H6 7343   0.433   5.714   2.944
  689ACTN    C3 7344   0.375   5.795   2.900
  689ACTN    H4 7345   0.383   5.882   2.965
  689ACTN    H5 7346   0.419   5.819   2.804
  689ACTN    C2 7347   0.232   5.752   2.885
  689ACTN    O1 7348   0.164   5.730   2.985
  689ACTN    C1 7349   0.169   5.749   2.749
  689ACTN    H1 7350   0.134   5.648   2.727
  689ACTN    H2 7351   0.240   5.778   2.672
  689ACTN    H3 7352   0.083   5.816   2.745
  690ACTN    H6 7353   0.585   6.807   3.713
  690ACTN    C3 7354   0.607   6.769   3.812
  690ACTN    H4 7355   0.697   6.819   3.848
  690ACTN    H5 7356   0.525   6.794   3.878
  690ACTN    C2 7357   0.629   6.620   3.809
  690ACTN    O1 7358   0.640   6.559   3.915
  690ACTN    C1 7359   0.616   6.546   3.680
  690ACTN    H1 7360   0.711   6.500   3.654
  690ACTN    H2 7361   0.588   6.612   3.598
  690ACTN    H3 7362   0.542   6.467   3.688
  691ACTN    H6 7363   2.474   4.251   3.045
  691ACTN    C3 7364   2.554   4.324   3.040
  691ACTN    H4 7365   2.599   4.333   3.138
  691ACTN    H5 7366   2.630   4.286   2.971
  691ACTN    C2 7367   2.504   4.456   2.992
  691ACTN    O1 7368   2.580   4.551   2.981
  691ACTN    C1 7369   2.359   4.469   2.957
  691ACTN    H1 7370   2.337   4.570   2.922
  691ACTN    H2 7371   2.297   4.450   3.045
  691ACTN    H3 7372   2.332   4.399   2.879
  692ACTN    H6 7373   2.682   7.474   2.489
  692ACTN    C3 7374   2.574   7.461   2.490
  692ACTN    H4 7375   2.529   7.554   2.524
  692ACTN    H5 7376   2.542   7.443   2.387
  692ACTN    C2 7377   2.536   7.345   2.576
  692ACTN    O1 7378   2.464   7.361   2.674
  692ACTN    C1 7379   2.593   7.210   2.545
  692ACTN    H1 7380   2.701   7.212   2.552
  692ACTN    H2 7381   2.565   7.181   2.444
  692ACTN    H3 7382   2.555   7.134   2.613
  693ACTN    H6 7383   1.573   5.650   1.521
  693ACTN    C3 7384   1.482   5.660   1.461
  693ACTN    H4 7385   1.495   5.601   1.371
  693ACTN    H5 7386   1.399   5.619   1.518
  693ACTN    C2 7387   1.455   5.803   1.426
  693ACTN    O1 7388   1.529   5.893   1.466
  693ACTN    C1 7389   1.336   5.836   1.341
  693ACTN    H1 7390   1.367   5.886   1.250
  693ACTN    H2 7391   1.268   5.902   1.394
  693ACTN    H3 7392   1.282   5.746   1.314
  694ACTN    H6 7393   6.106   6.750   4.636
  694ACTN    C3 7394   6.114   6.643   4.653
  694ACTN    H4 7395   6.219   6.619   4.668
  694ACTN    H5 7396   6.080   6.592   4.563
  694ACTN    C2 7397   6.032   6.602   4.771
  694ACTN    O1 7398   5.911   6.625   4.772
  694ACTN    C1 7399   6.097   6.536   4.888
  694ACTN    H1 7400   6.203   6.523   4.872
  694ACTN    H2 7401   6.053   6.438   4.906
  694ACTN    H3 7402   6.083   6.596   4.978
  695ACTN    H6 7403   6.858   0.858   4.530
  695ACTN    C3 7404   6.799   0.855   4.439
  695ACTN    H4 7405   6.812   0.948   4.386
  695ACTN    H5 7406   6.837   0.774   4.377
  695ACTN    C2 7407   6.655   0.831   4.472
  695ACTN    O1 7408   6.624   0.740   4.548
  695ACTN    C1 7409   6.552   0.926   4.420
  695ACTN    H1 7410   6.569   1.026   4.460
  695ACTN    H2 7411   6.452   0.894   4.448
  695ACTN    H3 7412   6.556   0.931   4.312
  696ACTN    H6 7413   4.760   2.212   6.897
  696ACTN    C3 7414   4.809   2.268   6.818
  696ACTN    H4 7415   4.843   2.363   6.859
  696ACTN    H5 7416   4.897   2.212   6.785
  696ACTN    C2 7417   4.716   2.290   6.703
  696ACTN    O1 7418   4.753   2.354   6.605
  696ACTN    C1 7419   4.576   2.237   6.711
  696ACTN    H1 7420   4.519   2.261   6.621
  696ACTN    H2 7421   4.525   2.280   6.797
  696ACTN    H3 7422   4.577   2.129   6.723
  697ACTN    H6 7423   4.103   4.115   6.826
  697ACTN    C3 7424   4.152   4.093   6.731
  697ACTN    H4 7425   4.075   4.073   6.657
  697ACTN    H5 7426   4.207   4.182   6.700
  697ACTN    C2 7427   4.245   3.976   6.743
  697ACTN    O1 7428   4.259   3.917   6.849
  697ACTN    C1 7429   4.322   3.933   6.622
  697ACTN    H1 7430   4.293   3.832   6.593
  697ACTN    H2 7431   4.429   3.933   6.643
  697ACTN    H3 7432   4.304   3.999   6.538
  698ACTN    H6 7433   4.389   6.647   5.365
  698ACTN    C3 7434   4.390   6.756   5.365
  698ACTN    H4 7435   4.484   6.789   5.409
  698ACTN    H5 7436   4.387   6.790   5.262
  698ACTN    C2 7437   4.272   6.809   5.441
  698ACTN    O1 7438   4.287   6.873   5.545
  698ACTN    C1 7439   4.135   6.780   5.389
  698ACTN    H1 7440   4.125   6.824   5.290
  698ACTN    H2 7441   4.059   6.822   5.454
  698ACTN    H3 7442   4.121   6.673   5.382
  699ACTN    H6 7443   1.719   1.368   2.200
  699ACTN    C3 7444   1.728   1.431   2.111
  699ACTN    H4 7445   1.821   1.406   2.061
  699ACTN    H5 7446   1.647   1.406   2.044
  699ACTN    C2 7447   1.721   1.576   2.148
  699ACTN    O1 7448   1.818   1.650   2.128
  699ACTN    C1 7449   1.597   1.629   2.213
  699ACTN    H1 7450   1.554   1.709   2.153
  699ACTN    H2 7451   1.619   1.668   2.312
  699ACTN    H3 7452   1.522   1.551   2.223
  700ACTN    H6 7453   0.812   6.161   1.672
  700ACTN    C3 7454   0.842   6.089   1.596
  700ACTN    H4 7455   0.938   6.119   1.557
  700ACTN    H5 7456   0.853   5.992   1.644
  700ACTN    C2 7457   0.742   6.081   1.485
  700ACTN    O1 7458   0.643   6.154   1.485
  700ACTN    C1 7459   0.768   5.986   1.374
  700ACTN    H1 7460   0.687   5.987   1.301
  700ACTN    H2 7461   0.777   5.884   1.412
  700ACTN    H3 7462   0.860   6.012   1.323
  701ACTN    H6 7463   1.317   6.558   3.084
  701ACTN    C3 7464   1.414   6.588   3.046
  701ACTN    H4 7465   1.437   6.687   3.086
  701ACTN    H5 7466   1.490   6.519   3.082
  701ACTN    C2 7467   1.413   6.591   2.896
  701ACTN    O1 7468   1.374   6.493   2.834
  701ACTN    C1 7469   1.449   6.718   2.826
  701ACTN    H1 7470   1.371   6.792   2.841
  701ACTN    H2 7471   1.462   6.702   2.719
  701ACTN    H3 7472   1.542   6.757   2.866
  702ACTN    H6 7473   5.370   1.335   4.937
  702ACTN    C3 7474   5.276   1.386   4.915
  702ACTN    H4 7475   5.209   1.315   4.868
  702ACTN    H5 7476   5.231   1.418   5.008
  702ACTN    C2 7477   5.301   1.501   4.823
  702ACTN    O1 7478   5.284   1.617   4.862
  702ACTN    C1 7479   5.357   1.476   4.687
  702ACTN    H1 7480   5.452   1.526   4.674
  702ACTN    H2 7481   5.289   1.513   4.610
  702ACTN    H3 7482   5.372   1.370   4.670
  703ACTN    H6 7483   0.414   6.960   0.044
  703ACTN    C3 7484   0.339   7.038   0.056
  703ACTN    H4 7485   0.346   7.076   0.157
  703ACTN    H5 7486   0.363   7.119   8.987
  703ACTN    C2 7487   0.202   6.984   0.028
  703ACTN    O1 7488   0.173   6.946   8.915
  703ACTN    C1 7489   0.100   6.980   0.138
  703ACTN    H1 7490   0.014   7.041   0.111
  703ACTN    H2 7491   0.141   7.018   0.231
  703ACTN    H3 7492   0.067   6.878   0.154
  704ACTN    H6 7493   4.854   0.960   4.733
  704ACTN    C3 7494   4.785   0.980   4.651
  704ACTN    H4 7495   4.801   1.083   4.619
  704ACTN    H5 7496   4.810   0.915   4.568
  704ACTN    C2 7497   4.642   0.962   4.693
  704ACTN    O1 7498   4.614   0.913   4.802
  704ACTN    C1 7499   4.536   0.988   4.591
  704ACTN    H1 7500   4.436   0.974   4.632
  704ACTN    H2 7501   4.548   0.922   4.505
  704ACTN    H3 7502   4.543   1.091   4.555
  705ACTN    H6 7503   5.962   5.655   6.793
  705ACTN    C3 7504   5.887   5.598   6.848
  705ACTN    H4 7505   5.933   5.505   6.881
  705ACTN    H5 7506   5.858   5.655   6.935
  705ACTN    C2 7507   5.768   5.572   6.761
  705ACTN    O1 7508   5.743   5.458   6.722
  705ACTN    C1 7509   5.688   5.688   6.712
  705ACTN    H1 7510   5.748   5.751   6.647
  705ACTN    H2 7511   5.655   5.748   6.796
  705ACTN    H3 7512   5.599   5.655   6.658
  706ACTN    H6 7513   6.544   6.085   1.970
  706ACTN    C3 7514   6.560   6.117   1.867
  706ACTN    H4 7515   6.473   6.090   1.808
  706ACTN    H5 7516   6.570   6.225   1.867
  706ACTN    C2 7517   6.683   6.051   1.812
  706ACTN    O1 7518   6.773   6.118   1.762
  706ACTN    C1 7519   6.690   5.902   1.812
  706ACTN    H1 7520   6.600   5.859   1.855
  706ACTN    H2 7521   6.776   5.868   1.870
  706ACTN    H3 7522   6.701   5.865   1.710
  707ACTN    H6 7523   0.303   0.448   7.119
  707ACTN    C3 7524   0.411   0.461   7.117
  707ACTN    H4 7525   0.440   0.486   7.016
  707ACTN    H5 7526   0.436   0.545   7.182
  707ACTN    C2 7527   0.482   0.338   7.164
  707ACTN    O1 7528   0.604   0.332   7.161
  707ACTN    C1 7529   0.403   0.218   7.205
  707ACTN    H1 7530   0.436   0.130   7.150
  707ACTN    H2 7531   0.297   0.232   7.187
  707ACTN    H3 7532   0.417   0.199   7.311
  708ACTN    H6 7533   6.377   5.075   2.158
  708ACTN    C3 7534   6.419   5.130   2.074
  708ACTN    H4 7535   6.342   5.195   2.034
  708ACTN    H5 7536   6.501   5.190   2.111
  708ACTN    C2 7537   6.468   5.037   1.968
  708ACTN    O1 7538   6.510   5.082   1.862
  708ACTN    C1 7539   6.460   4.889   1.989
  708ACTN    H1 7540   6.415   4.840   1.903
  708ACTN    H2 7541   6.399   4.865   2.076
  708ACTN    H3 7542   6.560   4.847   2.005
  709ACTN    H6 7543   5.088   5.763   0.220
  709ACTN    C3 7544   5.103   5.777   0.327
  709ACTN    H4 7545   5.009   5.814   0.369
  709ACTN    H5 7546   5.124   5.680   0.371
  709ACTN    C2 7547   5.214   5.873   0.356
  709ACTN    O1 7548   5.280   5.922   0.265
  709ACTN    C1 7549   5.245   5.907   0.498
  709ACTN    H1 7550   5.176   5.858   0.565
  709ACTN    H2 7551   5.239   6.014   0.515
  709ACTN    H3 7552   5.346   5.874   0.523
  710ACTN    H6 7553   6.294   5.387   6.475
  710ACTN    C3 7554   6.301   5.324   6.387
  710ACTN    H4 7555   6.278   5.386   6.300
  710ACTN    H5 7556   6.403   5.289   6.378
  710ACTN    C2 7557   6.205   5.210   6.396
  710ACTN    O1 7558   6.201   5.127   6.306
  710ACTN    C1 7559   6.120   5.194   6.518
  710ACTN    H1 7560   6.056   5.281   6.531
  710ACTN    H2 7561   6.182   5.183   6.607
  710ACTN    H3 7562   6.056   5.106   6.511
  711ACTN    H6 7563   6.992   3.826   6.385
  711ACTN    C3 7564   6.918   3.759   6.342
  711ACTN    H4 7565   6.962   3.660   6.336
  711ACTN    H5 7566   6.833   3.753   6.410
  711ACTN    C2 7567   6.873   3.807   6.208
  711ACTN    O1 7568   6.835   3.924   6.195
  711ACTN    C1 7569   6.886   3.719   6.088
  711ACTN    H1 7570   6.787   3.693   6.050
  711ACTN    H2 7571   6.938   3.626   6.113
  711ACTN    H3 7572   6.941   3.769   6.009
  712ACTN    H6 7573   4.580   2.838   1.240
  712ACTN    C3 7574   4.489   2.887   1.206
  712ACTN    H4 7575   4.510   2.994   1.195
  712ACTN    H5 7576   4.463   2.847   1.109
  712ACTN    C2 7577   4.376   2.867   1.302
  712ACTN    O1 7578   4.395   2.815   1.411
  712ACTN    C1 7579   4.242   2.924   1.268
  712ACTN    H1 7580   4.208   2.992   1.345
  712ACTN    H2 7581   4.169   2.844   1.257
  712ACTN    H3 7582   4.246   2.979   1.174
  713ACTN    H6 7583   2.882   0.212   3.000
  713ACTN    C3 7584   2.882   0.106   3.026
  713ACTN    H4 7585   2.986   0.075   3.036
  713ACTN    H5 7586   2.834   0.095   3.123
  713ACTN    C2 7587   2.813   0.024   2.922
  713ACTN    O1 7588   2.748   0.078   2.833
  713ACTN    C1 7589   2.804   8.876   2.943
  713ACTN    H1 7590   2.743   8.853   3.030
  713ACTN    H2 7591   2.903   8.834   2.958
  713ACTN    H3 7592   2.761   8.826   2.856
  714ACTN    H6 7593   6.327   0.506   3.748
  714ACTN    C3 7594   6.428   0.466   3.742
  714ACTN    H4 7595   6.436   0.384   3.813
  714ACTN    H5 7596   6.443   0.426   3.642
  714ACTN    C2 7597   6.530   0.571   3.773
  714ACTN    O1 7598   6.650   0.544   3.769
  714ACTN    C1 7599   6.486   0.711   3.804
  714ACTN    H1 7600   6.520   0.739   3.904
  714ACTN    H2 7601   6.377   0.719   3.802
  714ACTN    H3 7602   6.527   0.781   3.733
  715ACTN    H6 7603   5.917   4.125   5.728
  715ACTN    C3 7604   5.934   4.091   5.830
  715ACTN    H4 7605   5.966   4.177   5.889
  715ACTN    H5 7606   5.840   4.054   5.871
  715ACTN    C2 7607   6.040   3.985   5.832
  715ACTN    O1 7608   6.014   3.871   5.869
  715ACTN    C1 7609   6.176   4.020   5.781
  715ACTN    H1 7610   6.246   3.938   5.796
  715ACTN    H2 7611   6.215   4.108   5.831
  715ACTN    H3 7612   6.172   4.041   5.674
  716ACTN    H6 7613   0.285   5.975   3.741
  716ACTN    C3 7614   0.372   5.940   3.796
  716ACTN    H4 7615   0.340   5.908   3.895
  716ACTN    H5 7616   0.412   5.854   3.743
  716ACTN    C2 7617   0.476   6.048   3.807
  716ACTN    O1 7618   0.451   6.162   3.772
  716ACTN    C1 7619   0.605   6.015   3.874
  716ACTN    H1 7620   0.607   5.913   3.910
  716ACTN    H2 7621   0.622   6.082   3.957
  716ACTN    H3 7622   0.687   6.028   3.803
  717ACTN    H6 7623   5.991   4.260   5.541
  717ACTN    C3 7624   5.940   4.307   5.457
  717ACTN    H4 7625   5.853   4.248   5.431
  717ACTN    H5 7626   5.906   4.405   5.489
  717ACTN    C2 7627   6.032   4.320   5.339
  717ACTN    O1 7628   5.992   4.373   5.236
  717ACTN    C1 7629   6.172   4.268   5.347
  717ACTN    H1 7630   6.191   4.220   5.442
  717ACTN    H2 7631   6.243   4.350   5.336
  717ACTN    H3 7632   6.191   4.196   5.268
  718ACTN    H6 7633   6.300   6.686   1.125
  718ACTN    C3 7634   6.239   6.623   1.060
  718ACTN    H4 7635   6.254   6.656   0.957
  718ACTN    H5 7636   6.276   6.521   1.069
  718ACTN    C2 7637   6.095   6.632   1.098
  718ACTN    O1 7638   6.036   6.739   1.091
  718ACTN    C1 7639   6.023   6.510   1.146
  718ACTN    H1 7640   5.979   6.527   1.244
  718ACTN    H2 7641   6.090   6.425   1.153
  718ACTN    H3 7642   5.942   6.484   1.077
  719ACTN    H6 7643   0.810   6.554   1.479
  719ACTN    C3 7644   0.817   6.473   1.551
  719ACTN    H4 7645   0.783   6.510   1.647
  719ACTN    H5 7646   0.751   6.394   1.519
  719ACTN    C2 7647   0.958   6.423   1.559
  719ACTN    O1 7648   1.015   6.381   1.458
  719ACTN    C1 7649   1.028   6.427   1.691
  719ACTN    H1 7650   1.131   6.393   1.682
  719ACTN    H2 7651   0.977   6.363   1.763
  719ACTN    H3 7652   1.030   6.529   1.730
  720ACTN    H6 7653   3.380   5.874   5.845
  720ACTN    C3 7654   3.356   5.859   5.950
  720ACTN    H4 7655   3.412   5.774   5.986
  720ACTN    H5 7656   3.388   5.947   6.005
  720ACTN    C2 7657   3.209   5.836   5.969
  720ACTN    O1 7658   3.131   5.851   5.875
  720ACTN    C1 7659   3.159   5.815   6.108
  720ACTN    H1 7660   3.053   5.789   6.108
  720ACTN    H2 7661   3.170   5.907   6.166
  720ACTN    H3 7662   3.214   5.736   6.158
  721ACTN    H6 7663   4.773   2.284   0.876
  721ACTN    C3 7664   4.721   2.379   0.869
  721ACTN    H4 7665   4.670   2.397   0.963
  721ACTN    H5 7666   4.795   2.457   0.855
  721ACTN    C2 7667   4.622   2.377   0.756
  721ACTN    O1 7668   4.644   2.440   0.653
  721ACTN    C1 7669   4.508   2.281   0.764
  721ACTN    H1 7670   4.545   2.178   0.764
  721ACTN    H2 7671   4.439   2.294   0.681
  721ACTN    H3 7672   4.453   2.297   0.857
  722ACTN    H6 7673   7.298   6.749   4.164
  722ACTN    C3 7674   7.260   6.737   4.265
  722ACTN    H4 7675   7.216   6.638   4.274
  722ACTN    H5 7676   7.343   6.743   4.335
  722ACTN    C2 7677   7.158   6.841   4.298
  722ACTN    O1 7678   7.138   6.935   4.223
  722ACTN    C1 7679   7.095   6.838   4.434
  722ACTN    H1 7680   7.047   6.742   4.451
  722ACTN    H2 7681   7.020   6.916   4.445
  722ACTN    H3 7682   7.171   6.852   4.511
  723ACTN    H6 7683   7.137   2.002   6.495
  723ACTN    C3 7684   7.052   1.950   6.538
  723ACTN    H4 7685   6.964   2.013   6.525
  723ACTN    H5 7686   7.069   1.937   6.645
  723ACTN    C2 7687   7.034   1.817   6.471
  723ACTN    O1 7688   6.924   1.782   6.428
  723ACTN    C1 7689   7.149   1.722   6.473
  723ACTN    H1 7690   7.178   1.699   6.575
  723ACTN    H2 7691   7.235   1.766   6.422
  723ACTN    H3 7692   7.124   1.628   6.423
  724ACTN    H6 7693   0.995   7.313   5.074
  724ACTN    C3 7694   0.966   7.383   4.997
  724ACTN    H4 7695   0.920   7.469   5.045
  724ACTN    H5 7696   1.055   7.416   4.944
  724ACTN    C2 7697   0.868   7.321   4.901
  724ACTN    O1 7698   0.830   7.384   4.804
  724ACTN    C1 7699   0.827   7.178   4.918
  724ACTN    H1 7700   0.847   7.122   4.827
  724ACTN    H2 7701   0.720   7.172   4.939
  724ACTN    H3 7702   0.880   7.131   5.000
  725ACTN    H6 7703   0.420   6.598   2.110
  725ACTN    C3 7704   0.490   6.621   2.189
  725ACTN    H4 7705   0.445   6.692   2.258
  725ACTN    H5 7706   0.510   6.529   2.244
  725ACTN    C2 7707   0.618   6.674   2.132
  725ACTN    O1 7708   0.665   6.780   2.170
  725ACTN    C1 7709   0.686   6.595   2.024
  725ACTN    H1 7710   0.780   6.642   1.994
  725ACTN    H2 7711   0.622   6.588   1.937
  725ACTN    H3 7712   0.707   6.494   2.059
  726ACTN    H6 7713   0.799   1.646   5.216
  726ACTN    C3 7714   0.832   1.716   5.139
  726ACTN    H4 7715   0.865   1.808   5.188
  726ACTN    H5 7716   0.916   1.672   5.087
  726ACTN    C2 7717   0.722   1.747   5.042
  726ACTN    O1 7718   0.616   1.686   5.048
  726ACTN    C1 7719   0.747   1.842   4.930
  726ACTN    H1 7720   0.851   1.874   4.929
  726ACTN    H2 7721   0.684   1.931   4.943
  726ACTN    H3 7722   0.723   1.797   4.834
  727ACTN    H6 7723   2.374   1.156   4.338
  727ACTN    C3 7724   2.462   1.179   4.398
  727ACTN    H4 7725   2.437   1.260   4.466
  727ACTN    H5 7726   2.490   1.092   4.456
  727ACTN    C2 7727   2.575   1.219   4.307
  727ACTN    O1 7728   2.623   1.138   4.228
  727ACTN    C1 7729   2.635   1.356   4.316
  727ACTN    H1 7730   2.586   1.414   4.394
  727ACTN    H2 7731   2.623   1.408   4.222
  727ACTN    H3 7732   2.741   1.350   4.339
  728ACTN    H6 7733   1.324   3.344   3.005
  728ACTN    C3 7734   1.245   3.272   3.028
  728ACTN    H4 7735   1.245   3.255   3.135
  728ACTN    H5 7736   1.150   3.317   3.000
  728ACTN    C2 7737   1.266   3.144   2.955
  728ACTN    O1 7738   1.183   3.054   2.967
  728ACTN    C1 7739   1.382   3.131   2.861
  728ACTN    H1 7740   1.475   3.147   2.914
  728ACTN    H2 7741   1.375   3.206   2.781
  728ACTN    H3 7742   1.385   3.033   2.815
  729ACTN    H6 7743   1.966   8.991   4.883
  729ACTN    C3 7744   2.001   0.049   4.968
  729ACTN    H4 7745   2.040   8.981   5.043
  729ACTN    H5 7746   2.081   0.114   4.935
  729ACTN    C2 7747   1.888   0.129   5.026
  729ACTN    O1 7748   1.790   0.072   5.073
  729ACTN    C1 7749   1.897   0.279   5.024
  729ACTN    H1 7750   1.988   0.311   5.076
  729ACTN    H2 7751   1.812   0.325   5.074
  729ACTN    H3 7752   1.901   0.315   4.922
  730ACTN    H6 7753   2.713   6.821   6.732
  730ACTN    C3 7754   2.812   6.838   6.773
  730ACTN    H4 7755   2.819   6.941   6.805
  730ACTN    H5 7756   2.825   6.774   6.860
  730ACTN    C2 7757   2.916   6.806   6.670
  730ACTN    O1 7758   3.004   6.888   6.642
  730ACTN    C1 7759   2.916   6.669   6.609
  730ACTN    H1 7760   2.821   6.650   6.560
  730ACTN    H2 7761   2.932   6.594   6.686
  730ACTN    H3 7762   2.995   6.659   6.535
  731ACTN    H6 7763   6.543   4.132   2.909
  731ACTN    C3 7764   6.632   4.151   2.850
  731ACTN    H4 7765   6.717   4.159   2.918
  731ACTN    H5 7766   6.649   4.065   2.785
  731ACTN    C2 7767   6.615   4.275   2.767
  731ACTN    O1 7768   6.698   4.366   2.772
  731ACTN    C1 7769   6.498   4.284   2.675
  731ACTN    H1 7770   6.436   4.370   2.701
  731ACTN    H2 7771   6.437   4.195   2.681
  731ACTN    H3 7772   6.531   4.296   2.572
  732ACTN    H6 7773   0.825   5.695   3.332
  732ACTN    C3 7774   0.916   5.751   3.309
  732ACTN    H4 7775   0.981   5.750   3.395
  732ACTN    H5 7776   0.967   5.701   3.226
  732ACTN    C2 7777   0.881   5.893   3.273
  732ACTN    O1 7778   0.891   5.933   3.157
  732ACTN    C1 7779   0.824   5.981   3.380
  732ACTN    H1 7780   0.729   5.942   3.414
  732ACTN    H2 7781   0.810   6.082   3.344
  732ACTN    H3 7782   0.891   5.984   3.465
  733ACTN    H6 7783   0.473   6.398   5.367
  733ACTN    C3 7784   0.557   6.330   5.356
  733ACTN    H4 7785   0.567   6.273   5.448
  733ACTN    H5 7786   0.534   6.260   5.275
  733ACTN    C2 7787   0.684   6.403   5.326
  733ACTN    O1 7788   0.789   6.342   5.313
  733ACTN    C1 7789   0.682   6.552   5.319
  733ACTN    H1 7790   0.651   6.594   5.415
  733ACTN    H2 7791   0.612   6.586   5.243
  733ACTN    H3 7792   0.780   6.593   5.296
  734ACTN    H6 7793   3.268   6.579   2.913
  734ACTN    C3 7794   3.275   6.671   2.971
  734ACTN    H4 7795   3.370   6.718   2.948
  734ACTN    H5 7796   3.195   6.737   2.940
  734ACTN    C2 7797   3.265   6.640   3.117
  734ACTN    O1 7798   3.165   6.586   3.162
  734ACTN    C1 7799   3.377   6.682   3.208
  734ACTN    H1 7800   3.357   6.654   3.311
  734ACTN    H2 7801   3.391   6.789   3.203
  734ACTN    H3 7802   3.469   6.634   3.176
  735ACTN    H6 7803   7.103   1.367   4.733
  735ACTN    C3 7804   7.189   1.321   4.781
  735ACTN    H4 7805   7.222   1.385   4.862
  735ACTN    H5 7806   7.160   1.225   4.822
  735ACTN    C2 7807   7.299   1.303   4.681
  735ACTN    O1 7808   7.280   1.235   4.580
  735ACTN    C1 7809   7.430   1.372   4.703
  735ACTN    H1 7810   7.502   1.347   4.625
  735ACTN    H2 7811   7.472   1.343   4.799
  735ACTN    H3 7812   7.415   1.480   4.703
  736ACTN    H6 7813   7.176   4.794   1.642
  736ACTN    C3 7814   7.173   4.779   1.534
  736ACTN    H4 7815   7.102   4.699   1.512
  736ACTN    H5 7816   7.138   4.870   1.488
  736ACTN    C2 7817   7.309   4.743   1.482
  736ACTN    O1 7818   7.327   4.732   1.362
  736ACTN    C1 7819   7.422   4.726   1.579
  736ACTN    H1 7820   7.399   4.647   1.651
  736ACTN    H2 7821   7.438   4.818   1.635
  736ACTN    H3 7822   7.515   4.700   1.529
  737ACTN    H6 7823   0.039   3.668   1.795
  737ACTN    C3 7824   0.063   3.770   1.765
  737ACTN    H4 7825   0.146   3.766   1.695
  737ACTN    H5 7826   8.977   3.812   1.714
  737ACTN    C2 7827   0.098   3.853   1.885
  737ACTN    O1 7828   0.212   3.895   1.902
  737ACTN    C1 7829   8.995   3.871   1.993
  737ACTN    H1 7830   0.030   3.831   2.088
  737ACTN    H2 7831   8.902   3.820   1.967
  737ACTN    H3 7832   8.973   3.977   2.006
  738ACTN    H6 7833   6.683   6.195   6.923
  738ACTN    C3 7834   6.635   6.158   7.013
  738ACTN    H4 7835   6.564   6.234   7.047
  738ACTN    H5 7836   6.580   6.068   6.989
  738ACTN    C2 7837   6.738   6.131   7.118
  738ACTN    O1 7838   6.822   6.043   7.101
  738ACTN    C1 7839   6.734   6.209   7.246
  738ACTN    H1 7840   6.815   6.181   7.312
  738ACTN    H2 7841   6.640   6.192   7.298
  738ACTN    H3 7842   6.743   6.316   7.225
  739ACTN    H6 7843   2.832   0.071   4.675
  739ACTN    C3 7844   2.940   0.065   4.676
  739ACTN    H4 7845   2.968   8.961   4.661
  739ACTN    H5 7846   2.978   0.123   4.593
  739ACTN    C2 7847   2.996   0.116   4.806
  739ACTN    O1 7848   2.922   0.153   4.896
  739ACTN    C1 7849   3.145   0.115   4.824
  739ACTN    H1 7850   3.192   0.183   4.753
  739ACTN    H2 7851   3.185   0.016   4.809
  739ACTN    H3 7852   3.173   0.148   4.924
  740ACTN    H6 7853   7.536   1.822   1.429
  740ACTN    C3 7854   7.455   1.868   1.485
  740ACTN    H4 7855   7.400   1.790   1.537
  740ACTN    H5 7856   7.499   1.934   1.560
  740ACTN    C2 7857   7.364   1.943   1.394
  740ACTN    O1 7858   7.352   2.065   1.399
  740ACTN    C1 7859   7.295   1.865   1.286
  740ACTN    H1 7860   7.368   1.809   1.229
  740ACTN    H2 7861   7.240   1.931   1.219
  740ACTN    H3 7862   7.225   1.796   1.331
  741ACTN    H6 7863   3.676   0.968   5.904
  741ACTN    C3 7864   3.614   0.973   5.814
  741ACTN    H4 7865   3.548   1.059   5.823
  741ACTN    H5 7866   3.679   0.989   5.729
  741ACTN    C2 7867   3.534   0.848   5.796
  741ACTN    O1 7868   3.535   0.760   5.881
  741ACTN    C1 7869   3.447   0.836   5.675
  741ACTN    H1 7870   3.506   0.851   5.585
  741ACTN    H2 7871   3.368   0.911   5.678
  741ACTN    H3 7872   3.400   0.738   5.669
  742ACTN    H6 7873   2.346   6.860   3.264
  742ACTN    C3 7874   2.277   6.793   3.213
  742ACTN    H4 7875   2.191   6.776   3.279
  742ACTN    H5 7876   2.242   6.842   3.123
  742ACTN    C2 7877   2.343   6.663   3.180
  742ACTN    O1 7878   2.279   6.573   3.127
  742ACTN    C1 7879   2.487   6.642   3.218
  742ACTN    H1 7880   2.498   6.650   3.326
  742ACTN    H2 7881   2.549   6.718   3.172
  742ACTN    H3 7882   2.522   6.544   3.187
  743ACTN    H6 7883   2.059   2.103   1.399
  743ACTN    C3 7884   2.112   2.189   1.439
  743ACTN    H4 7885   2.148   2.162   1.538
  743ACTN    H5 7886   2.198   2.208   1.376
  743ACTN    C2 7887   2.024   2.309   1.443
  743ACTN    O1 7888   1.973   2.350   1.339
  743ACTN    C1 7889   1.994   2.375   1.573
  743ACTN    H1 7890   1.887   2.370   1.592
  743ACTN    H2 7891   2.023   2.480   1.570
  743ACTN    H3 7892   2.047   2.327   1.655
  744ACTN    H6 7893   1.169   6.399   2.236
  744ACTN    C3 7894   1.208   6.324   2.168
  744ACTN    H4 7895   1.127   6.288   2.106
  744ACTN    H5 7896   1.282   6.371   2.104
  744ACTN    C2 7897   1.270   6.212   2.246
  744ACTN    O1 7898   1.365   6.234   2.320
  744ACTN    C1 7899   1.215   6.073   2.230
  744ACTN    H1 7900   1.111   6.071   2.259
  744ACTN    H2 7901   1.269   6.002   2.293
  744ACTN    H3 7902   1.224   6.041   2.127
  745ACTN    H6 7903   3.935   5.702   4.456
  745ACTN    C3 7904   3.835   5.739   4.433
  745ACTN    H4 7905   3.827   5.752   4.325
  745ACTN    H5 7906   3.764   5.662   4.464
  745ACTN    C2 7907   3.806   5.867   4.505
  745ACTN    O1 7908   3.888   5.916   4.582
  745ACTN    C1 7909   3.674   5.933   4.483
  745ACTN    H1 7910   3.667   6.028   4.537
  745ACTN    H2 7911   3.593   5.869   4.518
  745ACTN    H3 7912   3.658   5.952   4.377
  746ACTN    H6 7913   5.377   1.627   5.448
  746ACTN    C3 7914   5.333   1.605   5.351
  746ACTN    H4 7915   5.413   1.599   5.278
  746ACTN    H5 7916   5.284   1.509   5.357
  746ACTN    C2 7917   5.235   1.711   5.310
  746ACTN    O1 7918   5.207   1.804   5.386
  746ACTN    C1 7919   5.165   1.700   5.179
  746ACTN    H1 7920   5.057   1.697   5.193
  746ACTN    H2 7921   5.195   1.610   5.127
  746ACTN    H3 7922   5.189   1.786   5.117
  747ACTN    H6 7923   1.216   1.291   6.115
  747ACTN    C3 7924   1.219   1.199   6.172
  747ACTN    H4 7925   1.135   1.198   6.241
  747ACTN    H5 7926   1.207   1.115   6.104
  747ACTN    C2 7927   1.348   1.190   6.248
  747ACTN    O1 7928   1.428   1.099   6.226
  747ACTN    C1 7929   1.378   1.296   6.349
  747ACTN    H1 7930   1.301   1.298   6.426
  747ACTN    H2 7931   1.380   1.394   6.302
  747ACTN    H3 7932   1.474   1.280   6.398
  748ACTN    H6 7933   1.083   1.185   2.250
  748ACTN    C3 7934   1.183   1.159   2.283
  748ACTN    H4 7935   1.178   1.125   2.386
  748ACTN    H5 7936   1.218   1.076   2.222
  748ACTN    C2 7937   1.274   1.277   2.272
  748ACTN    O1 7938   1.255   1.378   2.340
  748ACTN    C1 7939   1.390   1.273   2.177
  748ACTN    H1 7940   1.483   1.286   2.232
  748ACTN    H2 7941   1.382   1.352   2.103
  748ACTN    H3 7942   1.395   1.178   2.125
  749ACTN    H6 7943   6.281   1.979   3.047
  749ACTN    C3 7944   6.360   1.915   3.085
  749ACTN    H4 7945   6.447   1.976   3.103
  749ACTN    H5 7946   6.327   1.872   3.179
  749ACTN    C2 7947   6.389   1.807   2.985
  749ACTN    O1 7948   6.411   1.835   2.867
  749ACTN    C1 7949   6.399   1.665   3.027
  749ACTN    H1 7950   6.332   1.603   2.968
  749ACTN    H2 7951   6.372   1.654   3.132
  749ACTN    H3 7952   6.500   1.627   3.015
  750ACTN    H6 7953   7.097   5.873   3.647
  750ACTN    C3 7954   7.002   5.841   3.690
  750ACTN    H4 7955   6.923   5.875   3.624
  750ACTN    H5 7956   7.000   5.733   3.693
  750ACTN    C2 7957   6.983   5.900   3.827
  750ACTN    O1 7958   6.993   6.021   3.843
  750ACTN    C1 7959   6.959   5.811   3.944
  750ACTN    H1 7960   7.031   5.829   4.023
  750ACTN    H2 7961   6.964   5.706   3.916
  750ACTN    H3 7962   6.859   5.829   3.985
  751ACTN    H6 7963   5.452   2.024   7.196
  751ACTN    C3 7964   5.522   1.985   7.270
  751ACTN    H4 7965   5.593   2.064   7.295
  751ACTN    H5 7966   5.466   1.961   7.361
  751ACTN    C2 7967   5.594   1.865   7.220
  751ACTN    O1 7968   5.673   1.804   7.292
  751ACTN    C1 7969   5.568   1.817   7.080
  751ACTN    H1 7970   5.623   1.726   7.058
  751ACTN    H2 7971   5.598   1.893   7.008
  751ACTN    H3 7972   5.462   1.796   7.066
  752ACTN    H6 7973   2.457   7.005   5.342
  752ACTN    C3 7974   2.386   7.088   5.339
  752ACTN    H4 7975   2.286   7.048   5.352
  752ACTN    H5 7976   2.408   7.154   5.422
  752ACTN    C2 7977   2.397   7.160   5.208
  752ACTN    O1 7978   2.366   7.102   5.104
  752ACTN    C1 7979   2.433   7.306   5.206
  752ACTN    H1 7980   2.442   7.345   5.307
  752ACTN    H2 7981   2.358   7.363   5.153
  752ACTN    H3 7982   2.528   7.319   5.156
  753ACTN    H6 7983   6.856   6.686   2.316
  753ACTN    C3 7984   6.891   6.619   2.395
  753ACTN    H4 7985   7.000   6.617   2.392
  753ACTN    H5 7986   6.861   6.660   2.491
  753ACTN    C2 7987   6.837   6.481   2.378
  753ACTN    O1 7988   6.754   6.456   2.291
  753ACTN    C1 7989   6.882   6.374   2.472
  753ACTN    H1 7990   6.930   6.293   2.417
  753ACTN    H2 7991   6.797   6.333   2.526
  753ACTN    H3 7992   6.953   6.413   2.544
  754ACTN    H6 7993   0.943   0.562   4.985
  754ACTN    C3 7994   0.916   0.660   5.022
  754ACTN    H4 7995   0.957   0.736   4.956
  754ACTN    H5 7996   0.807   0.668   5.019
  754ACTN    C2 7997   0.967   0.678   5.162
  754ACTN    O1 7998   0.891   0.710   5.253
  754ACTN    C1 7999   1.114   0.669   5.185
  754ACTN    H1 8000   1.153   0.576   5.144
  754ACTN    H2 8001   1.138   0.672   5.291
  754ACTN    H3 8002   1.165   0.752   5.136
  755ACTN    H6 8003   2.539   0.891   5.177
  755ACTN    C3 8004   2.587   0.985   5.153
  755ACTN    H4 8005   2.612   0.985   5.048
  755ACTN    H5 8006   2.515   1.065   5.171
  755ACTN    C2 8007   2.708   1.005   5.238
  755ACTN    O1 8008   2.699   1.004   5.361
  755ACTN    C1 8009   2.842   1.028   5.174
  755ACTN    H1 8010   2.833   1.030   5.066
  755ACTN    H2 8011   2.910   0.948   5.201
  755ACTN    H3 8012   2.884   1.122   5.207
  756ACTN    H6 8013   4.629   2.195   2.253
  756ACTN    C3 8014   4.574   2.101   2.257
  756ACTN    H4 8015   4.469   2.122   2.240
  756ACTN    H5 8016   4.609   2.038   2.175
  756ACTN    C2 8017   4.593   2.031   2.388
  756ACTN    O1 8018   4.672   2.074   2.471
  756ACTN    C1 8019   4.522   1.901   2.410
  756ACTN    H1 8020   4.415   1.914   2.399
  756ACTN    H2 8021   4.542   1.861   2.509
  756ACTN    H3 8022   4.554   1.827   2.337
  757ACTN    H6 8023   4.778   4.116   7.175
  757ACTN    C3 8024   4.712   4.202   7.161
  757ACTN    H4 8025   4.622   4.186   7.219
  757ACTN    H5 8026   4.762   4.290   7.202
  757ACTN    C2 8027   4.682   4.222   7.016
  757ACTN    O1 8028   4.775   4.229   6.936
  757ACTN    C1 8029   4.540   4.226   6.968
  757ACTN    H1 8030   4.524   4.148   6.895
  757ACTN    H2 8031   4.519   4.322   6.923
  757ACTN    H3 8032   4.471   4.210   7.051
  758ACTN    H6 8033   0.471   1.021   5.664
  758ACTN    C3 8034   0.553   1.034   5.595
  758ACTN    H4 8035   0.642   0.989   5.638
  758ACTN    H5 8036   0.530   0.980   5.503
  758ACTN    C2 8037   0.576   1.180   5.569
  758ACTN    O1 8038   0.560   1.225   5.456
  758ACTN    C1 8039   0.601   1.271   5.684
  758ACTN    H1 8040   0.588   1.219   5.778
  758ACTN    H2 8041   0.534   1.357   5.682
  758ACTN    H3 8042   0.703   1.308   5.680
  759ACTN    H6 8043   7.190   5.433   1.229
  759ACTN    C3 8044   7.119   5.504   1.188
  759ACTN    H4 8045   7.024   5.493   1.240
  759ACTN    H5 8046   7.156   5.605   1.207
  759ACTN    C2 8047   7.101   5.482   1.041
  759ACTN    O1 8048   7.197   5.490   0.966
  759ACTN    C1 8049   6.964   5.454   0.988
  759ACTN    H1 8050   6.898   5.539   1.006
  759ACTN    H2 8051   6.921   5.368   1.039
  759ACTN    H3 8052   6.965   5.433   0.881
  760ACTN    H6 8053   1.239   7.122   4.961
  760ACTN    C3 8054   1.336   7.087   4.997
  760ACTN    H4 8055   1.356   6.991   4.951
  760ACTN    H5 8056   1.411   7.158   4.963
  760ACTN    C2 8057   1.335   7.075   5.146
  760ACTN    O1 8058   1.400   7.153   5.215
  760ACTN    C1 8059   1.244   6.976   5.211
  760ACTN    H1 8060   1.186   6.922   5.136
  760ACTN    H2 8061   1.175   7.026   5.279
  760ACTN    H3 8062   1.301   6.904   5.267
  761ACTN    H6 8063   0.403   4.599   4.028
  761ACTN    C3 8064   0.381   4.704   4.014
  761ACTN    H4 8065   0.366   4.721   3.908
  761ACTN    H5 8066   0.288   4.727   4.066
  761ACTN    C2 8067   0.493   4.789   4.063
  761ACTN    O1 8068   0.480   4.911   4.069
  761ACTN    C1 8069   0.616   4.723   4.118
  761ACTN    H1 8070   0.591   4.662   4.204
  761ACTN    H2 8071   0.691   4.796   4.149
  761ACTN    H3 8072   0.661   4.659   4.042
  762ACTN    H6 8073   2.896   6.918   3.911
  762ACTN    C3 8074   2.875   6.970   4.004
  762ACTN    H4 8075   2.798   6.916   4.059
  762ACTN    H5 8076   2.966   6.970   4.064
  762ACTN    C2 8077   2.831   7.111   3.979
  762ACTN    O1 8078   2.821   7.190   4.072
  762ACTN    C1 8079   2.809   7.155   3.838
  762ACTN    H1 8080   2.776   7.259   3.834
  762ACTN    H2 8081   2.734   7.093   3.790
  762ACTN    H3 8082   2.901   7.147   3.782
  763ACTN    H6 8083   1.848   7.023   3.108
  763ACTN    C3 8084   1.831   6.979   3.207
  763ACTN    H4 8085   1.915   6.914   3.230
  763ACTN    H5 8086   1.829   7.059   3.280
  763ACTN    C2 8087   1.703   6.901   3.208
  763ACTN    O1 8088   1.688   6.807   3.131
  763ACTN    C1 8089   1.593   6.939   3.302
  763ACTN    H1 8090   1.616   7.030   3.356
  763ACTN    H2 8091   1.577   6.860   3.375
  763ACTN    H3 8092   1.500   6.954   3.247
  764ACTN    H6 8093   4.821   2.509   4.901
  764ACTN    C3 8094   4.928   2.516   4.880
  764ACTN    H4 8095   4.954   2.621   4.869
  764ACTN    H5 8096   4.982   2.476   4.966
  764ACTN    C2 8097   4.961   2.439   4.756
  764ACTN    O1 8098   4.938   2.319   4.751
  764ACTN    C1 8099   5.015   2.513   4.638
  764ACTN    H1 8100   5.047   2.444   4.559
  764ACTN    H2 8101   5.099   2.575   4.666
  764ACTN    H3 8102   4.937   2.577   4.597
  765ACTN    H6 8103   3.631   5.897   0.732
  765ACTN    C3 8104   3.600   5.799   0.769
  765ACTN    H4 8105   3.655   5.723   0.713
  765ACTN    H5 8106   3.627   5.791   0.874
  765ACTN    C2 8107   3.453   5.779   0.751
  765ACTN    O1 8108   3.381   5.871   0.713
  765ACTN    C1 8109   3.395   5.645   0.785
  765ACTN    H1 8110   3.287   5.645   0.771
  765ACTN    H2 8111   3.417   5.619   0.888
  765ACTN    H3 8112   3.437   5.568   0.720
  766ACTN    H6 8113   3.925   4.380   2.845
  766ACTN    C3 8114   3.823   4.343   2.840
  766ACTN    H4 8115   3.822   4.255   2.776
  766ACTN    H5 8116   3.794   4.311   2.940
  766ACTN    C2 8117   3.728   4.446   2.789
  766ACTN    O1 8118   3.768   4.559   2.761
  766ACTN    C1 8119   3.584   4.410   2.774
  766ACTN    H1 8120   3.526   4.492   2.732
  766ACTN    H2 8121   3.542   4.384   2.871
  766ACTN    H3 8122   3.574   4.324   2.708
  767ACTN    H6 8123   7.271   0.041   4.118
  767ACTN    C3 8124   7.233   0.096   4.032
  767ACTN    H4 8125   7.301   0.083   3.949
  767ACTN    H5 8126   7.136   0.053   4.005
  767ACTN    C2 8127   7.215   0.241   4.065
  767ACTN    O1 8128   7.181   0.319   3.977
  767ACTN    C1 8129   7.260   0.291   4.199
  767ACTN    H1 8130   7.206   0.238   4.277
  767ACTN    H2 8131   7.240   0.397   4.210
  767ACTN    H3 8132   7.366   0.274   4.213
  768ACTN    H6 8133   3.392   3.246   2.696
  768ACTN    C3 8134   3.334   3.192   2.770
  768ACTN    H4 8135   3.237   3.168   2.726
  768ACTN    H5 8136   3.385   3.098   2.792
  768ACTN    C2 8137   3.319   3.274   2.894
  768ACTN    O1 8138   3.208   3.307   2.934
  768ACTN    C1 8139   3.442   3.313   2.970
  768ACTN    H1 8140   3.531   3.274   2.923
  768ACTN    H2 8141   3.436   3.275   3.072
  768ACTN    H3 8142   3.450   3.422   2.974
  769ACTN    H6 8143   1.736   1.109   4.438
  769ACTN    C3 8144   1.661   1.035   4.461
  769ACTN    H4 8145   1.567   1.085   4.481
  769ACTN    H5 8146   1.648   0.971   4.374
  769ACTN    C2 8147   1.704   0.955   4.580
  769ACTN    O1 8148   1.724   1.010   4.688
  769ACTN    C1 8149   1.722   0.806   4.568
  769ACTN    H1 8150   1.704   0.773   4.466
  769ACTN    H2 8151   1.653   0.755   4.634
  769ACTN    H3 8152   1.823   0.779   4.596
  770ACTN    H6 8153   4.726   1.764   5.236
  770ACTN    C3 8154   4.685   1.676   5.188
  770ACTN    H4 8155   4.597   1.643   5.243
  770ACTN    H5 8156   4.652   1.703   5.088
  770ACTN    C2 8157   4.786   1.566   5.182
  770ACTN    O1 8158   4.831   1.520   5.287
  770ACTN    C1 8159   4.832   1.511   5.050
  770ACTN    H1 8160   4.804   1.406   5.042
  770ACTN    H2 8161   4.939   1.519   5.040
  770ACTN    H3 8162   4.786   1.565   4.968
  771ACTN    H6 8163   5.131   0.450   0.683
  771ACTN    C3 8164   5.213   0.383   0.658
  771ACTN    H4 8165   5.191   0.338   0.562
  771ACTN    H5 8166   5.304   0.442   0.648
  771ACTN    C2 8167   5.229   0.280   0.765
  771ACTN    O1 8168   5.262   0.314   0.878
  771ACTN    C1 8169   5.214   0.134   0.732
  771ACTN    H1 8170   5.202   0.119   0.625
  771ACTN    H2 8171   5.127   0.094   0.782
  771ACTN    H3 8172   5.302   0.078   0.765
  772ACTN    H6 8173   0.387   1.339   6.735
  772ACTN    C3 8174   0.396   1.257   6.807
  772ACTN    H4 8175   0.489   1.205   6.789
  772ACTN    H5 8176   0.399   1.301   6.907
  772ACTN    C2 8177   0.280   1.163   6.795
  772ACTN    O1 8178   0.268   1.071   6.875
  772ACTN    C1 8179   0.177   1.188   6.690
  772ACTN    H1 8180   0.098   1.113   6.694
  772ACTN    H2 8181   0.222   1.183   6.591
  772ACTN    H3 8182   0.132   1.286   6.703
  773ACTN    H6 8183   2.736   3.367   3.718
  773ACTN    C3 8184   2.843   3.354   3.733
  773ACTN    H4 8185   2.894   3.402   3.650
  773ACTN    H5 8186   2.870   3.405   3.824
  773ACTN    C2 8187   2.876   3.208   3.742
  773ACTN    O1 8188   2.955   3.157   3.663
  773ACTN    C1 8189   2.815   3.128   3.852
  773ACTN    H1 8190   2.751   3.189   3.915
  773ACTN    H2 8191   2.892   3.083   3.914
  773ACTN    H3 8192   2.754   3.048   3.810
  774ACTN    H6 8193   0.458   3.016   1.721
  774ACTN    C3 8194   0.364   2.967   1.698
  774ACTN    H4 8195   0.324   3.009   1.606
  774ACTN    H5 8196   0.384   2.862   1.680
  774ACTN    C2 8197   0.266   2.985   1.810
  774ACTN    O1 8198   0.232   2.890   1.880
  774ACTN    C1 8199   0.219   3.124   1.842
  774ACTN    H1 8200   0.252   3.152   1.942
  774ACTN    H2 8201   0.110   3.127   1.840
  774ACTN    H3 8202   0.257   3.196   1.771
  775ACTN    H6 8203   5.067   2.527   6.412
  775ACTN    C3 8204   5.032   2.630   6.407
  775ACTN    H4 8205   5.049   2.667   6.306
  775ACTN    H5 8206   4.925   2.631   6.426
  775ACTN    C2 8207   5.103   2.715   6.508
  775ACTN    O1 8208   5.096   2.688   6.627
  775ACTN    C1 8209   5.184   2.831   6.461
  775ACTN    H1 8210   5.122   2.900   6.405
  775ACTN    H2 8211   5.265   2.798   6.396
  775ACTN    H3 8212   5.228   2.886   6.544
  776ACTN    H6 8213   1.469   5.958   4.487
  776ACTN    C3 8214   1.535   5.880   4.449
  776ACTN    H4 8215   1.513   5.865   4.344
  776ACTN    H5 8216   1.637   5.914   4.458
  776ACTN    C2 8217   1.514   5.753   4.526
  776ACTN    O1 8218   1.404   5.700   4.529
  776ACTN    C1 8219   1.630   5.693   4.599
  776ACTN    H1 8220   1.604   5.600   4.648
  776ACTN    H2 8221   1.665   5.762   4.676
  776ACTN    H3 8222   1.713   5.675   4.531
  777ACTN    H6 8223   1.944   2.446   4.892
  777ACTN    C3 8224   1.960   2.340   4.879
  777ACTN    H4 8225   2.066   2.320   4.887
  777ACTN    H5 8226   1.928   2.312   4.778
  777ACTN    C2 8227   1.882   2.262   4.980
  777ACTN    O1 8228   1.760   2.273   4.986
  777ACTN    C1 8229   1.955   2.166   5.069
  777ACTN    H1 8230   2.002   2.088   5.009
  777ACTN    H2 8231   1.888   2.119   5.141
  777ACTN    H3 8232   2.033   2.219   5.124
  778ACTN    H6 8233   0.784   4.406   1.222
  778ACTN    C3 8234   0.802   4.496   1.280
  778ACTN    H4 8235   0.906   4.497   1.310
  778ACTN    H5 8236   0.783   4.583   1.218
  778ACTN    C2 8237   0.714   4.497   1.402
  778ACTN    O1 8238   0.717   4.403   1.480
  778ACTN    C1 8239   0.615   4.608   1.422
  778ACTN    H1 8240   0.513   4.568   1.427
  778ACTN    H2 8241   0.619   4.680   1.342
  778ACTN    H3 8242   0.635   4.659   1.516
  779ACTN    H6 8243   0.559   7.518   2.358
  779ACTN    C3 8244   0.620   7.489   2.443
  779ACTN    H4 8245   0.679   7.575   2.474
  779ACTN    H5 8246   0.554   7.460   2.524
  779ACTN    C2 8247   0.710   7.375   2.407
  779ACTN    O1 8248   0.792   7.333   2.488
  779ACTN    C1 8249   0.695   7.307   2.274
  779ACTN    H1 8250   0.612   7.348   2.218
  779ACTN    H2 8251   0.677   7.200   2.288
  779ACTN    H3 8252   0.785   7.319   2.215
  780ACTN    H6 8253   4.435   5.516   0.040
  780ACTN    C3 8254   4.420   5.414   0.075
  780ACTN    H4 8255   4.374   5.419   0.174
  780ACTN    H5 8256   4.351   5.364   0.008
  780ACTN    C2 8257   4.551   5.342   0.081
  780ACTN    O1 8258   4.629   5.366   0.172
  780ACTN    C1 8259   4.572   5.223   8.992
  780ACTN    H1 8260   4.674   5.186   9.000
  780ACTN    H2 8261   4.553   5.250   8.888
  780ACTN    H3 8262   4.504   5.143   0.020
  781ACTN    H6 8263   5.436   5.797   3.683
  781ACTN    C3 8264   5.455   5.800   3.576
  781ACTN    H4 8265   5.404   5.716   3.530
  781ACTN    H5 8266   5.411   5.892   3.536
  781ACTN    C2 8267   5.601   5.795   3.545
  781ACTN    O1 8268   5.684   5.794   3.635
  781ACTN    C1 8269   5.643   5.800   3.402
  781ACTN    H1 8270   5.594   5.721   3.345
  781ACTN    H2 8271   5.751   5.786   3.392
  781ACTN    H3 8272   5.617   5.895   3.357
  782ACTN    H6 8273   1.197   0.227   2.934
  782ACTN    C3 8274   1.251   0.299   2.996
  782ACTN    H4 8275   1.182   0.379   3.022
  782ACTN    H5 8276   1.281   0.248   3.087
  782ACTN    C2 8277   1.371   0.350   2.922
  782ACTN    O1 8278   1.384   0.470   2.899
  782ACTN    C1 8279   1.478   0.252   2.885
  782ACTN    H1 8280   1.517   0.204   2.974
  782ACTN    H2 8281   1.560   0.301   2.833
  782ACTN    H3 8282   1.436   0.176   2.820
  783ACTN    H6 8283   1.776   6.649   6.581
  783ACTN    C3 8284   1.874   6.693   6.565
  783ACTN    H4 8285   1.862   6.795   6.529
  783ACTN    H5 8286   1.927   6.697   6.660
  783ACTN    C2 8287   1.951   6.612   6.465
  783ACTN    O1 8288   1.914   6.608   6.348
  783ACTN    C1 8289   2.076   6.540   6.507
  783ACTN    H1 8290   2.095   6.553   6.613
  783ACTN    H2 8291   2.161   6.577   6.452
  783ACTN    H3 8292   2.066   6.433   6.487
  784ACTN    H6 8293   6.707   6.084   5.598
  784ACTN    C3 8294   6.639   6.003   5.572
  784ACTN    H4 8295   6.680   5.950   5.486
  784ACTN    H5 8296   6.635   5.934   5.655
  784ACTN    C2 8297   6.502   6.057   5.542
  784ACTN    O1 8298   6.452   6.042   5.431
  784ACTN    C1 8299   6.431   6.134   5.648
  784ACTN    H1 8300   6.331   6.163   5.615
  784ACTN    H2 8301   6.486   6.224   5.673
  784ACTN    H3 8302   6.421   6.073   5.738
  785ACTN    H6 8303   1.094   2.737   4.409
  785ACTN    C3 8304   1.198   2.767   4.401
  785ACTN    H4 8305   1.231   2.746   4.299
  785ACTN    H5 8306   1.205   2.874   4.418
  785ACTN    C2 8307   1.282   2.692   4.500
  785ACTN    O1 8308   1.258   2.701   4.620
  785ACTN    C1 8309   1.395   2.606   4.452
  785ACTN    H1 8310   1.381   2.503   4.486
  785ACTN    H2 8311   1.490   2.643   4.491
  785ACTN    H3 8312   1.401   2.606   4.344
  786ACTN    H6 8313   0.056   5.083   4.293
  786ACTN    C3 8314   0.003   5.031   4.372
  786ACTN    H4 8315   0.036   5.072   4.467
  786ACTN    H5 8316   8.896   5.049   4.361
  786ACTN    C2 8317   0.031   4.884   4.367
  786ACTN    O1 8318   8.987   4.810   4.455
  786ACTN    C1 8319   0.119   4.831   4.259
  786ACTN    H1 8320   0.080   4.859   4.161
  786ACTN    H2 8321   0.126   4.723   4.262
  786ACTN    H3 8322   0.220   4.872   4.268
  787ACTN    H6 8323   0.458   3.145   0.959
  787ACTN    C3 8324   0.458   3.111   1.063
  787ACTN    H4 8325   0.415   3.011   1.066
  787ACTN    H5 8326   0.562   3.104   1.096
  787ACTN    C2 8327   0.381   3.203   1.152
  787ACTN    O1 8328   0.350   3.316   1.113
  787ACTN    C1 8329   0.364   3.168   1.296
  787ACTN    H1 8330   0.419   3.076   1.319
  787ACTN    H2 8331   0.259   3.150   1.317
  787ACTN    H3 8332   0.400   3.247   1.361
  788ACTN    H6 8333   3.052   4.497   6.402
  788ACTN    C3 8334   3.041   4.411   6.335
  788ACTN    H4 8335   3.138   4.365   6.324
  788ACTN    H5 8336   2.974   4.340   6.383
  788ACTN    C2 8337   2.989   4.455   6.202
  788ACTN    O1 8338   2.882   4.412   6.160
  788ACTN    C1 8339   3.068   4.551   6.119
  788ACTN    H1 8340   3.085   4.510   6.020
  788ACTN    H2 8341   3.165   4.570   6.164
  788ACTN    H3 8342   3.015   4.646   6.109
  789ACTN    H6 8343   1.095   1.904   4.754
  789ACTN    C3 8344   1.149   1.972   4.688
  789ACTN    H4 8345   1.077   2.020   4.622
  789ACTN    H5 8346   1.195   2.049   4.749
  789ACTN    C2 8347   1.253   1.899   4.609
  789ACTN    O1 8348   1.323   1.961   4.529
  789ACTN    C1 8349   1.267   1.751   4.622
  789ACTN    H1 8350   1.195   1.710   4.691
  789ACTN    H2 8351   1.367   1.725   4.657
  789ACTN    H3 8352   1.252   1.703   4.525
  790ACTN    H6 8353   0.461   1.697   1.180
  790ACTN    C3 8354   0.494   1.773   1.250
  790ACTN    H4 8355   0.490   1.731   1.350
  790ACTN    H5 8356   0.598   1.797   1.227
  790ACTN    C2 8357   0.407   1.895   1.240
  790ACTN    O1 8358   0.287   1.887   1.266
  790ACTN    C1 8359   0.467   2.027   1.205
  790ACTN    H1 8360   0.420   2.068   1.116
  790ACTN    H2 8361   0.574   2.018   1.185
  790ACTN    H3 8362   0.454   2.099   1.286
  791ACTN    H6 8363   3.173   3.472   5.338
  791ACTN    C3 8364   3.121   3.489   5.244
  791ACTN    H4 8365   3.134   3.593   5.215
  791ACTN    H5 8366   3.166   3.428   5.167
  791ACTN    C2 8367   2.976   3.455   5.257
  791ACTN    O1 8368   2.941   3.349   5.307
  791ACTN    C1 8369   2.875   3.559   5.217
  791ACTN    H1 8370   2.774   3.523   5.228
  791ACTN    H2 8371   2.890   3.589   5.114
  791ACTN    H3 8372   2.886   3.647   5.280
  792ACTN    H6 8373   5.241   3.176   1.477
  792ACTN    C3 8374   5.309   3.255   1.509
  792ACTN    H4 8375   5.290   3.273   1.615
  792ACTN    H5 8376   5.285   3.345   1.454
  792ACTN    C2 8377   5.451   3.213   1.486
  792ACTN    O1 8378   5.496   3.207   1.372
  792ACTN    C1 8379   5.540   3.196   1.604
  792ACTN    H1 8380   5.639   3.162   1.574
  792ACTN    H2 8381   5.498   3.123   1.673
  792ACTN    H3 8382   5.551   3.290   1.658
  793ACTN    H6 8383   2.290   0.554   4.944
  793ACTN    C3 8384   2.380   0.520   4.996
  793ACTN    H4 8385   2.465   0.541   4.932
  793ACTN    H5 8386   2.391   0.579   5.087
  793ACTN    C2 8387   2.372   0.374   5.028
  793ACTN    O1 8388   2.273   0.309   4.998
  793ACTN    C1 8389   2.489   0.311   5.096
  793ACTN    H1 8390   2.510   0.360   5.191
  793ACTN    H2 8391   2.578   0.318   5.034
  793ACTN    H3 8392   2.471   0.206   5.116
  794ACTN    H6 8393   0.893   3.454   4.683
  794ACTN    C3 8394   0.903   3.353   4.719
  794ACTN    H4 8395   0.924   3.288   4.634
  794ACTN    H5 8396   0.989   3.348   4.786
  794ACTN    C2 8397   0.779   3.308   4.789
  794ACTN    O1 8398   0.737   3.372   4.885
  794ACTN    C1 8399   0.706   3.187   4.740
  794ACTN    H1 8400   0.769   3.099   4.749
  794ACTN    H2 8401   0.681   3.199   4.635
  794ACTN    H3 8402   0.614   3.170   4.796
  795ACTN    H6 8403   1.387   6.280   1.877
  795ACTN    C3 8404   1.384   6.229   1.781
  795ACTN    H4 8405   1.385   6.304   1.702
  795ACTN    H5 8406   1.473   6.168   1.771
  795ACTN    C2 8407   1.261   6.143   1.769
  795ACTN    O1 8408   1.178   6.139   1.860
  795ACTN    C1 8409   1.241   6.064   1.644
  795ACTN    H1 8410   1.331   6.066   1.582
  795ACTN    H2 8411   1.160   6.106   1.585
  795ACTN    H3 8412   1.217   5.961   1.667
  796ACTN    H6 8413   0.674   6.997   3.128
  796ACTN    C3 8414   0.681   7.047   3.224
  796ACTN    H4 8415   0.583   7.050   3.269
  796ACTN    H5 8416   0.746   6.987   3.289
  796ACTN    C2 8417   0.735   7.185   3.207
  796ACTN    O1 8418   0.845   7.216   3.253
  796ACTN    C1 8419   0.656   7.285   3.128
  796ACTN    H1 8420   0.715   7.320   3.043
  796ACTN    H2 8421   0.630   7.370   3.190
  796ACTN    H3 8422   0.564   7.241   3.090
  797ACTN    H6 8423   3.920   4.350   1.935
  797ACTN    C3 8424   3.932   4.451   1.974
  797ACTN    H4 8425   3.849   4.472   2.041
  797ACTN    H5 8426   4.024   4.455   2.033
  797ACTN    C2 8427   3.937   4.552   1.864
  797ACTN    O1 8428   3.958   4.670   1.889
  797ACTN    C1 8429   3.920   4.505   1.723
  797ACTN    H1 8430   3.822   4.459   1.710
  797ACTN    H2 8431   3.996   4.431   1.699
  797ACTN    H3 8432   3.929   4.587   1.652
  798ACTN    H6 8433   1.486   2.073   2.616
  798ACTN    C3 8434   1.543   2.091   2.525
  798ACTN    H4 8435   1.503   2.180   2.477
  798ACTN    H5 8436   1.646   2.112   2.553
  798ACTN    C2 8437   1.535   1.974   2.432
  798ACTN    O1 8438   1.495   1.865   2.472
  798ACTN    C1 8439   1.599   1.985   2.297
  798ACTN    H1 8440   1.643   2.083   2.283
  798ACTN    H2 8441   1.524   1.970   2.219
  798ACTN    H3 8442   1.677   1.910   2.284
  799ACTN    H6 8443   3.092   4.076   6.755
  799ACTN    C3 8444   2.984   4.066   6.751
  799ACTN    H4 8445   2.960   3.960   6.751
  799ACTN    H5 8446   2.941   4.111   6.840
  799ACTN    C2 8447   2.930   4.130   6.626
  799ACTN    O1 8448   2.975   4.097   6.517
  799ACTN    C1 8449   2.826   4.237   6.636
  799ACTN    H1 8450   2.863   4.330   6.593
  799ACTN    H2 8451   2.798   4.256   6.739
  799ACTN    H3 8452   2.736   4.207   6.581
  800ACTN    H6 8453   4.881   3.091   6.937
  800ACTN    C3 8454   4.780   3.112   6.905
  800ACTN    H4 8455   4.775   3.099   6.797
  800ACTN    H5 8456   4.714   3.040   6.951
  800ACTN    C2 8457   4.742   3.251   6.945
  800ACTN    O1 8458   4.722   3.338   6.860
  800ACTN    C1 8459   4.729   3.284   7.090
  800ACTN    H1 8460   4.626   3.310   7.113
  800ACTN    H2 8461   4.792   3.368   7.116
  800ACTN    H3 8462   4.757   3.199   7.152
  801ACTN    H6 8463   6.038   1.213   3.044
  801ACTN    C3 8464   6.043   1.140   3.125
  801ACTN    H4 8465   5.942   1.118   3.157
  801ACTN    H5 8466   6.097   1.186   3.208
  801ACTN    C2 8467   6.112   1.016   3.080
  801ACTN    O1 8468   6.228   1.021   3.041
  801ACTN    C1 8469   6.038   0.886   3.079
  801ACTN    H1 8470   5.995   0.867   3.178
  801ACTN    H2 8471   6.104   0.803   3.054
  801ACTN    H3 8472   5.957   0.889   3.007
  802ACTN    H6 8473   5.013   1.593   0.662
  802ACTN    C3 8474   5.034   1.698   0.682
  802ACTN    H4 8475   4.940   1.752   0.684
  802ACTN    H5 8476   5.079   1.705   0.781
  802ACTN    C2 8477   5.125   1.754   0.578
  802ACTN    O1 8478   5.232   1.806   0.608
  802ACTN    C1 8479   5.080   1.751   0.435
  802ACTN    H1 8480   5.058   1.649   0.405
  802ACTN    H2 8481   5.157   1.790   0.368
  802ACTN    H3 8482   4.991   1.811   0.422
  803ACTN    H6 8483   7.107   6.780   6.357
  803ACTN    C3 8484   7.038   6.696   6.354
  803ACTN    H4 8485   7.089   6.608   6.394
  803ACTN    H5 8486   6.953   6.719   6.418
  803ACTN    C2 8487   6.991   6.669   6.214
  803ACTN    O1 8488   7.023   6.743   6.122
  803ACTN    C1 8489   6.895   6.556   6.193
  803ACTN    H1 8490   6.938   6.463   6.228
  803ACTN    H2 8491   6.871   6.545   6.087
  803ACTN    H3 8492   6.802   6.575   6.246
  804ACTN    H6 8493   4.832   2.611   0.057
  804ACTN    C3 8494   4.898   2.688   0.096
  804ACTN    H4 8495   5.001   2.652   0.093
  804ACTN    H5 8496   4.890   2.775   0.032
  804ACTN    C2 8497   4.859   2.721   0.237
  804ACTN    O1 8498   4.833   2.837   0.270
  804ACTN    C1 8499   4.867   2.613   0.339
  804ACTN    H1 8500   4.806   2.528   0.309
  804ACTN    H2 8501   4.831   2.647   0.436
  804ACTN    H3 8502   4.969   2.579   0.351
  805ACTN    H6 8503   0.271   1.161   4.612
  805ACTN    C3 8504   0.300   1.068   4.564
  805ACTN    H4 8505   0.212   1.005   4.556
  805ACTN    H5 8506   0.372   1.018   4.628
  805ACTN    C2 8507   0.360   1.092   4.429
  805ACTN    O1 8508   0.351   1.203   4.376
  805ACTN    C1 8509   0.418   0.977   4.353
  805ACTN    H1 8510   0.457   1.008   4.256
  805ACTN    H2 8511   0.343   0.900   4.337
  805ACTN    H3 8512   0.500   0.933   4.410
  806ACTN    H6 8513   6.745   3.043   2.294
  806ACTN    C3 8514   6.759   2.963   2.367
  806ACTN    H4 8515   6.792   2.874   2.313
  806ACTN    H5 8516   6.838   2.993   2.435
  806ACTN    C2 8517   6.632   2.938   2.442
  806ACTN    O1 8518   6.578   3.029   2.505
  806ACTN    C1 8519   6.569   2.802   2.442
  806ACTN    H1 8520   6.471   2.806   2.397
  806ACTN    H2 8521   6.559   2.764   2.543
  806ACTN    H3 8522   6.630   2.731   2.385
  807ACTN    H6 8523   6.204   3.886   1.114
  807ACTN    C3 8524   6.217   3.988   1.147
  807ACTN    H4 8525   6.309   3.996   1.203
  807ACTN    H5 8526   6.226   4.052   1.059
  807ACTN    C2 8527   6.101   4.030   1.232
  807ACTN    O1 8528   6.012   4.101   1.185
  807ACTN    C1 8529   6.083   3.963   1.365
  807ACTN    H1 8530   5.999   4.006   1.420
  807ACTN    H2 8531   6.172   3.975   1.426
  807ACTN    H3 8532   6.064   3.857   1.352
  808ACTN    H6 8533   6.439   4.241   3.114
  808ACTN    C3 8534   6.446   4.232   3.222
  808ACTN    H4 8535   6.348   4.253   3.264
  808ACTN    H5 8536   6.473   4.130   3.246
  808ACTN    C2 8537   6.546   4.329   3.277
  808ACTN    O1 8538   6.572   4.329   3.397
  808ACTN    C1 8539   6.622   4.417   3.183
  808ACTN    H1 8540   6.552   4.481   3.130
  808ACTN    H2 8541   6.676   4.358   3.110
  808ACTN    H3 8542   6.692   4.481   3.235
  809ACTN    H6 8543   6.349   1.775   7.030
  809ACTN    C3 8544   6.331   1.723   6.937
  809ACTN    H4 8545   6.426   1.701   6.891
  809ACTN    H5 8546   6.281   1.629   6.960
  809ACTN    C2 8547   6.244   1.806   6.847
  809ACTN    O1 8548   6.283   1.838   6.735
  809ACTN    C1 8549   6.108   1.847   6.893
  809ACTN    H1 8550   6.099   1.955   6.895
  809ACTN    H2 8551   6.088   1.809   6.993
  809ACTN    H3 8552   6.032   1.808   6.825
  810ACTN    H6 8553   3.900   4.009   6.156
  810ACTN    C3 8554   3.962   3.925   6.125
  810ACTN    H4 8555   3.936   3.839   6.186
  810ACTN    H5 8556   3.938   3.903   6.021
  810ACTN    C2 8557   4.106   3.960   6.142
  810ACTN    O1 8558   4.184   3.956   6.046
  810ACTN    C1 8559   4.158   3.992   6.279
  810ACTN    H1 8560   4.199   4.093   6.281
  810ACTN    H2 8561   4.236   3.922   6.307
  810ACTN    H3 8562   4.078   3.987   6.352
  811ACTN    H6 8563   1.152   5.424   3.323
  811ACTN    C3 8564   1.243   5.367   3.339
  811ACTN    H4 8565   1.232   5.309   3.430
  811ACTN    H5 8566   1.254   5.297   3.256
  811ACTN    C2 8567   1.363   5.456   3.347
  811ACTN    O1 8568   1.352   5.578   3.341
  811ACTN    C1 8569   1.498   5.395   3.366
  811ACTN    H1 8570   1.490   5.286   3.373
  811ACTN    H2 8571   1.545   5.432   3.456
  811ACTN    H3 8572   1.562   5.419   3.281
  812ACTN    H6 8573   3.448   0.994   4.137
  812ACTN    C3 8574   3.553   1.010   4.115
  812ACTN    H4 8575   3.587   0.929   4.051
  812ACTN    H5 8576   3.564   1.104   4.061
  812ACTN    C2 8577   3.636   1.012   4.240
  812ACTN    O1 8578   3.582   1.012   4.350
  812ACTN    C1 8579   3.784   1.025   4.228
  812ACTN    H1 8580   3.820   1.113   4.281
  812ACTN    H2 8581   3.815   1.033   4.124
  812ACTN    H3 8582   3.833   0.937   4.271
  813ACTN    H6 8583   1.913   5.502   0.950
  813ACTN    C3 8584   2.010   5.546   0.931
  813ACTN    H4 8585   2.063   5.482   0.860
  813ACTN    H5 8586   1.996   5.643   0.885
  813ACTN    C2 8587   2.087   5.559   1.059
  813ACTN    O1 8588   2.043   5.630   1.149
  813ACTN    C1 8589   2.216   5.486   1.077
  813ACTN    H1 8590   2.208   5.415   1.160
  813ACTN    H2 8591   2.296   5.556   1.100
  813ACTN    H3 8592   2.243   5.430   0.988
  814ACTN    H6 8593   5.163   1.532   6.715
  814ACTN    C3 8594   5.186   1.626   6.665
  814ACTN    H4 8595   5.244   1.603   6.576
  814ACTN    H5 8596   5.092   1.670   6.633
  814ACTN    C2 8597   5.260   1.720   6.754
  814ACTN    O1 8598   5.285   1.690   6.871
  814ACTN    C1 8599   5.299   1.854   6.701
  814ACTN    H1 8600   5.252   1.933   6.760
  814ACTN    H2 8601   5.267   1.866   6.598
  814ACTN    H3 8602   5.407   1.867   6.706
  815ACTN    H6 8603   2.910   0.705   6.928
  815ACTN    C3 8604   3.001   0.739   6.879
  815ACTN    H4 8605   2.973   0.812   6.804
  815ACTN    H5 8606   3.063   0.788   6.954
  815ACTN    C2 8607   3.072   0.623   6.816
  815ACTN    O1 8608   3.188   0.597   6.844
  815ACTN    C1 8609   2.998   0.540   6.715
  815ACTN    H1 8610   2.895   0.573   6.707
  815ACTN    H2 8611   2.999   0.436   6.744
  815ACTN    H3 8612   3.045   0.550   6.618
  816ACTN    H6 8613   7.163   3.854   1.582
  816ACTN    C3 8614   7.215   3.904   1.501
  816ACTN    H4 8615   7.264   3.829   1.440
  816ACTN    H5 8616   7.142   3.957   1.441
  816ACTN    C2 8617   7.315   4.002   1.556
  816ACTN    O1 8618   7.278   4.090   1.632
  816ACTN    C1 8619   7.459   3.991   1.515
  816ACTN    H1 8620   7.519   4.068   1.563
  816ACTN    H2 8621   7.469   4.003   1.407
  816ACTN    H3 8622   7.500   3.895   1.543
  817ACTN    H6 8623   5.398   1.694   6.090
  817ACTN    C3 8624   5.323   1.647   6.027
  817ACTN    H4 8625   5.229   1.644   6.082
  817ACTN    H5 8626   5.309   1.710   5.940
  817ACTN    C2 8627   5.366   1.510   5.986
  817ACTN    O1 8628   5.386   1.424   6.071
  817ACTN    C1 8629   5.376   1.478   5.840
  817ACTN    H1 8630   5.418   1.379   5.824
  817ACTN    H2 8631   5.439   1.551   5.790
  817ACTN    H3 8632   5.277   1.481   5.795
  818ACTN    H6 8633   3.822   2.808   0.954
  818ACTN    C3 8634   3.818   2.863   0.861
  818ACTN    H4 8635   3.739   2.937   0.869
  818ACTN    H5 8636   3.791   2.794   0.782
  818ACTN    C2 8637   3.949   2.929   0.831
  818ACTN    O1 8638   3.963   2.996   0.728
  818ACTN    C1 8639   4.062   2.912   0.928
  818ACTN    H1 8640   4.035   2.954   1.024
  818ACTN    H2 8641   4.152   2.961   0.893
  818ACTN    H3 8642   4.084   2.807   0.942
  819ACTN    H6 8643   6.733   3.336   0.646
  819ACTN    C3 8644   6.773   3.259   0.581
  819ACTN    H4 8645   6.800   3.305   0.486
  819ACTN    H5 8646   6.864   3.219   0.627
  819ACTN    C2 8647   6.675   3.149   0.558
  819ACTN    O1 8648   6.560   3.157   0.601
  819ACTN    C1 8649   6.716   3.030   0.478
  819ACTN    H1 8650   6.818   3.042   0.441
  819ACTN    H2 8651   6.650   3.016   0.392
  819ACTN    H3 8652   6.712   2.940   0.539
  820ACTN    H6 8653   3.482   1.602   3.445
  820ACTN    C3 8654   3.380   1.639   3.444
  820ACTN    H4 8655   3.355   1.672   3.545
  820ACTN    H5 8656   3.374   1.724   3.378
  820ACTN    C2 8657   3.287   1.530   3.401
  820ACTN    O1 8658   3.286   1.422   3.460
  820ACTN    C1 8659   3.195   1.552   3.285
  820ACTN    H1 8660   3.209   1.474   3.211
  820ACTN    H2 8661   3.215   1.647   3.237
  820ACTN    H3 8662   3.091   1.551   3.317
  821ACTN    H6 8663   3.618   4.123   1.638
  821ACTN    C3 8664   3.707   4.180   1.615
  821ACTN    H4 8665   3.682   4.286   1.620
  821ACTN    H5 8666   3.782   4.160   1.692
  821ACTN    C2 8667   3.761   4.143   1.481
  821ACTN    O1 8668   3.788   4.229   1.398
  821ACTN    C1 8669   3.789   3.999   1.451
  821ACTN    H1 8670   3.893   3.985   1.424
  821ACTN    H2 8671   3.726   3.964   1.369
  821ACTN    H3 8672   3.768   3.937   1.538
  822ACTN    H6 8673   2.211   0.471   2.466
  822ACTN    C3 8674   2.201   0.481   2.358
  822ACTN    H4 8675   2.120   0.416   2.326
  822ACTN    H5 8676   2.171   0.583   2.337
  822ACTN    C2 8677   2.329   0.449   2.288
  822ACTN    O1 8678   2.338   0.346   2.222
  822ACTN    C1 8679   2.451   0.530   2.319
  822ACTN    H1 8680   2.483   0.583   2.230
  822ACTN    H2 8681   2.532   0.466   2.352
  822ACTN    H3 8682   2.431   0.603   2.397
  823ACTN    H6 8683   7.014   2.468   6.312
  823ACTN    C3 8684   6.968   2.463   6.411
  823ACTN    H4 8685   6.909   2.553   6.424
  823ACTN    H5 8686   6.901   2.377   6.413
  823ACTN    C2 8687   7.072   2.452   6.517
  823ACTN    O1 8688   7.077   2.533   6.608
  823ACTN    C1 8689   7.165   2.334   6.513
  823ACTN    H1 8690   7.146   2.268   6.597
  823ACTN    H2 8691   7.268   2.368   6.518
  823ACTN    H3 8692   7.152   2.278   6.421
  824ACTN    H6 8693   4.886   2.151   7.136
  824ACTN    C3 8694   4.994   2.154   7.125
  824ACTN    H4 8695   5.035   2.069   7.178
  824ACTN    H5 8696   5.018   2.145   7.020
  824ACTN    C2 8697   5.051   2.281   7.181
  824ACTN    O1 8698   5.172   2.298   7.184
  824ACTN    C1 8699   4.959   2.385   7.239
  824ACTN    H1 8700   4.968   2.478   7.184
  824ACTN    H2 8701   4.985   2.404   7.343
  824ACTN    H3 8702   4.855   2.353   7.235
  825ACTN    H6 8703   4.418   1.911   6.343
  825ACTN    C3 8704   4.361   2.003   6.330
  825ACTN    H4 8705   4.257   1.983   6.354
  825ACTN    H5 8706   4.399   2.076   6.401
  825ACTN    C2 8707   4.373   2.052   6.189
  825ACTN    O1 8708   4.430   2.158   6.163
  825ACTN    C1 8709   4.321   1.967   6.078
  825ACTN    H1 8710   4.247   2.021   6.019
  825ACTN    H2 8711   4.273   1.877   6.117
  825ACTN    H3 8712   4.402   1.936   6.012
  826ACTN    H6 8713   7.270   1.285   6.611
  826ACTN    C3 8714   7.164   1.305   6.605
  826ACTN    H4 8715   7.113   1.243   6.678
  826ACTN    H5 8716   7.147   1.409   6.630
  826ACTN    C2 8717   7.114   1.273   6.467
  826ACTN    O1 8718   7.072   1.361   6.394
  826ACTN    C1 8719   7.125   1.133   6.417
  826ACTN    H1 8720   7.179   1.071   6.488
  826ACTN    H2 8721   7.178   1.130   6.322
  826ACTN    H3 8722   7.026   1.091   6.402
  827ACTN    H6 8723   4.691   2.406   2.382
  827ACTN    C3 8724   4.729   2.417   2.483
  827ACTN    H4 8725   4.728   2.523   2.508
  827ACTN    H5 8726   4.662   2.365   2.551
  827ACTN    C2 8727   4.868   2.362   2.495
  827ACTN    O1 8728   4.928   2.371   2.601
  827ACTN    C1 8729   4.934   2.299   2.376
  827ACTN    H1 8730   4.869   2.300   2.290
  827ACTN    H2 8731   4.961   2.196   2.398
  827ACTN    H3 8732   5.025   2.354   2.350
  828ACTN    H6 8733   3.288   0.548   5.824
  828ACTN    C3 8734   3.193   0.601   5.820
  828ACTN    H4 8735   3.213   0.707   5.836
  828ACTN    H5 8736   3.151   0.589   5.721
  828ACTN    C2 8737   3.099   0.548   5.924
  828ACTN    O1 8738   3.070   0.429   5.924
  828ACTN    C1 8739   3.050   0.641   6.030
  828ACTN    H1 8740   2.976   0.592   6.094
  828ACTN    H2 8741   3.004   0.728   5.985
  828ACTN    H3 8742   3.132   0.674   6.093
  829ACTN    H6 8743   3.005   3.009   3.165
  829ACTN    C3 8744   3.036   3.000   3.062
  829ACTN    H4 8745   2.970   3.061   3.000
  829ACTN    H5 8746   3.137   3.039   3.053
  829ACTN    C2 8747   3.033   2.858   3.016
  829ACTN    O1 8748   2.994   2.768   3.091
  829ACTN    C1 8749   3.076   2.827   2.876
  829ACTN    H1 8750   3.067   2.721   2.853
  829ACTN    H2 8751   3.179   2.857   2.861
  829ACTN    H3 8752   3.014   2.882   2.805
  830ACTN    H6 8753   2.711   6.358   1.072
  830ACTN    C3 8754   2.682   6.451   1.120
  830ACTN    H4 8755   2.771   6.513   1.130
  830ACTN    H5 8756   2.612   6.503   1.055
  830ACTN    C2 8757   2.619   6.426   1.254
  830ACTN    O1 8758   2.520   6.354   1.262
  830ACTN    C1 8759   2.681   6.486   1.376
  830ACTN    H1 8760   2.784   6.453   1.387
  830ACTN    H2 8761   2.627   6.457   1.466
  830ACTN    H3 8762   2.680   6.594   1.369
  831ACTN    H6 8763   6.022   3.650   4.839
  831ACTN    C3 8764   6.043   3.705   4.748
  831ACTN    H4 8765   6.094   3.639   4.678
  831ACTN    H5 8766   5.949   3.735   4.703
  831ACTN    C2 8767   6.128   3.826   4.776
  831ACTN    O1 8768   6.167   3.895   4.683
  831ACTN    C1 8769   6.171   3.855   4.916
  831ACTN    H1 8770   6.279   3.867   4.920
  831ACTN    H2 8771   6.144   3.775   4.983
  831ACTN    H3 8772   6.126   3.947   4.952
  832ACTN    H6 8773   5.372   6.986   5.526
  832ACTN    C3 8774   5.481   6.987   5.528
  832ACTN    H4 8775   5.514   6.925   5.611
  832ACTN    H5 8776   5.518   6.944   5.436
  832ACTN    C2 8777   5.530   7.127   5.547
  832ACTN    O1 8778   5.496   7.193   5.645
  832ACTN    C1 8779   5.622   7.187   5.444
  832ACTN    H1 8780   5.577   7.275   5.400
  832ACTN    H2 8781   5.645   7.116   5.365
  832ACTN    H3 8782   5.716   7.217   5.491
  833ACTN    H6 8783   1.732   5.636   1.909
  833ACTN    C3 8784   1.661   5.646   1.828
  833ACTN    H4 8785   1.707   5.705   1.749
  833ACTN    H5 8786   1.641   5.546   1.789
  833ACTN    C2 8787   1.534   5.709   1.876
  833ACTN    O1 8788   1.468   5.656   1.964
  833ACTN    C1 8789   1.488   5.839   1.818
  833ACTN    H1 8790   1.391   5.827   1.770
  833ACTN    H2 8791   1.558   5.876   1.743
  833ACTN    H3 8792   1.479   5.915   1.896
  834ACTN    H6 8793   7.358   6.529   4.948
  834ACTN    C3 8794   7.301   6.458   4.888
  834ACTN    H4 8795   7.355   6.364   4.884
  834ACTN    H5 8796   7.205   6.441   4.936
  834ACTN    C2 8797   7.280   6.514   4.750
  834ACTN    O1 8798   7.314   6.450   4.651
  834ACTN    C1 8799   7.206   6.643   4.734
  834ACTN    H1 8800   7.172   6.680   4.830
  834ACTN    H2 8801   7.120   6.629   4.669
  834ACTN    H3 8802   7.271   6.717   4.689
  835ACTN    H6 8803   5.629   6.953   4.620
  835ACTN    C3 8804   5.718   6.990   4.672
  835ACTN    H4 8805   5.763   6.908   4.726
  835ACTN    H5 8806   5.789   7.025   4.598
  835ACTN    C2 8807   5.680   7.102   4.764
  835ACTN    O1 8808   5.710   7.099   4.883
  835ACTN    C1 8809   5.613   7.223   4.707
  835ACTN    H1 8810   5.671   7.313   4.730
  835ACTN    H2 8811   5.514   7.235   4.750
  835ACTN    H3 8812   5.603   7.215   4.599
  836ACTN    H6 8813   3.095   2.150   3.572
  836ACTN    C3 8814   3.067   2.134   3.468
  836ACTN    H4 8815   2.988   2.204   3.443
  836ACTN    H5 8816   3.154   2.158   3.407
  836ACTN    C2 8817   3.023   1.994   3.445
  836ACTN    O1 8818   2.936   1.944   3.516
  836ACTN    C1 8819   3.097   1.910   3.345
  836ACTN    H1 8820   3.202   1.906   3.371
  836ACTN    H2 8821   3.086   1.953   3.246
  836ACTN    H3 8822   3.058   1.809   3.342
  837ACTN    H6 8823   7.087   4.318   3.092
  837ACTN    C3 8824   7.146   4.241   3.141
  837ACTN    H4 8825   7.244   4.283   3.163
  837ACTN    H5 8826   7.099   4.215   3.236
  837ACTN    C2 8827   7.160   4.120   3.055
  837ACTN    O1 8828   7.223   4.023   3.095
  837ACTN    C1 8829   7.094   4.119   2.920
  837ACTN    H1 8830   7.131   4.202   2.860
  837ACTN    H2 8831   6.987   4.129   2.930
  837ACTN    H3 8832   7.115   4.026   2.866
  838ACTN    H6 8833   7.386   3.454   4.011
  838ACTN    C3 8834   7.278   3.448   4.011
  838ACTN    H4 8835   7.245   3.410   3.914
  838ACTN    H5 8836   7.247   3.377   4.087
  838ACTN    C2 8837   7.218   3.583   4.035
  838ACTN    O1 8838   7.158   3.607   4.140
  838ACTN    C1 8839   7.248   3.693   3.938
  838ACTN    H1 8840   7.354   3.716   3.938
  838ACTN    H2 8841   7.193   3.784   3.963
  838ACTN    H3 8842   7.220   3.662   3.838
  839ACTN    H6 8843   2.832   5.468   1.889
  839ACTN    C3 8844   2.729   5.502   1.880
  839ACTN    H4 8845   2.692   5.526   1.979
  839ACTN    H5 8846   2.729   5.593   1.820
  839ACTN    C2 8847   2.646   5.397   1.814
  839ACTN    O1 8848   2.553   5.342   1.874
  839ACTN    C1 8849   2.681   5.353   1.676
  839ACTN    H1 8850   2.605   5.384   1.605
  839ACTN    H2 8851   2.690   5.244   1.670
  839ACTN    H3 8852   2.776   5.396   1.644
  840ACTN    H6 8853   1.659   1.795   4.830
  840ACTN    C3 8854   1.762   1.809   4.861
  840ACTN    H4 8855   1.761   1.847   4.963
  840ACTN    H5 8856   1.811   1.713   4.860
  840ACTN    C2 8857   1.833   1.905   4.771
  840ACTN    O1 8858   1.950   1.935   4.794
  840ACTN    C1 8859   1.762   1.964   4.653
  840ACTN    H1 8860   1.659   1.928   4.647
  840ACTN    H2 8861   1.813   1.937   4.561
  840ACTN    H3 8862   1.760   2.072   4.660
  841ACTN    H6 8863   4.465   6.571   1.666
  841ACTN    C3 8864   4.403   6.482   1.681
  841ACTN    H4 8865   4.306   6.500   1.635
  841ACTN    H5 8866   4.451   6.399   1.630
  841ACTN    C2 8867   4.390   6.452   1.827
  841ACTN    O1 8868   4.490   6.427   1.893
  841ACTN    C1 8869   4.254   6.452   1.891
  841ACTN    H1 8870   4.250   6.526   1.970
  841ACTN    H2 8871   4.233   6.354   1.934
  841ACTN    H3 8872   4.176   6.474   1.818
  842ACTN    H6 8873   2.347   3.917   7.381
  842ACTN    C3 8874   2.287   3.839   7.335
  842ACTN    H4 8875   2.321   3.743   7.373
  842ACTN    H5 8876   2.184   3.854   7.365
  842ACTN    C2 8877   2.298   3.844   7.185
  842ACTN    O1 8878   2.249   3.754   7.118
  842ACTN    C1 8879   2.377   3.953   7.120
  842ACTN    H1 8880   2.457   3.912   7.059
  842ACTN    H2 8881   2.422   4.019   7.194
  842ACTN    H3 8882   2.313   4.013   7.056
  843ACTN    H6 8883   0.314   2.113   4.390
  843ACTN    C3 8884   0.252   2.032   4.351
  843ACTN    H4 8885   0.172   2.077   4.293
  843ACTN    H5 8886   0.313   1.972   4.284
  843ACTN    C2 8887   0.200   1.950   4.464
  843ACTN    O1 8888   0.277   1.891   4.539
  843ACTN    C1 8889   0.052   1.938   4.483
  843ACTN    H1 8890   0.006   1.889   4.397
  843ACTN    H2 8891   0.008   2.037   4.494
  843ACTN    H3 8892   0.028   1.881   4.572
  844ACTN    H6 8893   1.927   6.016   4.163
  844ACTN    C3 8894   1.910   6.123   4.167
  844ACTN    H4 8895   2.003   6.170   4.200
  844ACTN    H5 8896   1.888   6.158   4.067
  844ACTN    C2 8897   1.798   6.153   4.261
  844ACTN    O1 8898   1.686   6.109   4.238
  844ACTN    C1 8899   1.824   6.238   4.382
  844ACTN    H1 8900   1.864   6.334   4.353
  844ACTN    H2 8901   1.896   6.189   4.447
  844ACTN    H3 8902   1.732   6.255   4.438
  845ACTN    H6 8903   2.486   2.311   6.458
  845ACTN    C3 8904   2.433   2.367   6.382
  845ACTN    H4 8905   2.352   2.421   6.430
  845ACTN    H5 8906   2.502   2.440   6.339
  845ACTN    C2 8907   2.378   2.276   6.277
  845ACTN    O1 8908   2.414   2.286   6.160
  845ACTN    C1 8909   2.282   2.169   6.317
  845ACTN    H1 8910   2.323   2.071   6.295
  845ACTN    H2 8911   2.188   2.180   6.263
  845ACTN    H3 8912   2.261   2.174   6.424
  846ACTN    H6 8913   0.096   4.255   0.776
  846ACTN    C3 8914   0.041   4.254   0.870
  846ACTN    H4 8915   8.963   4.179   0.863
  846ACTN    H5 8916   0.110   4.225   0.949
  846ACTN    C2 8917   8.982   4.389   0.896
  846ACTN    O1 8918   0.018   4.455   0.993
  846ACTN    C1 8919   8.886   4.445   0.796
  846ACTN    H1 8920   8.934   4.454   0.699
  846ACTN    H2 8921   8.851   4.544   0.826
  846ACTN    H3 8922   8.800   4.380   0.785
  847ACTN    H6 8923   1.755   6.958   4.273
  847ACTN    C3 8924   1.841   6.897   4.297
  847ACTN    H4 8925   1.895   6.876   4.205
  847ACTN    H5 8926   1.907   6.954   4.362
  847ACTN    C2 8927   1.801   6.769   4.364
  847ACTN    O1 8928   1.683   6.745   4.388
  847ACTN    C1 8929   1.908   6.671   4.400
  847ACTN    H1 8930   1.975   6.716   4.473
  847ACTN    H2 8931   1.966   6.645   4.312
  847ACTN    H3 8932   1.866   6.580   4.443
  848ACTN    H6 8933   3.510   4.504   1.569
  848ACTN    C3 8934   3.560   4.600   1.579
  848ACTN    H4 8935   3.562   4.627   1.684
  848ACTN    H5 8936   3.662   4.589   1.544
  848ACTN    C2 8937   3.491   4.706   1.500
  848ACTN    O1 8938   3.380   4.686   1.450
  848ACTN    C1 8939   3.553   4.842   1.495
  848ACTN    H1 8940   3.503   4.907   1.423
  848ACTN    H2 8941   3.658   4.835   1.468
  848ACTN    H3 8942   3.546   4.889   1.593
  849ACTN    H6 8943   6.510   3.111   1.956
  849ACTN    C3 8944   6.608   3.072   1.981
  849ACTN    H4 8945   6.630   3.101   2.083
  849ACTN    H5 8946   6.603   2.963   1.977
  849ACTN    C2 8947   6.712   3.125   1.888
  849ACTN    O1 8948   6.721   3.246   1.869
  849ACTN    C1 8949   6.794   3.030   1.807
  849ACTN    H1 8950   6.731   2.974   1.738
  849ACTN    H2 8951   6.843   2.959   1.873
  849ACTN    H3 8952   6.871   3.081   1.750
  850ACTN    H6 8953   6.740   5.826   4.961
  850ACTN    C3 8954   6.822   5.861   4.900
  850ACTN    H4 8955   6.873   5.774   4.857
  850ACTN    H5 8956   6.892   5.913   4.964
  850ACTN    C2 8957   6.772   5.952   4.792
  850ACTN    O1 8958   6.706   6.051   4.821
  850ACTN    C1 8959   6.802   5.917   4.649
  850ACTN    H1 8960   6.764   5.993   4.581
  850ACTN    H2 8961   6.755   5.823   4.622
  850ACTN    H3 8962   6.909   5.907   4.633
  851ACTN    H6 8963   4.170   6.298   2.570
  851ACTN    C3 8964   4.075   6.289   2.518
  851ACTN    H4 8965   4.047   6.387   2.481
  851ACTN    H5 8966   4.089   6.224   2.432
  851ACTN    C2 8967   3.968   6.235   2.608
  851ACTN    O1 8968   3.992   6.208   2.725
  851ACTN    C1 8969   3.832   6.211   2.552
  851ACTN    H1 8970   3.759   6.273   2.602
  851ACTN    H2 8971   3.803   6.107   2.565
  851ACTN    H3 8972   3.829   6.234   2.445
  852ACTN    H6 8973   7.335   6.218   2.609
  852ACTN    C3 8974   7.366   6.136   2.674
  852ACTN    H4 8975   7.364   6.044   2.617
  852ACTN    H5 8976   7.468   6.155   2.706
  852ACTN    C2 8977   7.275   6.125   2.793
  852ACTN    O1 8978   7.298   6.041   2.880
  852ACTN    C1 8979   7.162   6.222   2.806
  852ACTN    H1 8980   7.104   6.203   2.897
  852ACTN    H2 8981   7.095   6.212   2.721
  852ACTN    H3 8982   7.199   6.324   2.809
  853ACTN    H6 8983   6.569   5.767   2.389
  853ACTN    C3 8984   6.504   5.854   2.386
  853ACTN    H4 8985   6.504   5.900   2.485
  853ACTN    H5 8986   6.545   5.925   2.315
  853ACTN    C2 8987   6.365   5.814   2.347
  853ACTN    O1 8988   6.303   5.732   2.415
  853ACTN    C1 8989   6.305   5.874   2.224
  853ACTN    H1 8990   6.303   5.982   2.232
  853ACTN    H2 8991   6.203   5.839   2.209
  853ACTN    H3 8992   6.363   5.847   2.136
  854ACTN    H6 8993   0.284   4.948   2.947
  854ACTN    C3 8994   0.383   4.908   2.927
  854ACTN    H4 8995   0.401   4.825   2.994
  854ACTN    H5 8996   0.384   4.870   2.825
  854ACTN    C2 8997   0.489   5.013   2.944
  854ACTN    O1 8998   0.461   5.123   2.989
  854ACTN    C1 8999   0.630   4.977   2.909
  854ACTN    H1 9000   0.697   5.062   2.924
  854ACTN    H2 9001   0.636   4.947   2.805
  854ACTN    H3 9002   0.665   4.895   2.971
  855ACTN    H6 9003   0.119   4.154   2.559
  855ACTN    C3 9004   0.145   4.059   2.605
  855ACTN    H4 9005   0.097   3.980   2.547
  855ACTN    H5 9006   0.253   4.045   2.598
  855ACTN    C2 9007   0.102   4.058   2.748
  855ACTN    O1 9008   0.025   3.972   2.791
  855ACTN    C1 9009   0.150   4.168   2.836
  855ACTN    H1 9010   0.130   4.147   2.941
  855ACTN    H2 9011   0.100   4.261   2.811
  855ACTN    H3 9012   0.257   4.182   2.824
  856ACTN    H6 9013   3.969   1.134   4.570
  856ACTN    C3 9014   3.875   1.079   4.578
  856ACTN    H4 9015   3.795   1.145   4.544
  856ACTN    H5 9016   3.879   0.994   4.511
  856ACTN    C2 9017   3.850   1.035   4.718
  856ACTN    O1 9018   3.749   0.971   4.745
  856ACTN    C1 9019   3.950   1.070   4.824
  856ACTN    H1 9020   4.048   1.030   4.798
  856ACTN    H2 9021   3.921   1.028   4.921
  856ACTN    H3 9022   3.958   1.178   4.834
  857ACTN    H6 9023   2.013   6.016   6.340
  857ACTN    C3 9024   1.945   5.973   6.268
  857ACTN    H4 9025   2.002   5.915   6.196
  857ACTN    H5 9026   1.878   5.906   6.321
  857ACTN    C2 9027   1.865   6.079   6.198
  857ACTN    O1 9028   1.790   6.049   6.106
  857ACTN    C1 9029   1.887   6.223   6.233
  857ACTN    H1 9030   1.913   6.281   6.145
  857ACTN    H2 9031   1.968   6.234   6.305
  857ACTN    H3 9032   1.797   6.265   6.278
  858ACTN    H6 9033   2.880   6.192   6.529
  858ACTN    C3 9034   2.835   6.282   6.573
  858ACTN    H4 9035   2.877   6.295   6.673
  858ACTN    H5 9036   2.862   6.367   6.512
  858ACTN    C2 9037   2.686   6.269   6.582
  858ACTN    O1 9038   2.630   6.165   6.549
  858ACTN    C1 9039   2.607   6.382   6.640
  858ACTN    H1 9040   2.535   6.418   6.567
  858ACTN    H2 9041   2.672   6.465   6.668
  858ACTN    H3 9042   2.554   6.349   6.728
  859ACTN    H6 9043   0.376   3.195   0.563
  859ACTN    C3 9044   0.391   3.127   0.479
  859ACTN    H4 9045   0.422   3.185   0.393
  859ACTN    H5 9046   0.472   3.059   0.506
  859ACTN    C2 9047   0.265   3.051   0.451
  859ACTN    O1 9048   0.168   3.108   0.403
  859ACTN    C1 9049   0.266   2.903   0.468
  859ACTN    H1 9050   0.291   2.877   0.570
  859ACTN    H2 9051   0.339   2.857   0.402
  859ACTN    H3 9052   0.169   2.859   0.446
  860ACTN    H6 9053   6.939   1.413   5.361
  860ACTN    C3 9054   6.979   1.468   5.277
  860ACTN    H4 9055   6.913   1.552   5.256
  860ACTN    H5 9056   7.077   1.508   5.304
  860ACTN    C2 9057   6.991   1.380   5.157
  860ACTN    O1 9058   7.049   1.272   5.167
  860ACTN    C1 9059   6.922   1.419   5.030
  860ACTN    H1 9060   6.943   1.348   4.950
  860ACTN    H2 9061   6.955   1.518   4.998
  860ACTN    H3 9062   6.815   1.422   5.045
  861ACTN    H6 9063   6.160   5.726   5.317
  861ACTN    C3 9064   6.241   5.720   5.389
  861ACTN    H4 9065   6.308   5.640   5.359
  861ACTN    H5 9066   6.297   5.813   5.386
  861ACTN    C2 9067   6.186   5.695   5.526
  861ACTN    O1 9068   6.122   5.593   5.549
  861ACTN    C1 9069   6.212   5.794   5.636
  861ACTN    H1 9070   6.271   5.878   5.600
  861ACTN    H2 9071   6.265   5.747   5.718
  861ACTN    H3 9072   6.117   5.832   5.674
  862ACTN    H6 9073   6.642   5.468   2.406
  862ACTN    C3 9074   6.587   5.442   2.496
  862ACTN    H4 9075   6.552   5.534   2.542
  862ACTN    H5 9076   6.501   5.382   2.469
  862ACTN    C2 9077   6.678   5.368   2.590
  862ACTN    O1 9078   6.776   5.424   2.638
  862ACTN    C1 9079   6.640   5.230   2.635
  862ACTN    H1 9080   6.715   5.158   2.601
  862ACTN    H2 9081   6.544   5.200   2.595
  862ACTN    H3 9082   6.636   5.225   2.743
  863ACTN    H6 9083   2.137   1.326   2.451
  863ACTN    C3 9084   2.228   1.284   2.493
  863ACTN    H4 9085   2.205   1.245   2.592
  863ACTN    H5 9086   2.259   1.200   2.431
  863ACTN    C2 9087   2.336   1.386   2.501
  863ACTN    O1 9088   2.449   1.354   2.536
  863ACTN    C1 9089   2.307   1.527   2.459
  863ACTN    H1 9090   2.265   1.528   2.358
  863ACTN    H2 9091   2.397   1.587   2.459
  863ACTN    H3 9092   2.235   1.572   2.527
  864ACTN    H6 9093   2.015   5.033   2.794
  864ACTN    C3 9094   2.085   4.967   2.745
  864ACTN    H4 9095   2.153   4.927   2.820
  864ACTN    H5 9096   2.030   4.883   2.703
  864ACTN    C2 9097   2.162   5.039   2.639
  864ACTN    O1 9098   2.244   5.125   2.670
  864ACTN    C1 9099   2.136   5.008   2.495
  864ACTN    H1 9100   2.228   4.974   2.446
  864ACTN    H2 9101   2.101   5.097   2.443
  864ACTN    H3 9102   2.061   4.931   2.484
  865ACTN    H6 9103   4.089   2.055   6.677
  865ACTN    C3 9104   4.038   2.149   6.660
  865ACTN    H4 9105   3.965   2.135   6.580
  865ACTN    H5 9106   3.982   2.175   6.750
  865ACTN    C2 9107   4.135   2.257   6.625
  865ACTN    O1 9108   4.195   2.253   6.518
  865ACTN    C1 9109   4.153   2.376   6.715
  865ACTN    H1 9110   4.087   2.369   6.801
  865ACTN    H2 9111   4.131   2.468   6.661
  865ACTN    H3 9112   4.255   2.380   6.750
  866ACTN    H6 9113   0.035   5.068   2.455
  866ACTN    C3 9114   0.116   5.121   2.504
  866ACTN    H4 9115   0.205   5.108   2.443
  866ACTN    H5 9116   0.091   5.227   2.506
  866ACTN    C2 9117   0.139   5.066   2.642
  866ACTN    O1 9118   0.156   4.946   2.660
  866ACTN    C1 9119   0.141   5.160   2.758
  866ACTN    H1 9120   0.069   5.127   2.833
  866ACTN    H2 9121   0.115   5.261   2.728
  866ACTN    H3 9122   0.239   5.162   2.804
  867ACTN    H6 9123   6.643   6.440   4.599
  867ACTN    C3 9124   6.658   6.487   4.696
  867ACTN    H4 9125   6.594   6.575   4.701
  867ACTN    H5 9126   6.627   6.417   4.772
  867ACTN    C2 9127   6.802   6.526   4.713
  867ACTN    O1 9128   6.850   6.614   4.644
  867ACTN    C1 9129   6.884   6.463   4.822
  867ACTN    H1 9130   6.921   6.539   4.890
  867ACTN    H2 9131   6.969   6.411   4.779
  867ACTN    H3 9132   6.825   6.391   4.879
  868ACTN    H6 9133   3.088   1.178   3.044
  868ACTN    C3 9134   3.005   1.109   3.029
  868ACTN    H4 9135   3.032   1.012   3.069
  868ACTN    H5 9136   2.919   1.146   3.084
  868ACTN    C2 9137   2.973   1.100   2.883
  868ACTN    O1 9138   2.943   1.200   2.819
  868ACTN    C1 9139   2.981   0.967   2.813
  868ACTN    H1 9140   3.050   0.972   2.730
  868ACTN    H2 9141   2.883   0.940   2.774
  868ACTN    H3 9142   3.013   0.889   2.881
  869ACTN    H6 9143   5.430   1.300   6.455
  869ACTN    C3 9144   5.527   1.344   6.436
  869ACTN    H4 9145   5.601   1.290   6.495
  869ACTN    H5 9146   5.551   1.330   6.331
  869ACTN    C2 9147   5.526   1.489   6.472
  869ACTN    O1 9148   5.511   1.524   6.589
  869ACTN    C1 9149   5.559   1.590   6.367
  869ACTN    H1 9150   5.549   1.692   6.404
  869ACTN    H2 9151   5.493   1.579   6.281
  869ACTN    H3 9152   5.662   1.577   6.333
  870ACTN    H6 9153   3.948   2.762   1.283
  870ACTN    C3 9154   3.902   2.799   1.374
  870ACTN    H4 9155   3.801   2.758   1.379
  870ACTN    H5 9156   3.958   2.761   1.460
  870ACTN    C2 9157   3.895   2.948   1.373
  870ACTN    O1 9158   3.951   3.013   1.461
  870ACTN    C1 9159   3.824   3.015   1.260
  870ACTN    H1 9160   3.737   3.068   1.296
  870ACTN    H2 9161   3.791   2.942   1.186
  870ACTN    H3 9162   3.890   3.087   1.211
  871ACTN    H6 9163   1.180   0.087   6.429
  871ACTN    C3 9164   1.091   0.101   6.490
  871ACTN    H4 9165   1.078   0.012   6.551
  871ACTN    H5 9166   1.109   0.185   6.557
  871ACTN    C2 9167   0.971   0.127   6.405
  871ACTN    O1 9168   0.859   0.128   6.457
  871ACTN    C1 9169   0.988   0.142   6.257
  871ACTN    H1 9170   0.892   0.157   6.207
  871ACTN    H2 9171   1.034   0.053   6.215
  871ACTN    H3 9172   1.051   0.227   6.235
  872ACTN    H6 9173   2.331   2.289   4.256
  872ACTN    C3 9174   2.263   2.238   4.189
  872ACTN    H4 9175   2.320   2.164   4.132
  872ACTN    H5 9176   2.190   2.184   4.250
  872ACTN    C2 9177   2.194   2.336   4.099
  872ACTN    O1 9178   2.204   2.327   3.977
  872ACTN    C1 9179   2.113   2.446   4.160
  872ACTN    H1 9180   2.116   2.441   4.269
  872ACTN    H2 9181   2.010   2.439   4.128
  872ACTN    H3 9182   2.152   2.543   4.129
  873ACTN    H6 9183   5.932   3.897   5.571
  873ACTN    C3 9184   5.894   3.911   5.470
  873ACTN    H4 9185   5.837   3.823   5.443
  873ACTN    H5 9186   5.827   3.997   5.470
  873ACTN    C2 9187   6.006   3.931   5.373
  873ACTN    O1 9188   6.121   3.945   5.412
  873ACTN    C1 9189   5.973   3.945   5.227
  873ACTN    H1 9190   6.012   4.039   5.188
  873ACTN    H2 9191   5.866   3.942   5.211
  873ACTN    H3 9192   6.018   3.863   5.172
  874ACTN    H6 9193   7.411   2.383   2.212
  874ACTN    C3 9194   7.321   2.376   2.272
  874ACTN    H4 9195   7.255   2.305   2.225
  874ACTN    H5 9196   7.349   2.338   2.370
  874ACTN    C2 9197   7.256   2.511   2.282
  874ACTN    O1 9198   7.248   2.568   2.390
  874ACTN    C1 9199   7.208   2.577   2.157
  874ACTN    H1 9200   7.259   2.672   2.143
  874ACTN    H2 9201   7.101   2.596   2.163
  874ACTN    H3 9202   7.226   2.515   2.070
  875ACTN    H6 9203   1.255   1.406   4.461
  875ACTN    C3 9204   1.201   1.392   4.367
  875ACTN    H4 9205   1.204   1.286   4.342
  875ACTN    H5 9206   1.098   1.421   4.383
  875ACTN    C2 9207   1.262   1.476   4.259
  875ACTN    O1 9208   1.269   1.598   4.272
  875ACTN    C1 9209   1.315   1.410   4.136
  875ACTN    H1 9210   1.263   1.448   4.048
  875ACTN    H2 9211   1.303   1.302   4.139
  875ACTN    H3 9212   1.421   1.433   4.123
  876ACTN    H6 9213   2.278   1.730   5.717
  876ACTN    C3 9214   2.220   1.783   5.642
  876ACTN    H4 9215   2.160   1.859   5.692
  876ACTN    H5 9216   2.290   1.834   5.576
  876ACTN    C2 9217   2.133   1.690   5.564
  876ACTN    O1 9218   2.060   1.735   5.476
  876ACTN    C1 9219   2.130   1.544   5.597
  876ACTN    H1 9220   2.199   1.521   5.678
  876ACTN    H2 9221   2.158   1.485   5.511
  876ACTN    H3 9222   2.030   1.515   5.628
  877ACTN    H6 9223   0.869   2.593   3.262
  877ACTN    C3 9224   0.800   2.673   3.284
  877ACTN    H4 9225   0.858   2.757   3.323
  877ACTN    H5 9226   0.753   2.705   3.192
  877ACTN    C2 9227   0.699   2.628   3.385
  877ACTN    O1 9228   0.734   2.595   3.497
  877ACTN    C1 9229   0.554   2.632   3.348
  877ACTN    H1 9230   0.536   2.571   3.260
  877ACTN    H2 9231   0.522   2.733   3.327
  877ACTN    H3 9232   0.492   2.593   3.429
  878ACTN    H6 9233   8.999   1.543   4.261
  878ACTN    C3 9234   0.073   1.511   4.335
  878ACTN    H4 9235   0.031   1.525   4.434
  878ACTN    H5 9236   0.094   1.406   4.320
  878ACTN    C2 9237   0.200   1.590   4.321
  878ACTN    O1 9238   0.209   1.681   4.240
  878ACTN    C1 9239   0.317   1.555   4.408
  878ACTN    H1 9240   0.402   1.527   4.347
  878ACTN    H2 9241   0.293   1.471   4.473
  878ACTN    H3 9242   0.345   1.640   4.470
  879ACTN    H6 9243   1.900   7.279   3.767
  879ACTN    C3 9244   1.935   7.223   3.854
  879ACTN    H4 9245   1.912   7.118   3.839
  879ACTN    H5 9246   2.043   7.233   3.860
  879ACTN    C2 9247   1.872   7.272   3.981
  879ACTN    O1 9248   1.779   7.353   3.978
  879ACTN    C1 9249   1.921   7.215   4.110
  879ACTN    H1 9250   2.028   7.230   4.120
  879ACTN    H2 9251   1.901   7.108   4.112
  879ACTN    H3 9252   1.871   7.261   4.195
  880ACTN    H6 9253   7.118   7.101   3.149
  880ACTN    C3 9254   7.109   7.209   3.138
  880ACTN    H4 9255   7.005   7.236   3.150
  880ACTN    H5 9256   7.166   7.256   3.218
  880ACTN    C2 9257   7.162   7.252   3.005
  880ACTN    O1 9258   7.089   7.304   2.922
  880ACTN    C1 9259   7.306   7.228   2.973
  880ACTN    H1 9260   7.355   7.322   2.950
  880ACTN    H2 9261   7.317   7.162   2.888
  880ACTN    H3 9262   7.358   7.184   3.058
  881ACTN    H6 9263   4.917   1.746   1.875
  881ACTN    C3 9264   4.897   1.743   1.768
  881ACTN    H4 9265   4.805   1.687   1.752
  881ACTN    H5 9266   4.879   1.845   1.735
  881ACTN    C2 9267   5.011   1.680   1.695
  881ACTN    O1 9268   5.081   1.747   1.619
  881ACTN    C1 9269   5.044   1.537   1.725
  881ACTN    H1 9270   4.959   1.474   1.704
  881ACTN    H2 9271   5.071   1.525   1.830
  881ACTN    H3 9272   5.128   1.503   1.664
  882ACTN    H6 9273   3.505   0.605   5.475
  882ACTN    C3 9274   3.509   0.504   5.436
  882ACTN    H4 9275   3.476   0.506   5.332
  882ACTN    H5 9276   3.612   0.471   5.438
  882ACTN    C2 9277   3.422   0.412   5.516
  882ACTN    O1 9278   3.301   0.433   5.524
  882ACTN    C1 9279   3.482   0.297   5.590
  882ACTN    H1 9280   3.590   0.293   5.574
  882ACTN    H2 9281   3.440   0.203   5.555
  882ACTN    H3 9282   3.464   0.306   5.696
  883ACTN    H6 9283   2.565   1.997   2.763
  883ACTN    C3 9284   2.527   2.002   2.865
  883ACTN    H4 9285   2.608   2.033   2.930
  883ACTN    H5 9286   2.450   2.078   2.869
  883ACTN    C2 9287   2.472   1.870   2.910
  883ACTN    O1 9288   2.476   1.772   2.837
  883ACTN    C1 9289   2.411   1.860   3.046
  883ACTN    H1 9290   2.414   1.956   3.097
  883ACTN    H2 9291   2.467   1.789   3.106
  883ACTN    H3 9292   2.308   1.826   3.041
  884ACTN    H6 9293   1.410   5.705   3.631
  884ACTN    C3 9294   1.409   5.807   3.670
  884ACTN    H4 9295   1.332   5.813   3.746
  884ACTN    H5 9296   1.505   5.826   3.718
  884ACTN    C2 9297   1.382   5.904   3.560
  884ACTN    O1 9298   1.470   5.981   3.522
  884ACTN    C1 9299   1.248   5.899   3.491
  884ACTN    H1 9300   1.235   5.803   3.443
  884ACTN    H2 9301   1.240   5.977   3.416
  884ACTN    H3 9302   1.169   5.912   3.564
  885ACTN    H6 9303   0.245   4.730   8.985
  885ACTN    C3 9304   0.269   4.709   0.089
  885ACTN    H4 9305   0.178   4.678   0.139
  885ACTN    H5 9306   0.338   4.625   0.090
  885ACTN    C2 9307   0.332   4.828   0.154
  885ACTN    O1 9308   0.272   4.891   0.242
  885ACTN    C1 9309   0.460   4.882   0.099
  885ACTN    H1 9310   0.449   4.985   0.068
  885ACTN    H2 9311   0.491   4.824   0.012
  885ACTN    H3 9312   0.539   4.875   0.173
  886ACTN    H6 9313   1.859   3.160   5.334
  886ACTN    C3 9314   1.945   3.223   5.313
  886ACTN    H4 9315   1.954   3.297   5.392
  886ACTN    H5 9316   1.928   3.274   5.219
  886ACTN    C2 9317   2.070   3.140   5.307
  886ACTN    O1 9318   2.143   3.143   5.209
  886ACTN    C1 9319   2.107   3.059   5.428
  886ACTN    H1 9320   2.199   3.003   5.411
  886ACTN    H2 9321   2.028   2.989   5.452
  886ACTN    H3 9322   2.123   3.124   5.513
  887ACTN    H6 9323   3.171   4.438   6.672
  887ACTN    C3 9324   3.248   4.362   6.683
  887ACTN    H4 9325   3.228   4.283   6.611
  887ACTN    H5 9326   3.344   4.407   6.659
  887ACTN    C2 9327   3.250   4.307   6.823
  887ACTN    O1 9328   3.327   4.216   6.851
  887ACTN    C1 9329   3.155   4.360   6.926
  887ACTN    H1 9330   3.089   4.435   6.884
  887ACTN    H2 9331   3.211   4.405   7.008
  887ACTN    H3 9332   3.094   4.280   6.967
  888ACTN    H6 9333   3.393   0.869   5.222
  888ACTN    C3 9334   3.341   0.868   5.317
  888ACTN    H4 9335   3.391   0.796   5.381
  888ACTN    H5 9336   3.351   0.966   5.362
  888ACTN    C2 9337   3.197   0.832   5.301
  888ACTN    O1 9338   3.148   0.823   5.189
  888ACTN    C1 9339   3.112   0.818   5.424
  888ACTN    H1 9340   3.109   0.913   5.478
  888ACTN    H2 9341   3.154   0.743   5.490
  888ACTN    H3 9342   3.010   0.790   5.400
  889ACTN    H6 9343   1.223   7.144   0.109
  889ACTN    C3 9344   1.167   7.068   0.163
  889ACTN    H4 9345   1.080   7.040   0.104
  889ACTN    H5 9346   1.231   6.980   0.174
  889ACTN    C2 9347   1.127   7.120   0.298
  889ACTN    O1 9348   1.009   7.128   0.329
  889ACTN    C1 9349   1.235   7.161   0.394
  889ACTN    H1 9350   1.193   7.197   0.487
  889ACTN    H2 9351   1.296   7.240   0.351
  889ACTN    H3 9352   1.299   7.076   0.416
  890ACTN    H6 9353   0.289   0.607   2.326
  890ACTN    C3 9354   0.323   0.679   2.401
  890ACTN    H4 9355   0.322   0.630   2.498
  890ACTN    H5 9356   0.426   0.706   2.378
  890ACTN    C2 9357   0.236   0.801   2.399
  890ACTN    O1 9358   0.167   0.832   2.496
  890ACTN    C1 9359   0.229   0.882   2.273
  890ACTN    H1 9360   0.267   0.982   2.290
  890ACTN    H2 9361   0.126   0.889   2.240
  890ACTN    H3 9362   0.288   0.835   2.194
  891ACTN    H6 9363   3.057   6.728   3.418
  891ACTN    C3 9364   3.004   6.650   3.471
  891ACTN    H4 9365   2.995   6.565   3.403
  891ACTN    H5 9366   3.065   6.619   3.555
  891ACTN    C2 9367   2.870   6.698   3.517
  891ACTN    O1 9368   2.767   6.643   3.479
  891ACTN    C1 9369   2.864   6.813   3.612
  891ACTN    H1 9370   2.963   6.851   3.635
  891ACTN    H2 9371   2.816   6.784   3.705
  891ACTN    H3 9372   2.806   6.895   3.568
  892ACTN    H6 9373   5.028   0.526   5.462
  892ACTN    C3 9374   5.068   0.507   5.561
  892ACTN    H4 9375   5.019   0.574   5.632
  892ACTN    H5 9376   5.043   0.405   5.590
  892ACTN    C2 9377   5.217   0.529   5.566
  892ACTN    O1 9378   5.277   0.569   5.467
  892ACTN    C1 9379   5.291   0.501   5.693
  892ACTN    H1 9380   5.223   0.467   5.771
  892ACTN    H2 9381   5.340   0.592   5.728
  892ACTN    H3 9382   5.367   0.425   5.677
  893ACTN    H6 9383   3.826   5.973   1.484
  893ACTN    C3 9384   3.924   5.946   1.521
  893ACTN    H4 9385   3.998   6.008   1.471
  893ACTN    H5 9386   3.927   5.969   1.628
  893ACTN    C2 9387   3.951   5.801   1.495
  893ACTN    O1 9388   3.979   5.725   1.586
  893ACTN    C1 9389   3.953   5.754   1.353
  893ACTN    H1 9390   3.876   5.679   1.337
  893ACTN    H2 9391   4.049   5.710   1.329
  893ACTN    H3 9392   3.935   5.836   1.284
  894ACTN    H6 9393   2.381   6.260   3.043
  894ACTN    C3 9394   2.473   6.201   3.050
  894ACTN    H4 9395   2.557   6.265   3.024
  894ACTN    H5 9396   2.485   6.169   3.153
  894ACTN    C2 9397   2.467   6.082   2.960
  894ACTN    O1 9398   2.567   6.011   2.947
  894ACTN    C1 9399   2.349   6.061   2.871
  894ACTN    H1 9400   2.273   6.137   2.887
  894ACTN    H2 9401   2.304   5.964   2.891
  894ACTN    H3 9402   2.378   6.064   2.766
  895ACTN    H6 9403   6.957   0.243   3.807
  895ACTN    C3 9404   6.964   0.212   3.703
  895ACTN    H4 9405   6.874   0.244   3.651
  895ACTN    H5 9406   7.048   0.263   3.658
  895ACTN    C2 9407   6.980   0.063   3.693
  895ACTN    O1 9408   6.902   8.991   3.754
  895ACTN    C1 9409   7.100   0.004   3.627
  895ACTN    H1 9410   7.069   8.947   3.539
  895ACTN    H2 9411   7.153   8.937   3.695
  895ACTN    H3 9412   7.169   0.081   3.594
  896ACTN    H6 9413   6.498   2.872   5.750
  896ACTN    C3 9414   6.519   2.812   5.662
  896ACTN    H4 9415   6.510   2.707   5.690
  896ACTN    H5 9416   6.443   2.834   5.587
  896ACTN    C2 9417   6.656   2.842   5.612
  896ACTN    O1 9418   6.675   2.866   5.493
  896ACTN    C1 9419   6.772   2.828   5.705
  896ACTN    H1 9420   6.826   2.922   5.713
  896ACTN    H2 9421   6.841   2.751   5.669
  896ACTN    H3 9422   6.738   2.799   5.804
  897ACTN    H6 9423   6.010   1.341   5.532
  897ACTN    C3 9424   6.087   1.264   5.539
  897ACTN    H4 9425   6.167   1.291   5.471
  897ACTN    H5 9426   6.044   1.170   5.507
  897ACTN    C2 9427   6.140   1.254   5.679
  897ACTN    O1 9428   6.083   1.309   5.772
  897ACTN    C1 9429   6.257   1.163   5.704
  897ACTN    H1 9430   6.288   1.166   5.808
  897ACTN    H2 9431   6.341   1.194   5.642
  897ACTN    H3 9432   6.231   1.061   5.678
  898ACTN    H6 9433   1.542   0.837   4.996
  898ACTN    C3 9434   1.468   0.766   5.031
  898ACTN    H4 9435   1.370   0.813   5.023
  898ACTN    H5 9436   1.470   0.679   4.965
  898ACTN    C2 9437   1.495   0.726   5.172
  898ACTN    O1 9438   1.492   0.810   5.261
  898ACTN    C1 9439   1.517   0.581   5.202
  898ACTN    H1 9440   1.427   0.524   5.177
  898ACTN    H2 9441   1.539   0.565   5.307
  898ACTN    H3 9442   1.600   0.542   5.143
  899ACTN    H6 9443   1.145   5.180   6.129
  899ACTN    C3 9444   1.226   5.142   6.191
  899ACTN    H4 9445   1.187   5.124   6.291
  899ACTN    H5 9446   1.259   5.047   6.150
  899ACTN    C2 9447   1.339   5.240   6.193
  899ACTN    O1 9448   1.382   5.285   6.299
  899ACTN    C1 9449   1.406   5.274   6.064
  899ACTN    H1 9450   1.333   5.307   5.991
  899ACTN    H2 9451   1.457   5.186   6.025
  899ACTN    H3 9452   1.479   5.354   6.077
  900ACTN    H6 9453   4.871   0.197   1.082
  900ACTN    C3 9454   4.963   0.256   1.078
  900ACTN    H4 9455   4.985   0.293   1.178
  900ACTN    H5 9456   5.045   0.193   1.045
  900ACTN    C2 9457   4.946   0.371   0.983
  900ACTN    O1 9458   4.921   0.349   0.865
  900ACTN    C1 9459   4.963   0.511   1.034
  900ACTN    H1 9460   4.944   0.583   0.955
  900ACTN    H2 9461   5.064   0.526   1.071
  900ACTN    H3 9462   4.893   0.529   1.115
  901ACTN    H6 9463   4.155   5.931   6.672
  901ACTN    C3 9464   4.190   6.032   6.691
  901ACTN    H4 9465   4.228   6.038   6.793
  901ACTN    H5 9466   4.272   6.053   6.622
  901ACTN    C2 9467   4.078   6.129   6.669
  901ACTN    O1 9468   4.018   6.131   6.563
  901ACTN    C1 9469   4.037   6.221   6.780
  901ACTN    H1 9470   3.930   6.211   6.800
  901ACTN    H2 9471   4.056   6.325   6.752
  901ACTN    H3 9472   4.091   6.200   6.872
  902ACTN    H6 9473   1.396   6.623   4.243
  902ACTN    C3 9474   1.329   6.604   4.160
  902ACTN    H4 9475   1.378   6.537   4.090
  902ACTN    H5 9476   1.309   6.698   4.110
  902ACTN    C2 9477   1.200   6.544   4.207
  902ACTN    O1 9478   1.182   6.519   4.326
  902ACTN    C1 9479   1.093   6.515   4.106
  902ACTN    H1 9480   1.007   6.467   4.152
  902ACTN    H2 9481   1.131   6.449   4.028
  902ACTN    H3 9482   1.060   6.607   4.059
  903ACTN    H6 9483   1.885   1.514   3.340
  903ACTN    C3 9484   1.893   1.613   3.295
  903ACTN    H4 9485   1.926   1.682   3.373
  903ACTN    H5 9486   1.968   1.609   3.217
  903ACTN    C2 9487   1.761   1.653   3.238
  903ACTN    O1 9488   1.706   1.758   3.271
  903ACTN    C1 9489   1.699   1.564   3.134
  903ACTN    H1 9490   1.685   1.464   3.174
  903ACTN    H2 9491   1.764   1.557   3.047
  903ACTN    H3 9492   1.602   1.601   3.102
  904ACTN    H6 9493   6.751   3.495   3.634
  904ACTN    C3 9494   6.656   3.544   3.653
  904ACTN    H4 9495   6.625   3.596   3.563
  904ACTN    H5 9496   6.670   3.618   3.732
  904ACTN    C2 9497   6.554   3.443   3.695
  904ACTN    O1 9498   6.451   3.426   3.631
  904ACTN    C1 9499   6.578   3.362   3.819
  904ACTN    H1 9500   6.585   3.256   3.793
  904ACTN    H2 9501   6.496   3.374   3.889
  904ACTN    H3 9502   6.671   3.391   3.867
  905ACTN    H6 9503   2.091   0.170   6.124
  905ACTN    C3 9504   2.083   0.217   6.026
  905ACTN    H4 9505   2.180   0.214   5.979
  905ACTN    H5 9506   2.014   0.157   5.966
  905ACTN    C2 9507   2.031   0.357   6.040
  905ACTN    O1 9508   2.097   0.451   5.998
  905ACTN    C1 9509   1.898   0.380   6.103
  905ACTN    H1 9510   1.907   0.443   6.191
  905ACTN    H2 9511   1.852   0.286   6.133
  905ACTN    H3 9512   1.831   0.429   6.032
  906ACTN    H6 9513   6.736   5.025   6.290
  906ACTN    C3 9514   6.822   4.964   6.264
  906ACTN    H4 9515   6.788   4.870   6.223
  906ACTN    H5 9516   6.879   5.016   6.188
  906ACTN    C2 9517   6.909   4.940   6.384
  906ACTN    O1 9518   6.874   4.975   6.497
  906ACTN    C1 9519   7.036   4.863   6.365
  906ACTN    H1 9520   7.088   4.849   6.459
  906ACTN    H2 9521   7.102   4.917   6.298
  906ACTN    H3 9522   7.015   4.765   6.322
  907ACTN    H6 9523   3.944   0.439   4.877
  907ACTN    C3 9524   3.887   0.522   4.836
  907ACTN    H4 9525   3.819   0.556   4.913
  907ACTN    H5 9526   3.956   0.602   4.813
  907ACTN    C2 9527   3.810   0.482   4.714
  907ACTN    O1 9528   3.823   0.369   4.667
  907ACTN    C1 9529   3.722   0.583   4.647
  907ACTN    H1 9530   3.619   0.550   4.649
  907ACTN    H2 9531   3.751   0.595   4.543
  907ACTN    H3 9532   3.729   0.679   4.696
  908ACTN    H6 9533   3.697   7.052   5.410
  908ACTN    C3 9534   3.645   6.959   5.388
  908ACTN    H4 9535   3.711   6.896   5.329
  908ACTN    H5 9536   3.625   6.909   5.482
  908ACTN    C2 9537   3.518   6.988   5.316
  908ACTN    O1 9538   3.498   6.946   5.202
  908ACTN    C1 9539   3.414   7.071   5.385
  908ACTN    H1 9540   3.383   7.023   5.477
  908ACTN    H2 9541   3.326   7.085   5.323
  908ACTN    H3 9542   3.455   7.169   5.409
  909ACTN    H6 9543   1.688   4.887   6.449
  909ACTN    C3 9544   1.752   4.800   6.458
  909ACTN    H4 9545   1.842   4.827   6.512
  909ACTN    H5 9546   1.700   4.725   6.517
  909ACTN    C2 9547   1.787   4.747   6.322
  909ACTN    O1 9548   1.853   4.816   6.245
  909ACTN    C1 9549   1.741   4.611   6.280
  909ACTN    H1 9550   1.680   4.618   6.190
  909ACTN    H2 9551   1.681   4.564   6.357
  909ACTN    H3 9552   1.826   4.547   6.259
  910ACTN    H6 9553   3.985   3.379   7.351
  910ACTN    C3 9554   4.054   3.431   7.285
  910ACTN    H4 9555   4.146   3.449   7.340
  910ACTN    H5 9556   4.076   3.367   7.200
  910ACTN    C2 9557   3.998   3.562   7.237
  910ACTN    O1 9558   3.882   3.592   7.263
  910ACTN    C1 9559   4.083   3.652   7.154
  910ACTN    H1 9560   4.096   3.748   7.204
  910ACTN    H2 9561   4.036   3.670   7.057
  910ACTN    H3 9562   4.181   3.609   7.137
  911ACTN    H6 9563   0.579   5.239   2.739
  911ACTN    C3 9564   0.595   5.345   2.761
  911ACTN    H4 9565   0.585   5.359   2.868
  911ACTN    H5 9566   0.698   5.369   2.733
  911ACTN    C2 9567   0.498   5.431   2.686
  911ACTN    O1 9568   0.506   5.553   2.695
  911ACTN    C1 9569   0.391   5.368   2.603
  911ACTN    H1 9570   0.293   5.397   2.640
  911ACTN    H2 9571   0.398   5.260   2.604
  911ACTN    H3 9572   0.399   5.401   2.500
  912ACTN    H6 9573   6.595   5.717   6.970
  912ACTN    C3 9574   6.585   5.709   7.078
  912ACTN    H4 9575   6.678   5.668   7.118
  912ACTN    H5 9576   6.571   5.809   7.119
  912ACTN    C2 9577   6.470   5.621   7.115
  912ACTN    O1 9578   6.438   5.607   7.232
  912ACTN    C1 9579   6.390   5.555   7.006
  912ACTN    H1 9580   6.347   5.630   6.940
  912ACTN    H2 9581   6.309   5.495   7.047
  912ACTN    H3 9582   6.455   5.490   6.947
  913ACTN    H6 9583   6.531   5.718   4.827
  913ACTN    C3 9584   6.461   5.680   4.901
  913ACTN    H4 9585   6.361   5.683   4.859
  913ACTN    H5 9586   6.485   5.575   4.920
  913ACTN    C2 9587   6.467   5.761   5.026
  913ACTN    O1 9588   6.508   5.712   5.131
  913ACTN    C1 9589   6.429   5.906   5.020
  913ACTN    H1 9590   6.347   5.926   5.088
  913ACTN    H2 9591   6.399   5.934   4.920
  913ACTN    H3 9592   6.513   5.968   5.049
  914ACTN    H6 9593   1.221   3.461   1.606
  914ACTN    C3 9594   1.213   3.358   1.574
  914ACTN    H4 9595   1.294   3.337   1.505
  914ACTN    H5 9596   1.224   3.293   1.661
  914ACTN    C2 9597   1.079   3.334   1.510
  914ACTN    O1 9598   1.071   3.300   1.392
  914ACTN    C1 9599   0.955   3.357   1.591
  914ACTN    H1 9600   0.893   3.433   1.544
  914ACTN    H2 9601   0.979   3.389   1.691
  914ACTN    H3 9602   0.898   3.265   1.598
  915ACTN    H6 9603   5.204   1.100   5.687
  915ACTN    C3 9604   5.255   1.170   5.621
  915ACTN    H4 9605   5.296   1.250   5.681
  915ACTN    H5 9606   5.182   1.213   5.553
  915ACTN    C2 9607   5.364   1.102   5.544
  915ACTN    O1 9608   5.431   1.165   5.463
  915ACTN    C1 9609   5.388   0.956   5.568
  915ACTN    H1 9610   5.297   0.899   5.549
  915ACTN    H2 9611   5.417   0.940   5.672
  915ACTN    H3 9612   5.467   0.918   5.504
  916ACTN    H6 9613   2.251   1.916   2.231
  916ACTN    C3 9614   2.308   1.835   2.276
  916ACTN    H4 9615   2.250   1.744   2.267
  916ACTN    H5 9616   2.400   1.823   2.219
  916ACTN    C2 9617   2.337   1.865   2.420
  916ACTN    O1 9618   2.244   1.881   2.499
  916ACTN    C1 9619   2.478   1.878   2.467
  916ACTN    H1 9620   2.498   1.807   2.547
  916ACTN    H2 9621   2.496   1.979   2.505
  916ACTN    H3 9622   2.548   1.860   2.386
  917ACTN    H6 9623   0.566   5.858   1.839
  917ACTN    C3 9624   0.525   5.853   1.940
  917ACTN    H4 9625   0.545   5.947   1.990
  917ACTN    H5 9626   0.417   5.840   1.933
  917ACTN    C2 9627   0.586   5.738   2.014
  917ACTN    O1 9628   0.639   5.754   2.123
  917ACTN    C1 9629   0.571   5.601   1.956
  917ACTN    H1 9630   0.621   5.526   2.018
  917ACTN    H2 9631   0.615   5.598   1.857
  917ACTN    H3 9632   0.466   5.574   1.948
  918ACTN    H6 9633   3.093   1.216   5.426
  918ACTN    C3 9634   3.124   1.288   5.351
  918ACTN    H4 9635   3.198   1.242   5.287
  918ACTN    H5 9636   3.037   1.314   5.290
  918ACTN    C2 9637   3.179   1.411   5.416
  918ACTN    O1 9638   3.106   1.481   5.487
  918ACTN    C1 9639   3.320   1.453   5.390
  918ACTN    H1 9640   3.369   1.386   5.321
  918ACTN    H2 9641   3.377   1.454   5.483
  918ACTN    H3 9642   3.323   1.553   5.348
  919ACTN    H6 9643   0.478   5.035   5.896
  919ACTN    C3 9644   0.535   5.012   5.986
  919ACTN    H4 9645   0.539   4.904   5.996
  919ACTN    H5 9646   0.636   5.050   5.974
  919ACTN    C2 9647   0.469   5.075   6.105
  919ACTN    O1 9648   0.460   5.197   6.112
  919ACTN    C1 9649   0.421   4.989   6.218
  919ACTN    H1 9650   0.313   4.995   6.227
  919ACTN    H2 9651   0.465   5.021   6.312
  919ACTN    H3 9652   0.448   4.884   6.202
  920ACTN    H6 9653   3.351   3.827   4.371
  920ACTN    C3 9654   3.423   3.833   4.290
  920ACTN    H4 9655   3.446   3.938   4.274
  920ACTN    H5 9656   3.515   3.783   4.322
  920ACTN    C2 9657   3.370   3.770   4.166
  920ACTN    O1 9658   3.340   3.651   4.166
  920ACTN    C1 9659   3.351   3.854   4.043
  920ACTN    H1 9660   3.285   3.938   4.064
  920ACTN    H2 9661   3.309   3.797   3.961
  920ACTN    H3 9662   3.446   3.894   4.011
  921ACTN    H6 9663   0.805   0.386   6.209
  921ACTN    C3 9664   0.699   0.370   6.225
  921ACTN    H4 9665   0.651   0.357   6.128
  921ACTN    H5 9666   0.686   0.279   6.283
  921ACTN    C2 9667   0.638   0.486   6.298
  921ACTN    O1 9668   0.707   0.581   6.332
  921ACTN    C1 9669   0.491   0.481   6.329
  921ACTN    H1 9670   0.441   0.568   6.287
  921ACTN    H2 9671   0.474   0.481   6.436
  921ACTN    H3 9672   0.445   0.392   6.287
  922ACTN    H6 9673   1.773   1.119   3.805
  922ACTN    C3 9674   1.749   1.213   3.855
  922ACTN    H4 9675   1.817   1.289   3.818
  922ACTN    H5 9676   1.648   1.241   3.827
  922ACTN    C2 9677   1.762   1.198   4.003
  922ACTN    O1 9678   1.870   1.168   4.053
  922ACTN    C1 9679   1.642   1.216   4.091
  922ACTN    H1 9680   1.658   1.298   4.160
  922ACTN    H2 9681   1.623   1.126   4.149
  922ACTN    H3 9682   1.553   1.238   4.032
  923ACTN    H6 9683   2.633   0.700   7.090
  923ACTN    C3 9684   2.558   0.731   7.163
  923ACTN    H4 9685   2.460   0.709   7.122
  923ACTN    H5 9686   2.572   0.672   7.253
  923ACTN    C2 9687   2.573   0.877   7.194
  923ACTN    O1 9688   2.487   0.958   7.161
  923ACTN    C1 9689   2.701   0.925   7.256
  923ACTN    H1 9690   2.785   0.900   7.192
  923ACTN    H2 9691   2.715   0.877   7.353
  923ACTN    H3 9692   2.700   1.033   7.271
  924ACTN    H6 9693   6.900   1.002   0.710
  924ACTN    C3 9694   6.959   0.969   0.625
  924ACTN    H4 9695   6.894   0.913   0.559
  924ACTN    H5 9696   6.996   1.057   0.573
  924ACTN    C2 9697   7.070   0.881   0.672
  924ACTN    O1 9698   7.046   0.784   0.741
  924ACTN    C1 9699   7.210   0.910   0.630
  924ACTN    H1 9700   7.215   0.994   0.562
  924ACTN    H2 9701   7.255   0.824   0.581
  924ACTN    H3 9702   7.271   0.934   0.717
  925ACTN    H6 9703   5.415   6.782   0.885
  925ACTN    C3 9704   5.466   6.740   0.799
  925ACTN    H4 9705   5.542   6.811   0.767
  925ACTN    H5 9706   5.515   6.648   0.831
  925ACTN    C2 9707   5.371   6.711   0.687
  925ACTN    O1 9708   5.414   6.672   0.579
  925ACTN    C1 9709   5.225   6.742   0.704
  925ACTN    H1 9710   5.205   6.781   0.803
  925ACTN    H2 9711   5.166   6.652   0.689
  925ACTN    H3 9712   5.194   6.816   0.630
  926ACTN    H6 9713   0.518   0.954   6.777
  926ACTN    C3 9714   0.510   0.846   6.765
  926ACTN    H4 9715   0.462   0.827   6.669
  926ACTN    H5 9716   0.610   0.804   6.763
  926ACTN    C2 9717   0.430   0.788   6.877
  926ACTN    O1 9718   0.469   0.799   6.993
  926ACTN    C1 9719   0.306   0.712   6.845
  926ACTN    H1 9720   0.232   0.778   6.800
  926ACTN    H2 9721   0.262   0.667   6.934
  926ACTN    H3 9722   0.327   0.632   6.774
  927ACTN    H6 9723   0.823   6.853   6.311
  927ACTN    C3 9724   0.813   6.909   6.404
  927ACTN    H4 9725   0.709   6.934   6.417
  927ACTN    H5 9726   0.844   6.844   6.486
  927ACTN    C2 9727   0.897   7.033   6.398
  927ACTN    O1 9728   0.867   7.123   6.321
  927ACTN    C1 9729   1.010   7.049   6.495
  927ACTN    H1 9730   0.973   7.053   6.597
  927ACTN    H2 9731   1.067   7.139   6.475
  927ACTN    H3 9732   1.078   6.964   6.488
  928ACTN    H6 9733   3.654   5.591   0.994
  928ACTN    C3 9734   3.703   5.502   0.957
  928ACTN    H4 9735   3.678   5.419   1.023
  928ACTN    H5 9736   3.664   5.480   0.858
  928ACTN    C2 9737   3.852   5.520   0.951
  928ACTN    O1 9738   3.903   5.631   0.963
  928ACTN    C1 9739   3.938   5.401   0.918
  928ACTN    H1 9740   3.997   5.420   0.829
  928ACTN    H2 9741   3.876   5.313   0.900
  928ACTN    H3 9742   4.005   5.380   1.000
  929ACTN    H6 9743   0.367   4.452   4.413
  929ACTN    C3 9744   0.350   4.495   4.315
  929ACTN    H4 9745   0.328   4.601   4.328
  929ACTN    H5 9746   0.441   4.485   4.257
  929ACTN    C2 9747   0.235   4.425   4.250
  929ACTN    O1 9748   0.246   4.383   4.135
  929ACTN    C1 9749   0.103   4.422   4.321
  929ACTN    H1 9750   0.033   4.355   4.271
  929ACTN    H2 9751   0.059   4.521   4.325
  929ACTN    H3 9752   0.117   4.386   4.423
  930ACTN    H6 9753   1.079   1.557   5.273
  930ACTN    C3 9754   1.167   1.493   5.265
  930ACTN    H4 9755   1.136   1.390   5.283
  930ACTN    H5 9756   1.204   1.500   5.163
  930ACTN    C2 9757   1.271   1.535   5.364
  930ACTN    O1 9758   1.376   1.584   5.327
  930ACTN    C1 9759   1.236   1.532   5.510
  930ACTN    H1 9760   1.155   1.601   5.532
  930ACTN    H2 9761   1.322   1.557   5.572
  930ACTN    H3 9762   1.203   1.432   5.538
  931ACTN    H6 9763   0.430   4.506   4.905
  931ACTN    C3 9764   0.459   4.542   5.004
  931ACTN    H4 9765   0.411   4.478   5.078
  931ACTN    H5 9766   0.566   4.530   5.015
  931ACTN    C2 9767   0.420   4.685   5.021
  931ACTN    O1 9768   0.354   4.720   5.118
  931ACTN    C1 9769   0.471   4.786   4.923
  931ACTN    H1 9770   0.387   4.837   4.875
  931ACTN    H2 9771   0.531   4.739   4.846
  931ACTN    H3 9772   0.532   4.861   4.973
  932ACTN    H6 9773   1.254   2.015   4.982
  932ACTN    C3 9774   1.208   1.943   5.049
  932ACTN    H4 9775   1.246   1.960   5.149
  932ACTN    H5 9776   1.101   1.960   5.050
  932ACTN    C2 9777   1.241   1.804   5.004
  932ACTN    O1 9778   1.153   1.728   4.965
  932ACTN    C1 9779   1.384   1.761   4.999
  932ACTN    H1 9780   1.402   1.682   5.071
  932ACTN    H2 9781   1.450   1.845   5.021
  932ACTN    H3 9782   1.409   1.724   4.900
  933ACTN    H6 9783   3.006   3.435   3.274
  933ACTN    C3 9784   3.104   3.478   3.253
  933ACTN    H4 9785   3.128   3.459   3.149
  933ACTN    H5 9786   3.098   3.585   3.269
  933ACTN    C2 9787   3.208   3.419   3.343
  933ACTN    O1 9788   3.326   3.447   3.328
  933ACTN    C1 9789   3.166   3.319   3.446
  933ACTN    H1 9790   3.251   3.283   3.504
  933ACTN    H2 9791   3.117   3.235   3.399
  933ACTN    H3 9792   3.096   3.365   3.515
  934ACTN    H6 9793   6.140   1.011   4.450
  934ACTN    C3 9794   6.178   1.022   4.551
  934ACTN    H4 9795   6.259   1.094   4.550
  934ACTN    H5 9796   6.098   1.061   4.614
  934ACTN    C2 9797   6.226   0.891   4.606
  934ACTN    O1 9798   6.213   0.787   4.542
  934ACTN    C1 9799   6.289   0.890   4.741
  934ACTN    H1 9800   6.377   0.955   4.742
  934ACTN    H2 9801   6.322   0.790   4.770
  934ACTN    H3 9802   6.219   0.926   4.816
  935ACTN    H6 9803   6.892   6.391   0.510
  935ACTN    C3 9804   6.861   6.431   0.414
  935ACTN    H4 9805   6.789   6.363   0.370
  935ACTN    H5 9806   6.813   6.527   0.430
  935ACTN    C2 9807   6.979   6.447   0.322
  935ACTN    O1 9808   7.091   6.414   0.358
  935ACTN    C1 9809   6.956   6.504   0.185
  935ACTN    H1 9810   6.982   6.431   0.109
  935ACTN    H2 9811   7.018   6.592   0.170
  935ACTN    H3 9812   6.852   6.533   0.171
  936ACTN    H6 9813   6.206   5.272   5.334
  936ACTN    C3 9814   6.278   5.351   5.317
  936ACTN    H4 9815   6.238   5.418   5.241
  936ACTN    H5 9816   6.290   5.406   5.410
  936ACTN    C2 9817   6.409   5.293   5.272
  936ACTN    O1 9818   6.478   5.231   5.352
  936ACTN    C1 9819   6.460   5.327   5.136
  936ACTN    H1 9820   6.389   5.294   5.061
  936ACTN    H2 9821   6.555   5.277   5.116
  936ACTN    H3 9822   6.474   5.434   5.127
  937ACTN    H6 9823   6.385   4.002   5.528
  937ACTN    C3 9824   6.472   4.015   5.464
  937ACTN    H4 9825   6.477   4.119   5.434
  937ACTN    H5 9826   6.561   3.991   5.520
  937ACTN    C2 9827   6.460   3.925   5.344
  937ACTN    O1 9828   6.458   3.803   5.359
  937ACTN    C1 9829   6.455   3.984   5.206
  937ACTN    H1 9830   6.539   3.948   5.147
  937ACTN    H2 9831   6.460   4.093   5.210
  937ACTN    H3 9832   6.363   3.955   5.157
  938ACTN    H6 9833   1.558   4.431   6.525
  938ACTN    C3 9834   1.486   4.501   6.568
  938ACTN    H4 9835   1.501   4.503   6.676
  938ACTN    H5 9836   1.507   4.600   6.529
  938ACTN    C2 9837   1.346   4.461   6.534
  938ACTN    O1 9838   1.317   4.436   6.418
  938ACTN    C1 9839   1.248   4.437   6.644
  938ACTN    H1 9840   1.278   4.352   6.704
  938ACTN    H2 9841   1.148   4.417   6.605
  938ACTN    H3 9842   1.242   4.524   6.709
  939ACTN    H6 9843   0.114   3.017   2.573
  939ACTN    C3 9844   0.088   3.117   2.537
  939ACTN    H4 9845   8.986   3.138   2.568
  939ACTN    H5 9846   0.155   3.188   2.585
  939ACTN    C2 9847   0.104   3.123   2.388
  939ACTN    O1 9848   0.005   3.135   2.315
  939ACTN    C1 9849   0.240   3.104   2.329
  939ACTN    H1 9850   0.239   3.022   2.257
  939ACTN    H2 9851   0.312   3.081   2.406
  939ACTN    H3 9852   0.272   3.195   2.277
  940ACTN    H6 9853   2.960   1.425   3.470
  940ACTN    C3 9854   2.929   1.331   3.427
  940ACTN    H4 9855   2.820   1.323   3.435
  940ACTN    H5 9856   2.955   1.330   3.321
  940ACTN    C2 9857   2.994   1.217   3.499
  940ACTN    O1 9858   3.054   1.129   3.438
  940ACTN    C1 9859   2.974   1.207   3.647
  940ACTN    H1 9860   3.012   1.295   3.697
  940ACTN    H2 9861   3.023   1.119   3.689
  940ACTN    H3 9862   2.867   1.199   3.670
  941ACTN    H6 9863   5.190   6.273   0.622
  941ACTN    C3 9864   5.264   6.343   0.660
  941ACTN    H4 9865   5.361   6.317   0.618
  941ACTN    H5 9866   5.238   6.442   0.625
  941ACTN    C2 9867   5.270   6.339   0.810
  941ACTN    O1 9868   5.347   6.413   0.870
  941ACTN    C1 9869   5.181   6.245   0.885
  941ACTN    H1 9870   5.119   6.300   0.955
  941ACTN    H2 9871   5.240   6.173   0.941
  941ACTN    H3 9872   5.115   6.190   0.817
  942ACTN    H6 9873   4.983   2.304   6.066
  942ACTN    C3 9874   4.957   2.409   6.063
  942ACTN    H4 9875   4.937   2.436   5.959
  942ACTN    H5 9876   5.042   2.467   6.098
  942ACTN    C2 9877   4.837   2.438   6.148
  942ACTN    O1 9878   4.787   2.550   6.149
  942ACTN    C1 9879   4.771   2.327   6.223
  942ACTN    H1 9880   4.772   2.349   6.330
  942ACTN    H2 9881   4.823   2.233   6.208
  942ACTN    H3 9882   4.668   2.315   6.192
  943ACTN    H6 9883   1.788   6.858   2.844
  943ACTN    C3 9884   1.814   6.767   2.791
  943ACTN    H4 9885   1.727   6.734   2.735
  943ACTN    H5 9886   1.893   6.790   2.721
  943ACTN    C2 9887   1.860   6.662   2.888
  943ACTN    O1 9888   1.805   6.553   2.893
  943ACTN    C1 9889   1.981   6.690   2.971
  943ACTN    H1 9890   2.023   6.788   2.947
  943ACTN    H2 9891   2.057   6.615   2.953
  943ACTN    H3 9892   1.955   6.688   3.076
  944ACTN    H6 9893   0.873   2.370   5.172
  944ACTN    C3 9894   0.798   2.292   5.171
  944ACTN    H4 9895   0.784   2.258   5.273
  944ACTN    H5 9896   0.705   2.334   5.136
  944ACTN    C2 9897   0.842   2.180   5.082
  944ACTN    O1 9898   0.872   2.070   5.129
  944ACTN    C1 9899   0.852   2.206   4.935
  944ACTN    H1 9900   0.754   2.231   4.895
  944ACTN    H2 9901   0.890   2.119   4.882
  944ACTN    H3 9902   0.919   2.290   4.917
  945ACTN    H6 9903   3.254   3.672   3.110
  945ACTN    C3 9904   3.222   3.766   3.067
  945ACTN    H4 9905   3.258   3.770   2.964
  945ACTN    H5 9906   3.113   3.769   3.065
  945ACTN    C2 9907   3.276   3.882   3.145
  945ACTN    O1 9908   3.255   3.997   3.107
  945ACTN    C1 9909   3.358   3.858   3.268
  945ACTN    H1 9910   3.311   3.904   3.354
  945ACTN    H2 9911   3.457   3.899   3.256
  945ACTN    H3 9912   3.367   3.751   3.288
  946ACTN    H6 9913   4.029   2.535   2.094
  946ACTN    C3 9914   4.076   2.487   2.179
  946ACTN    H4 9915   4.040   2.536   2.269
  946ACTN    H5 9916   4.045   2.383   2.182
  946ACTN    C2 9917   4.225   2.495   2.172
  946ACTN    O1 9918   4.281   2.551   2.077
  946ACTN    C1 9919   4.306   2.435   2.282
  946ACTN    H1 9920   4.242   2.388   2.356
  946ACTN    H2 9921   4.366   2.510   2.332
  946ACTN    H3 9922   4.373   2.359   2.242
  947ACTN    H6 9923   6.275   6.048   7.015
  947ACTN    C3 9924   6.265   5.950   7.062
  947ACTN    H4 9925   6.287   5.960   7.168
  947ACTN    H5 9926   6.338   5.883   7.017
  947ACTN    C2 9927   6.126   5.897   7.041
  947ACTN    O1 9928   6.085   5.878   6.927
  947ACTN    C1 9929   6.041   5.866   7.160
  947ACTN    H1 9930   5.943   5.829   7.130
  947ACTN    H2 9931   6.027   5.955   7.221
  947ACTN    H3 9932   6.088   5.790   7.221
  948ACTN    H6 9933   0.196   4.810   6.446
  948ACTN    C3 9934   0.125   4.761   6.512
  948ACTN    H4 9935   0.052   4.835   6.545
  948ACTN    H5 9936   0.073   4.684   6.455
  948ACTN    C2 9937   0.194   4.699   6.630
  948ACTN    O1 9938   0.129   4.638   6.713
  948ACTN    C1 9939   0.342   4.715   6.642
  948ACTN    H1 9940   0.393   4.667   6.558
  948ACTN    H2 9941   0.379   4.669   6.734
  948ACTN    H3 9942   0.370   4.820   6.643
  949ACTN    H6 9943   0.441   2.139   2.300
  949ACTN    C3 9944   0.497   2.232   2.291
  949ACTN    H4 9945   0.449   2.307   2.354
  949ACTN    H5 9946   0.597   2.215   2.330
  949ACTN    C2 9947   0.504   2.276   2.149
  949ACTN    O1 9948   0.551   2.202   2.063
  949ACTN    C1 9949   0.456   2.413   2.113
  949ACTN    H1 9950   0.511   2.488   2.169
  949ACTN    H2 9951   0.350   2.422   2.137
  949ACTN    H3 9952   0.468   2.433   2.007
  950ACTN    H6 9953   1.858   8.940   1.325
  950ACTN    C3 9954   1.921   0.025   1.300
  950ACTN    H4 9955   2.009   0.023   1.363
  950ACTN    H5 9956   1.953   0.014   1.196
  950ACTN    C2 9957   1.845   0.153   1.320
  950ACTN    O1 9958   1.829   0.232   1.227
  950ACTN    C1 9959   1.797   0.186   1.458
  950ACTN    H1 9960   1.733   0.106   1.494
  950ACTN    H2 9961   1.740   0.278   1.458
  950ACTN    H3 9962   1.881   0.196   1.526
  951ACTN    H6 9963   2.000   3.722   5.238
  951ACTN    C3 9964   1.932   3.794   5.284
  951ACTN    H4 9965   1.988   3.850   5.360
  951ACTN    H5 9966   1.899   3.864   5.208
  951ACTN    C2 9967   1.815   3.724   5.347
  951ACTN    O1 9968   1.832   3.646   5.440
  951ACTN    C1 9969   1.677   3.756   5.298
  951ACTN    H1 9970   1.603   3.693   5.346
  951ACTN    H2 9971   1.671   3.742   5.191
  951ACTN    H3 9972   1.653   3.860   5.320
  952ACTN    H6 9973   0.646   2.680   2.236
  952ACTN    C3 9974   0.600   2.773   2.271
  952ACTN    H4 9975   0.512   2.748   2.329
  952ACTN    H5 9976   0.671   2.822   2.338
  952ACTN    C2 9977   0.564   2.863   2.157
  952ACTN    O1 9978   0.526   2.977   2.179
  952ACTN    C1 9979   0.584   2.816   2.016
  952ACTN    H1 9980   0.488   2.813   1.965
  952ACTN    H2 9981   0.628   2.717   2.013
  952ACTN    H3 9982   0.649   2.885   1.962
  953ACTN    H6 9983   0.203   6.266   1.500
  953ACTN    C3 9984   0.119   6.222   1.447
  953ACTN    H4 9985   0.103   6.122   1.487
  953ACTN    H5 9986   0.030   6.281   1.468
  953ACTN    C2 9987   0.143   6.215   1.299
  953ACTN    O1 9988   0.242   6.269   1.250
  953ACTN    C1 9989   0.041   6.149   1.212
  953ACTN    H1 9990   8.959   6.110   1.271
  953ACTN    H2 9991   0.086   6.067   1.157
  953ACTN    H3 9992   0.001   6.221   1.141
  954ACTN    H6 9993   5.764   6.263   0.269
  954ACTN    C3 9994   5.848   6.330   0.287
  954ACTN    H4 9995   5.858   6.397   0.202
  954ACTN    H5 9996   5.826   6.390   0.376
  954ACTN    C2 9997   5.975   6.253   0.307
  954ACTN    O1 9998   6.079   6.311   0.335
  954ACTN    C1 9999   5.972   6.104   0.293
  954ACTN    H110000   5.945   6.076   0.192
  954ACTN    H210001   5.899   6.061   0.361
  954ACTN    H310002   6.069   6.060   0.315
  955ACTN    H610003   6.945   6.583   2.818
  955ACTN    C310004   7.026   6.592   2.891
  955ACTN    H410005   7.020   6.507   2.958
  955ACTN    H510006   7.120   6.588   2.838
  955ACTN    C210007   7.014   6.721   2.965
  955ACTN    O110008   6.999   6.723   3.087
  955ACTN    C110009   7.021   6.850   2.890
  955ACTN    H110010   7.108   6.907   2.921
  955ACTN    H210011   6.932   6.910   2.908
  955ACTN    H310012   7.028   6.831   2.783
  956ACTN    H610013   6.794   3.748   2.058
  956ACTN    C310014   6.893   3.758   2.014
  956ACTN    H410015   6.882   3.772   1.907
  956ACTN    H510016   6.941   3.846   2.055
  956ACTN    C210017   6.974   3.634   2.041
  956ACTN    O110018   7.073   3.639   2.113
  956ACTN    C110019   6.925   3.503   1.990
  956ACTN    H110020   6.904   3.509   1.884
  956ACTN    H210021   6.833   3.475   2.042
  956ACTN    H310022   6.998   3.424   2.006
  957ACTN    H610023   3.372   4.413   1.093
  957ACTN    C310024   3.414   4.481   1.019
  957ACTN    H410025   3.432   4.426   0.927
  957ACTN    H510026   3.341   4.559   0.999
  957ACTN    C210027   3.541   4.542   1.069
  957ACTN    O110028   3.605   4.618   0.997
  957ACTN    C110029   3.590   4.506   1.206
  957ACTN    H110030   3.612   4.400   1.212
  957ACTN    H210031   3.514   4.529   1.279
  957ACTN    H310032   3.681   4.561   1.232
  958ACTN    H610033   5.169   6.029   4.804
  958ACTN    C310034   5.210   6.062   4.900
  958ACTN    H410035   5.311   6.024   4.908
  958ACTN    H510036   5.150   6.018   4.980
  958ACTN    C210037   5.210   6.211   4.908
  958ACTN    O110038   5.267   6.278   4.822
  958ACTN    C110039   5.143   6.279   5.023
  958ACTN    H110040   5.097   6.207   5.090
  958ACTN    H210041   5.065   6.346   4.986
  958ACTN    H310042   5.215   6.337   5.079
  959ACTN    H610043   2.062   0.257   5.634
  959ACTN    C310044   2.121   0.322   5.571
  959ACTN    H410045   2.092   0.425   5.591
  959ACTN    H510046   2.226   0.310   5.598
  959ACTN    C210047   2.099   0.289   5.427
  959ACTN    O110048   1.987   0.300   5.378
  959ACTN    C110049   2.214   0.246   5.342
  959ACTN    H110050   2.182   0.218   5.242
  959ACTN    H210051   2.264   0.161   5.388
  959ACTN    H310052   2.286   0.327   5.334
  960ACTN    H610053   2.208   1.696   4.727
  960ACTN    C310054   2.132   1.626   4.760
  960ACTN    H410055   2.182   1.546   4.815
  960ACTN    H510056   2.064   1.677   4.826
  960ACTN    C210057   2.059   1.571   4.641
  960ACTN    O110058   1.991   1.645   4.570
  960ACTN    C110059   2.065   1.424   4.614
  960ACTN    H110060   2.167   1.394   4.590
  960ACTN    H210061   2.001   1.395   4.531
  960ACTN    H310062   2.034   1.368   4.702
  961ACTN    H610063   6.468   1.174   4.279
  961ACTN    C310064   6.427   1.198   4.181
  961ACTN    H410065   6.496   1.161   4.105
  961ACTN    H510066   6.423   1.307   4.173
  961ACTN    C210067   6.292   1.136   4.163
  961ACTN    O110068   6.279   1.014   4.167
  961ACTN    C110069   6.173   1.224   4.138
  961ACTN    H110070   6.132   1.205   4.039
  961ACTN    H210071   6.198   1.329   4.145
  961ACTN    H310072   6.095   1.203   4.211
  962ACTN    H610073   2.348   6.334   4.281
  962ACTN    C310074   2.267   6.368   4.216
  962ACTN    H410075   2.285   6.327   4.117
  962ACTN    H510076   2.174   6.327   4.254
  962ACTN    C210077   2.263   6.517   4.213
  962ACTN    O110078   2.231   6.580   4.314
  962ACTN    C110079   2.289   6.591   4.085
  962ACTN    H110080   2.202   6.649   4.057
  962ACTN    H210081   2.311   6.521   4.004
  962ACTN    H310082   2.373   6.658   4.096
  963ACTN    H610083   0.888   7.416   4.027
  963ACTN    C310084   0.791   7.368   4.038
  963ACTN    H410085   0.742   7.409   4.126
  963ACTN    H510086   0.731   7.392   3.951
  963ACTN    C210087   0.809   7.220   4.052
  963ACTN    O110088   0.770   7.143   3.965
  963ACTN    C110089   0.885   7.169   4.170
  963ACTN    H110090   0.892   7.060   4.170
  963ACTN    H210091   0.838   7.201   4.262
  963ACTN    H310092   0.986   7.209   4.167
  964ACTN    H610093   3.258   5.724   0.202
  964ACTN    C310094   3.176   5.763   0.263
  964ACTN    H410095   3.180   5.872   0.261
  964ACTN    H510096   3.082   5.733   0.219
  964ACTN    C210097   3.184   5.714   0.404
  964ACTN    O110098   3.273   5.637   0.438
  964ACTN    C110099   3.077   5.754   0.500
  964ACTN    H110100   2.981   5.716   0.465
  964ACTN    H210101   3.070   5.862   0.506
  964ACTN    H310102   3.096   5.715   0.600
  965ACTN    H610103   6.171   5.670   5.091
  965ACTN    C310104   6.086   5.645   5.027
  965ACTN    H410105   5.994   5.667   5.081
  965ACTN    H510106   6.090   5.709   4.939
  965ACTN    C210107   6.093   5.501   4.986
  965ACTN    O110108   6.195   5.457   4.936
  965ACTN    C110109   5.978   5.410   5.013
  965ACTN    H110110   6.010   5.325   5.074
  965ACTN    H210111   5.938   5.370   4.919
  965ACTN    H310112   5.897   5.461   5.065
  966ACTN    H610113   7.168   0.402   4.446
  966ACTN    C310114   7.101   0.359   4.519
  966ACTN    H410115   7.060   0.266   4.479
  966ACTN    H510116   7.158   0.335   4.608
  966ACTN    C210117   6.989   0.454   4.552
  966ACTN    O110118   6.962   0.545   4.474
  966ACTN    C110119   6.893   0.420   4.662
  966ACTN    H110120   6.905   0.491   4.744
  966ACTN    H210121   6.913   0.320   4.700
  966ACTN    H310122   6.790   0.424   4.628
  967ACTN    H610123   0.662   1.911   5.556
  967ACTN    C310124   0.730   1.830   5.530
  967ACTN    H410125   0.750   1.836   5.424
  967ACTN    H510126   0.823   1.845   5.584
  967ACTN    C210127   0.670   1.696   5.564
  967ACTN    O110128   0.565   1.689   5.627
  967ACTN    C110129   0.746   1.573   5.527
  967ACTN    H110130   0.684   1.507   5.466
  967ACTN    H210131   0.775   1.519   5.616
  967ACTN    H310132   0.835   1.597   5.470
  968ACTN    H610133   2.279   6.395   2.620
  968ACTN    C310134   2.192   6.371   2.680
  968ACTN    H410135   2.169   6.266   2.667
  968ACTN    H510136   2.216   6.389   2.785
  968ACTN    C210137   2.076   6.457   2.639
  968ACTN    O110138   2.087   6.579   2.639
  968ACTN    C110139   1.949   6.394   2.591
  968ACTN    H110140   1.866   6.423   2.655
  968ACTN    H210141   1.956   6.286   2.592
  968ACTN    H310142   1.927   6.427   2.490
  969ACTN    H610143   1.315   6.461   3.858
  969ACTN    C310144   1.289   6.494   3.758
  969ACTN    H410145   1.304   6.411   3.690
  969ACTN    H510146   1.183   6.520   3.757
  969ACTN    C210147   1.372   6.612   3.720
  969ACTN    O110148   1.354   6.720   3.775
  969ACTN    C110149   1.468   6.602   3.604
  969ACTN    H110150   1.442   6.675   3.528
  969ACTN    H210151   1.466   6.503   3.560
  969ACTN    H310152   1.569   6.623   3.638
  970ACTN    H610153   2.695   6.095   3.945
  970ACTN    C310154   2.775   6.072   4.015
  970ACTN    H410155   2.821   5.978   3.984
  970ACTN    H510156   2.850   6.150   4.009
  970ACTN    C210157   2.719   6.061   4.153
  970ACTN    O110158   2.634   5.978   4.180
  970ACTN    C110159   2.776   6.149   4.261
  970ACTN    H110160   2.725   6.133   4.355
  970ACTN    H210161   2.765   6.254   4.233
  970ACTN    H310162   2.882   6.128   4.275
  971ACTN    H610163   2.031   2.379   3.316
  971ACTN    C310164   1.970   2.451   3.370
  971ACTN    H410165   1.932   2.523   3.298
  971ACTN    H510166   1.886   2.398   3.414
  971ACTN    C210167   2.049   2.520   3.476
  971ACTN    O110168   1.999   2.610   3.543
  971ACTN    C110169   2.193   2.484   3.498
  971ACTN    H110170   2.256   2.572   3.486
  971ACTN    H210171   2.226   2.409   3.425
  971ACTN    H310172   2.208   2.444   3.598
  972ACTN    H610173   4.229   5.673   5.856
  972ACTN    C310174   4.251   5.772   5.816
  972ACTN    H410175   4.181   5.794   5.736
  972ACTN    H510176   4.237   5.845   5.895
  972ACTN    C210177   4.392   5.776   5.765
  972ACTN    O110178   4.421   5.709   5.666
  972ACTN    C110179   4.487   5.877   5.821
  972ACTN    H110180   4.456   5.977   5.793
  972ACTN    H210181   4.588   5.860   5.784
  972ACTN    H310182   4.488   5.871   5.929
  973ACTN    H610183   5.906   5.036   2.776
  973ACTN    C310184   5.910   5.078   2.876
  973ACTN    H410185   5.809   5.080   2.916
  973ACTN    H510186   5.971   5.013   2.938
  973ACTN    C210187   5.965   5.217   2.870
  973ACTN    O110188   6.058   5.252   2.943
  973ACTN    C110189   5.903   5.314   2.774
  973ACTN    H110190   5.956   5.408   2.772
  973ACTN    H210191   5.800   5.334   2.803
  973ACTN    H310192   5.903   5.272   2.674
  974ACTN    H610193   0.886   4.368   0.100
  974ACTN    C310194   0.942   4.367   0.194
  974ACTN    H410195   1.044   4.400   0.174
  974ACTN    H510196   0.896   4.438   0.262
  974ACTN    C210197   0.943   4.230   0.255
  974ACTN    O110198   1.006   4.208   0.357
  974ACTN    C110199   0.869   4.118   0.187
  974ACTN    H110200   0.794   4.077   0.254
  974ACTN    H210201   0.938   4.039   0.160
  974ACTN    H310202   0.819   4.153   0.097
  975ACTN    H610203   1.130   6.453   4.998
  975ACTN    C310204   1.234   6.464   4.970
  975ACTN    H410205   1.290   6.381   5.013
  975ACTN    H510206   1.242   6.459   4.862
  975ACTN    C210207   1.288   6.595   5.020
  975ACTN    O110208   1.233   6.700   4.987
  975ACTN    C110209   1.401   6.595   5.117
  975ACTN    H110210   1.373   6.542   5.208
  975ACTN    H210211   1.430   6.696   5.143
  975ACTN    H310212   1.488   6.545   5.073
  976ACTN    H610213   5.181   6.666   0.189
  976ACTN    C310214   5.286   6.639   0.187
  976ACTN    H410215   5.310   6.591   0.281
  976ACTN    H510216   5.301   6.567   0.107
  976ACTN    C210217   5.370   6.761   0.168
  976ACTN    O110218   5.444   6.774   0.071
  976ACTN    C110219   5.365   6.869   0.272
  976ACTN    H110220   5.302   6.839   0.355
  976ACTN    H210221   5.324   6.960   0.229
  976ACTN    H310222   5.464   6.890   0.310
  977ACTN    H610223   6.197   4.201   4.379
  977ACTN    C310224   6.242   4.242   4.469
  977ACTN    H410225   6.164   4.261   4.541
  977ACTN    H510226   6.310   4.167   4.510
  977ACTN    C210227   6.317   4.367   4.437
  977ACTN    O110228   6.412   4.363   4.359
  977ACTN    C110229   6.278   4.495   4.504
  977ACTN    H110230   6.289   4.486   4.612
  977ACTN    H210231   6.175   4.520   4.481
  977ACTN    H310232   6.341   4.578   4.470
  978ACTN    H610233   3.511   2.696   1.749
  978ACTN    C310234   3.575   2.611   1.725
  978ACTN    H410235   3.582   2.547   1.813
  978ACTN    H510236   3.528   2.554   1.645
  978ACTN    C210237   3.711   2.659   1.685
  978ACTN    O110238   3.783   2.586   1.618
  978ACTN    C110239   3.743   2.805   1.700
  978ACTN    H110240   3.725   2.836   1.803
  978ACTN    H210241   3.681   2.864   1.634
  978ACTN    H310242   3.847   2.825   1.677
  979ACTN    H610243   1.043   7.168   1.173
  979ACTN    C310244   0.942   7.151   1.136
  979ACTN    H410245   0.925   7.216   1.051
  979ACTN    H510246   0.935   7.048   1.102
  979ACTN    C210247   0.841   7.179   1.243
  979ACTN    O110248   0.841   7.287   1.300
  979ACTN    C110249   0.747   7.070   1.285
  979ACTN    H110250   0.678   7.103   1.362
  979ACTN    H210251   0.802   6.984   1.322
  979ACTN    H310252   0.687   7.038   1.199
  980ACTN    H610253   4.259   6.257   7.839
  980ACTN    C310254   4.278   6.158   7.798
  980ACTN    H410255   4.276   6.086   7.880
  980ACTN    H510256   4.197   6.134   7.730
  980ACTN    C210257   4.409   6.156   7.727
  980ACTN    O110258   4.498   6.078   7.759
  980ACTN    C110259   4.431   6.249   7.611
  980ACTN    H110260   4.454   6.194   7.521
  980ACTN    H210261   4.515   6.316   7.632
  980ACTN    H310262   4.343   6.311   7.593
  981ACTN    H610263   6.852   5.830   7.613
  981ACTN    C310264   6.905   5.906   7.669
  981ACTN    H410265   6.857   5.917   7.766
  981ACTN    H510266   7.007   5.873   7.685
  981ACTN    C210267   6.904   6.036   7.595
  981ACTN    O110268   6.798   6.095   7.578
  981ACTN    C110269   7.033   6.094   7.548
  981ACTN    H110270   7.084   6.025   7.482
  981ACTN    H210271   7.098   6.115   7.633
  981ACTN    H310272   7.018   6.187   7.494
  982ACTN    H610273   6.994   5.426   8.895
  982ACTN    C310274   7.099   5.400   8.906
  982ACTN    H410275   7.159   5.487   8.882
  982ACTN    H510276   7.117   5.374   0.010
  982ACTN    C210277   7.137   5.285   8.818
  982ACTN    O110278   7.058   5.240   8.735
  982ACTN    C110279   7.275   5.230   8.826
  982ACTN    H110280   7.333   5.284   8.901
  982ACTN    H210281   7.326   5.237   8.731
  982ACTN    H310282   7.272   5.125   8.856
  983ACTN    H610283   0.603   4.795   8.169
  983ACTN    C310284   0.589   4.737   8.078
  983ACTN    H410285   0.625   4.636   8.095
  983ACTN    H510286   0.483   4.732   8.056
  983ACTN    C210287   0.664   4.799   7.964
  983ACTN    O110288   0.785   4.820   7.975
  983ACTN    C110289   0.591   4.841   7.841
  983ACTN    H110290   0.483   4.835   7.855
  983ACTN    H210291   0.617   4.776   7.758
  983ACTN    H310292   0.616   4.943   7.813
  984ACTN    H610293   5.561   5.292   8.451
  984ACTN    C310294   5.495   5.379   8.451
  984ACTN    H410295   5.431   5.372   8.538
  984ACTN    H510296   5.557   5.468   8.460
  984ACTN    C210297   5.413   5.381   8.326
  984ACTN    O110298   5.416   5.478   8.251
  984ACTN    C110299   5.325   5.264   8.295
  984ACTN    H110300   5.333   5.187   8.371
  984ACTN    H210301   5.353   5.221   8.199
  984ACTN    H310302   5.221   5.295   8.289
  985ACTN    H610303   1.795   0.575   8.501
  985ACTN    C310304   1.712   0.549   8.567
  985ACTN    H410305   1.619   0.564   8.513
  985ACTN    H510306   1.720   0.444   8.592
  985ACTN    C210307   1.713   0.631   8.691
  985ACTN    O110308   1.799   0.716   8.710
  985ACTN    C110309   1.608   0.606   8.795
  985ACTN    H110310   1.654   0.576   8.889
  985ACTN    H210311   1.540   0.527   8.763
  985ACTN    H310312   1.550   0.696   8.813
  986ACTN    H610313   0.802   0.888   8.425
  986ACTN    C310314   0.875   0.948   8.477
  986ACTN    H410315   0.918   0.888   8.557
  986ACTN    H510316   0.955   0.973   8.408
  986ACTN    C210317   0.811   1.071   8.534
  986ACTN    O110318   0.842   1.183   8.494
  986ACTN    C110319   0.701   1.056   8.635
  986ACTN    H110320   0.684   0.951   8.657
  986ACTN    H210321   0.608   1.098   8.597
  986ACTN    H310322   0.728   1.107   8.727
  987ACTN    H610323   3.752   4.467   8.150
  987ACTN    C310324   3.811   4.379   8.126
  987ACTN    H410325   3.781   4.342   8.028
  987ACTN    H510326   3.916   4.408   8.122
  987ACTN    C210327   3.790   4.274   8.231
  987ACTN    O110328   3.716   4.179   8.208
  987ACTN    C110329   3.842   4.299   8.369
  987ACTN    H110330   3.880   4.400   8.378
  987ACTN    H210331   3.924   4.230   8.391
  987ACTN    H310332   3.764   4.284   8.443
  988ACTN    H610333   4.502   1.943   8.163
  988ACTN    C310334   4.433   1.910   8.240
  988ACTN    H410335   4.347   1.865   8.191
  988ACTN    H510336   4.481   1.833   8.299
  988ACTN    C210337   4.392   2.025   8.327
  988ACTN    O110338   4.477   2.091   8.385
  988ACTN    C110339   4.247   2.061   8.341
  988ACTN    H110340   4.229   2.161   8.301
  988ACTN    H210341   4.218   2.061   8.446
  988ACTN    H310342   4.183   1.990   8.289
  989ACTN    H610343   5.372   6.272   8.549
  989ACTN    C310344   5.470   6.271   8.503
  989ACTN    H410345   5.534   6.201   8.557
  989ACTN    H510346   5.459   6.234   8.401
  989ACTN    C210347   5.531   6.407   8.501
  989ACTN    O110348   5.487   6.496   8.573
  989ACTN    C110349   5.661   6.426   8.428
  989ACTN    H110350   5.737   6.362   8.471
  989ACTN    H210351   5.695   6.529   8.433
  989ACTN    H310352   5.648   6.399   8.323
  990ACTN    H610353   6.440   5.339   8.147
  990ACTN    C310354   6.518   5.288   8.091
  990ACTN    H410355   6.612   5.301   8.145
  990ACTN    H510356   6.495   5.182   8.088
  990ACTN    C210357   6.527   5.344   7.953
  990ACTN    O110358   6.623   5.413   7.919
  990ACTN    C110359   6.410   5.329   7.860
  990ACTN    H110360   6.437   5.268   7.775
  990ACTN    H210361   6.377   5.426   7.824
  990ACTN    H310362   6.326   5.282   7.911
  991ACTN    H610363   0.209   6.278   8.100
  991ACTN    C310364   0.302   6.224   8.114
  991ACTN    H410365   0.363   6.279   8.186
  991ACTN    H510366   0.354   6.221   8.019
  991ACTN    C210367   0.274   6.085   8.163
  991ACTN    O110368   0.301   6.052   8.279
  991ACTN    C110369   0.204   5.990   8.072
  991ACTN    H110370   0.107   6.029   8.042
  991ACTN    H210371   0.188   5.893   8.119
  991ACTN    H310372   0.262   5.974   7.981
  992ACTN    H610373   4.278   5.244   8.088
  992ACTN    C310374   4.326   5.340   8.103
  992ACTN    H410375   4.302   5.403   8.018
  992ACTN    H510376   4.286   5.386   8.193
  992ACTN    C210377   4.475   5.324   8.115
  992ACTN    O110378   4.527   5.213   8.114
  992ACTN    C110379   4.559   5.447   8.131
  992ACTN    H110380   4.498   5.537   8.129
  992ACTN    H210381   4.632   5.453   8.051
  992ACTN    H310382   4.613   5.444   8.226
  993ACTN    H610383   0.685   0.234   7.750
  993ACTN    C310384   0.731   0.178   7.669
  993ACTN    H410385   0.679   0.083   7.659
  993ACTN    H510386   0.717   0.234   7.576
  993ACTN    C210387   0.876   0.156   7.698
  993ACTN    O110388   0.963   0.194   7.620
  993ACTN    C110389   0.914   0.082   7.823
  993ACTN    H110390   0.971   8.993   7.798
  993ACTN    H210391   0.826   0.052   7.879
  993ACTN    H310392   0.975   0.145   7.887
  994ACTN    H610393   2.775   0.979   7.898
  994ACTN    C310394   2.698   0.973   7.820
  994ACTN    H410395   2.745   0.947   7.726
  994ACTN    H510396   2.653   1.072   7.810
  994ACTN    C210397   2.593   0.873   7.856
  994ACTN    O110398   2.504   0.846   7.776
  994ACTN    C110399   2.605   0.798   7.985
  994ACTN    H110400   2.697   0.740   7.987
  994ACTN    H210401   2.521   0.730   8.000
  994ACTN    H310402   2.607   0.868   8.069
  995ACTN    H610403   2.239   2.440   8.200
  995ACTN    C310404   2.179   2.447   8.290
  995ACTN    H410405   2.244   2.462   8.375
  995ACTN    H510406   2.114   2.534   8.281
  995ACTN    C210407   2.097   2.323   8.307
  995ACTN    O110408   2.152   2.217   8.337
  995ACTN    C110409   1.947   2.333   8.304
  995ACTN    H110410   1.912   2.397   8.384
  995ACTN    H210411   1.901   2.235   8.315
  995ACTN    H310412   1.915   2.375   8.209
  996ACTN    H610413   6.121   2.617   8.171
  996ACTN    C310414   6.097   2.723   8.171
  996ACTN    H410415   6.058   2.749   8.073
  996ACTN    H510416   6.018   2.740   8.244
  996ACTN    C210417   6.217   2.804   8.207
  996ACTN    O110418   6.258   2.892   8.131
  996ACTN    C110419   6.286   2.780   8.337
  996ACTN    H110420   6.239   2.697   8.390
  996ACTN    H210421   6.281   2.868   8.400
  996ACTN    H310422   6.391   2.755   8.321
  997ACTN    H610423   4.041   1.236   8.887
  997ACTN    C310424   3.948   1.243   8.832
  997ACTN    H410425   3.965   1.210   8.730
  997ACTN    H510426   3.876   1.176   8.879
  997ACTN    C210427   3.898   1.384   8.833
  997ACTN    O110428   3.787   1.413   8.877
  997ACTN    C110429   3.987   1.492   8.781
  997ACTN    H110430   3.940   1.542   8.696
  997ACTN    H210431   4.082   1.452   8.748
  997ACTN    H310432   4.005   1.567   8.858
  998ACTN    H610433   3.615   4.108   8.483
  998ACTN    C310434   3.520   4.060   8.461
  998ACTN    H410435   3.466   4.122   8.390
  998ACTN    H510436   3.463   4.055   8.553
  998ACTN    C210437   3.541   3.924   8.404
  998ACTN    O110438   3.654   3.876   8.394
  998ACTN    C110439   3.420   3.842   8.368
  998ACTN    H110440   3.356   3.899   8.301
  998ACTN    H210441   3.364   3.817   8.457
  998ACTN    H310442   3.449   3.750   8.318
  999ACTN    H610443   4.134   4.817   7.614
  999ACTN    C310444   4.036   4.776   7.590
  999ACTN    H410445   3.965   4.810   7.665
  999ACTN    H510446   4.005   4.815   7.493
  999ACTN    C210447   4.043   4.627   7.586
  999ACTN    O110448   4.113   4.569   7.504
  999ACTN    C110449   3.964   4.548   7.687
  999ACTN    H110450   3.973   4.441   7.671
  999ACTN    H210451   3.859   4.576   7.682
  999ACTN    H310452   4.000   4.570   7.787
 1000ACTN    H610453   4.591   2.190   8.827
 1000ACTN    C310454   4.689   2.208   8.784
 1000ACTN    H410455   4.763   2.151   8.841
 1000ACTN    H510456   4.689   2.171   8.682
 1000ACTN    C210457   4.723   2.354   8.786
 1000ACTN    O110458   4.828   2.393   8.737
 1000ACTN    C110459   4.623   2.451   8.841
 1000ACTN    H110460   4.596   2.424   8.943
 1000ACTN    H210461   4.533   2.451   8.781
 1000ACTN    H310462   4.663   2.552   8.843
 1001ACTN    H610463   3.428   6.039   7.557
 1001ACTN    C310464   3.381   6.111   7.491
 1001ACTN    H410465   3.420   6.096   7.390
 1001ACTN    H510466   3.274   6.090   7.489
 1001ACTN    C210467   3.407   6.250   7.538
 1001ACTN    O110468   3.522   6.290   7.552
 1001ACTN    C110469   3.291   6.339   7.571
 1001ACTN    H110470   3.323   6.435   7.610
 1001ACTN    H210471   3.227   6.291   7.645
 1001ACTN    H310472   3.231   6.356   7.482
 1002ACTN    H610473   6.633   4.935   8.177
 1002ACTN    C310474   6.709   4.885   8.236
 1002ACTN    H410475   6.665   4.856   8.331
 1002ACTN    H510476   6.738   4.794   8.184
 1002ACTN    C210477   6.828   4.973   8.258
 1002ACTN    O110478   6.914   4.940   8.338
 1002ACTN    C110479   6.835   5.107   8.192
 1002ACTN    H110480   6.929   5.118   8.138
 1002ACTN    H210481   6.828   5.186   8.267
 1002ACTN    H310482   6.754   5.119   8.121
 1003ACTN    H610483   4.955   2.525   7.966
 1003ACTN    C310484   5.023   2.451   8.008
 1003ACTN    H410485   5.073   2.497   8.093
 1003ACTN    H510486   4.965   2.366   8.043
 1003ACTN    C210487   5.121   2.408   7.903
 1003ACTN    O110488   5.083   2.345   7.805
 1003ACTN    C110489   5.268   2.431   7.925
 1003ACTN    H110490   5.323   2.337   7.921
 1003ACTN    H210491   5.287   2.477   8.022
 1003ACTN    H310492   5.307   2.497   7.848
 1004ACTN    H610493   4.917   5.506   7.643
 1004ACTN    C310494   4.983   5.420   7.634
 1004ACTN    H410495   5.086   5.453   7.651
 1004ACTN    H510496   4.958   5.349   7.713
 1004ACTN    C210497   4.970   5.357   7.499
 1004ACTN    O110498   4.997   5.422   7.398
 1004ACTN    C110499   4.922   5.216   7.490
 1004ACTN    H110500   4.992   5.150   7.541
 1004ACTN    H210501   4.915   5.183   7.387
 1004ACTN    H310502   4.824   5.206   7.536
 1005ACTN    H610503   6.934   2.778   8.299
 1005ACTN    C310504   6.915   2.692   8.234
 1005ACTN    H410505   6.884   2.609   8.296
 1005ACTN    H510506   7.008   2.666   8.185
 1005ACTN    C210507   6.808   2.726   8.135
 1005ACTN    O110508   6.828   2.711   8.015
 1005ACTN    C110509   6.676   2.777   8.185
 1005ACTN    H110510   6.606   2.793   8.103
 1005ACTN    H210511   6.689   2.871   8.237
 1005ACTN    H310512   6.632   2.705   8.254
 1006ACTN    H610513   1.561   6.250   8.105
 1006ACTN    C310514   1.594   6.222   8.006
 1006ACTN    H410515   1.585   6.308   7.941
 1006ACTN    H510516   1.699   6.195   8.011
 1006ACTN    C210517   1.511   6.109   7.953
 1006ACTN    O110518   1.562   6.000   7.927
 1006ACTN    C110519   1.364   6.131   7.935
 1006ACTN    H110520   1.315   6.043   7.893
 1006ACTN    H210521   1.346   6.215   7.868
 1006ACTN    H310522   1.318   6.153   8.031
 1007ACTN    H610523   2.121   5.494   8.717
 1007ACTN    C310524   2.042   5.449   8.776
 1007ACTN    H410525   2.020   5.351   8.735
 1007ACTN    H510526   2.078   5.435   8.878
 1007ACTN    C210527   1.921   5.537   8.777
 1007ACTN    O110528   1.813   5.496   8.737
 1007ACTN    C110529   1.934   5.677   8.828
 1007ACTN    H110530   1.867   5.692   8.913
 1007ACTN    H210531   1.908   5.748   8.749
 1007ACTN    H310532   2.036   5.697   8.860
 1008ACTN    H610533   4.654   4.930   7.710
 1008ACTN    C310534   4.587   4.998   7.658
 1008ACTN    H410535   4.631   5.023   7.562
 1008ACTN    H510536   4.493   4.946   7.640
 1008ACTN    C210537   4.565   5.122   7.739
 1008ACTN    O110538   4.660   5.194   7.769
 1008ACTN    C110539   4.425   5.160   7.777
 1008ACTN    H110540   4.379   5.081   7.836
 1008ACTN    H210541   4.365   5.177   7.688
 1008ACTN    H310542   4.423   5.252   7.837
 1009ACTN    H610543   4.169   2.461   8.788
 1009ACTN    C310544   4.101   2.525   8.733
 1009ACTN    H410545   4.000   2.509   8.770
 1009ACTN    H510546   4.129   2.629   8.751
 1009ACTN    C210547   4.108   2.492   8.587
 1009ACTN    O110548   4.129   2.579   8.503
 1009ACTN    C110549   4.081   2.352   8.543
 1009ACTN    H110550   4.053   2.289   8.627
 1009ACTN    H210551   4.171   2.309   8.498
 1009ACTN    H310552   4.001   2.349   8.469
 1010ACTN    H610553   4.429   2.888   7.597
 1010ACTN    C310554   4.448   2.806   7.529
 1010ACTN    H410555   4.357   2.784   7.474
 1010ACTN    H510556   4.524   2.838   7.458
 1010ACTN    C210557   4.495   2.685   7.603
 1010ACTN    O110558   4.522   2.582   7.542
 1010ACTN    C110559   4.504   2.689   7.752
 1010ACTN    H110560   4.540   2.595   7.793
 1010ACTN    H210561   4.406   2.710   7.795
 1010ACTN    H310562   4.572   2.768   7.784
 1011ACTN    H610563   1.689   7.309   8.114
 1011ACTN    C310564   1.589   7.279   8.086
 1011ACTN    H410565   1.594   7.224   7.992
 1011ACTN    H510566   1.551   7.212   8.163
 1011ACTN    C210567   1.498   7.397   8.072
 1011ACTN    O110568   1.543   7.511   8.065
 1011ACTN    C110569   1.353   7.372   8.045
 1011ACTN    H110570   1.326   7.408   7.946
 1011ACTN    H210571   1.292   7.425   8.118
 1011ACTN    H310572   1.330   7.266   8.051
 1012ACTN    H610573   0.593   6.379   8.120
 1012ACTN    C310574   0.604   6.483   8.090
 1012ACTN    H410575   0.508   6.532   8.100
 1012ACTN    H510576   0.675   6.530   8.156
 1012ACTN    C210577   0.653   6.488   7.949
 1012ACTN    O110578   0.764   6.445   7.921
 1012ACTN    C110579   0.570   6.558   7.846
 1012ACTN    H110580   0.557   6.663   7.872
 1012ACTN    H210581   0.472   6.512   7.840
 1012ACTN    H310582   0.615   6.552   7.748
 1013ACTN    H610583   4.107   4.937   8.153
 1013ACTN    C310584   4.076   5.022   8.213
 1013ACTN    H410585   4.164   5.068   8.256
 1013ACTN    H510586   4.028   5.095   8.147
 1013ACTN    C210587   3.979   4.978   8.318
 1013ACTN    O110588   3.999   5.003   8.437
 1013ACTN    C110589   3.853   4.908   8.278
 1013ACTN    H110590   3.846   4.901   8.169
 1013ACTN    H210591   3.766   4.962   8.314
 1013ACTN    H310592   3.851   4.808   8.319
 1014ACTN    H610593   0.803   4.976   8.478
 1014ACTN    C310594   0.837   4.989   8.376
 1014ACTN    H410595   0.801   4.905   8.317
 1014ACTN    H510596   0.945   4.988   8.376
 1014ACTN    C210597   0.786   5.118   8.319
 1014ACTN    O110598   0.721   5.196   8.387
 1014ACTN    C110599   0.822   5.153   8.178
 1014ACTN    H110600   0.930   5.164   8.168
 1014ACTN    H210601   0.774   5.245   8.146
 1014ACTN    H310602   0.791   5.073   8.111
 1015ACTN    H610603   2.524   0.258   8.277
 1015ACTN    C310604   2.423   0.242   8.239
 1015ACTN    H410605   2.354   0.252   8.323
 1015ACTN    H510606   2.417   0.140   8.202
 1015ACTN    C210607   2.389   0.340   8.132
 1015ACTN    O110608   2.471   0.423   8.093
 1015ACTN    C110609   2.252   0.333   8.071
 1015ACTN    H110610   2.176   0.347   8.147
 1015ACTN    H210611   2.236   0.236   8.024
 1015ACTN    H310612   2.239   0.410   7.995
 1016ACTN    H610613   1.394   1.139   7.581
 1016ACTN    C310614   1.289   1.109   7.582
 1016ACTN    H410615   1.269   1.050   7.493
 1016ACTN    H510616   1.228   1.199   7.577
 1016ACTN    C210617   1.254   1.031   7.705
 1016ACTN    O110618   1.334   1.020   7.798
 1016ACTN    C110619   1.117   0.974   7.718
 1016ACTN    H110620   1.067   1.011   7.807
 1016ACTN    H210621   1.121   0.865   7.725
 1016ACTN    H310622   1.056   0.999   7.632
 1017ACTN    H610623   6.897   3.470   8.145
 1017ACTN    C310624   6.972   3.511   8.079
 1017ACTN    H410625   7.002   3.434   8.008
 1017ACTN    H510626   6.928   3.593   8.023
 1017ACTN    C210627   7.090   3.559   8.158
 1017ACTN    O110628   7.154   3.477   8.224
 1017ACTN    C110629   7.135   3.701   8.148
 1017ACTN    H110630   7.127   3.750   8.245
 1017ACTN    H210631   7.073   3.757   8.078
 1017ACTN    H310632   7.238   3.706   8.114
 1018ACTN    H610633   2.031   5.939   8.295
 1018ACTN    C310634   1.926   5.968   8.292
 1018ACTN    H410635   1.909   6.022   8.199
 1018ACTN    H510636   1.865   5.878   8.291
 1018ACTN    C210637   1.891   6.052   8.411
 1018ACTN    O110638   1.842   6.164   8.399
 1018ACTN    C110639   1.913   5.994   8.548
 1018ACTN    H110640   1.956   5.895   8.542
 1018ACTN    H210641   1.818   5.987   8.601
 1018ACTN    H310642   1.980   6.058   8.606
 1019ACTN    H610643   4.714   5.786   8.597
 1019ACTN    C310644   4.805   5.727   8.586
 1019ACTN    H410645   4.845   5.708   8.686
 1019ACTN    H510646   4.779   5.632   8.541
 1019ACTN    C210647   4.907   5.801   8.505
 1019ACTN    O110648   4.945   5.758   8.396
 1019ACTN    C110649   4.956   5.934   8.555
 1019ACTN    H110650   5.027   5.979   8.486
 1019ACTN    H210651   5.005   5.921   8.651
 1019ACTN    H310652   4.872   6.002   8.568
 1020ACTN    H610653   5.925   6.910   8.228
 1020ACTN    C310654   5.826   6.953   8.225
 1020ACTN    H410655   5.815   7.012   8.135
 1020ACTN    H510656   5.754   6.872   8.222
 1020ACTN    C210657   5.803   7.039   8.346
 1020ACTN    O110658   5.871   7.139   8.365
 1020ACTN    C110659   5.695   7.000   8.442
 1020ACTN    H110660   5.690   7.068   8.527
 1020ACTN    H210661   5.712   6.899   8.480
 1020ACTN    H310662   5.598   7.001   8.392
 1021ACTN    H610663   4.938   4.316   8.849
 1021ACTN    C310664   4.868   4.303   8.768
 1021ACTN    H410665   4.780   4.364   8.788
 1021ACTN    H510666   4.915   4.340   8.676
 1021ACTN    C210667   4.829   4.159   8.756
 1021ACTN    O110668   4.840   4.100   8.649
 1021ACTN    C110669   4.769   4.091   8.874
 1021ACTN    H110670   4.752   4.161   8.955
 1021ACTN    H210671   4.837   4.013   8.909
 1021ACTN    H310672   4.674   4.044   8.848
 1022ACTN    H610673   1.602   7.218   8.880
 1022ACTN    C310674   1.552   7.139   8.824
 1022ACTN    H410675   1.626   7.064   8.798
 1022ACTN    H510676   1.477   7.094   8.887
 1022ACTN    C210677   1.491   7.195   8.699
 1022ACTN    O110678   1.563   7.238   8.609
 1022ACTN    C110679   1.342   7.197   8.684
 1022ACTN    H110680   1.312   7.131   8.603
 1022ACTN    H210681   1.308   7.297   8.660
 1022ACTN    H310682   1.293   7.165   8.776
 1023ACTN    H610683   7.032   4.848   7.513
 1023ACTN    C310684   6.928   4.878   7.522
 1023ACTN    H410685   6.867   4.809   7.463
 1023ACTN    H510686   6.898   4.868   7.626
 1023ACTN    C210687   6.908   5.018   7.474
 1023ACTN    O110688   6.797   5.071   7.479
 1023ACTN    C110689   7.024   5.096   7.420
 1023ACTN    H110690   7.005   5.127   7.318
 1023ACTN    H210691   7.114   5.036   7.421
 1023ACTN    H310692   7.042   5.185   7.481
 1024ACTN    H610693   4.557   5.739   7.440
 1024ACTN    C310694   4.520   5.834   7.478
 1024ACTN    H410695   4.512   5.827   7.586
 1024ACTN    H510696   4.594   5.910   7.454
 1024ACTN    C210697   4.389   5.868   7.415
 1024ACTN    O110698   4.377   5.869   7.293
 1024ACTN    C110699   4.271   5.896   7.502
 1024ACTN    H110700   4.192   5.824   7.481
 1024ACTN    H210701   4.232   5.995   7.483
 1024ACTN    H310702   4.297   5.887   7.607
 1025ACTN    H610703   6.348   3.488   7.977
 1025ACTN    C310704   6.381   3.487   8.081
 1025ACTN    H410705   6.424   3.389   8.102
 1025ACTN    H510706   6.294   3.500   8.144
 1025ACTN    C210707   6.480   3.596   8.105
 1025ACTN    O110708   6.454   3.712   8.074
 1025ACTN    C110709   6.616   3.563   8.160
 1025ACTN    H110710   6.633   3.616   8.253
 1025ACTN    H210711   6.693   3.593   8.089
 1025ACTN    H310712   6.625   3.456   8.179
 1026ACTN    H610713   3.617   2.076   7.652
 1026ACTN    C310714   3.653   1.986   7.701
 1026ACTN    H410715   3.741   2.013   7.760
 1026ACTN    H510716   3.576   1.953   7.770
 1026ACTN    C210717   3.685   1.878   7.603
 1026ACTN    O110718   3.729   1.770   7.642
 1026ACTN    C110719   3.671   1.907   7.457
 1026ACTN    H110720   3.683   1.817   7.397
 1026ACTN    H210721   3.748   1.978   7.426
 1026ACTN    H310722   3.574   1.951   7.436
 1027ACTN    H610723   3.551   1.305   0.003
 1027ACTN    C310724   3.467   1.244   8.973
 1027ACTN    H410725   3.470   1.151   0.030
 1027ACTN    H510726   3.375   1.297   8.998
 1027ACTN    C210727   3.476   1.214   8.826
 1027ACTN    O110728   3.388   1.252   8.749
 1027ACTN    C110729   3.593   1.138   8.773
 1027ACTN    H110730   3.647   1.198   8.700
 1027ACTN    H210731   3.560   1.046   8.726
 1027ACTN    H310732   3.661   1.113   8.854
 1028ACTN    H610733   4.455   2.050   7.819
 1028ACTN    C310734   4.530   2.070   7.743
 1028ACTN    H410735   4.485   2.055   7.645
 1028ACTN    H510736   4.560   2.175   7.751
 1028ACTN    C210737   4.648   1.979   7.760
 1028ACTN    O110738   4.633   1.857   7.757
 1028ACTN    C110739   4.783   2.037   7.791
 1028ACTN    H110740   4.854   2.009   7.714
 1028ACTN    H210741   4.820   2.000   7.886
 1028ACTN    H310742   4.779   2.145   7.796
 1029ACTN    H610743   4.627   6.308   8.852
 1029ACTN    C310744   4.695   6.392   8.846
 1029ACTN    H410745   4.657   6.472   8.909
 1029ACTN    H510746   4.791   6.360   8.886
 1029ACTN    C210747   4.709   6.439   8.704
 1029ACTN    O110748   4.609   6.478   8.643
 1029ACTN    C110749   4.843   6.438   8.638
 1029ACTN    H110750   4.920   6.402   8.705
 1029ACTN    H210751   4.870   6.539   8.606
 1029ACTN    H310752   4.841   6.375   8.550
 1030ACTN    H610753   6.922   3.865   7.554
 1030ACTN    C310754   7.022   3.822   7.552
 1030ACTN    H410755   7.019   3.730   7.493
 1030ACTN    H510756   7.088   3.892   7.502
 1030ACTN    C210757   7.070   3.793   7.690
 1030ACTN    O110758   7.007   3.718   7.764
 1030ACTN    C110759   7.196   3.859   7.740
 1030ACTN    H110760   7.218   3.832   7.843
 1030ACTN    H210761   7.186   3.967   7.734
 1030ACTN    H310762   7.280   3.828   7.678
 1031ACTN    H610763   3.132   3.985   8.791
 1031ACTN    C310764   3.240   3.988   8.777
 1031ACTN    H410765   3.262   4.062   8.701
 1031ACTN    H510766   3.284   4.022   8.871
 1031ACTN    C210767   3.294   3.854   8.739
 1031ACTN    O110768   3.413   3.839   8.719
 1031ACTN    C110769   3.198   3.739   8.724
 1031ACTN    H110770   3.121   3.763   8.652
 1031ACTN    H210771   3.152   3.717   8.820
 1031ACTN    H310772   3.250   3.649   8.691
 1032ACTN    H610773   3.747   6.689   8.696
 1032ACTN    C310774   3.842   6.636   8.684
 1032ACTN    H410775   3.835   6.542   8.738
 1032ACTN    H510776   3.855   6.614   8.579
 1032ACTN    C210777   3.955   6.719   8.735
 1032ACTN    O110778   3.980   6.828   8.685
 1032ACTN    C110779   4.036   6.669   8.850
 1032ACTN    H110780   4.116   6.737   8.876
 1032ACTN    H210781   4.080   6.573   8.824
 1032ACTN    H310782   3.973   6.655   8.937
 1033ACTN    H610783   6.117   7.031   8.248
 1033ACTN    C310784   6.222   7.006   8.233
 1033ACTN    H410785   6.235   6.900   8.252
 1033ACTN    H510786   6.247   7.025   8.130
 1033ACTN    C210787   6.308   7.086   8.326
 1033ACTN    O110788   6.374   7.180   8.283
 1033ACTN    C110789   6.296   7.062   8.473
 1033ACTN    H110790   6.361   7.128   8.530
 1033ACTN    H210791   6.323   6.959   8.496
 1033ACTN    H310792   6.193   7.078   8.505
 1034ACTN    H610793   6.211   1.365   8.331
 1034ACTN    C310794   6.141   1.440   8.367
 1034ACTN    H410795   6.067   1.459   8.290
 1034ACTN    H510796   6.091   1.400   8.455
 1034ACTN    C210797   6.213   1.567   8.402
 1034ACTN    O110798   6.330   1.585   8.370
 1034ACTN    C110799   6.134   1.680   8.460
 1034ACTN    H110800   6.140   1.767   8.396
 1034ACTN    H210801   6.173   1.706   8.558
 1034ACTN    H310802   6.030   1.652   8.471
 1035ACTN    H610803   2.396   0.227   7.803
 1035ACTN    C310804   2.331   0.265   7.724
 1035ACTN    H410805   2.315   0.185   7.652
 1035ACTN    H510806   2.235   0.291   7.767
 1035ACTN    C210807   2.393   0.385   7.659
 1035ACTN    O110808   2.414   0.387   7.539
 1035ACTN    C110809   2.429   0.503   7.743
 1035ACTN    H110810   2.409   0.484   7.848
 1035ACTN    H210811   2.371   0.589   7.712
 1035ACTN    H310812   2.535   0.527   7.732
 1036ACTN    H610813   1.281   0.149   7.771
 1036ACTN    C310814   1.263   0.255   7.790
 1036ACTN    H410815   1.157   0.268   7.811
 1036ACTN    H510816   1.320   0.283   7.879
 1036ACTN    C210817   1.304   0.339   7.673
 1036ACTN    O110818   1.360   0.290   7.576
 1036ACTN    C110819   1.276   0.486   7.680
 1036ACTN    H110820   1.310   0.537   7.590
 1036ACTN    H210821   1.326   0.529   7.765
 1036ACTN    H310822   1.169   0.503   7.690
 1037ACTN    H610823   0.637   5.715   8.125
 1037ACTN    C310824   0.694   5.788   8.068
 1037ACTN    H410825   0.762   5.838   8.137
 1037ACTN    H510826   0.754   5.735   7.994
 1037ACTN    C210827   0.604   5.886   8.001
 1037ACTN    O110828   0.514   5.846   7.927
 1037ACTN    C110829   0.617   6.032   8.033
 1037ACTN    H110830   0.551   6.093   7.972
 1037ACTN    H210831   0.719   6.065   8.014
 1037ACTN    H310832   0.594   6.050   8.138
 1038ACTN    H610833   6.190   1.767   7.682
 1038ACTN    C310834   6.221   1.701   7.601
 1038ACTN    H410835   6.190   1.745   7.507
 1038ACTN    H510836   6.330   1.694   7.603
 1038ACTN    C210837   6.161   1.565   7.617
 1038ACTN    O110838   6.187   1.476   7.536
 1038ACTN    C110839   6.067   1.540   7.731
 1038ACTN    H110840   5.979   1.604   7.722
 1038ACTN    H210841   6.116   1.561   7.825
 1038ACTN    H310842   6.034   1.436   7.733
 1039ACTN    H610843   5.590   6.196   7.501
 1039ACTN    C310844   5.489   6.237   7.499
 1039ACTN    H410845   5.494   6.337   7.457
 1039ACTN    H510846   5.429   6.175   7.433
 1039ACTN    C210847   5.429   6.241   7.636
 1039ACTN    O110848   5.493   6.206   7.734
 1039ACTN    C110849   5.290   6.296   7.651
 1039ACTN    H110850   5.291   6.383   7.715
 1039ACTN    H210851   5.225   6.221   7.695
 1039ACTN    H310852   5.249   6.324   7.555
 1040ACTN    H610853   5.279   5.297   7.673
 1040ACTN    C310854   5.361   5.368   7.682
 1040ACTN    H410855   5.454   5.316   7.661
 1040ACTN    H510856   5.347   5.446   7.608
 1040ACTN    C210857   5.364   5.428   7.820
 1040ACTN    O110858   5.265   5.484   7.866
 1040ACTN    C110859   5.489   5.415   7.901
 1040ACTN    H110860   5.480   5.466   7.996
 1040ACTN    H210861   5.573   5.458   7.847
 1040ACTN    H310862   5.511   5.310   7.921
 1041ACTN    H610863   7.187   5.504   7.715
 1041ACTN    C310864   7.150   5.597   7.671
 1041ACTN    H410865   7.172   5.595   7.564
 1041ACTN    H510866   7.042   5.600   7.684
 1041ACTN    C210867   7.215   5.714   7.736
 1041ACTN    O110868   7.201   5.733   7.857
 1041ACTN    C110869   7.298   5.807   7.653
 1041ACTN    H110870   7.239   5.847   7.570
 1041ACTN    H210871   7.383   5.755   7.612
 1041ACTN    H310872   7.334   5.892   7.712
 1042ACTN    H610873   1.540   5.491   8.314
 1042ACTN    C310874   1.491   5.580   8.354
 1042ACTN    H410875   1.412   5.610   8.286
 1042ACTN    H510876   1.445   5.553   8.449
 1042ACTN    C210877   1.591   5.690   8.375
 1042ACTN    O110878   1.578   5.798   8.319
 1042ACTN    C110879   1.709   5.665   8.463
 1042ACTN    H110880   1.709   5.563   8.501
 1042ACTN    H210881   1.709   5.733   8.547
 1042ACTN    H310882   1.802   5.680   8.408
 1043ACTN    H610883   3.029   0.681   7.758
 1043ACTN    C310884   3.044   0.785   7.787
 1043ACTN    H410885   3.132   0.822   7.735
 1043ACTN    H510886   2.958   0.842   7.753
 1043ACTN    C210887   3.061   0.799   7.935
 1043ACTN    O110888   3.075   0.700   8.006
 1043ACTN    C110889   3.070   0.935   7.995
 1043ACTN    H110890   2.990   0.950   8.068
 1043ACTN    H210891   3.060   1.012   7.918
 1043ACTN    H310892   3.165   0.949   8.045
 1044ACTN    H610893   3.349   7.091   7.596
 1044ACTN    C310894   3.289   7.014   7.645
 1044ACTN    H410895   3.339   6.986   7.737
 1044ACTN    H510896   3.192   7.056   7.670
 1044ACTN    C210897   3.273   6.895   7.555
 1044ACTN    O110898   3.218   6.908   7.445
 1044ACTN    C110899   3.326   6.763   7.600
 1044ACTN    H110900   3.434   6.770   7.616
 1044ACTN    H210901   3.308   6.685   7.526
 1044ACTN    H310902   3.280   6.733   7.693
 1045ACTN    H610903   7.126   6.441   8.054
 1045ACTN    C310904   7.170   6.537   8.029
 1045ACTN    H410905   7.140   6.563   7.928
 1045ACTN    H510906   7.129   6.612   8.097
 1045ACTN    C210907   7.319   6.531   8.042
 1045ACTN    O110908   7.391   6.554   7.946
 1045ACTN    C110909   7.379   6.502   8.177
 1045ACTN    H110910   7.301   6.489   8.252
 1045ACTN    H210911   7.442   6.585   8.207
 1045ACTN    H310912   7.439   6.412   8.173
 1046ACTN    H610913   4.368   3.837   8.465
 1046ACTN    C310914   4.282   3.891   8.427
 1046ACTN    H410915   4.286   3.892   8.318
 1046ACTN    H510916   4.192   3.837   8.456
 1046ACTN    C210917   4.280   4.031   8.479
 1046ACTN    O110918   4.372   4.108   8.453
 1046ACTN    C110919   4.166   4.079   8.564
 1046ACTN    H110920   4.202   4.106   8.664
 1046ACTN    H210921   4.090   4.002   8.575
 1046ACTN    H310922   4.120   4.166   8.520
 1047ACTN    H610923   5.264   3.211   8.632
 1047ACTN    C310924   5.166   3.179   8.596
 1047ACTN    H410925   5.163   3.070   8.599
 1047ACTN    H510926   5.091   3.217   8.666
 1047ACTN    C210927   5.143   3.228   8.457
 1047ACTN    O110928   5.052   3.307   8.432
 1047ACTN    C110929   5.238   3.185   8.350
 1047ACTN    H110930   5.335   3.230   8.366
 1047ACTN    H210931   5.202   3.214   8.251
 1047ACTN    H310932   5.249   3.077   8.351
 1048ACTN    H610933   1.100   6.773   8.613
 1048ACTN    C310934   1.190   6.831   8.628
 1048ACTN    H410935   1.212   6.886   8.536
 1048ACTN    H510936   1.173   6.903   8.707
 1048ACTN    C210937   1.306   6.742   8.661
 1048ACTN    O110938   1.369   6.758   8.765
 1048ACTN    C110939   1.344   6.635   8.563
 1048ACTN    H110940   1.261   6.568   8.545
 1048ACTN    H210941   1.428   6.576   8.600
 1048ACTN    H310942   1.374   6.679   8.469
 1049ACTN    H610943   0.951   6.801   7.778
 1049ACTN    C310944   0.914   6.725   7.710
 1049ACTN    H410945   0.998   6.683   7.656
 1049ACTN    H510946   0.868   6.646   7.768
 1049ACTN    C210947   0.813   6.785   7.616
 1049ACTN    O110948   0.828   6.776   7.494
 1049ACTN    C110949   0.692   6.853   7.672
 1049ACTN    H110950   0.602   6.803   7.638
 1049ACTN    H210951   0.689   6.956   7.638
 1049ACTN    H310952   0.694   6.852   7.781
 1050ACTN    H610953   0.988   0.628   8.405
 1050ACTN    C310954   1.009   0.525   8.375
 1050ACTN    H410955   1.009   0.463   8.464
 1050ACTN    H510956   0.928   0.492   8.310
 1050ACTN    C210957   1.141   0.518   8.305
 1050ACTN    O110958   1.243   0.553   8.364
 1050ACTN    C110959   1.147   0.468   8.164
 1050ACTN    H110960   1.249   0.464   8.128
 1050ACTN    H210961   1.090   0.534   8.099
 1050ACTN    H310962   1.104   0.368   8.157
 1051ACTN    H610963   6.693   1.305   8.425
 1051ACTN    C310964   6.617   1.232   8.451
 1051ACTN    H410965   6.665   1.147   8.499
 1051ACTN    H510966   6.550   1.278   8.523
 1051ACTN    C210967   6.543   1.189   8.329
 1051ACTN    O110968   6.421   1.199   8.322
 1051ACTN    C110969   6.619   1.124   8.217
 1051ACTN    H110970   6.725   1.116   8.241
 1051ACTN    H210971   6.580   1.024   8.198
 1051ACTN    H310972   6.608   1.183   8.126
 1052ACTN    H610973   1.681   5.128   7.549
 1052ACTN    C310974   1.646   5.086   7.455
 1052ACTN    H410975   1.705   4.997   7.434
 1052ACTN    H510976   1.542   5.056   7.466
 1052ACTN    C210977   1.660   5.188   7.346
 1052ACTN    O110978   1.733   5.169   7.249
 1052ACTN    C110979   1.584   5.317   7.356
 1052ACTN    H110980   1.526   5.320   7.448
 1052ACTN    H210981   1.516   5.328   7.272
 1052ACTN    H310982   1.653   5.401   7.357
 1053ACTN    H610983   6.997   1.593   7.907
 1053ACTN    C310984   6.987   1.700   7.920
 1053ACTN    H410985   6.979   1.723   8.026
 1053ACTN    H510986   7.075   1.749   7.880
 1053ACTN    C210987   6.865   1.748   7.847
 1053ACTN    O110988   6.856   1.731   7.726
 1053ACTN    C110989   6.756   1.815   7.925
 1053ACTN    H110990   6.674   1.846   7.860
 1053ACTN    H210991   6.795   1.903   7.976
 1053ACTN    H310992   6.717   1.746   8.000
 1054ACTN    H610993   7.217   5.219   8.485
 1054ACTN    C310994   7.186   5.140   8.417
 1054ACTN    H410995   7.102   5.087   8.461
 1054ACTN    H510996   7.152   5.186   8.324
 1054ACTN    C210997   7.299   5.047   8.389
 1054ACTN    O110998   7.405   5.090   8.345
 1054ACTN    C110999   7.281   4.901   8.418
 1054ACTN    H111000   7.260   4.885   8.523
 1054ACTN    H211001   7.370   4.844   8.392
 1054ACTN    H311002   7.198   4.861   8.360
 1055ACTN    H611003   7.151   0.226   8.514
 1055ACTN    C311004   7.098   0.316   8.484
 1055ACTN    H411005   7.155   0.402   8.518
 1055ACTN    H511006   7.094   0.319   8.375
 1055ACTN    C211007   6.960   0.319   8.542
 1055ACTN    O111008   6.882   0.409   8.510
 1055ACTN    C111009   6.916   0.207   8.630
 1055ACTN    H111010   6.920   0.113   8.576
 1055ACTN    H211011   6.814   0.221   8.665
 1055ACTN    H311012   6.981   0.201   8.718
 1056ACTN    H611013   2.964   0.431   8.145
 1056ACTN    C311014   2.864   0.393   8.168
 1056ACTN    H411015   2.874   0.315   8.243
 1056ACTN    H511016   2.806   0.474   8.210
 1056ACTN    C211017   2.798   0.340   8.044
 1056ACTN    O111018   2.768   0.222   8.034
 1056ACTN    C111019   2.781   0.432   7.927
 1056ACTN    H111020   2.829   0.390   7.839
 1056ACTN    H211021   2.826   0.529   7.947
 1056ACTN    H311022   2.676   0.446   7.906
 1057ACTN    H611023   1.132   5.366   8.446
 1057ACTN    C311024   1.125   5.266   8.487
 1057ACTN    H411025   1.216   5.244   8.542
 1057ACTN    H511026   1.117   5.196   8.405
 1057ACTN    C211027   1.005   5.252   8.577
 1057ACTN    O111028   0.982   5.146   8.634
 1057ACTN    C111029   0.919   5.373   8.598
 1057ACTN    H111030   0.886   5.413   8.502
 1057ACTN    H211031   0.973   5.450   8.651
 1057ACTN    H311032   0.830   5.347   8.655
 1058ACTN    H611033   4.418   1.300   7.502
 1058ACTN    C311034   4.370   1.378   7.561
 1058ACTN    H411035   4.420   1.385   7.657
 1058ACTN    H511036   4.382   1.473   7.509
 1058ACTN    C211037   4.225   1.345   7.581
 1058ACTN    O111038   4.137   1.421   7.541
 1058ACTN    C111039   4.188   1.217   7.650
 1058ACTN    H111040   4.129   1.238   7.739
 1058ACTN    H211041   4.278   1.163   7.681
 1058ACTN    H311042   4.131   1.153   7.583
 1059ACTN    H611043   4.662   1.855   8.430
 1059ACTN    C311044   4.723   1.865   8.520
 1059ACTN    H411045   4.820   1.821   8.500
 1059ACTN    H511046   4.736   1.971   8.540
 1059ACTN    C211047   4.659   1.798   8.637
 1059ACTN    O111048   4.549   1.743   8.627
 1059ACTN    C111049   4.732   1.799   8.768
 1059ACTN    H111050   4.829   1.752   8.757
 1059ACTN    H211051   4.676   1.746   8.845
 1059ACTN    H311052   4.747   1.901   8.801
 1060ACTN    H611053   0.322   5.134   8.560
 1060ACTN    C311054   0.354   5.211   8.490
 1060ACTN    H411055   0.460   5.196   8.470
 1060ACTN    H511056   0.299   5.198   8.397
 1060ACTN    C211057   0.332   5.347   8.547
 1060ACTN    O111058   0.385   5.378   8.654
 1060ACTN    C111059   0.241   5.443   8.476
 1060ACTN    H111060   0.142   5.400   8.468
 1060ACTN    H211061   0.279   5.462   8.376
 1060ACTN    H311062   0.235   5.537   8.529
 1061ACTN    H611063   5.628   0.084   7.704
 1061ACTN    C311064   5.647   0.183   7.747
 1061ACTN    H411065   5.554   0.240   7.741
 1061ACTN    H511066   5.675   0.172   7.851
 1061ACTN    C211067   5.755   0.253   7.671
 1061ACTN    O111068   5.791   0.365   7.705
 1061ACTN    C111069   5.824   0.181   7.559
 1061ACTN    H111070   5.900   0.243   7.513
 1061ACTN    H211071   5.752   0.153   7.483
 1061ACTN    H311072   5.872   0.090   7.596
 1062ACTN    H611073   4.321   7.068   7.670
 1062ACTN    C311074   4.273   7.146   7.728
 1062ACTN    H411075   4.310   7.142   7.830
 1062ACTN    H511076   4.301   7.242   7.686
 1062ACTN    C211077   4.124   7.127   7.726
 1062ACTN    O111078   4.051   7.216   7.684
 1062ACTN    C111079   4.066   7.003   7.784
 1062ACTN    H111080   4.011   6.948   7.707
 1062ACTN    H211081   3.997   7.027   7.864
 1062ACTN    H311082   4.143   6.938   7.824
 1063ACTN    H611083   4.814   3.535   8.034
 1063ACTN    C311084   4.720   3.483   8.026
 1063ACTN    H411085   4.639   3.554   8.044
 1063ACTN    H511086   4.710   3.446   7.924
 1063ACTN    C211087   4.715   3.369   8.123
 1063ACTN    O111088   4.794   3.276   8.113
 1063ACTN    C111089   4.607   3.367   8.227
 1063ACTN    H111090   4.509   3.358   8.179
 1063ACTN    H211091   4.608   3.459   8.285
 1063ACTN    H311092   4.619   3.283   8.295
 1064ACTN    H611093   1.234   1.479   8.546
 1064ACTN    C311094   1.190   1.386   8.581
 1064ACTN    H411095   1.142   1.404   8.677
 1064ACTN    H511096   1.113   1.357   8.510
 1064ACTN    C211097   1.293   1.278   8.593
 1064ACTN    O111098   1.412   1.303   8.577
 1064ACTN    C111099   1.248   1.143   8.639
 1064ACTN    H111100   1.204   1.149   8.738
 1064ACTN    H211101   1.330   1.072   8.641
 1064ACTN    H311102   1.172   1.104   8.571
 1065ACTN    H611103   5.320   3.408   7.585
 1065ACTN    C311104   5.240   3.453   7.643
 1065ACTN    H411105   5.274   3.551   7.677
 1065ACTN    H511106   5.154   3.467   7.578
 1065ACTN    C211107   5.204   3.366   7.759
 1065ACTN    O111108   5.126   3.407   7.844
 1065ACTN    C111109   5.273   3.235   7.776
 1065ACTN    H111110   5.261   3.174   7.687
 1065ACTN    H211111   5.234   3.179   7.861
 1065ACTN    H311112   5.380   3.250   7.792
 1066ACTN    H611113   4.640   4.533   7.852
 1066ACTN    C311114   4.607   4.607   7.781
 1066ACTN    H411115   4.634   4.706   7.819
 1066ACTN    H511116   4.660   4.591   7.688
 1066ACTN    C211117   4.459   4.596   7.759
 1066ACTN    O111118   4.384   4.690   7.783
 1066ACTN    C111119   4.404   4.467   7.708
 1066ACTN    H111120   4.484   4.395   7.689
 1066ACTN    H211121   4.350   4.483   7.615
 1066ACTN    H311122   4.335   4.423   7.780
 1067ACTN    H611123   5.326   5.865   8.361
 1067ACTN    C311124   5.368   5.773   8.401
 1067ACTN    H411125   5.298   5.692   8.383
 1067ACTN    H511126   5.459   5.751   8.345
 1067ACTN    C211127   5.398   5.787   8.547
 1067ACTN    O111128   5.463   5.884   8.586
 1067ACTN    C111129   5.345   5.687   8.644
 1067ACTN    H111130   5.280   5.735   8.717
 1067ACTN    H211131   5.427   5.639   8.698
 1067ACTN    H311132   5.288   5.609   8.594
 1068ACTN    H611133   4.116   1.865   7.729
 1068ACTN    C311134   4.061   1.956   7.752
 1068ACTN    H411135   4.117   2.041   7.713
 1068ACTN    H511136   3.965   1.952   7.702
 1068ACTN    C211137   4.046   1.969   7.901
 1068ACTN    O111138   3.934   1.974   7.953
 1068ACTN    C111139   4.168   1.974   7.986
 1068ACTN    H111140   4.176   2.070   8.036
 1068ACTN    H211141   4.258   1.958   7.927
 1068ACTN    H311142   4.163   1.896   8.062
 1069ACTN    H611143   7.475   4.128   8.503
 1069ACTN    C311144   7.439   4.026   8.493
 1069ACTN    H411145   7.495   3.965   8.563
 1069ACTN    H511146   7.461   3.993   8.392
 1069ACTN    C211147   7.292   4.018   8.521
 1069ACTN    O111148   7.222   4.119   8.524
 1069ACTN    C111149   7.230   3.882   8.527
 1069ACTN    H111150   7.242   3.830   8.433
 1069ACTN    H211151   7.123   3.888   8.549
 1069ACTN    H311152   7.277   3.822   8.606
 1070ACTN    H611153   4.470   5.726   8.693
 1070ACTN    C311154   4.429   5.642   8.638
 1070ACTN    H411155   4.511   5.578   8.605
 1070ACTN    H511156   4.367   5.584   8.707
 1070ACTN    C211157   4.347   5.688   8.522
 1070ACTN    O111158   4.332   5.808   8.499
 1070ACTN    C111159   4.285   5.586   8.431
 1070ACTN    H111160   4.318   5.602   8.329
 1070ACTN    H211161   4.177   5.593   8.435
 1070ACTN    H311162   4.315   5.485   8.461
 1071ACTN    H611163   4.199   6.119   0.063
 1071ACTN    C311164   4.268   6.137   8.981
 1071ACTN    H411165   4.308   6.237   8.993
 1071ACTN    H511166   4.350   6.066   8.987
 1071ACTN    C211167   4.199   6.126   8.849
 1071ACTN    O111168   4.085   6.081   8.840
 1071ACTN    C111169   4.276   6.160   8.725
 1071ACTN    H111170   4.282   6.074   8.660
 1071ACTN    H211171   4.377   6.192   8.750
 1071ACTN    H311172   4.227   6.241   8.672
 1072ACTN    H611173   6.116   3.169   7.927
 1072ACTN    C311174   6.074   3.164   8.027
 1072ACTN    H411175   6.155   3.151   8.098
 1072ACTN    H511176   6.025   3.259   8.049
 1072ACTN    C211177   5.976   3.051   8.041
 1072ACTN    O111178   5.947   2.981   7.944
 1072ACTN    C111179   5.910   3.030   8.173
 1072ACTN    H111180   5.985   3.013   8.250
 1072ACTN    H211181   5.843   2.945   8.171
 1072ACTN    H311182   5.853   3.119   8.201
 1073ACTN    H611183   5.516   2.304   8.489
 1073ACTN    C311184   5.437   2.251   8.437
 1073ACTN    H411185   5.426   2.295   8.338
 1073ACTN    H511186   5.468   2.147   8.424
 1073ACTN    C211187   5.309   2.261   8.513
 1073ACTN    O111188   5.248   2.160   8.547
 1073ACTN    C111189   5.250   2.396   8.540
 1073ACTN    H111190   5.311   2.474   8.495
 1073ACTN    H211191   5.246   2.414   8.647
 1073ACTN    H311192   5.150   2.403   8.500
 1074ACTN    H611193   4.120   5.321   7.387
 1074ACTN    C311194   4.066   5.416   7.392
 1074ACTN    H411195   4.104   5.472   7.477
 1074ACTN    H511196   4.088   5.471   7.301
 1074ACTN    C211197   3.919   5.391   7.404
 1074ACTN    O111198   3.858   5.337   7.312
 1074ACTN    C111199   3.846   5.439   7.526
 1074ACTN    H111200   3.911   5.494   7.593
 1074ACTN    H211201   3.804   5.354   7.580
 1074ACTN    H311202   3.763   5.504   7.497
 1075ACTN    H611203   4.425   4.856   7.328
 1075ACTN    C311204   4.329   4.855   7.378
 1075ACTN    H411205   4.261   4.790   7.322
 1075ACTN    H511206   4.341   4.812   7.477
 1075ACTN    C211207   4.273   4.993   7.385
 1075ACTN    O111208   4.244   5.045   7.492
 1075ACTN    C111209   4.251   5.070   7.259
 1075ACTN    H111210   4.279   5.009   7.173
 1075ACTN    H211211   4.311   5.160   7.258
 1075ACTN    H311212   4.146   5.097   7.248
 1076ACTN    H611213   6.785   3.770   8.856
 1076ACTN    C311214   6.883   3.730   8.831
 1076ACTN    H411215   6.959   3.799   8.866
 1076ACTN    H511216   6.890   3.723   8.722
 1076ACTN    C211217   6.904   3.594   8.891
 1076ACTN    O111218   6.817   3.543   8.962
 1076ACTN    C111219   7.034   3.524   8.867
 1076ACTN    H111220   7.101   3.585   8.807
 1076ACTN    H211221   7.016   3.430   8.814
 1076ACTN    H311222   7.083   3.501   8.961
 1077ACTN    H611223   1.017   6.774   8.036
 1077ACTN    C311224   0.957   6.692   8.074
 1077ACTN    H411225   0.852   6.722   8.070
 1077ACTN    H511226   0.972   6.606   8.009
 1077ACTN    C211227   0.996   6.658   8.214
 1077ACTN    O111228   0.939   6.568   8.275
 1077ACTN    C111229   1.105   6.738   8.280
 1077ACTN    H111230   1.078   6.844   8.282
 1077ACTN    H211231   1.197   6.728   8.224
 1077ACTN    H311232   1.122   6.705   8.381
 1078ACTN    H611233   6.015   7.231   8.599
 1078ACTN    C311234   6.005   7.194   8.700
 1078ACTN    H411235   5.932   7.256   8.752
 1078ACTN    H511236   5.966   7.092   8.696
 1078ACTN    C211237   6.136   7.199   8.771
 1078ACTN    O111238   6.192   7.307   8.787
 1078ACTN    C111239   6.200   7.073   8.820
 1078ACTN    H111240   6.140   6.986   8.796
 1078ACTN    H211241   6.213   7.077   8.928
 1078ACTN    H311242   6.298   7.060   8.776
 1079ACTN    H611243   5.898   6.746   7.999
 1079ACTN    C311244   5.939   6.655   7.954
 1079ACTN    H411245   5.862   6.578   7.956
 1079ACTN    H511246   5.963   6.675   7.850
 1079ACTN    C211247   6.062   6.610   8.028
 1079ACTN    O111248   6.153   6.690   8.049
 1079ACTN    C111249   6.066   6.471   8.083
 1079ACTN    H111250   5.982   6.454   8.150
 1079ACTN    H211251   6.158   6.453   8.139
 1079ACTN    H311252   6.061   6.399   8.002
 1080ACTN    H611253   0.749   1.825   7.338
 1080ACTN    C311254   0.676   1.781   7.405
 1080ACTN    H411255   0.610   1.718   7.346
 1080ACTN    H511256   0.728   1.718   7.476
 1080ACTN    C211257   0.600   1.888   7.477
 1080ACTN    O111258   0.478   1.900   7.463
 1080ACTN    C111259   0.674   1.984   7.563
 1080ACTN    H111260   0.652   2.086   7.534
 1080ACTN    H211261   0.782   1.970   7.555
 1080ACTN    H311262   0.647   1.971   7.668
 1081ACTN    H611263   6.694   6.051   8.930
 1081ACTN    C311264   6.663   6.080   8.829
 1081ACTN    H411265   6.565   6.127   8.836
 1081ACTN    H511266   6.734   6.154   8.792
 1081ACTN    C211267   6.658   5.962   8.737
 1081ACTN    O111268   6.690   5.850   8.776
 1081ACTN    C111269   6.615   5.983   8.596
 1081ACTN    H111270   6.695   5.956   8.527
 1081ACTN    H211271   6.588   6.087   8.578
 1081ACTN    H311272   6.528   5.921   8.573
 1082ACTN    H611273   4.575   6.191   8.512
 1082ACTN    C311274   4.571   6.105   8.445
 1082ACTN    H411275   4.566   6.014   8.504
 1082ACTN    H511276   4.480   6.112   8.386
 1082ACTN    C211277   4.690   6.102   8.354
 1082ACTN    O111278   4.774   6.191   8.357
 1082ACTN    C111279   4.701   5.991   8.254
 1082ACTN    H111280   4.619   5.996   8.182
 1082ACTN    H211281   4.696   5.894   8.303
 1082ACTN    H311282   4.794   5.996   8.199
 1083ACTN    H611283   5.472   5.803   7.422
 1083ACTN    C311284   5.571   5.821   7.462
 1083ACTN    H411285   5.644   5.772   7.399
 1083ACTN    H511286   5.590   5.928   7.460
 1083ACTN    C211287   5.580   5.768   7.602
 1083ACTN    O111288   5.565   5.649   7.624
 1083ACTN    C111289   5.614   5.863   7.713
 1083ACTN    H111290   5.541   5.943   7.718
 1083ACTN    H211291   5.713   5.906   7.697
 1083ACTN    H311292   5.615   5.812   7.809
 1084ACTN    H611293   6.959   5.797   8.277
 1084ACTN    C311294   7.048   5.814   8.338
 1084ACTN    H411295   7.022   5.793   8.442
 1084ACTN    H511296   7.126   5.747   8.306
 1084ACTN    C211297   7.092   5.957   8.324
 1084ACTN    O111298   7.017   6.048   8.358
 1084ACTN    C111299   7.230   5.985   8.274
 1084ACTN    H111300   7.242   5.944   8.174
 1084ACTN    H211301   7.304   5.938   8.339
 1084ACTN    H311302   7.250   6.092   8.270
 1085ACTN    H611303   3.296   0.996   7.299
 1085ACTN    C311304   3.200   1.047   7.291
 1085ACTN    H411305   3.219   1.150   7.260
 1085ACTN    H511306   3.142   0.998   7.212
 1085ACTN    C211307   3.128   1.045   7.422
 1085ACTN    O111308   3.022   0.984   7.434
 1085ACTN    C111309   3.191   1.111   7.541
 1085ACTN    H111310   3.126   1.190   7.579
 1085ACTN    H211311   3.287   1.155   7.515
 1085ACTN    H311312   3.207   1.038   7.621
 1086ACTN    H611313   5.048   1.975   8.356
 1086ACTN    C311314   4.990   1.994   8.266
 1086ACTN    H411315   4.947   1.900   8.232
 1086ACTN    H511316   4.908   2.061   8.292
 1086ACTN    C211317   5.075   2.054   8.159
 1086ACTN    O111318   5.025   2.088   8.053
 1086ACTN    C111319   5.220   2.078   8.187
 1086ACTN    H111320   5.269   1.985   8.213
 1086ACTN    H211321   5.231   2.148   8.269
 1086ACTN    H311322   5.271   2.120   8.100
 1087ACTN    H611323   6.711   6.033   8.164
 1087ACTN    C311324   6.671   6.133   8.175
 1087ACTN    H411325   6.575   6.126   8.226
 1087ACTN    H511326   6.739   6.190   8.239
 1087ACTN    C211327   6.655   6.200   8.042
 1087ACTN    O111328   6.618   6.317   8.035
 1087ACTN    C111329   6.693   6.124   7.919
 1087ACTN    H111330   6.799   6.097   7.923
 1087ACTN    H211331   6.676   6.182   7.829
 1087ACTN    H311332   6.636   6.032   7.912
 1088ACTN    H611333   4.540   4.486   8.128
 1088ACTN    C311334   4.569   4.559   8.203
 1088ACTN    H411335   4.618   4.507   8.285
 1088ACTN    H511336   4.641   4.628   8.159
 1088ACTN    C211337   4.448   4.632   8.253
 1088ACTN    O111338   4.358   4.570   8.310
 1088ACTN    C111339   4.435   4.780   8.232
 1088ACTN    H111340   4.348   4.802   8.170
 1088ACTN    H211341   4.523   4.820   8.183
 1088ACTN    H311342   4.423   4.830   8.327
 1089ACTN    H611343   3.848   2.273   7.580
 1089ACTN    C311344   3.811   2.376   7.573
 1089ACTN    H411345   3.702   2.373   7.569
 1089ACTN    H511346   3.839   2.428   7.664
 1089ACTN    C211347   3.866   2.447   7.454
 1089ACTN    O111348   3.943   2.389   7.377
 1089ACTN    C111349   3.827   2.589   7.427
 1089ACTN    H111350   3.914   2.653   7.428
 1089ACTN    H211351   3.758   2.624   7.504
 1089ACTN    H311352   3.777   2.598   7.331
 1090ACTN    H611353   8.944   2.036   8.208
 1090ACTN    C311354   0.024   1.988   8.263
 1090ACTN    H411355   0.116   2.042   8.244
 1090ACTN    H511356   0.001   1.996   8.369
 1090ACTN    C211357   0.035   1.844   8.224
 1090ACTN    O111358   0.138   1.800   8.175
 1090ACTN    C111359   8.916   1.754   8.238
 1090ACTN    H111360   8.936   1.675   8.310
 1090ACTN    H211361   8.892   1.707   8.143
 1090ACTN    H311362   8.829   1.809   8.271
 1091ACTN    H611363   6.048   6.019   7.998
 1091ACTN    C311364   5.951   5.994   8.039
 1091ACTN    H411365   5.879   5.989   7.958
 1091ACTN    H511366   5.957   5.896   8.086
 1091ACTN    C211367   5.911   6.097   8.141
 1091ACTN    O111368   5.810   6.166   8.124
 1091ACTN    C111369   5.996   6.117   8.262
 1091ACTN    H111370   5.939   6.099   8.353
 1091ACTN    H211371   6.036   6.218   8.265
 1091ACTN    H311372   6.081   6.048   8.261
 1092ACTN    H611373   1.997   6.210   8.100
 1092ACTN    C311374   1.985   6.318   8.100
 1092ACTN    H411375   1.881   6.341   8.119
 1092ACTN    H511376   2.045   6.358   8.182
 1092ACTN    C211377   2.030   6.375   7.970
 1092ACTN    O111378   1.977   6.338   7.865
 1092ACTN    C111379   2.141   6.476   7.969
 1092ACTN    H111380   2.232   6.432   8.009
 1092ACTN    H211381   2.114   6.561   8.031
 1092ACTN    H311382   2.161   6.512   7.869
 1093ACTN    H611383   6.979   0.901   7.403
 1093ACTN    C311384   7.013   0.939   7.499
 1093ACTN    H411385   7.089   0.872   7.538
 1093ACTN    H511386   7.059   1.037   7.482
 1093ACTN    C211387   6.898   0.952   7.593
 1093ACTN    O111388   6.901   0.898   7.703
 1093ACTN    C111389   6.783   1.040   7.553
 1093ACTN    H111390   6.704   1.039   7.627
 1093ACTN    H211391   6.742   1.007   7.458
 1093ACTN    H311392   6.817   1.143   7.542
 1094ACTN    H611393   0.636   0.876   7.898
 1094ACTN    C311394   0.640   0.778   7.851
 1094ACTN    H411395   0.671   0.706   7.926
 1094ACTN    H511396   0.540   0.753   7.817
 1094ACTN    C211397   0.736   0.777   7.736
 1094ACTN    O111398   0.791   0.880   7.699
 1094ACTN    C111399   0.757   0.649   7.661
 1094ACTN    H111400   0.860   0.618   7.669
 1094ACTN    H211401   0.734   0.663   7.555
 1094ACTN    H311402   0.693   0.570   7.700
 1095ACTN    H611403   0.511   6.447   8.341
 1095ACTN    C311404   0.519   6.388   8.432
 1095ACTN    H411405   0.517   6.455   8.517
 1095ACTN    H511406   0.434   6.321   8.439
 1095ACTN    C211407   0.646   6.308   8.431
 1095ACTN    O111408   0.669   6.230   8.339
 1095ACTN    C111409   0.746   6.330   8.540
 1095ACTN    H111410   0.831   6.264   8.529
 1095ACTN    H211411   0.700   6.312   8.637
 1095ACTN    H311412   0.782   6.433   8.537
 1096ACTN    H611413   1.639   5.744   8.805
 1096ACTN    C311414   1.533   5.737   8.781
 1096ACTN    H411415   1.518   5.647   8.722
 1096ACTN    H511416   1.479   5.727   8.875
 1096ACTN    C211417   1.486   5.858   8.706
 1096ACTN    O111418   1.562   5.949   8.676
 1096ACTN    C111419   1.343   5.863   8.662
 1096ACTN    H111420   1.337   5.870   8.554
 1096ACTN    H211421   1.294   5.950   8.704
 1096ACTN    H311422   1.289   5.775   8.694
 1097ACTN    H611423   0.392   7.032   7.314
 1097ACTN    C311424   0.325   7.086   7.381
 1097ACTN    H411425   0.352   7.062   7.483
 1097ACTN    H511426   0.342   7.193   7.366
 1097ACTN    C211427   0.182   7.051   7.353
 1097ACTN    O111428   0.137   7.068   7.240
 1097ACTN    C111429   0.095   6.996   7.462
 1097ACTN    H111430   0.002   7.051   7.467
 1097ACTN    H211431   0.145   7.002   7.558
 1097ACTN    H311432   0.073   6.891   7.442
 1098ACTN    H611433   5.087   5.768   7.546
 1098ACTN    C311434   5.100   5.785   7.652
 1098ACTN    H411435   5.004   5.815   7.694
 1098ACTN    H511436   5.129   5.691   7.699
 1098ACTN    C211437   5.203   5.891   7.678
 1098ACTN    O111438   5.258   5.949   7.586
 1098ACTN    C111439   5.237   5.925   7.820
 1098ACTN    H111440   5.176   5.867   7.889
 1098ACTN    H211441   5.219   6.030   7.839
 1098ACTN    H311442   5.341   5.903   7.841
 1099ACTN    H611443   4.592   2.887   8.602
 1099ACTN    C311444   4.494   2.912   8.560
 1099ACTN    H411445   4.497   3.015   8.527
 1099ACTN    H511446   4.477   2.848   8.474
 1099ACTN    C211447   4.385   2.893   8.661
 1099ACTN    O111448   4.412   2.861   8.776
 1099ACTN    C111449   4.244   2.920   8.621
 1099ACTN    H111450   4.198   2.990   8.691
 1099ACTN    H211451   4.186   2.828   8.621
 1099ACTN    H311452   4.240   2.964   8.522
 1100ACTN    H611453   6.282   6.690   8.465
 1100ACTN    C311454   6.242   6.612   8.401
 1100ACTN    H411455   6.266   6.638   8.298
 1100ACTN    H511456   6.293   6.519   8.425
 1100ACTN    C211457   6.094   6.600   8.419
 1100ACTN    O111458   6.022   6.698   8.404
 1100ACTN    C111459   6.035   6.471   8.465
 1100ACTN    H111460   5.980   6.485   8.558
 1100ACTN    H211461   6.112   6.396   8.484
 1100ACTN    H311462   5.967   6.431   8.391
 1101ACTN    H611463   4.767   2.262   8.203
 1101ACTN    C311464   4.714   2.356   8.208
 1101ACTN    H411465   4.657   2.359   8.301
 1101ACTN    H511466   4.787   2.437   8.212
 1101ACTN    C211467   4.623   2.371   8.091
 1101ACTN    O111468   4.649   2.450   8.001
 1101ACTN    C111469   4.507   2.277   8.079
 1101ACTN    H111470   4.542   2.175   8.071
 1101ACTN    H211471   4.446   2.300   7.992
 1101ACTN    H311472   4.444   2.285   8.167
 1102ACTN    H611473   7.404   1.932   8.692
 1102ACTN    C311474   7.312   1.912   8.747
 1102ACTN    H411475   7.274   1.815   8.716
 1102ACTN    H511476   7.336   1.909   8.852
 1102ACTN    C211477   7.211   2.020   8.720
 1102ACTN    O111478   7.236   2.136   8.749
 1102ACTN    C111479   7.081   1.983   8.655
 1102ACTN    H111480   7.099   1.941   8.556
 1102ACTN    H211481   7.017   2.070   8.642
 1102ACTN    H311482   7.028   1.910   8.714
 1103ACTN    H611483   7.168   5.444   8.583
 1103ACTN    C311484   7.107   5.514   8.528
 1103ACTN    H411485   7.006   5.514   8.570
 1103ACTN    H511486   7.148   5.614   8.541
 1103ACTN    C211487   7.103   5.477   8.383
 1103ACTN    O111488   7.207   5.476   8.318
 1103ACTN    C111489   6.972   5.447   8.318
 1103ACTN    H111490   6.909   5.536   8.318
 1103ACTN    H211491   6.920   5.369   8.373
 1103ACTN    H311492   6.984   5.414   8.215
 1104ACTN    H611493   3.657   5.889   8.109
 1104ACTN    C311494   3.616   5.794   8.143
 1104ACTN    H411495   3.671   5.714   8.094
 1104ACTN    H511496   3.631   5.787   8.250
 1104ACTN    C211497   3.470   5.783   8.110
 1104ACTN    O111498   3.410   5.877   8.059
 1104ACTN    C111499   3.399   5.655   8.142
 1104ACTN    H111500   3.292   5.664   8.123
 1104ACTN    H211501   3.412   5.629   8.247
 1104ACTN    H311502   3.438   5.574   8.081
 1105ACTN    H611503   5.155   0.461   8.058
 1105ACTN    C311504   5.227   0.388   8.022
 1105ACTN    H411505   5.186   0.341   7.933
 1105ACTN    H511506   5.318   0.440   7.995
 1105ACTN    C211507   5.254   0.287   8.130
 1105ACTN    O111508   5.310   0.321   8.233
 1105ACTN    C111509   5.222   0.142   8.106
 1105ACTN    H111510   5.182   0.126   8.006
 1105ACTN    H211511   5.147   0.108   8.177
 1105ACTN    H311512   5.310   0.080   8.118
 1106ACTN    H611513   0.795   4.362   8.621
 1106ACTN    C311514   0.816   4.462   8.660
 1106ACTN    H411515   0.914   4.460   8.707
 1106ACTN    H511516   0.818   4.532   8.577
 1106ACTN    C211517   0.711   4.499   8.761
 1106ACTN    O111518   0.691   4.428   8.859
 1106ACTN    C111519   0.628   4.622   8.740
 1106ACTN    H111520   0.522   4.595   8.737
 1106ACTN    H211521   0.653   4.672   8.647
 1106ACTN    H311522   0.642   4.692   8.822
 1107ACTN    H611523   4.399   5.546   7.426
 1107ACTN    C311524   4.430   5.447   7.460
 1107ACTN    H411525   4.410   5.440   7.567
 1107ACTN    H511526   4.369   5.373   7.409
 1107ACTN    C211527   4.575   5.425   7.431
 1107ACTN    O111528   4.660   5.492   7.489
 1107ACTN    C111529   4.615   5.313   7.342
 1107ACTN    H111530   4.721   5.313   7.321
 1107ACTN    H211531   4.562   5.321   7.247
 1107ACTN    H311532   4.589   5.217   7.386
 1108ACTN    H611533   0.477   3.155   8.333
 1108ACTN    C311534   0.470   3.111   8.433
 1108ACTN    H411535   0.421   3.014   8.422
 1108ACTN    H511536   0.570   3.095   8.471
 1108ACTN    C211537   0.391   3.198   8.526
 1108ACTN    O111538   0.360   3.313   8.495
 1108ACTN    C111539   0.366   3.150   8.665
 1108ACTN    H111540   0.413   3.053   8.682
 1108ACTN    H211541   0.260   3.139   8.683
 1108ACTN    H311542   0.406   3.220   8.739
 1109ACTN    H611543   0.473   1.701   8.530
 1109ACTN    C311544   0.508   1.770   8.606
 1109ACTN    H411545   0.501   1.721   8.703
 1109ACTN    H511546   0.612   1.793   8.587
 1109ACTN    C211547   0.425   1.895   8.606
 1109ACTN    O111548   0.306   1.889   8.634
 1109ACTN    C111549   0.486   2.027   8.569
 1109ACTN    H111550   0.435   2.071   8.485
 1109ACTN    H211551   0.591   2.015   8.543
 1109ACTN    H311552   0.480   2.095   8.654
 1110ACTN    H611553   5.031   1.590   8.000
 1110ACTN    C311554   5.036   1.697   8.020
 1110ACTN    H411555   4.935   1.737   8.016
 1110ACTN    H511556   5.075   1.710   8.120
 1110ACTN    C211557   5.123   1.764   7.918
 1110ACTN    O111558   5.220   1.831   7.952
 1110ACTN    C111559   5.086   1.752   7.773
 1110ACTN    H111560   5.082   1.647   7.744
 1110ACTN    H211561   5.158   1.802   7.709
 1110ACTN    H311562   4.988   1.796   7.755
 1111ACTN    H611563   4.829   2.612   7.415
 1111ACTN    C311564   4.879   2.703   7.446
 1111ACTN    H411565   4.986   2.689   7.435
 1111ACTN    H511566   4.849   2.783   7.379
 1111ACTN    C211567   4.846   2.736   7.588
 1111ACTN    O111568   4.802   2.846   7.620
 1111ACTN    C111569   4.872   2.631   7.692
 1111ACTN    H111570   4.821   2.538   7.666
 1111ACTN    H211571   4.836   2.662   7.790
 1111ACTN    H311572   4.978   2.610   7.699
 1112ACTN    H611573   6.190   3.874   8.446
 1112ACTN    C311574   6.205   3.978   8.472
 1112ACTN    H411575   6.302   3.988   8.521
 1112ACTN    H511576   6.208   4.037   8.381
 1112ACTN    C211577   6.096   4.024   8.564
 1112ACTN    O111578   6.008   4.099   8.523
 1112ACTN    C111579   6.089   3.964   8.701
 1112ACTN    H111580   6.009   4.010   8.760
 1112ACTN    H211581   6.183   3.979   8.754
 1112ACTN    H311582   6.070   3.857   8.695
 1113ACTN    H611583   1.931   5.516   8.283
 1113ACTN    C311584   2.028   5.560   8.265
 1113ACTN    H411585   2.082   5.495   8.196
 1113ACTN    H511586   2.015   5.657   8.217
 1113ACTN    C211587   2.102   5.575   8.395
 1113ACTN    O111588   2.061   5.653   8.480
 1113ACTN    C111589   2.229   5.498   8.418
 1113ACTN    H111590   2.219   5.434   8.504
 1113ACTN    H211591   2.312   5.567   8.435
 1113ACTN    H311592   2.253   5.436   8.332
 1114ACTN    H611593   3.821   2.796   8.308
 1114ACTN    C311594   3.815   2.854   8.216
 1114ACTN    H411595   3.735   2.928   8.229
 1114ACTN    H511596   3.787   2.787   8.135
 1114ACTN    C211597   3.945   2.922   8.186
 1114ACTN    O111598   3.956   2.993   8.086
 1114ACTN    C111599   4.060   2.902   8.280
 1114ACTN    H111600   4.035   2.940   8.379
 1114ACTN    H211601   4.149   2.953   8.245
 1114ACTN    H311602   4.083   2.796   8.289
 1115ACTN    H611603   6.750   3.349   7.969
 1115ACTN    C311604   6.785   3.257   7.922
 1115ACTN    H411605   6.812   3.279   7.819
 1115ACTN    H511606   6.874   3.223   7.975
 1115ACTN    C211607   6.679   3.151   7.926
 1115ACTN    O111608   6.569   3.174   7.974
 1115ACTN    C111609   6.709   3.017   7.865
 1115ACTN    H111610   6.807   3.017   7.819
 1115ACTN    H211611   6.635   2.992   7.789
 1115ACTN    H311612   6.707   2.940   7.941
 1116ACTN    H611613   2.688   6.368   8.415
 1116ACTN    C311614   2.670   6.452   8.483
 1116ACTN    H411615   2.766   6.499   8.504
 1116ACTN    H511616   2.607   6.524   8.433
 1116ACTN    C211617   2.605   6.405   8.610
 1116ACTN    O111618   2.503   6.336   8.605
 1116ACTN    C111619   2.673   6.432   8.740
 1116ACTN    H111620   2.772   6.387   8.739
 1116ACTN    H211621   2.618   6.391   8.824
 1116ACTN    H311622   2.684   6.538   8.755
 1117ACTN    H611623   0.100   4.272   8.145
 1117ACTN    C311624   0.042   4.282   8.237
 1117ACTN    H411625   8.972   4.199   8.242
 1117ACTN    H511626   0.111   4.273   8.321
 1117ACTN    C211627   8.969   4.412   8.239
 1117ACTN    O111628   8.995   4.498   8.323
 1117ACTN    C111629   8.872   4.441   8.130
 1117ACTN    H111630   8.920   4.435   8.032
 1117ACTN    H211631   8.830   4.541   8.139
 1117ACTN    H311632   8.790   4.370   8.132
 1118ACTN    H611633   3.544   4.508   8.877
 1118ACTN    C311634   3.577   4.607   8.908
 1118ACTN    H411635   3.567   4.613   0.016
 1118ACTN    H511636   3.682   4.617   8.882
 1118ACTN    C211637   3.497   4.715   8.842
 1118ACTN    O111638   3.390   4.688   8.788
 1118ACTN    C111639   3.538   4.857   8.864
 1118ACTN    H111640   3.476   4.926   8.807
 1118ACTN    H211641   3.641   4.872   8.833
 1118ACTN    H311642   3.530   4.883   8.969
 1119ACTN    H611643   0.464   3.140   7.943
 1119ACTN    C311644   0.430   3.100   7.847
 1119ACTN    H411645   0.437   3.180   7.773
 1119ACTN    H511646   0.497   3.020   7.818
 1119ACTN    C211647   0.288   3.052   7.858
 1119ACTN    O111648   0.201   3.128   7.899
 1119ACTN    C111649   0.259   2.908   7.827
 1119ACTN    H111650   0.306   2.844   7.900
 1119ACTN    H211651   0.297   2.882   7.729
 1119ACTN    H311652   0.151   2.889   7.828
 1120ACTN    H611653   3.943   2.772   8.674
 1120ACTN    C311654   3.898   2.830   8.754
 1120ACTN    H411655   3.802   2.786   8.778
 1120ACTN    H511656   3.962   2.823   8.843
 1120ACTN    C211657   3.880   2.972   8.711
 1120ACTN    O111658   3.934   3.063   8.774
 1120ACTN    C111659   3.801   3.001   8.588
 1120ACTN    H111660   3.712   3.059   8.613
 1120ACTN    H211661   3.769   2.909   8.539
 1120ACTN    H311662   3.859   3.060   8.518
 1121ACTN    H611663   0.256   4.768   7.342
 1121ACTN    C311664   0.259   4.743   7.447
 1121ACTN    H411665   0.159   4.752   7.489
 1121ACTN    H511666   0.289   4.638   7.456
 1121ACTN    C211667   0.358   4.829   7.519
 1121ACTN    O111668   0.323   4.902   7.612
 1121ACTN    C111669   0.498   4.837   7.466
 1121ACTN    H111670   0.527   4.940   7.447
 1121ACTN    H211671   0.506   4.781   7.373
 1121ACTN    H311672   0.567   4.794   7.538
 1122ACTN    H611673   1.168   7.151   7.440
 1122ACTN    C311674   1.131   7.068   7.499
 1122ACTN    H411675   1.038   7.033   7.454
 1122ACTN    H511676   1.204   6.987   7.494
 1122ACTN    C211677   1.110   7.109   7.641
 1122ACTN    O111678   1.002   7.092   7.697
 1122ACTN    C111679   1.227   7.162   7.718
 1122ACTN    H111680   1.199   7.191   7.819
 1122ACTN    H211681   1.269   7.249   7.668
 1122ACTN    H311682   1.305   7.087   7.725
 1123ACTN    H611683   4.878   0.191   8.428
 1123ACTN    C311684   4.966   0.253   8.441
 1123ACTN    H411685   4.971   0.287   8.544
 1123ACTN    H511686   5.054   0.192   8.421
 1123ACTN    C211687   4.963   0.369   8.346
 1123ACTN    O111688   4.946   0.349   8.226
 1123ACTN    C111689   4.978   0.507   8.401
 1123ACTN    H111690   4.972   0.582   8.321
 1123ACTN    H211691   5.073   0.519   8.452
 1123ACTN    H311692   4.898   0.528   8.472
 1124ACTN    H611693   7.128   1.029   8.049
 1124ACTN    C311694   7.193   1.102   8.001
 1124ACTN    H411695   7.255   1.149   8.077
 1124ACTN    H511696   7.131   1.179   7.955
 1124ACTN    C211697   7.280   1.035   7.898
 1124ACTN    O111698   7.353   0.942   7.932
 1124ACTN    C111699   7.272   1.080   7.756
 1124ACTN    H111700   7.171   1.066   7.717
 1124ACTN    H211701   7.341   1.025   7.692
 1124ACTN    H311702   7.297   1.186   7.748
 1125ACTN    H611703   5.421   6.771   8.225
 1125ACTN    C311704   5.477   6.734   8.139
 1125ACTN    H411705   5.552   6.808   8.113
 1125ACTN    H511706   5.527   6.642   8.168
 1125ACTN    C211707   5.386   6.709   8.023
 1125ACTN    O111708   5.432   6.674   7.915
 1125ACTN    C111709   5.239   6.736   8.036
 1125ACTN    H111710   5.214   6.772   8.136
 1125ACTN    H211711   5.181   6.646   8.017
 1125ACTN    H311712   5.209   6.812   7.965
 1126ACTN    H611713   3.670   5.581   8.361
 1126ACTN    C311714   3.714   5.492   8.317
 1126ACTN    H411715   3.699   5.410   8.387
 1126ACTN    H511716   3.660   5.469   8.226
 1126ACTN    C211717   3.859   5.511   8.288
 1126ACTN    O111718   3.914   5.620   8.303
 1126ACTN    C111719   3.940   5.393   8.242
 1126ACTN    H111720   3.984   5.412   8.145
 1126ACTN    H211721   3.877   5.305   8.233
 1126ACTN    H311722   4.019   5.371   8.313
 1127ACTN    H611723   6.907   6.386   7.847
 1127ACTN    C311724   6.873   6.422   7.751
 1127ACTN    H411725   6.806   6.347   7.708
 1127ACTN    H511726   6.816   6.514   7.766
 1127ACTN    C211727   6.988   6.447   7.658
 1127ACTN    O111728   7.103   6.428   7.695
 1127ACTN    C111729   6.960   6.495   7.519
 1127ACTN    H111730   7.002   6.425   7.446
 1127ACTN    H211731   7.005   6.592   7.502
 1127ACTN    H311732   6.853   6.503   7.501
 1128ACTN    H611733   5.197   6.270   7.961
 1128ACTN    C311734   5.273   6.338   8.000
 1128ACTN    H411735   5.370   6.307   7.961
 1128ACTN    H511736   5.252   6.438   7.962
 1128ACTN    C211737   5.275   6.338   8.149
 1128ACTN    O111738   5.357   6.407   8.209
 1128ACTN    C111739   5.180   6.251   8.225
 1128ACTN    H111740   5.118   6.311   8.291
 1128ACTN    H211741   5.234   6.178   8.285
 1128ACTN    H311742   5.114   6.197   8.157
 1129ACTN    H611743   1.853   8.927   8.698
 1129ACTN    C311744   1.912   0.014   8.674
 1129ACTN    H411745   1.988   0.027   8.750
 1129ACTN    H511746   1.961   8.996   8.578
 1129ACTN    C211747   1.824   0.135   8.668
 1129ACTN    O111748   1.823   0.207   8.569
 1129ACTN    C111749   1.755   0.179   8.794
 1129ACTN    H111750   1.695   0.097   8.833
 1129ACTN    H211751   1.690   0.264   8.776
 1129ACTN    H311752   1.828   0.207   8.869
 1130ACTN    H611753   0.172   6.296   8.881
 1130ACTN    C311754   0.094   6.256   8.815
 1130ACTN    H411755   0.077   6.152   8.842
 1130ACTN    H511756   0.003   6.312   8.834
 1130ACTN    C211757   0.133   6.267   8.671
 1130ACTN    O111758   0.239   6.321   8.639
 1130ACTN    C111759   0.042   6.211   8.567
 1130ACTN    H111760   8.955   6.165   8.613
 1130ACTN    H211761   0.094   6.136   8.508
 1130ACTN    H311762   0.008   6.290   8.500
 1131ACTN    H611763   5.760   6.289   7.655
 1131ACTN    C311764   5.844   6.350   7.625
 1131ACTN    H411765   5.816   6.406   7.535
 1131ACTN    H511766   5.864   6.422   7.704
 1131ACTN    C211767   5.965   6.266   7.597
 1131ACTN    O111768   6.073   6.320   7.572
 1131ACTN    C111769   5.953   6.117   7.603
 1131ACTN    H111770   5.879   6.083   7.530
 1131ACTN    H211771   5.921   6.086   7.702
 1131ACTN    H311772   6.047   6.068   7.581
 1132ACTN    H611773   3.353   4.428   8.415
 1132ACTN    C311774   3.403   4.498   8.348
 1132ACTN    H411775   3.416   4.450   8.252
 1132ACTN    H511776   3.339   4.585   8.335
 1132ACTN    C211777   3.535   4.540   8.405
 1132ACTN    O111778   3.610   4.611   8.339
 1132ACTN    C111779   3.576   4.488   8.539
 1132ACTN    H111780   3.582   4.380   8.538
 1132ACTN    H211781   3.502   4.517   8.614
 1132ACTN    H311782   3.673   4.528   8.569
 1133ACTN    H611783   3.272   5.786   7.587
 1133ACTN    C311784   3.180   5.797   7.644
 1133ACTN    H411785   3.163   5.902   7.663
 1133ACTN    H511786   3.098   5.759   7.583
 1133ACTN    C211787   3.186   5.721   7.773
 1133ACTN    O111788   3.281   5.648   7.798
 1133ACTN    C111789   3.067   5.727   7.864
 1133ACTN    H111790   2.982   5.680   7.815
 1133ACTN    H211791   3.042   5.830   7.886
 1133ACTN    H311792   3.086   5.674   7.957
 1134ACTN    H611793   0.842   4.352   7.478
 1134ACTN    C311794   0.907   4.346   7.565
 1134ACTN    H411795   0.998   4.400   7.543
 1134ACTN    H511796   0.857   4.396   7.647
 1134ACTN    C211797   0.937   4.204   7.600
 1134ACTN    O111798   1.010   4.178   7.695
 1134ACTN    C111799   0.877   4.093   7.519
 1134ACTN    H111800   0.812   4.032   7.581
 1134ACTN    H211801   0.954   4.030   7.477
 1134ACTN    H311802   0.817   4.133   7.437
 1135ACTN    H611803   5.172   6.694   7.410
 1135ACTN    C311804   5.241   6.636   7.470
 1135ACTN    H411805   5.193   6.614   7.566
 1135ACTN    H511806   5.259   6.542   7.419
 1135ACTN    C211807   5.367   6.713   7.492
 1135ACTN    O111808   5.475   6.667   7.456
 1135ACTN    C111809   5.360   6.846   7.560
 1135ACTN    H111810   5.257   6.873   7.582
 1135ACTN    H211811   5.402   6.924   7.496
 1135ACTN    H311812   5.416   6.845   7.653
 1136ACTN    H611813   1.057   7.127   8.498
 1136ACTN    C311814   0.954   7.120   8.463
 1136ACTN    H411815   0.944   7.184   8.375
 1136ACTN    H511816   0.934   7.018   8.433
 1136ACTN    C211817   0.858   7.165   8.569
 1136ACTN    O111818   0.874   7.274   8.623
 1136ACTN    C111819   0.754   7.069   8.618
 1136ACTN    H111820   0.689   7.116   8.692
 1136ACTN    H211821   0.801   6.982   8.663
 1136ACTN    H311822   0.692   7.036   8.535
 1137ACTN    H611823   2.541   7.993   4.640
 1137ACTN    C311824   2.647   8.020   4.636
 1137ACTN    H411825   2.694   7.988   4.728
 1137ACTN    H511826   2.692   7.968   4.552
 1137ACTN    C211827   2.660   8.168   4.619
 1137ACTN    O111828   2.608   8.245   4.700
 1137ACTN    C111829   2.740   8.222   4.504
 1137ACTN    H111830   2.842   8.185   4.511
 1137ACTN    H211831   2.743   8.331   4.504
 1137ACTN    H311832   2.697   8.189   4.410
 1138ACTN    H611833   1.108   8.411   5.827
 1138ACTN    C311834   1.092   8.468   5.735
 1138ACTN    H411835   1.082   8.573   5.761
 1138ACTN    H511836   1.179   8.456   5.671
 1138ACTN    C211837   0.968   8.419   5.667
 1138ACTN    O111838   0.858   8.435   5.719
 1138ACTN    C111839   0.980   8.360   5.529
 1138ACTN    H111840   1.018   8.435   5.460
 1138ACTN    H211841   0.884   8.325   5.493
 1138ACTN    H311842   1.049   8.276   5.531
 1139ACTN    H611843   5.683   8.555   6.117
 1139ACTN    C311844   5.739   8.633   6.066
 1139ACTN    H411845   5.773   8.594   5.970
 1139ACTN    H511846   5.674   8.718   6.048
 1139ACTN    C211847   5.858   8.676   6.147
 1139ACTN    O111848   5.941   8.752   6.100
 1139ACTN    C111849   5.878   8.619   6.284
 1139ACTN    H111850   5.799   8.551   6.312
 1139ACTN    H211851   5.882   8.699   6.358
 1139ACTN    H311852   5.972   8.565   6.289
 1140ACTN    H611853   1.870   8.004   1.281
 1140ACTN    C311854   1.779   7.947   1.299
 1140ACTN    H411855   1.712   7.963   1.215
 1140ACTN    H511856   1.804   7.842   1.304
 1140ACTN    C211857   1.711   7.990   1.426
 1140ACTN    O111858   1.765   8.070   1.502
 1140ACTN    C111859   1.581   7.927   1.463
 1140ACTN    H111860   1.587   7.878   1.560
 1140ACTN    H211861   1.552   7.852   1.390
 1140ACTN    H311862   1.502   8.001   1.467
 1141ACTN    H611863   0.779   8.206   1.085
 1141ACTN    C311864   0.859   8.271   1.120
 1141ACTN    H411865   0.914   8.219   1.198
 1141ACTN    H511866   0.926   8.289   1.037
 1141ACTN    C211867   0.801   8.398   1.173
 1141ACTN    O111868   0.827   8.506   1.121
 1141ACTN    C111869   0.709   8.393   1.291
 1141ACTN    H111870   0.697   8.291   1.327
 1141ACTN    H211871   0.611   8.431   1.263
 1141ACTN    H311872   0.747   8.454   1.372
 1142ACTN    H611873   6.413   7.624   3.412
 1142ACTN    C311874   6.436   7.699   3.336
 1142ACTN    H411875   6.411   7.657   3.239
 1142ACTN    H511876   6.373   7.785   3.353
 1142ACTN    C211877   6.581   7.734   3.342
 1142ACTN    O111878   6.666   7.648   3.325
 1142ACTN    C111879   6.622   7.877   3.361
 1142ACTN    H111880   6.683   7.910   3.277
 1142ACTN    H211881   6.680   7.888   3.452
 1142ACTN    H311882   6.535   7.943   3.367
 1143ACTN    H611883   3.775   8.769   6.471
 1143ACTN    C311884   3.757   8.695   6.393
 1143ACTN    H411885   3.649   8.679   6.385
 1143ACTN    H511886   3.793   8.734   6.298
 1143ACTN    C211887   3.829   8.568   6.425
 1143ACTN    O111888   3.767   8.463   6.443
 1143ACTN    C111889   3.977   8.570   6.438
 1143ACTN    H111890   4.022   8.498   6.370
 1143ACTN    H211891   4.007   8.544   6.539
 1143ACTN    H311892   4.017   8.668   6.415
 1144ACTN    H611893   1.216   8.250   4.884
 1144ACTN    C311894   1.188   8.341   4.832
 1144ACTN    H411895   1.091   8.326   4.786
 1144ACTN    H511896   1.180   8.422   4.904
 1144ACTN    C211897   1.290   8.373   4.726
 1144ACTN    O111898   1.322   8.287   4.644
 1144ACTN    C111899   1.354   8.508   4.722
 1144ACTN    H111900   1.335   8.556   4.626
 1144ACTN    H211901   1.462   8.499   4.734
 1144ACTN    H311902   1.316   8.573   4.800
 1145ACTN    H611903   4.471   7.798   5.598
 1145ACTN    C311904   4.448   7.753   5.501
 1145ACTN    H411905   4.401   7.829   5.439
 1145ACTN    H511906   4.542   7.724   5.454
 1145ACTN    C211907   4.358   7.635   5.518
 1145ACTN    O111908   4.318   7.574   5.419
 1145ACTN    C111909   4.316   7.596   5.656
 1145ACTN    H111910   4.250   7.509   5.654
 1145ACTN    H211911   4.263   7.678   5.704
 1145ACTN    H311912   4.402   7.571   5.717
 1146ACTN    H611913   0.790   8.269   5.103
 1146ACTN    C311914   0.845   8.325   5.028
 1146ACTN    H411915   0.949   8.293   5.032
 1146ACTN    H511916   0.806   8.300   4.930
 1146ACTN    C211917   0.833   8.472   5.053
 1146ACTN    O111918   0.933   8.542   5.064
 1146ACTN    C111919   0.697   8.534   5.056
 1146ACTN    H111920   0.676   8.573   5.155
 1146ACTN    H211921   0.620   8.461   5.030
 1146ACTN    H311922   0.691   8.616   4.985
 1147ACTN    H611923   7.581   8.013   6.490
 1147ACTN    C311924   7.488   8.009   6.434
 1147ACTN    H411925   7.495   8.081   6.352
 1147ACTN    H511926   7.477   7.910   6.391
 1147ACTN    C211927   7.372   8.043   6.522
 1147ACTN    O111928   7.366   8.152   6.578
 1147ACTN    C111929   7.261   7.943   6.541
 1147ACTN    H111930   7.255   7.912   6.645
 1147ACTN    H211931   7.277   7.854   6.481
 1147ACTN    H311932   7.166   7.986   6.513
 1148ACTN    H611933   4.544   7.826   4.916
 1148ACTN    C311934   4.607   7.914   4.901
 1148ACTN    H411935   4.549   7.989   4.849
 1148ACTN    H511936   4.633   7.953   4.999
 1148ACTN    C211937   4.731   7.877   4.825
 1148ACTN    O111938   4.811   7.797   4.872
 1148ACTN    C111939   4.756   7.944   4.694
 1148ACTN    H111940   4.768   8.051   4.708
 1148ACTN    H211941   4.673   7.927   4.626
 1148ACTN    H311942   4.847   7.906   4.647
 1149ACTN    H611943   0.679   7.634   0.414
 1149ACTN    C311944   0.709   7.561   0.340
 1149ACTN    H411945   0.655   7.468   0.359
 1149ACTN    H511946   0.681   7.598   0.242
 1149ACTN    C211947   0.857   7.538   0.350
 1149ACTN    O111948   0.930   7.563   0.255
 1149ACTN    C111949   0.913   7.482   0.477
 1149ACTN    H111950   0.969   7.391   0.458
 1149ACTN    H211951   0.833   7.458   0.548
 1149ACTN    H311952   0.978   7.554   0.525
 1150ACTN    H611953   1.115   7.917   5.541
 1150ACTN    C311954   1.047   7.844   5.583
 1150ACTN    H411955   1.071   7.747   5.542
 1150ACTN    H511956   1.063   7.840   5.691
 1150ACTN    C211957   0.905   7.882   5.552
 1150ACTN    O111958   0.856   7.982   5.601
 1150ACTN    C111959   0.822   7.788   5.470
 1150ACTN    H111960   0.873   7.765   5.377
 1150ACTN    H211961   0.726   7.832   5.445
 1150ACTN    H311962   0.806   7.695   5.524
 1151ACTN    H611963   5.880   8.595   4.653
 1151ACTN    C311964   5.899   8.699   4.680
 1151ACTN    H411965   5.899   8.705   4.789
 1151ACTN    H511966   5.818   8.760   4.642
 1151ACTN    C211967   6.030   8.745   4.624
 1151ACTN    O111968   6.121   8.783   4.697
 1151ACTN    C111969   6.047   8.745   4.475
 1151ACTN    H111970   5.977   8.814   4.430
 1151ACTN    H211971   6.028   8.646   4.435
 1151ACTN    H311972   6.148   8.775   4.447
 1152ACTN    H611973   6.922   8.589   3.601
 1152ACTN    C311974   6.842   8.661   3.585
 1152ACTN    H411975   6.761   8.637   3.653
 1152ACTN    H511976   6.880   8.760   3.610
 1152ACTN    C211977   6.793   8.659   3.443
 1152ACTN    O111978   6.851   8.592   3.358
 1152ACTN    C111979   6.678   8.745   3.405
 1152ACTN    H111980   6.643   8.803   3.490
 1152ACTN    H211981   6.595   8.685   3.369
 1152ACTN    H311982   6.706   8.815   3.326
 1153ACTN    H611983   2.767   8.336   0.498
 1153ACTN    C311984   2.686   8.311   0.430
 1153ACTN    H411985   2.728   8.274   0.337
 1153ACTN    H511986   2.631   8.402   0.408
 1153ACTN    C211987   2.595   8.209   0.491
 1153ACTN    O111988   2.493   8.175   0.432
 1153ACTN    C111989   2.630   8.152   0.625
 1153ACTN    H111990   2.728   8.105   0.622
 1153ACTN    H211991   2.557   8.077   0.656
 1153ACTN    H311992   2.631   8.230   0.700
 1154ACTN    H611993   1.569   8.643   5.345
 1154ACTN    C311994   1.556   8.537   5.326
 1154ACTN    H411995   1.624   8.482   5.391
 1154ACTN    H511996   1.583   8.516   5.223
 1154ACTN    C211997   1.414   8.496   5.354
 1154ACTN    O111998   1.368   8.508   5.467
 1154ACTN    C111999   1.328   8.444   5.243
 1154ACTN    H112000   1.242   8.508   5.227
 1154ACTN    H212001   1.293   8.344   5.268
 1154ACTN    H312002   1.385   8.438   5.150
 1155ACTN    H612003   4.056   8.579   1.534
 1155ACTN    C312004   3.956   8.592   1.495
 1155ACTN    H412005   3.955   8.555   1.393
 1155ACTN    H512006   3.888   8.531   1.554
 1155ACTN    C212007   3.917   8.736   1.498
 1155ACTN    O112008   3.822   8.774   1.566
 1155ACTN    C112009   3.999   8.836   1.423
 1155ACTN    H112010   3.938   8.889   1.351
 1155ACTN    H212011   4.080   8.787   1.369
 1155ACTN    H312012   4.043   8.909   1.491
 1156ACTN    H612013   6.609   7.784   6.710
 1156ACTN    C312014   6.638   7.720   6.792
 1156ACTN    H412015   6.714   7.650   6.756
 1156ACTN    H512016   6.684   7.782   6.869
 1156ACTN    C212017   6.522   7.646   6.850
 1156ACTN    O112018   6.411   7.654   6.797
 1156ACTN    C112019   6.544   7.556   6.967
 1156ACTN    H112020   6.452   7.506   6.998
 1156ACTN    H212021   6.581   7.614   7.052
 1156ACTN    H312022   6.618   7.480   6.943
 1157ACTN    H612023   6.514   7.276   4.512
 1157ACTN    C312024   6.611   7.309   4.547
 1157ACTN    H412025   6.651   7.232   4.613
 1157ACTN    H512026   6.677   7.319   4.461
 1157ACTN    C212027   6.598   7.439   4.620
 1157ACTN    O112028   6.561   7.540   4.560
 1157ACTN    C112029   6.633   7.448   4.765
 1157ACTN    H112030   6.547   7.483   4.823
 1157ACTN    H212031   6.716   7.517   4.781
 1157ACTN    H312032   6.661   7.351   4.805
 1158ACTN    H612033   1.182   8.241   7.172
 1158ACTN    C312034   1.155   8.139   7.198
 1158ACTN    H412035   1.064   8.113   7.144
 1158ACTN    H512036   1.235   8.073   7.166
 1158ACTN    C212037   1.134   8.129   7.346
 1158ACTN    O112038   1.230   8.135   7.421
 1158ACTN    C112039   0.999   8.094   7.401
 1158ACTN    H112040   0.962   8.175   7.463
 1158ACTN    H212041   1.004   8.004   7.462
 1158ACTN    H312042   0.927   8.077   7.321
 1159ACTN    H612043   5.973   7.985   5.897
 1159ACTN    C312044   6.024   7.889   5.905
 1159ACTN    H412045   6.131   7.907   5.911
 1159ACTN    H512046   5.993   7.841   5.997
 1159ACTN    C212047   5.992   7.803   5.786
 1159ACTN    O112048   6.024   7.839   5.674
 1159ACTN    C112049   5.922   7.672   5.808
 1159ACTN    H112050   5.981   7.608   5.873
 1159ACTN    H212051   5.905   7.620   5.715
 1159ACTN    H312052   5.825   7.689   5.856
 1160ACTN    H612053   3.481   7.423   3.578
 1160ACTN    C312054   3.408   7.343   3.588
 1160ACTN    H412055   3.391   7.301   3.489
 1160ACTN    H512056   3.451   7.266   3.652
 1160ACTN    C212057   3.282   7.396   3.649
 1160ACTN    O112058   3.180   7.405   3.582
 1160ACTN    C112059   3.285   7.445   3.790
 1160ACTN    H112060   3.313   7.364   3.857
 1160ACTN    H212061   3.188   7.483   3.822
 1160ACTN    H312062   3.358   7.524   3.800
 1161ACTN    H612063   6.856   8.495   5.347
 1161ACTN    C312064   6.788   8.410   5.352
 1161ACTN    H412065   6.790   8.359   5.257
 1161ACTN    H512066   6.824   8.342   5.429
 1161ACTN    C212067   6.649   8.457   5.385
 1161ACTN    O112068   6.627   8.517   5.489
 1161ACTN    C112069   6.539   8.427   5.288
 1161ACTN    H112070   6.444   8.467   5.323
 1161ACTN    H212071   6.528   8.320   5.276
 1161ACTN    H312072   6.561   8.471   5.191
 1162ACTN    H612073   5.025   7.565   4.477
 1162ACTN    C312074   4.978   7.599   4.569
 1162ACTN    H412075   4.957   7.705   4.559
 1162ACTN    H512076   4.883   7.546   4.581
 1162ACTN    C212077   5.067   7.574   4.687
 1162ACTN    O112078   5.182   7.619   4.688
 1162ACTN    C112079   5.014   7.495   4.802
 1162ACTN    H112080   5.088   7.486   4.882
 1162ACTN    H212081   4.987   7.395   4.769
 1162ACTN    H312082   4.925   7.543   4.842
 1163ACTN    H612083   2.283   8.266   4.764
 1163ACTN    C312084   2.277   8.374   4.768
 1163ACTN    H412085   2.376   8.412   4.791
 1163ACTN    H512086   2.247   8.411   4.670
 1163ACTN    C212087   2.178   8.415   4.873
 1163ACTN    O112088   2.215   8.469   4.976
 1163ACTN    C112089   2.033   8.384   4.852
 1163ACTN    H112090   1.996   8.320   4.931
 1163ACTN    H212091   2.017   8.333   4.757
 1163ACTN    H312092   1.974   8.475   4.851
 1164ACTN    H612093   5.548   8.835   2.564
 1164ACTN    C312094   5.507   8.827   2.464
 1164ACTN    H412095   5.571   8.884   2.396
 1164ACTN    H512096   5.510   8.723   2.434
 1164ACTN    C212097   5.366   8.878   2.460
 1164ACTN    O112098   5.281   8.831   2.534
 1164ACTN    C112099   5.332   8.989   2.366
 1164ACTN    H112100   5.356   8.961   2.263
 1164ACTN    H212101   5.389   0.078   2.391
 1164ACTN    H312102   5.227   0.015   2.370
 1165ACTN    H612103   0.476   8.226   6.336
 1165ACTN    C312104   0.560   8.285   6.369
 1165ACTN    H412105   0.614   8.229   6.444
 1165ACTN    H512106   0.627   8.299   6.284
 1165ACTN    C212107   0.515   8.418   6.421
 1165ACTN    O112108   0.544   8.454   6.534
 1165ACTN    C112109   0.433   8.507   6.332
 1165ACTN    H112110   0.484   8.602   6.317
 1165ACTN    H212111   0.336   8.526   6.377
 1165ACTN    H312112   0.417   8.460   6.235
 1166ACTN    H612113   5.718   7.542   1.630
 1166ACTN    C312114   5.762   7.617   1.696
 1166ACTN    H412115   5.869   7.617   1.681
 1166ACTN    H512116   5.723   7.715   1.668
 1166ACTN    C212117   5.730   7.587   1.839
 1166ACTN    O112118   5.770   7.662   1.927
 1166ACTN    C112119   5.648   7.466   1.871
 1166ACTN    H112120   5.637   7.453   1.978
 1166ACTN    H212121   5.695   7.376   1.831
 1166ACTN    H312122   5.549   7.475   1.828
 1167ACTN    H612123   6.021   8.212   4.196
 1167ACTN    C312124   5.923   8.260   4.193
 1167ACTN    H412125   5.929   8.344   4.124
 1167ACTN    H512126   5.851   8.188   4.155
 1167ACTN    C212127   5.884   8.304   4.330
 1167ACTN    O112128   5.875   8.423   4.358
 1167ACTN    C112129   5.860   8.200   4.435
 1167ACTN    H112130   5.929   8.213   4.518
 1167ACTN    H212131   5.873   8.100   4.395
 1167ACTN    H312132   5.759   8.208   4.474
 1168ACTN    H612133   1.781   7.306   2.076
 1168ACTN    C312134   1.732   7.276   2.169
 1168ACTN    H412135   1.663   7.194   2.146
 1168ACTN    H512136   1.808   7.238   2.237
 1168ACTN    C212137   1.661   7.392   2.230
 1168ACTN    O112138   1.539   7.390   2.248
 1168ACTN    C112139   1.740   7.514   2.266
 1168ACTN    H112140   1.738   7.531   2.373
 1168ACTN    H212141   1.698   7.602   2.217
 1168ACTN    H312142   1.844   7.504   2.234
 1169ACTN    H612143   1.006   7.939   2.840
 1169ACTN    C312144   1.040   7.846   2.796
 1169ACTN    H412145   1.032   7.767   2.871
 1169ACTN    H512146   1.145   7.856   2.768
 1169ACTN    C212147   0.959   7.813   2.674
 1169ACTN    O112148   0.901   7.706   2.664
 1169ACTN    C112149   0.956   7.912   2.561
 1169ACTN    H112150   0.984   7.864   2.468
 1169ACTN    H212151   1.025   7.994   2.579
 1169ACTN    H312152   0.856   7.954   2.550
 1170ACTN    H612153   1.576   7.693   1.848
 1170ACTN    C312154   1.579   7.618   1.926
 1170ACTN    H412155   1.661   7.642   1.993
 1170ACTN    H512156   1.486   7.623   1.981
 1170ACTN    C212157   1.597   7.482   1.865
 1170ACTN    O112158   1.706   7.450   1.819
 1170ACTN    C112159   1.488   7.380   1.880
 1170ACTN    H112160   1.471   7.359   1.985
 1170ACTN    H212161   1.514   7.287   1.830
 1170ACTN    H312162   1.396   7.418   1.837
 1171ACTN    H612163   4.840   7.920   3.324
 1171ACTN    C312164   4.865   8.021   3.354
 1171ACTN    H412165   4.849   8.087   3.269
 1171ACTN    H512166   4.798   8.052   3.434
 1171ACTN    C212167   5.008   8.027   3.398
 1171ACTN    O112168   5.039   8.082   3.503
 1171ACTN    C112169   5.113   7.979   3.302
 1171ACTN    H112170   5.212   7.990   3.345
 1171ACTN    H212171   5.109   8.037   3.210
 1171ACTN    H312172   5.097   7.875   3.279
 1172ACTN    H612173   0.304   8.058   4.393
 1172ACTN    C312174   0.335   7.990   4.471
 1172ACTN    H412175   0.375   7.900   4.424
 1172ACTN    H512176   0.415   8.037   4.528
 1172ACTN    C212177   0.219   7.956   4.559
 1172ACTN    O112178   0.222   7.980   4.679
 1172ACTN    C112179   0.098   7.892   4.498
 1172ACTN    H112180   0.111   7.877   4.391
 1172ACTN    H212181   0.011   7.955   4.514
 1172ACTN    H312182   0.079   7.796   4.544
 1173ACTN    H612183   0.157   8.611   6.080
 1173ACTN    C312184   0.081   8.672   6.129
 1173ACTN    H412185   0.025   8.724   6.052
 1173ACTN    H512186   0.014   8.606   6.183
 1173ACTN    C212187   0.146   8.771   6.221
 1173ACTN    O112188   0.226   8.853   6.178
 1173ACTN    C112189   0.106   8.772   6.365
 1173ACTN    H112190   0.164   8.844   6.421
 1173ACTN    H212191   0.121   8.673   6.409
 1173ACTN    H312192   0.001   8.798   6.375
 1174ACTN    H612193   1.581   7.723   4.584
 1174ACTN    C312194   1.474   7.709   4.568
 1174ACTN    H412195   1.459   7.667   4.469
 1174ACTN    H512196   1.438   7.638   4.642
 1174ACTN    C212197   1.402   7.840   4.583
 1174ACTN    O112198   1.342   7.890   4.489
 1174ACTN    C112199   1.409   7.909   4.715
 1174ACTN    H112200   1.363   7.848   4.792
 1174ACTN    H212201   1.358   8.005   4.713
 1174ACTN    H312202   1.513   7.926   4.743
 1175ACTN    H612203   5.079   7.751   4.939
 1175ACTN    C312204   5.164   7.756   5.006
 1175ACTN    H412205   5.152   7.681   5.084
 1175ACTN    H512206   5.253   7.731   4.949
 1175ACTN    C212207   5.174   7.892   5.067
 1175ACTN    O112208   5.275   7.960   5.053
 1175ACTN    C112209   5.061   7.939   5.154
 1175ACTN    H112210   4.988   7.860   5.169
 1175ACTN    H212211   5.010   8.022   5.107
 1175ACTN    H312212   5.098   7.971   5.251
 1176ACTN    H612213   4.389   7.428   4.333
 1176ACTN    C312214   4.434   7.517   4.376
 1176ACTN    H412215   4.531   7.531   4.331
 1176ACTN    H512216   4.371   7.602   4.350
 1176ACTN    C212217   4.446   7.505   4.525
 1176ACTN    O112218   4.390   7.414   4.586
 1176ACTN    C112219   4.520   7.612   4.599
 1176ACTN    H112220   4.607   7.570   4.649
 1176ACTN    H212221   4.455   7.656   4.675
 1176ACTN    H312222   4.553   7.691   4.532
 1177ACTN    H612223   4.401   8.023   4.658
 1177ACTN    C312224   4.323   7.948   4.662
 1177ACTN    H412225   4.353   7.864   4.601
 1177ACTN    H512226   4.312   7.914   4.765
 1177ACTN    C212227   4.194   8.007   4.613
 1177ACTN    O112228   4.144   7.968   4.508
 1177ACTN    C112229   4.133   8.120   4.690
 1177ACTN    H112230   4.200   8.206   4.689
 1177ACTN    H212231   4.116   8.091   4.793
 1177ACTN    H312232   4.038   8.151   4.647
 1178ACTN    H612233   2.565   7.568   4.652
 1178ACTN    C312234   2.537   7.673   4.660
 1178ACTN    H412235   2.574   7.711   4.755
 1178ACTN    H512236   2.585   7.728   4.579
 1178ACTN    C212237   2.388   7.688   4.652
 1178ACTN    O112238   2.338   7.800   4.653
 1178ACTN    C112239   2.303   7.566   4.635
 1178ACTN    H112240   2.332   7.512   4.545
 1178ACTN    H212241   2.198   7.592   4.627
 1178ACTN    H312242   2.316   7.500   4.720
 1179ACTN    H612243   3.136   8.288   4.258
 1179ACTN    C312244   3.039   8.324   4.292
 1179ACTN    H412245   2.978   8.345   4.205
 1179ACTN    H512246   2.992   8.245   4.349
 1179ACTN    C212247   3.054   8.447   4.377
 1179ACTN    O112248   2.955   8.505   4.419
 1179ACTN    C112249   3.191   8.504   4.402
 1179ACTN    H112250   3.197   8.606   4.367
 1179ACTN    H212251   3.267   8.446   4.352
 1179ACTN    H312252   3.212   8.502   4.509
 1180ACTN    H612253   5.125   8.766   2.006
 1180ACTN    C312254   5.186   8.780   2.096
 1180ACTN    H412255   5.259   8.858   2.075
 1180ACTN    H512256   5.121   8.815   2.176
 1180ACTN    C212257   5.254   8.653   2.136
 1180ACTN    O112258   5.320   8.647   2.239
 1180ACTN    C112259   5.241   8.532   2.047
 1180ACTN    H112260   5.278   8.554   1.948
 1180ACTN    H212261   5.136   8.504   2.039
 1180ACTN    H312262   5.296   8.448   2.087
 1181ACTN    H612263   0.778   8.007   4.314
 1181ACTN    C312264   0.713   8.092   4.294
 1181ACTN    H412265   0.660   8.117   4.385
 1181ACTN    H512266   0.775   8.177   4.266
 1181ACTN    C212267   0.616   8.058   4.185
 1181ACTN    O112268   0.538   7.964   4.199
 1181ACTN    C112269   0.615   8.137   4.057
 1181ACTN    H112270   0.693   8.213   4.058
 1181ACTN    H212271   0.519   8.187   4.044
 1181ACTN    H312272   0.631   8.072   3.972
 1182ACTN    H612273   5.266   8.310   4.579
 1182ACTN    C312274   5.287   8.283   4.476
 1182ACTN    H412275   5.241   8.186   4.456
 1182ACTN    H512276   5.240   8.357   4.412
 1182ACTN    C212277   5.434   8.277   4.449
 1182ACTN    O112278   5.515   8.312   4.535
 1182ACTN    C112279   5.483   8.230   4.316
 1182ACTN    H112280   5.551   8.145   4.328
 1182ACTN    H212281   5.537   8.310   4.265
 1182ACTN    H312282   5.401   8.199   4.253
 1183ACTN    H612283   5.595   7.802   5.405
 1183ACTN    C312284   5.649   7.832   5.316
 1183ACTN    H412285   5.608   7.926   5.281
 1183ACTN    H512286   5.753   7.848   5.343
 1183ACTN    C212287   5.637   7.727   5.210
 1183ACTN    O112288   5.735   7.673   5.162
 1183ACTN    C112289   5.500   7.693   5.159
 1183ACTN    H112290   5.435   7.670   5.242
 1183ACTN    H212291   5.503   7.608   5.092
 1183ACTN    H312292   5.459   7.778   5.105
 1184ACTN    H612293   2.514   7.612   0.901
 1184ACTN    C312294   2.411   7.607   0.867
 1184ACTN    H412295   2.346   7.628   0.951
 1184ACTN    H512296   2.391   7.505   0.833
 1184ACTN    C212297   2.385   7.704   0.756
 1184ACTN    O112298   2.474   7.778   0.715
 1184ACTN    C112299   2.248   7.709   0.698
 1184ACTN    H112300   2.176   7.736   0.775
 1184ACTN    H212301   2.220   7.612   0.658
 1184ACTN    H312302   2.241   7.783   0.618
 1185ACTN    H612303   0.547   7.490   2.847
 1185ACTN    C312304   0.528   7.593   2.818
 1185ACTN    H412305   0.525   7.598   2.709
 1185ACTN    H512306   0.430   7.622   2.856
 1185ACTN    C212307   0.633   7.685   2.870
 1185ACTN    O112308   0.630   7.804   2.842
 1185ACTN    C112309   0.741   7.630   2.958
 1185ACTN    H112310   0.699   7.586   3.048
 1185ACTN    H212311   0.812   7.707   2.988
 1185ACTN    H312312   0.797   7.553   2.905
 1186ACTN    H612313   3.559   7.544   2.571
 1186ACTN    C312314   3.488   7.517   2.648
 1186ACTN    H412315   3.534   7.532   2.745
 1186ACTN    H512316   3.402   7.584   2.640
 1186ACTN    C212317   3.447   7.374   2.631
 1186ACTN    O112318   3.328   7.342   2.634
 1186ACTN    C112319   3.552   7.268   2.625
 1186ACTN    H112320   3.539   7.196   2.705
 1186ACTN    H212321   3.652   7.310   2.634
 1186ACTN    H312322   3.547   7.214   2.530
 1187ACTN    H612323   1.459   8.448   0.241
 1187ACTN    C312324   1.353   8.421   0.241
 1187ACTN    H412325   1.341   8.336   0.174
 1187ACTN    H512326   1.298   8.505   0.201
 1187ACTN    C212327   1.304   8.387   0.377
 1187ACTN    O112328   1.376   8.401   0.476
 1187ACTN    C112329   1.162   8.342   0.394
 1187ACTN    H112330   1.110   8.407   0.464
 1187ACTN    H212331   1.158   8.240   0.431
 1187ACTN    H312332   1.109   8.346   0.299
 1188ACTN    H612333   6.324   8.707   3.827
 1188ACTN    C312334   6.321   8.630   3.751
 1188ACTN    H412335   6.220   8.589   3.748
 1188ACTN    H512336   6.342   8.675   3.654
 1188ACTN    C212337   6.421   8.523   3.780
 1188ACTN    O112338   6.540   8.550   3.785
 1188ACTN    C112339   6.373   8.383   3.807
 1188ACTN    H112340   6.327   8.343   3.717
 1188ACTN    H212341   6.299   8.383   3.887
 1188ACTN    H312342   6.456   8.318   3.835
 1189ACTN    H612343   6.736   7.305   5.417
 1189ACTN    C312344   6.657   7.375   5.392
 1189ACTN    H412345   6.568   7.320   5.364
 1189ACTN    H512346   6.635   7.433   5.482
 1189ACTN    C212347   6.701   7.467   5.282
 1189ACTN    O112348   6.804   7.533   5.294
 1189ACTN    C112349   6.620   7.476   5.157
 1189ACTN    H112350   6.582   7.577   5.143
 1189ACTN    H212351   6.535   7.408   5.159
 1189ACTN    H312352   6.681   7.451   5.070
 1190ACTN    H612353   1.622   8.246   3.941
 1190ACTN    C312354   1.718   8.193   3.942
 1190ACTN    H412355   1.797   8.267   3.932
 1190ACTN    H512356   1.721   8.128   3.855
 1190ACTN    C212357   1.736   8.113   4.066
 1190ACTN    O112358   1.647   8.106   4.150
 1190ACTN    C112359   1.862   8.035   4.083
 1190ACTN    H112360   1.840   7.929   4.096
 1190ACTN    H212361   1.917   8.069   4.171
 1190ACTN    H312362   1.926   8.045   3.996
 1191ACTN    H612363   1.837   8.960   2.493
 1191ACTN    C312364   1.929   8.902   2.502
 1191ACTN    H412365   1.957   8.868   2.402
 1191ACTN    H512366   2.007   8.968   2.539
 1191ACTN    C212367   1.908   8.786   2.594
 1191ACTN    O112368   1.979   8.772   2.693
 1191ACTN    C112369   1.797   8.690   2.564
 1191ACTN    H112370   1.701   8.741   2.564
 1191ACTN    H212371   1.793   8.610   2.638
 1191ACTN    H312372   1.812   8.644   2.466
 1192ACTN    H612373   2.894   7.910   5.578
 1192ACTN    C312374   2.800   7.955   5.610
 1192ACTN    H412375   2.767   8.024   5.532
 1192ACTN    H512376   2.726   7.876   5.620
 1192ACTN    C212377   2.819   8.027   5.739
 1192ACTN    O112378   2.901   8.118   5.746
 1192ACTN    C112379   2.739   7.984   5.858
 1192ACTN    H112380   2.762   8.045   5.945
 1192ACTN    H212381   2.761   7.881   5.882
 1192ACTN    H312382   2.633   7.993   5.838
 1193ACTN    H612383   2.340   7.507   4.013
 1193ACTN    C312384   2.324   7.468   3.912
 1193ACTN    H412385   2.419   7.474   3.858
 1193ACTN    H512386   2.295   7.363   3.920
 1193ACTN    C212387   2.218   7.547   3.842
 1193ACTN    O112388   2.104   7.549   3.885
 1193ACTN    C112389   2.254   7.618   3.715
 1193ACTN    H112390   2.169   7.675   3.676
 1193ACTN    H212391   2.285   7.547   3.640
 1193ACTN    H312392   2.336   7.687   3.733
 1194ACTN    H612393   3.556   8.630   1.651
 1194ACTN    C312394   3.467   8.589   1.604
 1194ACTN    H412395   3.442   8.494   1.651
 1194ACTN    H512396   3.384   8.658   1.621
 1194ACTN    C212397   3.490   8.567   1.458
 1194ACTN    O112398   3.416   8.615   1.373
 1194ACTN    C112399   3.606   8.482   1.415
 1194ACTN    H112400   3.672   8.538   1.349
 1194ACTN    H212401   3.570   8.394   1.362
 1194ACTN    H312402   3.663   8.449   1.501
 1195ACTN    H612403   6.278   8.842   6.671
 1195ACTN    C312404   6.194   8.790   6.717
 1195ACTN    H412405   6.234   8.712   6.782
 1195ACTN    H512406   6.140   8.861   6.779
 1195ACTN    C212407   6.106   8.729   6.612
 1195ACTN    O112408   5.987   8.758   6.606
 1195ACTN    C112409   6.166   8.633   6.515
 1195ACTN    H112410   6.114   8.537   6.520
 1195ACTN    H212411   6.271   8.616   6.536
 1195ACTN    H312412   6.157   8.671   6.413
 1196ACTN    H612413   1.869   8.462   6.288
 1196ACTN    C312414   1.820   8.559   6.289
 1196ACTN    H412415   1.864   8.620   6.211
 1196ACTN    H512416   1.715   8.544   6.265
 1196ACTN    C212417   1.834   8.622   6.424
 1196ACTN    O112418   1.887   8.732   6.436
 1196ACTN    C112419   1.782   8.550   6.543
 1196ACTN    H112420   1.737   8.455   6.516
 1196ACTN    H212421   1.707   8.610   6.595
 1196ACTN    H312422   1.863   8.530   6.613
 1197ACTN    H612423   2.345   8.420   2.841
 1197ACTN    C312424   2.417   8.356   2.892
 1197ACTN    H412425   2.412   8.376   2.998
 1197ACTN    H512426   2.388   8.252   2.876
 1197ACTN    C212427   2.555   8.382   2.840
 1197ACTN    O112428   2.618   8.296   2.779
 1197ACTN    C112429   2.614   8.518   2.861
 1197ACTN    H112430   2.703   8.511   2.923
 1197ACTN    H212431   2.543   8.584   2.911
 1197ACTN    H312432   2.642   8.562   2.766
 1198ACTN    H612433   1.962   7.741   2.661
 1198ACTN    C312434   1.894   7.818   2.697
 1198ACTN    H412435   1.799   7.807   2.648
 1198ACTN    H512436   1.880   7.803   2.804
 1198ACTN    C212437   1.951   7.954   2.669
 1198ACTN    O112438   1.985   7.984   2.556
 1198ACTN    C112439   1.977   8.049   2.782
 1198ACTN    H112440   2.082   8.077   2.785
 1198ACTN    H212441   1.950   8.005   2.878
 1198ACTN    H312442   1.918   8.140   2.769
 1199ACTN    H612443   3.129   8.708   5.840
 1199ACTN    C312444   3.064   8.633   5.794
 1199ACTN    H412445   2.972   8.628   5.851
 1199ACTN    H512446   3.040   8.666   5.693
 1199ACTN    C212447   3.132   8.500   5.793
 1199ACTN    O112448   3.172   8.450   5.688
 1199ACTN    C112449   3.163   8.434   5.924
 1199ACTN    H112450   3.233   8.495   5.981
 1199ACTN    H212451   3.207   8.336   5.910
 1199ACTN    H312452   3.072   8.423   5.982
 1200ACTN    H612453   1.427   8.528   5.941
 1200ACTN    C312454   1.463   8.554   5.842
 1200ACTN    H412455   1.405   8.499   5.768
 1200ACTN    H512456   1.447   8.660   5.826
 1200ACTN    C212457   1.609   8.521   5.826
 1200ACTN    O112458   1.675   8.481   5.922
 1200ACTN    C112459   1.675   8.547   5.695
 1200ACTN    H112460   1.717   8.455   5.655
 1200ACTN    H212461   1.755   8.620   5.706
 1200ACTN    H312462   1.603   8.585   5.623
 1201ACTN    H612463   1.131   8.796   4.799
 1201ACTN    C312464   1.038   8.740   4.801
 1201ACTN    H412465   1.060   8.635   4.787
 1201ACTN    H512466   0.993   8.752   4.899
 1201ACTN    C212467   0.945   8.791   4.694
 1201ACTN    O112468   0.907   8.717   4.605
 1201ACTN    C112469   0.898   8.933   4.702
 1201ACTN    H112470   0.832   8.957   4.620
 1201ACTN    H212471   0.983   0.001   4.697
 1201ACTN    H312472   0.846   8.951   4.795
 1202ACTN    H612473   6.334   8.833   4.876
 1202ACTN    C312474   6.434   8.791   4.867
 1202ACTN    H412475   6.438   8.737   4.773
 1202ACTN    H512476   6.505   8.873   4.863
 1202ACTN    C212477   6.461   8.700   4.982
 1202ACTN    O112478   6.564   8.711   5.047
 1202ACTN    C112479   6.367   8.587   5.007
 1202ACTN    H112480   6.324   8.596   5.107
 1202ACTN    H212481   6.418   8.491   5.000
 1202ACTN    H312482   6.285   8.588   4.936
 1203ACTN    H612483   3.208   7.841   4.402
 1203ACTN    C312484   3.122   7.906   4.420
 1203ACTN    H412485   3.153   8.008   4.399
 1203ACTN    H512486   3.044   7.878   4.349
 1203ACTN    C212487   3.074   7.891   4.560
 1203ACTN    O112488   3.066   7.988   4.635
 1203ACTN    C112489   3.027   7.755   4.605
 1203ACTN    H112490   2.943   7.722   4.543
 1203ACTN    H212491   2.995   7.757   4.709
 1203ACTN    H312492   3.108   7.683   4.595
 1204ACTN    H612493   2.079   7.505   4.168
 1204ACTN    C312494   2.143   7.505   4.255
 1204ACTN    H412495   2.082   7.484   4.343
 1204ACTN    H512496   2.216   7.425   4.244
 1204ACTN    C212497   2.210   7.639   4.270
 1204ACTN    O112498   2.143   7.740   4.287
 1204ACTN    C112499   2.359   7.648   4.268
 1204ACTN    H112500   2.405   7.550   4.262
 1204ACTN    H212501   2.395   7.698   4.357
 1204ACTN    H312502   2.392   7.706   4.181
 1205ACTN    H612503   2.211   8.767   3.473
 1205ACTN    C312504   2.134   8.843   3.473
 1205ACTN    H412505   2.182   8.941   3.467
 1205ACTN    H512506   2.072   8.829   3.385
 1205ACTN    C212507   2.049   8.835   3.597
 1205ACTN    O112508   1.972   8.926   3.622
 1205ACTN    C112509   2.075   8.727   3.698
 1205ACTN    H112510   1.989   8.660   3.702
 1205ACTN    H212511   2.090   8.770   3.797
 1205ACTN    H312512   2.162   8.668   3.672
 1206ACTN    H612513   2.480   7.619   0.457
 1206ACTN    C312514   2.399   7.620   0.384
 1206ACTN    H412515   2.384   7.519   0.348
 1206ACTN    H512516   2.308   7.652   0.434
 1206ACTN    C212517   2.431   7.714   0.272
 1206ACTN    O112518   2.403   7.682   0.157
 1206ACTN    C112519   2.478   7.852   0.305
 1206ACTN    H112520   2.478   7.868   0.413
 1206ACTN    H212521   2.412   7.925   0.260
 1206ACTN    H312522   2.578   7.868   0.267
 1207ACTN    H612523   4.420   8.922   2.802
 1207ACTN    C312524   4.501   8.851   2.787
 1207ACTN    H412525   4.560   8.884   2.701
 1207ACTN    H512526   4.565   8.854   2.875
 1207ACTN    C212527   4.447   8.713   2.767
 1207ACTN    O112528   4.463   8.653   2.661
 1207ACTN    C112529   4.369   8.650   2.878
 1207ACTN    H112530   4.416   8.557   2.910
 1207ACTN    H212531   4.267   8.628   2.846
 1207ACTN    H312532   4.363   8.716   2.964
 1208ACTN    H612533   1.219   7.557   0.492
 1208ACTN    C312534   1.256   7.658   0.505
 1208ACTN    H412535   1.179   7.716   0.556
 1208ACTN    H512536   1.345   7.655   0.567
 1208ACTN    C212537   1.288   7.718   0.372
 1208ACTN    O112538   1.369   7.664   0.298
 1208ACTN    C112539   1.217   7.843   0.330
 1208ACTN    H112540   1.249   7.876   0.231
 1208ACTN    H212541   1.238   7.924   0.400
 1208ACTN    H312542   1.110   7.827   0.326
 1209ACTN    H612543   5.291   7.540   5.695
 1209ACTN    C312544   5.251   7.470   5.621
 1209ACTN    H412545   5.280   7.370   5.651
 1209ACTN    H512546   5.143   7.477   5.622
 1209ACTN    C212547   5.306   7.501   5.485
 1209ACTN    O112548   5.428   7.512   5.468
 1209ACTN    C112549   5.210   7.531   5.374
 1209ACTN    H112550   5.139   7.449   5.364
 1209ACTN    H212551   5.261   7.542   5.279
 1209ACTN    H312552   5.155   7.622   5.395
 1210ACTN    H612553   8.913   7.630   3.343
 1210ACTN    C312554   0.006   7.660   3.391
 1210ACTN    H412555   0.077   7.578   3.383
 1210ACTN    H512556   0.047   7.745   3.337
 1210ACTN    C212557   8.985   7.695   3.535
 1210ACTN    O112558   8.875   7.683   3.587
 1210ACTN    C112559   0.104   7.739   3.615
 1210ACTN    H112560   0.178   7.660   3.618
 1210ACTN    H212561   0.076   7.763   3.718
 1210ACTN    H312562   0.149   7.827   3.571
 1211ACTN    H612563   0.395   7.807   3.837
 1211ACTN    C312564   0.339   7.838   3.925
 1211ACTN    H412565   0.399   7.818   4.013
 1211ACTN    H512566   0.248   7.778   3.930
 1211ACTN    C212567   0.304   7.983   3.919
 1211ACTN    O112568   0.326   8.048   3.818
 1211ACTN    C112569   0.229   8.043   4.034
 1211ACTN    H112570   0.285   8.028   4.126
 1211ACTN    H212571   0.132   7.996   4.044
 1211ACTN    H312572   0.215   8.150   4.020
 1212ACTN    H612573   6.958   7.681   7.350
 1212ACTN    C312574   7.065   7.701   7.358
 1212ACTN    H412575   7.118   7.625   7.302
 1212ACTN    H512576   7.093   7.692   7.463
 1212ACTN    C212577   7.096   7.837   7.305
 1212ACTN    O112578   7.067   7.865   7.189
 1212ACTN    C112579   7.154   7.941   7.395
 1212ACTN    H112580   7.089   8.028   7.398
 1212ACTN    H212581   7.252   7.972   7.360
 1212ACTN    H312582   7.165   7.903   7.497
 1213ACTN    H612583   0.552   8.629   4.057
 1213ACTN    C312584   0.632   8.669   4.118
 1213ACTN    H412585   0.709   8.710   4.053
 1213ACTN    H512586   0.591   8.751   4.178
 1213ACTN    C212587   0.688   8.562   4.206
 1213ACTN    O112588   0.744   8.465   4.156
 1213ACTN    C112589   0.681   8.578   4.354
 1213ACTN    H112590   0.742   8.663   4.386
 1213ACTN    H212591   0.717   8.489   4.406
 1213ACTN    H312592   0.578   8.596   4.385
 1214ACTN    H612593   3.004   8.012   0.428
 1214ACTN    C312594   3.025   8.118   0.441
 1214ACTN    H412595   3.112   8.143   0.382
 1214ACTN    H512596   2.940   8.174   0.403
 1214ACTN    C212597   3.050   8.151   0.585
 1214ACTN    O112598   3.055   8.063   0.670
 1214ACTN    C112599   3.069   8.293   0.625
 1214ACTN    H112600   2.995   8.323   0.699
 1214ACTN    H212601   3.060   8.360   0.540
 1214ACTN    H312602   3.168   8.308   0.669
 1215ACTN    H612603   2.410   8.162   2.555
 1215ACTN    C312604   2.308   8.138   2.582
 1215ACTN    H412605   2.289   8.033   2.560
 1215ACTN    H512606   2.297   8.152   2.689
 1215ACTN    C212607   2.212   8.224   2.505
 1215ACTN    O112608   2.142   8.307   2.563
 1215ACTN    C112609   2.213   8.218   2.356
 1215ACTN    H112610   2.289   8.150   2.319
 1215ACTN    H212611   2.232   8.316   2.313
 1215ACTN    H312612   2.116   8.183   2.320
 1216ACTN    H612613   6.363   7.481   2.856
 1216ACTN    C312614   6.260   7.478   2.819
 1216ACTN    H412615   6.195   7.448   2.901
 1216ACTN    H512616   6.232   7.578   2.788
 1216ACTN    C212617   6.247   7.382   2.705
 1216ACTN    O112618   6.345   7.320   2.663
 1216ACTN    C112619   6.112   7.366   2.642
 1216ACTN    H112620   6.078   7.460   2.601
 1216ACTN    H212621   6.040   7.331   2.715
 1216ACTN    H312622   6.115   7.293   2.560
 1217ACTN    H612623   7.048   7.729   1.556
 1217ACTN    C312624   6.979   7.704   1.635
 1217ACTN    H412625   6.993   7.775   1.716
 1217ACTN    H512626   6.877   7.716   1.598
 1217ACTN    C212627   7.001   7.564   1.683
 1217ACTN    O112628   7.000   7.471   1.603
 1217ACTN    C112629   7.034   7.538   1.827
 1217ACTN    H112630   7.133   7.493   1.836
 1217ACTN    H212631   6.962   7.468   1.870
 1217ACTN    H312632   7.032   7.629   1.886
 1218ACTN    H612633   0.650   8.548   4.744
 1218ACTN    C312634   0.546   8.559   4.715
 1218ACTN    H412635   0.541   8.566   4.607
 1218ACTN    H512636   0.493   8.469   4.746
 1218ACTN    C212637   0.486   8.682   4.777
 1218ACTN    O112638   0.382   8.676   4.841
 1218ACTN    C112639   0.554   8.813   4.755
 1218ACTN    H112640   0.588   8.854   4.850
 1218ACTN    H212641   0.484   8.885   4.712
 1218ACTN    H312642   0.639   8.803   4.688
 1219ACTN    H612643   2.695   7.877   3.974
 1219ACTN    C312644   2.756   7.924   4.050
 1219ACTN    H412645   2.861   7.902   4.028
 1219ACTN    H512646   2.743   8.032   4.043
 1219ACTN    C212647   2.720   7.874   4.186
 1219ACTN    O112648   2.675   7.949   4.271
 1219ACTN    C112649   2.735   7.728   4.216
 1219ACTN    H112650   2.809   7.713   4.294
 1219ACTN    H212651   2.769   7.674   4.127
 1219ACTN    H312652   2.641   7.685   4.248
 1220ACTN    H612653   0.810   8.311   3.828
 1220ACTN    C312654   0.744   8.393   3.802
 1220ACTN    H412655   0.688   8.421   3.891
 1220ACTN    H512656   0.804   8.478   3.771
 1220ACTN    C212657   0.651   8.352   3.692
 1220ACTN    O112658   0.696   8.319   3.583
 1220ACTN    C112659   0.503   8.347   3.717
 1220ACTN    H112660   0.465   8.247   3.698
 1220ACTN    H212661   0.452   8.416   3.651
 1220ACTN    H312662   0.480   8.373   3.820
 1221ACTN    H612663   6.909   8.248   4.816
 1221ACTN    C312664   6.816   8.208   4.855
 1221ACTN    H412665   6.776   8.138   4.782
 1221ACTN    H512666   6.838   8.154   4.946
 1221ACTN    C212667   6.717   8.317   4.883
 1221ACTN    O112668   6.603   8.288   4.917
 1221ACTN    C112669   6.755   8.461   4.859
 1221ACTN    H112670   6.857   8.469   4.823
 1221ACTN    H212671   6.746   8.517   4.952
 1221ACTN    H312672   6.688   8.506   4.786
 1222ACTN    H612673   0.546   8.716   7.239
 1222ACTN    C312674   0.456   8.714   7.300
 1222ACTN    H412675   0.400   8.625   7.274
 1222ACTN    H512676   0.486   8.708   7.404
 1222ACTN    C212677   0.373   8.836   7.274
 1222ACTN    O112678   0.335   8.863   7.160
 1222ACTN    C112679   0.335   8.922   7.390
 1222ACTN    H112680   0.425   8.962   7.437
 1222ACTN    H212681   0.281   8.862   7.464
 1222ACTN    H312682   0.271   0.004   7.359
 1223ACTN    H612683   4.811   8.383   2.427
 1223ACTN    C312684   4.715   8.346   2.390
 1223ACTN    H412685   4.669   8.425   2.332
 1223ACTN    H512686   4.735   8.262   2.324
 1223ACTN    C212687   4.626   8.304   2.502
 1223ACTN    O112688   4.515   8.258   2.478
 1223ACTN    C112689   4.671   8.319   2.645
 1223ACTN    H112690   4.677   8.222   2.693
 1223ACTN    H212691   4.601   8.381   2.700
 1223ACTN    H312692   4.769   8.366   2.650
 1224ACTN    H612693   5.626   8.492   2.177
 1224ACTN    C312694   5.599   8.394   2.215
 1224ACTN    H412695   5.646   8.318   2.152
 1224ACTN    H512696   5.492   8.383   2.208
 1224ACTN    C212697   5.644   8.377   2.358
 1224ACTN    O112698   5.612   8.276   2.420
 1224ACTN    C112699   5.719   8.487   2.426
 1224ACTN    H112700   5.817   8.451   2.458
 1224ACTN    H212701   5.665   8.521   2.513
 1224ACTN    H312702   5.735   8.571   2.359
 1225ACTN    H612703   2.689   7.828   6.094
 1225ACTN    C312704   2.645   7.839   6.192
 1225ACTN    H412705   2.639   7.741   6.239
 1225ACTN    H512706   2.710   7.902   6.253
 1225ACTN    C212707   2.509   7.901   6.181
 1225ACTN    O112708   2.498   8.021   6.156
 1225ACTN    C112709   2.390   7.820   6.223
 1225ACTN    H112710   2.385   7.728   6.165
 1225ACTN    H212711   2.297   7.875   6.206
 1225ACTN    H312712   2.396   7.795   6.328
 1226ACTN    H612713   0.996   7.967   1.078
 1226ACTN    C312714   1.015   7.869   1.035
 1226ACTN    H412715   1.014   7.795   1.114
 1226ACTN    H512716   0.935   7.846   0.965
 1226ACTN    C212717   1.147   7.868   0.965
 1226ACTN    O112718   1.250   7.889   1.028
 1226ACTN    C112719   1.152   7.842   0.817
 1226ACTN    H112720   1.254   7.839   0.780
 1226ACTN    H212721   1.099   7.922   0.764
 1226ACTN    H312722   1.103   7.748   0.794
 1227ACTN    H612723   0.235   7.631   5.265
 1227ACTN    C312724   0.223   7.644   5.158
 1227ACTN    H412725   0.215   7.545   5.113
 1227ACTN    H512726   0.131   7.698   5.139
 1227ACTN    C212727   0.340   7.719   5.101
 1227ACTN    O112728   0.409   7.671   5.013
 1227ACTN    C112729   0.367   7.858   5.149
 1227ACTN    H112730   0.292   7.890   5.220
 1227ACTN    H212731   0.368   7.927   5.066
 1227ACTN    H312732   0.464   7.862   5.198
 1228ACTN    H612733   6.666   8.649   1.239
 1228ACTN    C312734   6.662   8.549   1.196
 1228ACTN    H412735   6.762   8.508   1.196
 1228ACTN    H512736   6.599   8.487   1.260
 1228ACTN    C212737   6.606   8.554   1.057
 1228ACTN    O112738   6.497   8.607   1.036
 1228ACTN    C112739   6.689   8.502   0.944
 1228ACTN    H112740   6.636   8.507   0.849
 1228ACTN    H212741   6.717   8.398   0.962
 1228ACTN    H312742   6.780   8.561   0.935
 1229ACTN    H612743   2.396   7.840   2.706
 1229ACTN    C312744   2.382   7.809   2.810
 1229ACTN    H412745   2.280   7.833   2.840
 1229ACTN    H512746   2.394   7.701   2.815
 1229ACTN    C212747   2.480   7.879   2.898
 1229ACTN    O112748   2.476   8.000   2.912
 1229ACTN    C112749   2.579   7.797   2.975
 1229ACTN    H112750   2.644   7.860   3.036
 1229ACTN    H212751   2.642   7.740   2.907
 1229ACTN    H312752   2.527   7.728   3.042
 1230ACTN    H612753   1.272   7.272   4.757
 1230ACTN    C312754   1.272   7.375   4.724
 1230ACTN    H412755   1.172   7.416   4.739
 1230ACTN    H512756   1.341   7.432   4.786
 1230ACTN    C212757   1.312   7.383   4.580
 1230ACTN    O112758   1.238   7.436   4.498
 1230ACTN    C112759   1.447   7.330   4.541
 1230ACTN    H112760   1.465   7.343   4.435
 1230ACTN    H212761   1.453   7.224   4.564
 1230ACTN    H312762   1.525   7.382   4.596
 1231ACTN    H612763   1.603   7.884   3.241
 1231ACTN    C312764   1.646   7.829   3.324
 1231ACTN    H412765   1.746   7.868   3.342
 1231ACTN    H512766   1.587   7.849   3.413
 1231ACTN    C212767   1.652   7.683   3.293
 1231ACTN    O112768   1.711   7.644   3.193
 1231ACTN    C112769   1.581   7.585   3.381
 1231ACTN    H112770   1.509   7.526   3.324
 1231ACTN    H212771   1.527   7.636   3.461
 1231ACTN    H312772   1.652   7.517   3.427
 1232ACTN    H612773   7.141   7.626   1.221
 1232ACTN    C312774   7.087   7.720   1.208
 1232ACTN    H412775   7.126   7.793   1.278
 1232ACTN    H512776   7.106   7.755   1.107
 1232ACTN    C212777   6.940   7.699   1.229
 1232ACTN    O112778   6.863   7.795   1.222
 1232ACTN    C112779   6.888   7.563   1.261
 1232ACTN    H112780   6.906   7.496   1.177
 1232ACTN    H212781   6.782   7.563   1.282
 1232ACTN    H312782   6.940   7.522   1.347
 1233ACTN    H612783   2.998   7.813   0.770
 1233ACTN    C312784   2.903   7.768   0.798
 1233ACTN    H412785   2.923   7.693   0.875
 1233ACTN    H512786   2.840   7.845   0.841
 1233ACTN    C212787   2.838   7.707   0.678
 1233ACTN    O112788   2.817   7.586   0.672
 1233ACTN    C112789   2.799   7.796   0.563
 1233ACTN    H112790   2.846   7.761   0.472
 1233ACTN    H212791   2.831   7.898   0.582
 1233ACTN    H312792   2.691   7.795   0.550
 1234ACTN    H612793   4.418   8.682   0.140
 1234ACTN    C312794   4.375   8.765   0.196
 1234ACTN    H412795   4.420   8.767   0.295
 1234ACTN    H512796   4.400   8.858   0.144
 1234ACTN    C212797   4.227   8.747   0.207
 1234ACTN    O112798   4.149   8.832   0.164
 1234ACTN    C112799   4.175   8.621   0.271
 1234ACTN    H112800   4.112   8.645   0.356
 1234ACTN    H212801   4.257   8.559   0.306
 1234ACTN    H312802   4.116   8.564   0.200
 1235ACTN    H612803   7.133   8.149   7.127
 1235ACTN    C312804   7.239   8.166   7.111
 1235ACTN    H412805   7.250   8.248   7.041
 1235ACTN    H512806   7.284   8.196   7.206
 1235ACTN    C212807   7.303   8.042   7.057
 1235ACTN    O112808   7.393   7.985   7.119
 1235ACTN    C112809   7.258   7.990   6.924
 1235ACTN    H112810   7.275   8.065   6.847
 1235ACTN    H212811   7.151   7.968   6.927
 1235ACTN    H312812   7.310   7.899   6.897
 1236ACTN    H612813   1.219   7.789   3.891
 1236ACTN    C312814   1.300   7.717   3.906
 1236ACTN    H412815   1.330   7.721   4.010
 1236ACTN    H512816   1.261   7.618   3.886
 1236ACTN    C212817   1.415   7.751   3.817
 1236ACTN    O112818   1.461   7.668   3.739
 1236ACTN    C112819   1.477   7.887   3.828
 1236ACTN    H112820   1.464   7.941   3.735
 1236ACTN    H212821   1.584   7.878   3.848
 1236ACTN    H312822   1.431   7.945   3.908
 1237ACTN    H612823   3.110   8.458   2.396
 1237ACTN    C312824   3.026   8.405   2.441
 1237ACTN    H412825   3.003   8.453   2.536
 1237ACTN    H512826   3.057   8.303   2.460
 1237ACTN    C212827   2.906   8.408   2.351
 1237ACTN    O112828   2.800   8.361   2.391
 1237ACTN    C112829   2.915   8.479   2.220
 1237ACTN    H112830   2.926   8.586   2.236
 1237ACTN    H212831   2.826   8.462   2.159
 1237ACTN    H312832   3.001   8.444   2.164
 1238ACTN    H612833   4.620   7.836   4.007
 1238ACTN    C312834   4.531   7.898   4.003
 1238ACTN    H412835   4.454   7.845   3.947
 1238ACTN    H512836   4.495   7.913   4.104
 1238ACTN    C212837   4.558   8.031   3.939
 1238ACTN    O112838   4.665   8.049   3.881
 1238ACTN    C112839   4.446   8.130   3.929
 1238ACTN    H112840   4.482   8.225   3.892
 1238ACTN    H212841   4.401   8.146   4.027
 1238ACTN    H312842   4.369   8.093   3.862
 1239ACTN    H612843   6.786   8.543   6.118
 1239ACTN    C312844   6.884   8.584   6.099
 1239ACTN    H412845   6.873   8.664   6.025
 1239ACTN    H512846   6.922   8.629   6.191
 1239ACTN    C212847   6.978   8.478   6.050
 1239ACTN    O112848   7.005   8.383   6.123
 1239ACTN    C112849   7.044   8.494   5.917
 1239ACTN    H112850   6.969   8.504   5.839
 1239ACTN    H212851   7.106   8.408   5.894
 1239ACTN    H312852   7.107   8.583   5.917
 1240ACTN    H612853   1.032   7.511   3.435
 1240ACTN    C312854   0.948   7.479   3.496
 1240ACTN    H412855   0.985   7.414   3.575
 1240ACTN    H512856   0.880   7.422   3.434
 1240ACTN    C212857   0.877   7.597   3.554
 1240ACTN    O112858   0.825   7.679   3.479
 1240ACTN    C112859   0.866   7.611   3.703
 1240ACTN    H112860   0.806   7.529   3.743
 1240ACTN    H212861   0.820   7.705   3.731
 1240ACTN    H312862   0.965   7.606   3.748
 1241ACTN    H612863   0.666   8.745   5.855
 1241ACTN    C312864   0.679   8.780   5.957
 1241ACTN    H412865   0.647   8.884   5.962
 1241ACTN    H512866   0.614   8.721   6.021
 1241ACTN    C212867   0.822   8.767   5.998
 1241ACTN    O112868   0.908   8.838   5.945
 1241ACTN    C112869   0.860   8.677   6.111
 1241ACTN    H112870   0.910   8.733   6.190
 1241ACTN    H212871   0.928   8.600   6.076
 1241ACTN    H312872   0.773   8.629   6.154
 1242ACTN    H612873   5.349   7.795   4.512
 1242ACTN    C312874   5.305   7.886   4.471
 1242ACTN    H412875   5.382   7.963   4.468
 1242ACTN    H512876   5.274   7.866   4.369
 1242ACTN    C212877   5.190   7.930   4.556
 1242ACTN    O112878   5.077   7.938   4.509
 1242ACTN    C112879   5.216   7.969   4.698
 1242ACTN    H112880   5.125   7.999   4.748
 1242ACTN    H212881   5.286   8.053   4.702
 1242ACTN    H312882   5.260   7.886   4.752
 1243ACTN    H612883   0.474   0.101   6.429
 1243ACTN    C312884   0.501   0.001   6.397
 1243ACTN    H412885   0.435   8.972   6.315
 1243ACTN    H512886   0.603   0.004   6.359
 1243ACTN    C212887   0.488   8.905   6.511
 1243ACTN    O112888   0.380   8.889   6.567
 1243ACTN    C112889   0.609   8.824   6.549
 1243ACTN    H112890   0.638   8.758   6.469
 1243ACTN    H212891   0.590   8.764   6.638
 1243ACTN    H312892   0.692   8.890   6.571
 1244ACTN    H612893   5.594   7.436   0.360
 1244ACTN    C312894   5.619   7.525   0.416
 1244ACTN    H412895   5.537   7.596   0.406
 1244ACTN    H512896   5.628   7.498   0.521
 1244ACTN    C212897   5.746   7.586   0.367
 1244ACTN    O112898   5.793   7.684   0.424
 1244ACTN    C112899   5.816   7.524   0.249
 1244ACTN    H112900   5.908   7.577   0.226
 1244ACTN    H212901   5.752   7.530   0.162
 1244ACTN    H312902   5.839   7.420   0.269
 1245ACTN    H612903   6.443   7.271   3.694
 1245ACTN    C312904   6.445   7.308   3.796
 1245ACTN    H412905   6.342   7.323   3.829
 1245ACTN    H512906   6.490   7.231   3.858
 1245ACTN    C212907   6.523   7.435   3.806
 1245ACTN    O112908   6.533   7.492   3.914
 1245ACTN    C112909   6.583   7.493   3.682
 1245ACTN    H112910   6.506   7.510   3.607
 1245ACTN    H212911   6.657   7.425   3.640
 1245ACTN    H312912   6.632   7.588   3.702
 1246ACTN    H612913   1.257   8.826   1.194
 1246ACTN    C312914   1.208   8.738   1.236
 1246ACTN    H412915   1.172   8.763   1.335
 1246ACTN    H512916   1.123   8.714   1.173
 1246ACTN    C212917   1.301   8.621   1.243
 1246ACTN    O112918   1.422   8.636   1.229
 1246ACTN    C112919   1.244   8.489   1.283
 1246ACTN    H112920   1.202   8.495   1.383
 1246ACTN    H212921   1.319   8.411   1.282
 1246ACTN    H312922   1.164   8.460   1.215
 1247ACTN    H612923   1.358   7.432   5.023
 1247ACTN    C312924   1.390   7.506   5.096
 1247ACTN    H412925   1.397   7.456   5.193
 1247ACTN    H512926   1.489   7.541   5.068
 1247ACTN    C212927   1.292   7.620   5.100
 1247ACTN    O112928   1.276   7.691   5.002
 1247ACTN    C112929   1.217   7.648   5.226
 1247ACTN    H112930   1.238   7.749   5.262
 1247ACTN    H212931   1.246   7.579   5.305
 1247ACTN    H312932   1.110   7.639   5.210
 1248ACTN    H612933   6.657   7.709   4.297
 1248ACTN    C312934   6.686   7.678   4.197
 1248ACTN    H412935   6.780   7.625   4.204
 1248ACTN    H512936   6.611   7.609   4.160
 1248ACTN    C212937   6.697   7.796   4.105
 1248ACTN    O112938   6.602   7.872   4.094
 1248ACTN    C112939   6.827   7.824   4.036
 1248ACTN    H112940   6.866   7.920   4.067
 1248ACTN    H212941   6.811   7.827   3.928
 1248ACTN    H312942   6.900   7.747   4.057
 1249ACTN    H612943   1.132   7.881   4.152
 1249ACTN    C312944   1.092   7.808   4.221
 1249ACTN    H412945   1.155   7.719   4.218
 1249ACTN    H512946   1.096   7.849   4.321
 1249ACTN    C212947   0.951   7.772   4.184
 1249ACTN    O112948   0.890   7.689   4.250
 1249ACTN    C112949   0.888   7.836   4.064
 1249ACTN    H112950   0.784   7.807   4.054
 1249ACTN    H212951   0.941   7.806   3.974
 1249ACTN    H312952   0.894   7.944   4.072
 1250ACTN    H612953   2.439   8.107   4.099
 1250ACTN    C312954   2.428   8.112   3.991
 1250ACTN    H412955   2.372   8.202   3.966
 1250ACTN    H512956   2.528   8.122   3.948
 1250ACTN    C212957   2.358   7.991   3.938
 1250ACTN    O112958   2.414   7.916   3.859
 1250ACTN    C112959   2.216   7.965   3.978
 1250ACTN    H112960   2.152   7.964   3.890
 1250ACTN    H212961   2.180   8.042   4.046
 1250ACTN    H312962   2.207   7.869   4.028
 1251ACTN    H612963   1.979   7.660   4.510
 1251ACTN    C312964   1.876   7.635   4.533
 1251ACTN    H412965   1.875   7.541   4.587
 1251ACTN    H512966   1.836   7.712   4.598
 1251ACTN    C212967   1.796   7.626   4.406
 1251ACTN    O112968   1.732   7.525   4.379
 1251ACTN    C112969   1.791   7.745   4.316
 1251ACTN    H112970   1.832   7.719   4.218
 1251ACTN    H212971   1.850   7.827   4.356
 1251ACTN    H312972   1.689   7.779   4.302
 1252ACTN    H612973   0.198   7.417   3.984
 1252ACTN    C312974   0.278   7.375   3.923
 1252ACTN    H412975   0.309   7.281   3.967
 1252ACTN    H512976   0.237   7.354   3.824
 1252ACTN    C212977   0.393   7.470   3.915
 1252ACTN    O112978   0.435   7.510   3.807
 1252ACTN    C112979   0.457   7.513   4.043
 1252ACTN    H112980   0.385   7.565   4.106
 1252ACTN    H212981   0.541   7.580   4.025
 1252ACTN    H312982   0.494   7.427   4.099
 1253ACTN    H612983   0.502   7.714   4.502
 1253ACTN    C312984   0.607   7.687   4.491
 1253ACTN    H412985   0.613   7.579   4.483
 1253ACTN    H512986   0.643   7.730   4.398
 1253ACTN    C212987   0.689   7.735   4.606
 1253ACTN    O112988   0.639   7.805   4.694
 1253ACTN    C112989   0.833   7.698   4.613
 1253ACTN    H112990   0.843   7.590   4.620
 1253ACTN    H212991   0.883   7.742   4.699
 1253ACTN    H312992   0.885   7.730   4.523
 1254ACTN    H612993   1.077   8.065   3.295
 1254ACTN    C312994   1.098   8.097   3.193
 1254ACTN    H412995   1.075   8.014   3.126
 1254ACTN    H512996   1.033   8.181   3.169
 1254ACTN    C212997   1.242   8.134   3.180
 1254ACTN    O112998   1.274   8.249   3.149
 1254ACTN    C112999   1.346   8.033   3.215
 1254ACTN    H113000   1.331   7.942   3.156
 1254ACTN    H213001   1.341   8.007   3.321
 1254ACTN    H313002   1.447   8.070   3.194
 1255ACTN    H613003   2.159   8.555   4.011
 1255ACTN    C313004   2.240   8.486   3.991
 1255ACTN    H413005   2.333   8.542   3.980
 1255ACTN    H513006   2.251   8.419   4.076
 1255ACTN    C213007   2.210   8.406   3.867
 1255ACTN    O113008   2.289   8.402   3.774
 1255ACTN    C113009   2.083   8.328   3.864
 1255ACTN    H113010   2.079   8.258   3.948
 1255ACTN    H213011   2.073   8.271   3.772
 1255ACTN    H313012   1.997   8.394   3.872
 1256ACTN    H613013   3.375   8.528   1.979
 1256ACTN    C313014   3.475   8.485   1.971
 1256ACTN    H413015   3.471   8.381   2.003
 1256ACTN    H513016   3.504   8.486   1.866
 1256ACTN    C213017   3.573   8.561   2.053
 1256ACTN    O113018   3.693   8.544   2.035
 1256ACTN    C113019   3.523   8.668   2.145
 1256ACTN    H113020   3.451   8.626   2.215
 1256ACTN    H213021   3.474   8.747   2.089
 1256ACTN    H313022   3.604   8.712   2.203
 1257ACTN    H613023   3.006   7.703   6.428
 1257ACTN    C313024   3.039   7.757   6.339
 1257ACTN    H413025   3.003   7.703   6.252
 1257ACTN    H513026   2.993   7.856   6.340
 1257ACTN    C213027   3.188   7.769   6.338
 1257ACTN    O113028   3.246   7.824   6.431
 1257ACTN    C113029   3.267   7.717   6.222
 1257ACTN    H113030   3.202   7.676   6.146
 1257ACTN    H213031   3.334   7.637   6.256
 1257ACTN    H313032   3.328   7.796   6.178
 1258ACTN    H613033   5.786   0.022   5.662
 1258ACTN    C313034   5.825   8.921   5.674
 1258ACTN    H413035   5.866   8.889   5.578
 1258ACTN    H513036   5.906   8.924   5.746
 1258ACTN    C213037   5.718   8.828   5.721
 1258ACTN    O113038   5.649   8.858   5.818
 1258ACTN    C113039   5.690   8.704   5.642
 1258ACTN    H113040   5.610   8.645   5.687
 1258ACTN    H213041   5.779   8.642   5.636
 1258ACTN    H313042   5.660   8.730   5.540
 1259ACTN    H613043   3.323   8.055   4.936
 1259ACTN    C313044   3.386   7.967   4.923
 1259ACTN    H413045   3.456   7.987   4.842
 1259ACTN    H513046   3.444   7.951   5.014
 1259ACTN    C213047   3.301   7.847   4.894
 1259ACTN    O113048   3.318   7.781   4.791
 1259ACTN    C113049   3.195   7.808   4.992
 1259ACTN    H113050   3.215   7.709   5.032
 1259ACTN    H213051   3.098   7.807   4.944
 1259ACTN    H313052   3.192   7.878   5.075
 1260ACTN    H613053   1.743   8.656   4.859
 1260ACTN    C313054   1.746   8.764   4.864
 1260ACTN    H413055   1.821   8.793   4.938
 1260ACTN    H513056   1.776   8.803   4.767
 1260ACTN    C213057   1.611   8.817   4.904
 1260ACTN    O113058   1.544   8.882   4.825
 1260ACTN    C113059   1.556   8.779   5.038
 1260ACTN    H113060   1.542   8.671   5.042
 1260ACTN    H213061   1.461   8.827   5.057
 1260ACTN    H313062   1.626   8.808   5.116
 1261ACTN    H613063   3.517   8.403   3.741
 1261ACTN    C313064   3.424   8.353   3.714
 1261ACTN    H413065   3.448   8.249   3.691
 1261ACTN    H513066   3.386   8.400   3.624
 1261ACTN    C213067   3.324   8.363   3.825
 1261ACTN    O113068   3.280   8.263   3.880
 1261ACTN    C113069   3.280   8.499   3.871
 1261ACTN    H113070   3.327   8.577   3.812
 1261ACTN    H213071   3.308   8.514   3.975
 1261ACTN    H313072   3.172   8.508   3.863
 1262ACTN    H613073   1.784   7.797   1.649
 1262ACTN    C313074   1.840   7.811   1.740
 1262ACTN    H413075   1.820   7.727   1.807
 1262ACTN    H513076   1.946   7.810   1.716
 1262ACTN    C213077   1.802   7.940   1.807
 1262ACTN    O113078   1.685   7.961   1.837
 1262ACTN    C113079   1.907   8.043   1.830
 1262ACTN    H113080   1.866   8.131   1.880
 1262ACTN    H213081   1.950   8.075   1.736
 1262ACTN    H313082   1.986   8.003   1.892
 1263ACTN    H613083   2.806   7.329   5.790
 1263ACTN    C313084   2.840   7.418   5.738
 1263ACTN    H413085   2.949   7.418   5.737
 1263ACTN    H513086   2.805   7.412   5.635
 1263ACTN    C213087   2.788   7.541   5.806
 1263ACTN    O113088   2.714   7.620   5.747
 1263ACTN    C113089   2.821   7.565   5.950
 1263ACTN    H113090   2.877   7.657   5.962
 1263ACTN    H213091   2.880   7.483   5.990
 1263ACTN    H313092   2.730   7.572   6.009
 1264ACTN    H613093   3.220   8.234   0.047
 1264ACTN    C313094   3.135   8.300   0.032
 1264ACTN    H413095   3.165   8.379   8.963
 1264ACTN    H513096   3.056   8.242   8.985
 1264ACTN    C213097   3.090   8.358   0.162
 1264ACTN    O113098   2.970   8.368   0.188
 1264ACTN    C113099   3.191   8.423   0.251
 1264ACTN    H113100   3.166   8.528   0.267
 1264ACTN    H213101   3.290   8.418   0.208
 1264ACTN    H313102   3.193   8.374   0.348
 1265ACTN    H613103   2.976   7.976   5.278
 1265ACTN    C313104   2.901   7.899   5.262
 1265ACTN    H413105   2.942   7.825   5.194
 1265ACTN    H513106   2.882   7.849   5.356
 1265ACTN    C213107   2.776   7.957   5.205
 1265ACTN    O113108   2.674   7.967   5.273
 1265ACTN    C113109   2.781   8.013   5.066
 1265ACTN    H113110   2.685   8.054   5.036
 1265ACTN    H213111   2.808   7.935   4.996
 1265ACTN    H313112   2.855   8.092   5.060
 1266ACTN    H613113   4.081   7.688   3.916
 1266ACTN    C313114   4.058   7.626   4.002
 1266ACTN    H413115   4.010   7.688   4.077
 1266ACTN    H513116   3.989   7.548   3.972
 1266ACTN    C213117   4.183   7.566   4.059
 1266ACTN    O113118   4.175   7.481   4.148
 1266ACTN    C113119   4.317   7.600   4.001
 1266ACTN    H113120   4.378   7.648   4.077
 1266ACTN    H213121   4.306   7.668   3.917
 1266ACTN    H313122   4.368   7.511   3.967
 1267ACTN    H613123   2.083   7.960   4.448
 1267ACTN    C313124   2.112   8.065   4.456
 1267ACTN    H413125   2.023   8.126   4.446
 1267ACTN    H513126   2.155   8.081   4.555
 1267ACTN    C213127   2.213   8.098   4.350
 1267ACTN    O113128   2.193   8.188   4.270
 1267ACTN    C113129   2.343   8.024   4.350
 1267ACTN    H113130   2.427   8.094   4.353
 1267ACTN    H213131   2.352   7.963   4.261
 1267ACTN    H313132   2.351   7.959   4.437
 1268ACTN    H613133   5.984   8.247   5.586
 1268ACTN    C313134   5.930   8.278   5.675
 1268ACTN    H413135   5.974   8.231   5.762
 1268ACTN    H513136   5.941   8.386   5.685
 1268ACTN    C213137   5.785   8.241   5.663
 1268ACTN    O113138   5.697   8.324   5.680
 1268ACTN    C113139   5.751   8.096   5.644
 1268ACTN    H113140   5.643   8.082   5.633
 1268ACTN    H213141   5.783   8.038   5.730
 1268ACTN    H313142   5.800   8.057   5.556
 1269ACTN    H613143   1.619   7.867   2.280
 1269ACTN    C313144   1.701   7.915   2.333
 1269ACTN    H413145   1.665   8.009   2.374
 1269ACTN    H513146   1.731   7.851   2.415
 1269ACTN    C213147   1.817   7.938   2.241
 1269ACTN    O113148   1.867   7.844   2.180
 1269ACTN    C113149   1.865   8.078   2.218
 1269ACTN    H113150   1.890   8.124   2.313
 1269ACTN    H213151   1.787   8.137   2.171
 1269ACTN    H313152   1.953   8.080   2.154
 1270ACTN    H613153   0.874   7.776   6.538
 1270ACTN    C313154   0.924   7.825   6.622
 1270ACTN    H413155   0.965   7.748   6.687
 1270ACTN    H513156   1.006   7.884   6.584
 1270ACTN    C213157   0.825   7.908   6.698
 1270ACTN    O113158   0.840   8.030   6.706
 1270ACTN    C113159   0.705   7.843   6.760
 1270ACTN    H113160   0.704   7.862   6.867
 1270ACTN    H213161   0.708   7.736   6.744
 1270ACTN    H313162   0.614   7.883   6.716
 1271ACTN    H613163   0.486   7.567   6.845
 1271ACTN    C313164   0.436   7.516   6.764
 1271ACTN    H413165   0.503   7.513   6.678
 1271ACTN    H513166   0.417   7.413   6.795
 1271ACTN    C213167   0.307   7.584   6.730
 1271ACTN    O113168   0.286   7.629   6.617
 1271ACTN    C113169   0.205   7.598   6.838
 1271ACTN    H113170   0.243   7.659   6.919
 1271ACTN    H213171   0.179   7.500   6.878
 1271ACTN    H313172   0.113   7.644   6.801
 1272ACTN    H613173   6.659   8.841   6.236
 1272ACTN    C313174   6.681   8.822   6.341
 1272ACTN    H413175   6.772   8.763   6.346
 1272ACTN    H513176   6.700   8.917   6.389
 1272ACTN    C213177   6.568   8.748   6.406
 1272ACTN    O113178   6.509   8.796   6.503
 1272ACTN    C113179   6.530   8.613   6.354
 1272ACTN    H113180   6.592   8.585   6.270
 1272ACTN    H213181   6.426   8.613   6.321
 1272ACTN    H313182   6.541   8.538   6.432
 1273ACTN    H613183   0.586   7.962   3.490
 1273ACTN    C313184   0.618   7.962   3.594
 1273ACTN    H413185   0.555   8.030   3.650
 1273ACTN    H513186   0.604   7.862   3.634
 1273ACTN    C213187   0.762   8.003   3.605
 1273ACTN    O113188   0.815   8.010   3.716
 1273ACTN    C113189   0.840   8.033   3.481
 1273ACTN    H113190   0.840   7.947   3.415
 1273ACTN    H213191   0.943   8.059   3.504
 1273ACTN    H313192   0.795   8.116   3.428
 1274ACTN    H613193   1.809   8.010   5.111
 1274ACTN    C313194   1.850   8.077   5.035
 1274ACTN    H413195   1.780   8.159   5.021
 1274ACTN    H513196   1.943   8.117   5.074
 1274ACTN    C213197   1.872   8.003   4.907
 1274ACTN    O113198   1.780   7.943   4.853
 1274ACTN    C113199   2.008   8.002   4.844
 1274ACTN    H113200   2.005   8.049   4.747
 1274ACTN    H213201   2.043   7.900   4.832
 1274ACTN    H313202   2.080   8.055   4.906
 1275ACTN    H613203   6.905   8.169   0.069
 1275ACTN    C313204   6.969   8.219   0.140
 1275ACTN    H413205   7.010   8.144   0.208
 1275ACTN    H513206   7.051   8.265   0.086
 1275ACTN    C213207   6.891   8.322   0.215
 1275ACTN    O113208   6.884   8.319   0.337
 1275ACTN    C113209   6.825   8.432   0.138
 1275ACTN    H113210   6.770   8.499   0.203
 1275ACTN    H213211   6.756   8.390   0.065
 1275ACTN    H313212   6.900   8.491   0.084
 1276ACTN    H613213   5.931   8.013   3.613
 1276ACTN    C313214   5.880   8.097   3.566
 1276ACTN    H413215   5.855   8.070   3.463
 1276ACTN    H513216   5.787   8.115   3.619
 1276ACTN    C213217   5.965   8.220   3.570
 1276ACTN    O113218   5.993   8.282   3.467
 1276ACTN    C113219   6.016   8.267   3.703
 1276ACTN    H113220   6.070   8.188   3.754
 1276ACTN    H213221   5.933   8.299   3.765
 1276ACTN    H313222   6.083   8.352   3.691
 1277ACTN    H613223   0.606   8.205   0.571
 1277ACTN    C313224   0.627   8.115   0.512
 1277ACTN    H413225   0.666   8.039   0.579
 1277ACTN    H513226   0.533   8.079   0.470
 1277ACTN    C213227   0.726   8.144   0.404
 1277ACTN    O113228   0.770   8.257   0.387
 1277ACTN    C113229   0.765   8.031   0.313
 1277ACTN    H113230   0.816   7.954   0.370
 1277ACTN    H213231   0.832   8.066   0.235
 1277ACTN    H313232   0.677   7.988   0.266
 1278ACTN    H613233   3.586   7.290   5.782
 1278ACTN    C313234   3.644   7.378   5.809
 1278ACTN    H413235   3.727   7.386   5.740
 1278ACTN    H513236   3.581   7.465   5.798
 1278ACTN    C213237   3.695   7.369   5.950
 1278ACTN    O113238   3.755   7.464   5.998
 1278ACTN    C113239   3.661   7.250   6.034
 1278ACTN    H113240   3.592   7.183   5.982
 1278ACTN    H213241   3.615   7.281   6.128
 1278ACTN    H313242   3.751   7.193   6.057
 1279ACTN    H613243   0.208   8.163   3.576
 1279ACTN    C313244   0.210   8.231   3.492
 1279ACTN    H413245   0.145   8.315   3.514
 1279ACTN    H513246   0.311   8.268   3.479
 1279ACTN    C213247   0.164   8.163   3.366
 1279ACTN    O113248   0.112   8.052   3.369
 1279ACTN    C113249   0.173   8.237   3.236
 1279ACTN    H113250   0.076   8.241   3.187
 1279ACTN    H213251   0.244   8.189   3.170
 1279ACTN    H313252   0.207   8.339   3.253
 1280ACTN    H613253   4.878   7.180   5.778
 1280ACTN    C313254   4.780   7.216   5.809
 1280ACTN    H413255   4.707   7.190   5.733
 1280ACTN    H513256   4.752   7.163   5.900
 1280ACTN    C213257   4.780   7.364   5.832
 1280ACTN    O113258   4.872   7.433   5.791
 1280ACTN    C113259   4.657   7.428   5.888
 1280ACTN    H113260   4.677   7.467   5.988
 1280ACTN    H213261   4.575   7.357   5.894
 1280ACTN    H313262   4.625   7.512   5.826
 1281ACTN    H613263   6.880   8.142   4.556
 1281ACTN    C313264   6.826   8.137   4.462
 1281ACTN    H413265   6.846   8.228   4.406
 1281ACTN    H513266   6.865   8.053   4.405
 1281ACTN    C213267   6.679   8.119   4.487
 1281ACTN    O113268   6.639   8.022   4.549
 1281ACTN    C113269   6.585   8.223   4.435
 1281ACTN    H113270   6.608   8.320   4.478
 1281ACTN    H213271   6.482   8.198   4.461
 1281ACTN    H313272   6.592   8.230   4.327
 1282ACTN    H613273   0.855   8.135   3.013
 1282ACTN    C313274   0.763   8.094   2.972
 1282ACTN    H413275   0.710   8.175   2.923
 1282ACTN    H513276   0.789   8.021   2.896
 1282ACTN    C213277   0.679   8.031   3.078
 1282ACTN    O113278   0.727   7.945   3.151
 1282ACTN    C113279   0.540   8.079   3.102
 1282ACTN    H113280   0.528   8.115   3.204
 1282ACTN    H213281   0.469   7.998   3.086
 1282ACTN    H313282   0.514   8.160   3.034
 1283ACTN    H613283   5.355   8.791   5.029
 1283ACTN    C313284   5.293   8.785   4.939
 1283ACTN    H413285   5.306   8.687   4.895
 1283ACTN    H513286   5.189   8.796   4.968
 1283ACTN    C213287   5.332   8.892   4.842
 1283ACTN    O113288   5.328   0.010   4.874
 1283ACTN    C113289   5.375   8.851   4.704
 1283ACTN    H113290   5.399   8.938   4.642
 1283ACTN    H213291   5.297   8.794   4.655
 1283ACTN    H313292   5.464   8.789   4.710
 1284ACTN    H613293   4.849   8.341   4.735
 1284ACTN    C313294   4.783   8.356   4.651
 1284ACTN    H413295   4.788   8.461   4.622
 1284ACTN    H513296   4.819   8.297   4.567
 1284ACTN    C213297   4.641   8.319   4.683
 1284ACTN    O113298   4.611   8.276   4.794
 1284ACTN    C113299   4.538   8.331   4.576
 1284ACTN    H113300   4.438   8.309   4.613
 1284ACTN    H213301   4.560   8.263   4.494
 1284ACTN    H313302   4.537   8.432   4.536
 1285ACTN    H613303   0.309   7.802   7.127
 1285ACTN    C313304   0.417   7.813   7.130
 1285ACTN    H413305   0.452   7.841   7.032
 1285ACTN    H513306   0.441   7.894   7.199
 1285ACTN    C213307   0.484   7.687   7.175
 1285ACTN    O113308   0.607   7.680   7.181
 1285ACTN    C113309   0.403   7.565   7.204
 1285ACTN    H113310   0.435   7.482   7.141
 1285ACTN    H213311   0.297   7.583   7.185
 1285ACTN    H313312   0.414   7.536   7.308
 1286ACTN    H613313   2.845   7.598   2.995
 1286ACTN    C313314   2.883   7.498   3.016
 1286ACTN    H413315   2.990   7.504   3.029
 1286ACTN    H513316   2.840   7.465   3.111
 1286ACTN    C213317   2.848   7.404   2.905
 1286ACTN    O113318   2.894   7.422   2.793
 1286ACTN    C113319   2.771   7.280   2.938
 1286ACTN    H113320   2.685   7.304   3.000
 1286ACTN    H213321   2.834   7.210   2.993
 1286ACTN    H313322   2.735   7.231   2.848
 1287ACTN    H613323   6.322   7.850   3.743
 1287ACTN    C313324   6.417   7.799   3.731
 1287ACTN    H413325   6.423   7.720   3.805
 1287ACTN    H513326   6.418   7.752   3.632
 1287ACTN    C213327   6.533   7.893   3.746
 1287ACTN    O113328   6.646   7.856   3.718
 1287ACTN    C113329   6.507   8.035   3.785
 1287ACTN    H113330   6.556   8.056   3.880
 1287ACTN    H213331   6.401   8.055   3.795
 1287ACTN    H313332   6.548   8.102   3.710
 1288ACTN    H613333   2.373   8.456   4.371
 1288ACTN    C313334   2.458   8.490   4.430
 1288ACTN    H413335   2.424   8.564   4.501
 1288ACTN    H513336   2.497   8.405   4.485
 1288ACTN    C213337   2.564   8.545   4.340
 1288ACTN    O113338   2.610   8.477   4.248
 1288ACTN    C113339   2.612   8.686   4.358
 1288ACTN    H113340   2.561   8.735   4.440
 1288ACTN    H213341   2.595   8.744   4.267
 1288ACTN    H313342   2.719   8.687   4.378
 1289ACTN    H613343   2.068   7.345   4.872
 1289ACTN    C313344   2.049   7.388   4.969
 1289ACTN    H413345   2.046   7.308   5.043
 1289ACTN    H513346   2.131   7.455   4.994
 1289ACTN    C213347   1.918   7.461   4.968
 1289ACTN    O113348   1.815   7.402   4.938
 1289ACTN    C113349   1.916   7.607   5.002
 1289ACTN    H113350   1.953   7.623   5.103
 1289ACTN    H213351   1.815   7.648   4.997
 1289ACTN    H313352   1.979   7.663   4.933
 1290ACTN    H613353   7.097   8.694   4.690
 1290ACTN    C313354   7.169   8.696   4.773
 1290ACTN    H413355   7.201   8.799   4.787
 1290ACTN    H513356   7.119   8.662   4.863
 1290ACTN    C213357   7.287   8.609   4.743
 1290ACTN    O113358   7.297   8.548   4.637
 1290ACTN    C113359   7.397   8.602   4.845
 1290ACTN    H113360   7.476   8.535   4.812
 1290ACTN    H213361   7.357   8.565   4.939
 1290ACTN    H313362   7.439   8.701   4.861
 1291ACTN    H613363   2.782   7.400   4.666
 1291ACTN    C313364   2.887   7.397   4.693
 1291ACTN    H413365   2.921   7.294   4.680
 1291ACTN    H513366   2.942   7.460   4.623
 1291ACTN    C213367   2.909   7.441   4.834
 1291ACTN    O113368   2.816   7.484   4.902
 1291ACTN    C113369   3.048   7.444   4.888
 1291ACTN    H113370   3.121   7.419   4.811
 1291ACTN    H213371   3.059   7.371   4.968
 1291ACTN    H313372   3.073   7.542   4.928
 1292ACTN    H613373   3.678   8.340   5.916
 1292ACTN    C313374   3.620   8.341   5.824
 1292ACTN    H413375   3.551   8.425   5.828
 1292ACTN    H513376   3.688   8.358   5.741
 1292ACTN    C213377   3.544   8.213   5.804
 1292ACTN    O113378   3.546   8.125   5.889
 1292ACTN    C113379   3.463   8.197   5.679
 1292ACTN    H113380   3.526   8.211   5.592
 1292ACTN    H213381   3.383   8.270   5.677
 1292ACTN    H313382   3.419   8.098   5.673
 1293ACTN    H613383   1.221   8.637   6.125
 1293ACTN    C313384   1.222   8.544   6.182
 1293ACTN    H413385   1.141   8.547   6.254
 1293ACTN    H513386   1.203   8.462   6.113
 1293ACTN    C213387   1.353   8.527   6.253
 1293ACTN    O113388   1.427   8.434   6.225
 1293ACTN    C113389   1.393   8.630   6.354
 1293ACTN    H113390   1.321   8.633   6.435
 1293ACTN    H213391   1.397   8.729   6.309
 1293ACTN    H313392   1.491   8.608   6.397
 1294ACTN    H613393   1.083   8.473   2.230
 1294ACTN    C313394   1.183   8.460   2.270
 1294ACTN    H413395   1.175   8.426   2.373
 1294ACTN    H513396   1.234   8.384   2.213
 1294ACTN    C213397   1.258   8.590   2.266
 1294ACTN    O113398   1.215   8.688   2.325
 1294ACTN    C113399   1.384   8.602   2.185
 1294ACTN    H113400   1.467   8.629   2.249
 1294ACTN    H213401   1.372   8.679   2.109
 1294ACTN    H313402   1.408   8.508   2.136
 1295ACTN    H613403   0.947   7.881   4.991
 1295ACTN    C313404   0.910   7.978   5.023
 1295ACTN    H413405   0.938   8.052   4.949
 1295ACTN    H513406   0.801   7.973   5.026
 1295ACTN    C213407   0.966   8.013   5.157
 1295ACTN    O113408   0.892   8.042   5.251
 1295ACTN    C113409   1.115   8.024   5.171
 1295ACTN    H113410   1.162   7.933   5.134
 1295ACTN    H213411   1.143   8.038   5.275
 1295ACTN    H313412   1.152   8.109   5.114
 1296ACTN    H613413   2.549   8.223   5.171
 1296ACTN    C313414   2.585   8.325   5.159
 1296ACTN    H413415   2.605   8.343   5.054
 1296ACTN    H513416   2.505   8.393   5.189
 1296ACTN    C213417   2.707   8.348   5.243
 1296ACTN    O113418   2.705   8.322   5.363
 1296ACTN    C113419   2.832   8.400   5.180
 1296ACTN    H113420   2.818   8.419   5.073
 1296ACTN    H213421   2.913   8.329   5.191
 1296ACTN    H313422   2.862   8.493   5.227
 1297ACTN    H613423   7.181   7.485   3.972
 1297ACTN    C313424   7.286   7.505   3.955
 1297ACTN    H413425   7.339   7.410   3.950
 1297ACTN    H513426   7.297   7.556   3.860
 1297ACTN    C213427   7.343   7.589   4.065
 1297ACTN    O113428   7.457   7.633   4.056
 1297ACTN    C113429   7.258   7.629   4.182
 1297ACTN    H113430   7.157   7.589   4.172
 1297ACTN    H213431   7.252   7.737   4.189
 1297ACTN    H313432   7.301   7.591   4.274
 1298ACTN    H613433   1.714   8.460   4.465
 1298ACTN    C313434   1.645   8.377   4.476
 1298ACTN    H413435   1.546   8.417   4.498
 1298ACTN    H513436   1.641   8.324   4.382
 1298ACTN    C213437   1.691   8.287   4.587
 1298ACTN    O113438   1.706   8.331   4.700
 1298ACTN    C113439   1.719   8.143   4.558
 1298ACTN    H113440   1.703   8.120   4.453
 1298ACTN    H213441   1.654   8.080   4.618
 1298ACTN    H313442   1.822   8.119   4.584
 1299ACTN    H613443   5.180   7.824   0.756
 1299ACTN    C313444   5.257   7.757   0.717
 1299ACTN    H413445   5.234   7.734   0.614
 1299ACTN    H513446   5.353   7.809   0.720
 1299ACTN    C213447   5.262   7.632   0.801
 1299ACTN    O113448   5.298   7.638   0.918
 1299ACTN    C113449   5.232   7.499   0.739
 1299ACTN    H113450   5.214   7.509   0.632
 1299ACTN    H213451   5.144   7.457   0.785
 1299ACTN    H313452   5.315   7.431   0.754
 1300ACTN    H613453   0.395   8.663   6.713
 1300ACTN    C313454   0.390   8.624   6.814
 1300ACTN    H413455   0.486   8.580   6.838
 1300ACTN    H513456   0.373   8.708   6.882
 1300ACTN    C213457   0.281   8.523   6.827
 1300ACTN    O113458   0.255   8.473   6.936
 1300ACTN    C113459   0.201   8.487   6.706
 1300ACTN    H113460   0.127   8.410   6.729
 1300ACTN    H213461   0.266   8.450   6.627
 1300ACTN    H313462   0.148   8.574   6.668
 1301ACTN    H613463   1.186   7.589   2.995
 1301ACTN    C313464   1.251   7.664   3.040
 1301ACTN    H413465   1.189   7.751   3.064
 1301ACTN    H513466   1.289   7.624   3.134
 1301ACTN    C213467   1.363   7.699   2.947
 1301ACTN    O113468   1.379   7.814   2.907
 1301ACTN    C113469   1.456   7.589   2.907
 1301ACTN    H113470   1.504   7.546   2.994
 1301ACTN    H213471   1.534   7.626   2.840
 1301ACTN    H313472   1.401   7.511   2.855
 1302ACTN    H613473   2.301   7.853   4.942
 1302ACTN    C313474   2.379   7.849   5.018
 1302ACTN    H413475   2.466   7.902   4.980
 1302ACTN    H513476   2.343   7.901   5.106
 1302ACTN    C213477   2.414   7.707   5.051
 1302ACTN    O113478   2.366   7.614   4.988
 1302ACTN    C113479   2.518   7.682   5.156
 1302ACTN    H113480   2.489   7.728   5.250
 1302ACTN    H213481   2.613   7.723   5.125
 1302ACTN    H313482   2.531   7.575   5.173
 1303ACTN    H613483   6.008   8.565   2.993
 1303ACTN    C313484   6.003   8.511   3.087
 1303ACTN    H413485   5.899   8.490   3.108
 1303ACTN    H513486   6.042   8.577   3.165
 1303ACTN    C213487   6.083   8.386   3.079
 1303ACTN    O113488   6.205   8.391   3.064
 1303ACTN    C113489   6.014   8.253   3.086
 1303ACTN    H113490   5.960   8.244   3.180
 1303ACTN    H213491   6.084   8.170   3.079
 1303ACTN    H313492   5.943   8.244   3.004
 1304ACTN    H613493   0.205   8.414   4.622
 1304ACTN    C313494   0.251   8.345   4.552
 1304ACTN    H413495   0.172   8.283   4.508
 1304ACTN    H513496   0.318   8.280   4.608
 1304ACTN    C213497   0.327   8.417   4.445
 1304ACTN    O113498   0.315   8.538   4.432
 1304ACTN    C113499   0.405   8.336   4.346
 1304ACTN    H113500   0.457   8.400   4.276
 1304ACTN    H213501   0.339   8.272   4.289
 1304ACTN    H313502   0.478   8.274   4.398
 1305ACTN    H613503   3.455   8.327   4.126
 1305ACTN    C313504   3.562   8.339   4.107
 1305ACTN    H413505   3.597   8.251   4.054
 1305ACTN    H513506   3.577   8.426   4.044
 1305ACTN    C213507   3.638   8.355   4.235
 1305ACTN    O113508   3.578   8.368   4.342
 1305ACTN    C113509   3.787   8.366   4.230
 1305ACTN    H113510   3.820   8.459   4.276
 1305ACTN    H213511   3.822   8.365   4.127
 1305ACTN    H313512   3.833   8.283   4.282
 1306ACTN    H613513   2.912   8.046   6.932
 1306ACTN    C313514   2.996   8.088   6.878
 1306ACTN    H413515   2.959   8.161   6.807
 1306ACTN    H513516   3.059   8.141   6.950
 1306ACTN    C213517   3.073   7.980   6.808
 1306ACTN    O113518   3.190   7.958   6.835
 1306ACTN    C113519   3.002   7.897   6.705
 1306ACTN    H113520   2.898   7.925   6.697
 1306ACTN    H213521   3.008   7.792   6.731
 1306ACTN    H313522   3.049   7.911   6.608
 1307ACTN    H613523   2.199   7.837   2.462
 1307ACTN    C313524   2.194   7.826   2.355
 1307ACTN    H413525   2.110   7.761   2.331
 1307ACTN    H513526   2.175   7.923   2.310
 1307ACTN    C213527   2.323   7.770   2.302
 1307ACTN    O113528   2.329   7.652   2.270
 1307ACTN    C113529   2.448   7.851   2.314
 1307ACTN    H113530   2.485   7.876   2.215
 1307ACTN    H213531   2.525   7.795   2.366
 1307ACTN    H313532   2.430   7.944   2.368
 1308ACTN    H613533   7.260   8.650   6.627
 1308ACTN    C313534   7.154   8.661   6.608
 1308ACTN    H413535   7.099   8.596   6.676
 1308ACTN    H513536   7.125   8.764   6.629
 1308ACTN    C213537   7.123   8.625   6.466
 1308ACTN    O113538   7.091   8.711   6.385
 1308ACTN    C113539   7.147   8.484   6.420
 1308ACTN    H113540   7.195   8.426   6.498
 1308ACTN    H213541   7.210   8.482   6.332
 1308ACTN    H313542   7.052   8.437   6.396
 1309ACTN    H613543   3.323   7.911   5.805
 1309ACTN    C313544   3.221   7.947   5.802
 1309ACTN    H413545   3.222   8.053   5.827
 1309ACTN    H513546   3.183   7.936   5.701
 1309ACTN    C213547   3.136   7.872   5.899
 1309ACTN    O113548   3.120   7.751   5.884
 1309ACTN    C113549   3.074   7.944   6.014
 1309ACTN    H113550   3.009   7.880   6.072
 1309ACTN    H213551   3.015   8.029   5.978
 1309ACTN    H313552   3.151   7.983   6.080
 1310ACTN    H613553   6.516   7.779   2.909
 1310ACTN    C313554   6.590   7.774   2.989
 1310ACTN    H413555   6.667   7.849   2.970
 1310ACTN    H513556   6.541   7.799   3.082
 1310ACTN    C213557   6.649   7.637   2.996
 1310ACTN    O113558   6.576   7.538   3.002
 1310ACTN    C113559   6.798   7.621   2.987
 1310ACTN    H113560   6.835   7.661   2.893
 1310ACTN    H213561   6.827   7.516   2.993
 1310ACTN    H313562   6.846   7.674   3.069
 1311ACTN    H613563   3.938   8.518   4.575
 1311ACTN    C313564   3.842   8.469   4.591
 1311ACTN    H413565   3.763   8.542   4.577
 1311ACTN    H513566   3.830   8.391   4.517
 1311ACTN    C213567   3.834   8.411   4.729
 1311ACTN    O113568   3.735   8.346   4.762
 1311ACTN    C113569   3.950   8.428   4.822
 1311ACTN    H113570   4.040   8.385   4.779
 1311ACTN    H213571   3.932   8.379   4.917
 1311ACTN    H313572   3.968   8.534   4.840
 1312ACTN    H613573   6.948   8.791   5.359
 1312ACTN    C313574   6.992   8.841   5.273
 1312ACTN    H413575   6.939   8.935   5.257
 1312ACTN    H513576   7.096   8.864   5.296
 1312ACTN    C213577   6.985   8.754   5.152
 1312ACTN    O113578   7.031   8.640   5.155
 1312ACTN    C113579   6.913   8.805   5.030
 1312ACTN    H113580   6.914   8.732   4.950
 1312ACTN    H213581   6.962   8.895   4.994
 1312ACTN    H313582   6.810   8.828   5.054
 1313ACTN    H613583   2.127   8.693   2.429
 1313ACTN    C313584   2.212   8.631   2.456
 1313ACTN    H413585   2.181   8.564   2.536
 1313ACTN    H513586   2.239   8.571   2.370
 1313ACTN    C213587   2.328   8.714   2.501
 1313ACTN    O113588   2.434   8.660   2.530
 1313ACTN    C113589   2.309   8.861   2.519
 1313ACTN    H113590   2.268   8.904   2.428
 1313ACTN    H213591   2.404   8.911   2.540
 1313ACTN    H313592   2.240   8.881   2.601
 1314ACTN    H613593   3.110   8.524   3.034
 1314ACTN    C313594   3.027   8.455   3.023
 1314ACTN    H413595   3.057   8.358   3.064
 1314ACTN    H513596   2.943   8.492   3.082
 1314ACTN    C213597   2.987   8.443   2.879
 1314ACTN    O113598   2.955   8.543   2.816
 1314ACTN    C113599   2.992   8.310   2.811
 1314ACTN    H113600   3.059   8.313   2.726
 1314ACTN    H213601   2.893   8.283   2.776
 1314ACTN    H313602   3.026   8.232   2.879
 1315ACTN    H613603   5.468   8.619   6.495
 1315ACTN    C313604   5.544   8.686   6.454
 1315ACTN    H413605   5.638   8.664   6.503
 1315ACTN    H513606   5.555   8.663   6.348
 1315ACTN    C213607   5.504   8.828   6.474
 1315ACTN    O113608   5.494   8.874   6.587
 1315ACTN    C113609   5.479   8.914   6.353
 1315ACTN    H113610   5.457   0.017   6.381
 1315ACTN    H213611   5.395   8.876   6.296
 1315ACTN    H313612   5.567   8.915   6.289
 1316ACTN    H613613   1.190   7.438   6.415
 1316ACTN    C313614   1.109   7.453   6.486
 1316ACTN    H413615   1.103   7.365   6.550
 1316ACTN    H513616   1.135   7.539   6.548
 1316ACTN    C213617   0.980   7.477   6.415
 1316ACTN    O113618   0.877   7.493   6.480
 1316ACTN    C113619   0.979   7.481   6.265
 1316ACTN    H113620   0.878   7.497   6.226
 1316ACTN    H213621   1.017   7.388   6.224
 1316ACTN    H313622   1.042   7.562   6.230
 1317ACTN    H613623   1.259   8.706   4.435
 1317ACTN    C313624   1.186   8.717   4.356
 1317ACTN    H413625   1.123   8.628   4.354
 1317ACTN    H513626   1.122   8.802   4.380
 1317ACTN    C213627   1.253   8.738   4.224
 1317ACTN    O113628   1.326   8.834   4.206
 1317ACTN    C113629   1.226   8.645   4.110
 1317ACTN    H113630   1.186   8.699   4.025
 1317ACTN    H213631   1.155   8.567   4.138
 1317ACTN    H313632   1.318   8.596   4.078
 1318ACTN    H613633   0.071   8.800   4.266
 1318ACTN    C313634   0.124   8.822   4.359
 1318ACTN    H413635   0.080   8.911   4.403
 1318ACTN    H513636   0.110   8.739   4.427
 1318ACTN    C213637   0.270   8.844   4.334
 1318ACTN    O113638   0.313   8.853   4.220
 1318ACTN    C113639   0.360   8.873   4.451
 1318ACTN    H113640   0.407   8.971   4.439
 1318ACTN    H213641   0.437   8.797   4.457
 1318ACTN    H313642   0.303   8.872   4.544
 1319ACTN    H613643   3.385   7.915   5.443
 1319ACTN    C313644   3.445   7.827   5.424
 1319ACTN    H413645   3.442   7.805   5.318
 1319ACTN    H513646   3.549   7.850   5.450
 1319ACTN    C213647   3.396   7.710   5.503
 1319ACTN    O113648   3.279   7.673   5.491
 1319ACTN    C113649   3.485   7.644   5.603
 1319ACTN    H113650   3.583   7.691   5.606
 1319ACTN    H213651   3.500   7.539   5.577
 1319ACTN    H313652   3.442   7.649   5.703
 1320ACTN    H613653   3.410   8.253   5.235
 1320ACTN    C313654   3.352   8.240   5.326
 1320ACTN    H413655   3.392   8.154   5.379
 1320ACTN    H513656   3.368   8.328   5.389
 1320ACTN    C213657   3.207   8.223   5.297
 1320ACTN    O113658   3.165   8.227   5.182
 1320ACTN    C113659   3.113   8.203   5.412
 1320ACTN    H113660   3.116   8.289   5.479
 1320ACTN    H213661   3.140   8.115   5.470
 1320ACTN    H313662   3.010   8.192   5.379
 1321ACTN    H613663   0.285   7.989   2.308
 1321ACTN    C313664   0.343   8.071   2.349
 1321ACTN    H413665   0.370   8.046   2.452
 1321ACTN    H513666   0.435   8.080   2.292
 1321ACTN    C213667   0.267   8.199   2.343
 1321ACTN    O113668   0.246   8.264   2.445
 1321ACTN    C113669   0.214   8.247   2.212
 1321ACTN    H113670   0.256   8.345   2.189
 1321ACTN    H213671   0.106   8.256   2.216
 1321ACTN    H313672   0.241   8.178   2.132
 1322ACTN    H613673   5.031   7.855   5.459
 1322ACTN    C313674   5.072   7.841   5.559
 1322ACTN    H413675   5.018   7.907   5.627
 1322ACTN    H513676   5.053   7.739   5.589
 1322ACTN    C213677   5.218   7.871   5.564
 1322ACTN    O113678   5.279   7.909   5.464
 1322ACTN    C113679   5.292   7.852   5.693
 1322ACTN    H113680   5.226   7.813   5.770
 1322ACTN    H213681   5.334   7.946   5.727
 1322ACTN    H313682   5.374   7.781   5.680
 1323ACTN    H613683   6.917   7.514   3.814
 1323ACTN    C313684   6.948   7.527   3.710
 1323ACTN    H413685   6.864   7.568   3.655
 1323ACTN    H513686   7.029   7.599   3.708
 1323ACTN    C213687   6.989   7.395   3.651
 1323ACTN    O113688   6.913   7.299   3.655
 1323ACTN    C113689   7.125   7.381   3.589
 1323ACTN    H113690   7.115   7.348   3.486
 1323ACTN    H213691   7.184   7.308   3.643
 1323ACTN    H313692   7.178   7.476   3.589
 1324ACTN    H613693   6.039   8.723   5.531
 1324ACTN    C313694   6.129   8.667   5.555
 1324ACTN    H413695   6.215   8.732   5.545
 1324ACTN    H513696   6.138   8.585   5.484
 1324ACTN    C213697   6.122   8.614   5.695
 1324ACTN    O113698   6.022   8.630   5.763
 1324ACTN    C113699   6.238   8.535   5.748
 1324ACTN    H113700   6.280   8.584   5.835
 1324ACTN    H213701   6.316   8.525   5.673
 1324ACTN    H313702   6.205   8.436   5.777
 1325ACTN    H613703   1.544   8.191   4.982
 1325ACTN    C313704   1.465   8.129   5.024
 1325ACTN    H413705   1.375   8.188   5.030
 1325ACTN    H513706   1.448   8.046   4.956
 1325ACTN    C213707   1.505   8.080   5.160
 1325ACTN    O113708   1.512   8.159   5.253
 1325ACTN    C113709   1.520   7.933   5.181
 1325ACTN    H113710   1.426   7.882   5.162
 1325ACTN    H213711   1.552   7.911   5.283
 1325ACTN    H313712   1.595   7.893   5.113
 1326ACTN    H613713   4.877   7.518   1.061
 1326ACTN    C313714   4.972   7.571   1.062
 1326ACTN    H413715   4.994   7.599   1.165
 1326ACTN    H513716   5.050   7.503   1.028
 1326ACTN    C213717   4.965   7.691   0.973
 1326ACTN    O113718   4.949   7.677   0.853
 1326ACTN    C113719   4.992   7.826   1.033
 1326ACTN    H113720   4.978   7.905   0.959
 1326ACTN    H213721   5.095   7.832   1.069
 1326ACTN    H313722   4.925   7.845   1.116
 1327ACTN    H613723   2.085   7.513   6.114
 1327ACTN    C313724   2.075   7.561   6.017
 1327ACTN    H413725   2.173   7.558   5.969
 1327ACTN    H513726   2.006   7.503   5.957
 1327ACTN    C213727   2.026   7.701   6.033
 1327ACTN    O113728   2.091   7.795   5.990
 1327ACTN    C113729   1.893   7.725   6.097
 1327ACTN    H113730   1.904   7.786   6.186
 1327ACTN    H213731   1.845   7.631   6.125
 1327ACTN    H313732   1.826   7.776   6.028
 1328ACTN    H613733   3.910   7.761   4.894
 1328ACTN    C313734   3.920   7.823   4.805
 1328ACTN    H413735   3.910   7.927   4.836
 1328ACTN    H513736   4.020   7.809   4.765
 1328ACTN    C213737   3.817   7.786   4.703
 1328ACTN    O113738   3.816   7.672   4.658
 1328ACTN    C113739   3.717   7.887   4.657
 1328ACTN    H113740   3.616   7.853   4.678
 1328ACTN    H213741   3.726   7.902   4.549
 1328ACTN    H313742   3.732   7.983   4.706
 1329ACTN    H613743   5.214   8.461   5.704
 1329ACTN    C313744   5.257   8.521   5.624
 1329ACTN    H413745   5.310   8.604   5.669
 1329ACTN    H513746   5.175   8.561   5.564
 1329ACTN    C213747   5.349   8.440   5.539
 1329ACTN    O113748   5.407   8.491   5.444
 1329ACTN    C113749   5.369   8.295   5.572
 1329ACTN    H113750   5.274   8.241   5.565
 1329ACTN    H213751   5.406   8.285   5.674
 1329ACTN    H313752   5.440   8.248   5.505
 1330ACTN    H613753   3.159   8.541   5.432
 1330ACTN    C313754   3.182   8.614   5.354
 1330ACTN    H413755   3.252   8.569   5.284
 1330ACTN    H513756   3.089   8.637   5.301
 1330ACTN    C213757   3.238   8.738   5.416
 1330ACTN    O113758   3.167   8.806   5.490
 1330ACTN    C113759   3.373   8.787   5.377
 1330ACTN    H113760   3.418   8.724   5.300
 1330ACTN    H213761   3.439   8.788   5.463
 1330ACTN    H313762   3.367   8.889   5.339
 1331ACTN    H613763   0.816   7.773   6.297
 1331ACTN    C313764   0.712   7.750   6.278
 1331ACTN    H413765   0.696   7.755   6.171
 1331ACTN    H513766   0.694   7.648   6.311
 1331ACTN    C213767   0.620   7.844   6.349
 1331ACTN    O113768   0.664   7.940   6.410
 1331ACTN    C113769   0.472   7.823   6.339
 1331ACTN    H113770   0.424   7.911   6.297
 1331ACTN    H213771   0.430   7.804   6.437
 1331ACTN    H313772   0.449   7.738   6.275
 1332ACTN    H613773   1.734   8.484   3.826
 1332ACTN    C313774   1.726   8.576   3.884
 1332ACTN    H413775   1.803   8.644   3.850
 1332ACTN    H513776   1.629   8.621   3.862
 1332ACTN    C213777   1.741   8.547   4.030
 1332ACTN    O113778   1.845   8.497   4.073
 1332ACTN    C113779   1.631   8.583   4.125
 1332ACTN    H113780   1.668   8.648   4.203
 1332ACTN    H213781   1.590   8.493   4.171
 1332ACTN    H313782   1.550   8.635   4.073
 1333ACTN    H613783   2.643   8.066   7.099
 1333ACTN    C313784   2.559   8.089   7.164
 1333ACTN    H413785   2.467   8.067   7.110
 1333ACTN    H513786   2.563   8.025   7.251
 1333ACTN    C213787   2.564   8.233   7.206
 1333ACTN    O113788   2.480   8.313   7.166
 1333ACTN    C113789   2.682   8.281   7.285
 1333ACTN    H113790   2.774   8.264   7.229
 1333ACTN    H213791   2.688   8.227   7.379
 1333ACTN    H313792   2.675   8.387   7.307
 1334ACTN    H613793   7.111   8.374   0.726
 1334ACTN    C313794   7.088   8.350   0.623
 1334ACTN    H413795   7.033   8.257   0.619
 1334ACTN    H513796   7.024   8.429   0.583
 1334ACTN    C213797   7.214   8.340   0.542
 1334ACTN    O113798   7.297   8.253   0.568
 1334ACTN    C113799   7.237   8.436   0.429
 1334ACTN    H113800   7.156   8.426   0.356
 1334ACTN    H213801   7.331   8.417   0.379
 1334ACTN    H313802   7.237   8.537   0.467
 1335ACTN    H613803   0.519   8.306   6.795
 1335ACTN    C313804   0.488   8.206   6.763
 1335ACTN    H413805   0.416   8.217   6.682
 1335ACTN    H513806   0.576   8.154   6.725
 1335ACTN    C213807   0.430   8.132   6.879
 1335ACTN    O113808   0.500   8.103   6.975
 1335ACTN    C113809   0.287   8.088   6.872
 1335ACTN    H113810   0.221   8.174   6.862
 1335ACTN    H213811   0.258   8.035   6.963
 1335ACTN    H313812   0.271   8.021   6.788
 1336ACTN    H613813   6.125   8.386   4.477
 1336ACTN    C313814   6.162   8.388   4.579
 1336ACTN    H413815   6.237   8.466   4.586
 1336ACTN    H513816   6.079   8.414   4.645
 1336ACTN    C213817   6.220   8.256   4.620
 1336ACTN    O113818   6.227   8.163   4.539
 1336ACTN    C113819   6.278   8.244   4.757
 1336ACTN    H113820   6.362   8.312   4.769
 1336ACTN    H213821   6.313   8.143   4.776
 1336ACTN    H313822   6.203   8.269   4.831
 1337ACTN    H613823   3.011   8.800   3.493
 1337ACTN    C313824   2.964   8.715   3.442
 1337ACTN    H413825   2.857   8.729   3.442
 1337ACTN    H513826   2.999   8.714   3.339
 1337ACTN    C213827   2.999   8.587   3.511
 1337ACTN    O113828   3.054   8.495   3.451
 1337ACTN    C113829   2.962   8.572   3.655
 1337ACTN    H113830   3.007   8.650   3.715
 1337ACTN    H213831   2.993   8.475   3.694
 1337ACTN    H313832   2.854   8.578   3.666
 1338ACTN    H613833   1.837   7.296   1.326
 1338ACTN    C313834   1.895   7.383   1.295
 1338ACTN    H413835   1.979   7.393   1.363
 1338ACTN    H513836   1.934   7.364   1.195
 1338ACTN    C213837   1.810   7.506   1.299
 1338ACTN    O113838   1.806   7.583   1.203
 1338ACTN    C113839   1.740   7.540   1.427
 1338ACTN    H113840   1.674   7.459   1.455
 1338ACTN    H213841   1.680   7.630   1.417
 1338ACTN    H313842   1.812   7.555   1.507
 1339ACTN    H613843   6.520   7.661   2.668
 1339ACTN    C313844   6.560   7.754   2.627
 1339ACTN    H413845   6.626   7.798   2.702
 1339ACTN    H513846   6.478   7.822   2.609
 1339ACTN    C213847   6.637   7.726   2.502
 1339ACTN    O113848   6.733   7.649   2.505
 1339ACTN    C113849   6.600   7.796   2.374
 1339ACTN    H113850   6.684   7.853   2.336
 1339ACTN    H213851   6.516   7.863   2.389
 1339ACTN    H313852   6.572   7.722   2.299
 1340ACTN    H613853   2.043   7.576   5.631
 1340ACTN    C313854   2.101   7.645   5.572
 1340ACTN    H413855   2.071   7.747   5.597
 1340ACTN    H513856   2.206   7.634   5.598
 1340ACTN    C213857   2.079   7.619   5.426
 1340ACTN    O113858   1.968   7.634   5.377
 1340ACTN    C113859   2.194   7.583   5.336
 1340ACTN    H113860   2.203   7.655   5.255
 1340ACTN    H213861   2.179   7.484   5.294
 1340ACTN    H313862   2.288   7.583   5.392
 1341ACTN    H613863   7.176   7.742   4.444
 1341ACTN    C313864   7.121   7.689   4.522
 1341ACTN    H413865   7.059   7.613   4.476
 1341ACTN    H513866   7.193   7.638   4.587
 1341ACTN    C213867   7.038   7.783   4.603
 1341ACTN    O113868   7.048   7.904   4.589
 1341ACTN    C113869   6.950   7.726   4.711
 1341ACTN    H113870   7.011   7.690   4.793
 1341ACTN    H213871   6.893   7.642   4.672
 1341ACTN    H313872   6.880   7.800   4.749
 1342ACTN    H613873   1.801   7.938   8.486
 1342ACTN    C313874   1.710   7.918   8.543
 1342ACTN    H413875   1.628   7.973   8.498
 1342ACTN    H513876   1.688   7.812   8.535
 1342ACTN    C213877   1.725   7.957   8.686
 1342ACTN    O113878   1.835   7.990   8.731
 1342ACTN    C113879   1.608   7.942   8.778
 1342ACTN    H113880   1.633   7.877   8.862
 1342ACTN    H213881   1.523   7.899   8.726
 1342ACTN    H313882   1.579   8.039   8.817
 1343ACTN    H613883   0.771   8.198   8.468
 1343ACTN    C313884   0.855   8.264   8.486
 1343ACTN    H413885   0.918   8.220   8.563
 1343ACTN    H513886   0.914   8.271   8.395
 1343ACTN    C213887   0.807   8.399   8.530
 1343ACTN    O113888   0.827   8.499   8.461
 1343ACTN    C113889   0.727   8.410   8.655
 1343ACTN    H113890   0.715   8.313   8.702
 1343ACTN    H213891   0.628   8.450   8.634
 1343ACTN    H313892   0.776   8.476   8.726
 1344ACTN    H613893   0.730   7.632   7.751
 1344ACTN    C313894   0.730   7.538   7.696
 1344ACTN    H413895   0.654   7.473   7.741
 1344ACTN    H513896   0.701   7.558   7.593
 1344ACTN    C213897   0.864   7.472   7.704
 1344ACTN    O113898   0.925   7.442   7.602
 1344ACTN    C113899   0.921   7.441   7.839
 1344ACTN    H113900   0.940   7.334   7.847
 1344ACTN    H213901   0.852   7.469   7.918
 1344ACTN    H313902   1.014   7.494   7.855
 1345ACTN    H613903   2.781   8.317   7.858
 1345ACTN    C313904   2.702   8.307   7.784
 1345ACTN    H413905   2.742   8.256   7.696
 1345ACTN    H513906   2.671   8.407   7.754
 1345ACTN    C213907   2.586   8.232   7.840
 1345ACTN    O113908   2.487   8.212   7.770
 1345ACTN    C113909   2.597   8.172   7.977
 1345ACTN    H113910   2.679   8.100   7.980
 1345ACTN    H213911   2.505   8.120   8.005
 1345ACTN    H313912   2.616   8.250   8.050
 1346ACTN    H613913   3.934   8.630   8.897
 1346ACTN    C313914   3.858   8.677   8.836
 1346ACTN    H413915   3.870   8.642   8.733
 1346ACTN    H513916   3.761   8.644   8.873
 1346ACTN    C213917   3.871   8.826   8.842
 1346ACTN    O113918   3.776   8.899   8.872
 1346ACTN    C113919   4.002   8.887   8.804
 1346ACTN    H113920   3.990   8.953   8.719
 1346ACTN    H213921   4.075   8.811   8.778
 1346ACTN    H313922   4.042   8.946   8.887
 1347ACTN    H613923   2.492   7.592   8.301
 1347ACTN    C313924   2.392   7.588   8.258
 1347ACTN    H413925   2.320   7.614   8.336
 1347ACTN    H513926   2.373   7.485   8.227
 1347ACTN    C213927   2.378   7.681   8.142
 1347ACTN    O113928   2.475   7.746   8.102
 1347ACTN    C113929   2.246   7.690   8.074
 1347ACTN    H113930   2.169   7.720   8.145
 1347ACTN    H213931   2.218   7.594   8.032
 1347ACTN    H313932   2.247   7.764   7.994
 1348ACTN    H613933   1.385   8.475   7.498
 1348ACTN    C313934   1.281   8.464   7.527
 1348ACTN    H413935   1.226   8.428   7.440
 1348ACTN    H513936   1.243   8.563   7.552
 1348ACTN    C213937   1.265   8.370   7.642
 1348ACTN    O113938   1.363   8.321   7.697
 1348ACTN    C113939   1.127   8.342   7.694
 1348ACTN    H113940   1.121   8.369   7.799
 1348ACTN    H213941   1.105   8.236   7.685
 1348ACTN    H313942   1.052   8.398   7.640
 1349ACTN    H613943   3.513   8.592   0.036
 1349ACTN    C313944   3.422   8.573   8.979
 1349ACTN    H413945   3.389   8.472   8.999
 1349ACTN    H513946   3.345   8.642   0.013
 1349ACTN    C213947   3.448   8.589   8.832
 1349ACTN    O113948   3.400   8.683   8.769
 1349ACTN    C113949   3.544   8.495   8.765
 1349ACTN    H113950   3.618   8.549   8.708
 1349ACTN    H213951   3.490   8.428   8.698
 1349ACTN    H313952   3.595   8.434   8.839
 1350ACTN    H613953   2.464   7.603   7.814
 1350ACTN    C313954   2.388   7.631   7.742
 1350ACTN    H413955   2.380   7.551   7.669
 1350ACTN    H513956   2.293   7.640   7.794
 1350ACTN    C213957   2.423   7.761   7.677
 1350ACTN    O113958   2.427   7.771   7.555
 1350ACTN    C113959   2.450   7.880   7.763
 1350ACTN    H113960   2.441   7.855   7.868
 1350ACTN    H213961   2.378   7.958   7.740
 1350ACTN    H313962   2.550   7.919   7.745
 1351ACTN    H613963   1.241   7.579   7.816
 1351ACTN    C313964   1.282   7.676   7.842
 1351ACTN    H413965   1.206   7.731   7.898
 1351ACTN    H513966   1.368   7.661   7.907
 1351ACTN    C213967   1.323   7.750   7.719
 1351ACTN    O113968   1.401   7.698   7.640
 1351ACTN    C113969   1.258   7.882   7.689
 1351ACTN    H113970   1.298   7.926   7.598
 1351ACTN    H213971   1.278   7.952   7.770
 1351ACTN    H313972   1.151   7.871   7.678
 1352ACTN    H613973   3.007   8.030   7.769
 1352ACTN    C313974   3.038   8.131   7.794
 1352ACTN    H413975   3.135   8.149   7.748
 1352ACTN    H513976   2.966   8.201   7.752
 1352ACTN    C213977   3.048   8.149   7.942
 1352ACTN    O113978   3.047   8.052   8.018
 1352ACTN    C113979   3.073   8.285   7.998
 1352ACTN    H113980   2.991   8.315   8.063
 1352ACTN    H213981   3.081   8.359   7.918
 1352ACTN    H313982   3.165   8.288   8.055
 1353ACTN    H613983   0.987   7.974   8.426
 1353ACTN    C313984   1.011   7.874   8.391
 1353ACTN    H413985   1.016   7.807   8.476
 1353ACTN    H513986   0.930   7.841   8.325
 1353ACTN    C213987   1.141   7.874   8.317
 1353ACTN    O113988   1.244   7.905   8.376
 1353ACTN    C113989   1.144   7.837   8.172
 1353ACTN    H113990   1.246   7.838   8.133
 1353ACTN    H213991   1.085   7.907   8.115
 1353ACTN    H313992   1.103   7.737   8.159
 1354ACTN    H613993   6.671   8.635   8.580
 1354ACTN    C313994   6.658   8.539   8.530
 1354ACTN    H413995   6.749   8.481   8.545
 1354ACTN    H513996   6.576   8.487   8.578
 1354ACTN    C213997   6.629   8.558   8.385
 1354ACTN    O113998   6.547   8.642   8.349
 1354ACTN    C113999   6.715   8.488   8.284
 1354ACTN    H114000   6.672   8.493   8.184
 1354ACTN    H214001   6.727   8.383   8.310
 1354ACTN    H314002   6.814   8.533   8.280
 1355ACTN    H614003   7.150   7.627   8.600
 1355ACTN    C314004   7.091   7.714   8.571
 1355ACTN    H414005   7.128   7.801   8.626
 1355ACTN    H514006   7.107   7.731   8.465
 1355ACTN    C214007   6.946   7.691   8.599
 1355ACTN    O114008   6.864   7.780   8.578
 1355ACTN    C114009   6.903   7.560   8.658
 1355ACTN    H114010   6.928   7.479   8.590
 1355ACTN    H214011   6.795   7.557   8.675
 1355ACTN    H314012   6.953   7.542   8.752
 1356ACTN    H614013   2.994   7.811   8.143
 1356ACTN    C314014   2.902   7.762   8.171
 1356ACTN    H414015   2.925   7.686   8.246
 1356ACTN    H514016   2.836   7.836   8.216
 1356ACTN    C214017   2.837   7.701   8.051
 1356ACTN    O114018   2.827   7.579   8.040
 1356ACTN    C114019   2.791   7.791   7.940
 1356ACTN    H114020   2.840   7.763   7.847
 1356ACTN    H214021   2.815   7.894   7.962
 1356ACTN    H314022   2.683   7.782   7.927
 1357ACTN    H614023   4.357   8.683   7.483
 1357ACTN    C314024   4.327   8.744   7.568
 1357ACTN    H414025   4.395   8.724   7.651
 1357ACTN    H514026   4.337   8.849   7.541
 1357ACTN    C214027   4.187   8.711   7.608
 1357ACTN    O114028   4.099   8.797   7.607
 1357ACTN    C114029   4.154   8.570   7.647
 1357ACTN    H114030   4.108   8.567   7.746
 1357ACTN    H214031   4.244   8.509   7.650
 1357ACTN    H314032   4.086   8.525   7.576
 1358ACTN    H614033   5.598   7.427   7.691
 1358ACTN    C314034   5.617   7.525   7.733
 1358ACTN    H414035   5.541   7.593   7.695
 1358ACTN    H514036   5.608   7.519   7.841
 1358ACTN    C214037   5.754   7.574   7.694
 1358ACTN    O114038   5.796   7.680   7.740
 1358ACTN    C114039   5.842   7.485   7.612
 1358ACTN    H114040   5.936   7.534   7.586
 1358ACTN    H214041   5.792   7.457   7.520
 1358ACTN    H314042   5.866   7.394   7.667
 1359ACTN    H614043   1.347   8.771   8.555
 1359ACTN    C314044   1.264   8.714   8.598
 1359ACTN    H414045   1.235   8.761   8.691
 1359ACTN    H514046   1.181   8.719   8.528
 1359ACTN    C214047   1.304   8.571   8.621
 1359ACTN    O114048   1.417   8.531   8.596
 1359ACTN    C114049   1.201   8.478   8.677
 1359ACTN    H114050   1.163   8.516   8.771
 1359ACTN    H214051   1.242   8.379   8.693
 1359ACTN    H314052   1.117   8.469   8.607
 1360ACTN    H614053   3.265   8.315   7.308
 1360ACTN    C314054   3.177   8.378   7.298
 1360ACTN    H414055   3.211   8.478   7.268
 1360ACTN    H514056   3.116   8.338   7.217
 1360ACTN    C214057   3.103   8.385   7.427
 1360ACTN    O114058   2.986   8.346   7.435
 1360ACTN    C114059   3.171   8.439   7.549
 1360ACTN    H114060   3.116   8.524   7.589
 1360ACTN    H214061   3.272   8.471   7.525
 1360ACTN    H314062   3.177   8.363   7.626
 1361ACTN    H614063   7.034   8.270   7.377
 1361ACTN    C314064   7.061   8.299   7.478
 1361ACTN    H414065   7.137   8.230   7.514
 1361ACTN    H514066   7.103   8.399   7.474
 1361ACTN    C214067   6.940   8.296   7.566
 1361ACTN    O114068   6.936   8.225   7.666
 1361ACTN    C114069   6.826   8.388   7.532
 1361ACTN    H114070   6.743   8.377   7.602
 1361ACTN    H214071   6.789   8.366   7.432
 1361ACTN    H314072   6.860   8.492   7.534
 1362ACTN    H614073   0.626   8.243   7.888
 1362ACTN    C314074   0.631   8.144   7.845
 1362ACTN    H414075   0.657   8.074   7.923
 1362ACTN    H514076   0.533   8.118   7.806
 1362ACTN    C214077   0.734   8.138   7.735
 1362ACTN    O114078   0.793   8.239   7.700
 1362ACTN    C114079   0.757   8.008   7.664
 1362ACTN    H114080   0.860   7.977   7.677
 1362ACTN    H214081   0.737   8.020   7.558
 1362ACTN    H314082   0.691   7.930   7.703
 1363ACTN    H614083   5.160   7.807   8.102
 1363ACTN    C314084   5.239   7.743   8.065
 1363ACTN    H414085   5.217   7.719   7.961
 1363ACTN    H514086   5.332   7.798   8.068
 1363ACTN    C214087   5.248   7.618   8.148
 1363ACTN    O114088   5.283   7.626   8.265
 1363ACTN    C114089   5.223   7.484   8.086
 1363ACTN    H114090   5.203   7.493   7.980
 1363ACTN    H214091   5.136   7.439   8.133
 1363ACTN    H314092   5.308   7.419   8.101
 1364ACTN    H614093   4.881   7.524   8.457
 1364ACTN    C314094   4.977   7.575   8.449
 1364ACTN    H414095   5.006   7.608   8.548
 1364ACTN    H514096   5.051   7.504   8.413
 1364ACTN    C214097   4.966   7.691   8.355
 1364ACTN    O114098   4.938   7.672   8.237
 1364ACTN    C114099   4.997   7.828   8.407
 1364ACTN    H114100   4.983   7.903   8.329
 1364ACTN    H214101   5.100   7.833   8.441
 1364ACTN    H314102   4.931   7.853   8.490
 1365ACTN    H614103   7.117   8.379   8.059
 1365ACTN    C314104   7.101   8.355   7.954
 1365ACTN    H414105   7.054   8.257   7.948
 1365ACTN    H514106   7.033   8.428   7.913
 1365ACTN    C214107   7.232   8.355   7.880
 1365ACTN    O114108   7.321   8.276   7.911
 1365ACTN    C114109   7.253   8.452   7.767
 1365ACTN    H114110   7.164   8.513   7.750
 1365ACTN    H214111   7.276   8.398   7.676
 1365ACTN    H314112   7.336   8.518   7.789
 1366ACTN    H614113   1.832   7.280   8.671
 1366ACTN    C314114   1.890   7.364   8.633
 1366ACTN    H414115   1.972   7.382   8.702
 1366ACTN    H514116   1.931   7.335   8.537
 1366ACTN    C214117   1.803   7.485   8.622
 1366ACTN    O114118   1.793   7.546   8.515
 1366ACTN    C114119   1.737   7.536   8.746
 1366ACTN    H114120   1.669   7.461   8.785
 1366ACTN    H214121   1.679   7.627   8.727
 1366ACTN    H314122   1.810   7.559   8.822
 1367ACTN    H614123   8.472   1.079   5.822
 1367ACTN    C314124   8.446   1.137   5.733
 1367ACTN    H414125   8.422   1.238   5.764
 1367ACTN    H514126   8.532   1.140   5.667
 1367ACTN    C214127   8.329   1.073   5.665
 1367ACTN    O114128   8.220   1.069   5.721
 1367ACTN    C114129   8.345   1.023   5.525
 1367ACTN    H114130   8.372   1.104   5.458
 1367ACTN    H214131   8.253   0.976   5.488
 1367ACTN    H314132   8.424   0.948   5.522
 1368ACTN    H614133   7.954   4.796   0.803
 1368ACTN    C314134   7.957   4.738   0.712
 1368ACTN    H414135   8.001   4.641   0.734
 1368ACTN    H514136   7.855   4.722   0.678
 1368ACTN    C214137   8.038   4.808   0.607
 1368ACTN    O114138   8.157   4.833   0.628
 1368ACTN    C114139   7.974   4.847   0.478
 1368ACTN    H114140   7.868   4.821   0.476
 1368ACTN    H214141   8.022   4.795   0.395
 1368ACTN    H314142   7.984   4.954   0.460
 1369ACTN    H614143   8.242   0.962   1.284
 1369ACTN    C314144   8.285   1.062   1.283
 1369ACTN    H414145   8.345   1.074   1.372
 1369ACTN    H514146   8.349   1.071   1.196
 1369ACTN    C214147   8.175   1.163   1.282
 1369ACTN    O114148   8.178   1.257   1.203
 1369ACTN    C114149   8.063   1.150   1.379
 1369ACTN    H114150   8.072   1.059   1.438
 1369ACTN    H214151   7.967   1.147   1.327
 1369ACTN    H314152   8.061   1.234   1.447
 1370ACTN    H614153   7.811   1.598   5.271
 1370ACTN    C314154   7.742   1.515   5.259
 1370ACTN    H414155   7.715   1.507   5.154
 1370ACTN    H514156   7.793   1.423   5.288
 1370ACTN    C214157   7.619   1.536   5.342
 1370ACTN    O114158   7.552   1.638   5.327
 1370ACTN    C114159   7.582   1.437   5.448
 1370ACTN    H114160   7.482   1.397   5.428
 1370ACTN    H214161   7.580   1.485   5.546
 1370ACTN    H314162   7.652   1.355   5.451
 1371ACTN    H614163   8.582   0.887   4.907
 1371ACTN    C314164   8.542   0.973   4.853
 1371ACTN    H414165   8.435   0.958   4.838
 1371ACTN    H514166   8.557   1.062   4.914
 1371ACTN    C214167   8.610   0.985   4.720
 1371ACTN    O114168   8.612   0.891   4.642
 1371ACTN    C114169   8.681   1.113   4.685
 1371ACTN    H114170   8.638   1.156   4.595
 1371ACTN    H214171   8.787   1.093   4.668
 1371ACTN    H314172   8.673   1.186   4.765
 1372ACTN    H614173   8.120   0.941   5.118
 1372ACTN    C314174   8.185   1.007   5.061
 1372ACTN    H414175   8.288   0.972   5.073
 1372ACTN    H514176   8.159   0.999   4.956
 1372ACTN    C214177   8.170   1.148   5.108
 1372ACTN    O114178   8.267   1.212   5.145
 1372ACTN    C114179   8.035   1.213   5.100
 1372ACTN    H114180   8.002   1.242   5.199
 1372ACTN    H214181   7.961   1.145   5.058
 1372ACTN    H314182   8.039   1.302   5.038
 1373ACTN    H614183   8.334   4.621   2.705
 1373ACTN    C314184   8.287   4.690   2.634
 1373ACTN    H414185   8.266   4.783   2.686
 1373ACTN    H514186   8.359   4.710   2.555
 1373ACTN    C214187   8.162   4.632   2.576
 1373ACTN    O114188   8.132   4.514   2.596
 1373ACTN    C114189   8.082   4.717   2.483
 1373ACTN    H114190   7.990   4.666   2.451
 1373ACTN    H214191   8.139   4.740   2.394
 1373ACTN    H314192   8.054   4.810   2.531
 1374ACTN    H614193   7.548   6.260   0.696
 1374ACTN    C314194   7.631   6.196   0.727
 1374ACTN    H414195   7.682   6.243   0.810
 1374ACTN    H514196   7.700   6.188   0.644
 1374ACTN    C214197   7.580   6.060   0.764
 1374ACTN    O114198   7.587   6.019   0.879
 1374ACTN    C114199   7.510   5.979   0.658
 1374ACTN    H114200   7.422   6.031   0.623
 1374ACTN    H214201   7.479   5.882   0.697
 1374ACTN    H314202   7.576   5.962   0.574
 1375ACTN    H614203   8.364   6.872   2.849
 1375ACTN    C314204   8.358   6.948   2.927
 1375ACTN    H414205   8.390   7.043   2.885
 1375ACTN    H514206   8.254   6.957   2.958
 1375ACTN    C214207   8.446   6.910   3.042
 1375ACTN    O114208   8.564   6.885   3.024
 1375ACTN    C114209   8.385   6.898   3.179
 1375ACTN    H114210   8.459   6.868   3.253
 1375ACTN    H214211   8.305   6.824   3.178
 1375ACTN    H314212   8.344   6.994   3.209
 1376ACTN    H614213   7.982   0.214   0.415
 1376ACTN    C314214   8.035   0.212   0.320
 1376ACTN    H414215   8.009   0.120   0.268
 1376ACTN    H514216   7.999   0.295   0.259
 1376ACTN    C214217   8.182   0.220   0.342
 1376ACTN    O114218   8.250   0.301   0.281
 1376ACTN    C114219   8.248   0.110   0.420
 1376ACTN    H114220   8.241   0.016   0.366
 1376ACTN    H214221   8.198   0.097   0.516
 1376ACTN    H314222   8.353   0.131   0.439
 1377ACTN    H614223   8.487   0.530   5.570
 1377ACTN    C314224   8.404   0.472   5.608
 1377ACTN    H414225   8.411   0.371   5.567
 1377ACTN    H514226   8.412   0.466   5.716
 1377ACTN    C214227   8.274   0.535   5.569
 1377ACTN    O114228   8.246   0.647   5.611
 1377ACTN    C114229   8.178   0.457   5.485
 1377ACTN    H114230   8.226   0.425   5.393
 1377ACTN    H214231   8.091   0.516   5.458
 1377ACTN    H314232   8.145   0.368   5.539
 1378ACTN    H614233   8.668   5.495   3.022
 1378ACTN    C314234   8.694   5.424   2.943
 1378ACTN    H414235   8.697   5.325   2.988
 1378ACTN    H514236   8.614   5.426   2.869
 1378ACTN    C214237   8.824   5.462   2.881
 1378ACTN    O114238   8.922   5.390   2.896
 1378ACTN    C114239   8.835   5.590   2.805
 1378ACTN    H114240   8.738   5.640   2.798
 1378ACTN    H214241   8.870   5.570   2.704
 1378ACTN    H314242   8.905   5.657   2.853
 1379ACTN    H614243   8.282   7.052   2.080
 1379ACTN    C314244   8.278   6.969   2.010
 1379ACTN    H414245   8.174   6.947   1.989
 1379ACTN    H514246   8.326   6.999   1.917
 1379ACTN    C214247   8.345   6.847   2.066
 1379ACTN    O114248   8.359   6.747   1.997
 1379ACTN    C114249   8.401   6.852   2.206
 1379ACTN    H114250   8.386   6.949   2.251
 1379ACTN    H214251   8.507   6.830   2.204
 1379ACTN    H314252   8.352   6.777   2.268
 1380ACTN    H614253   7.850   2.318   4.867
 1380ACTN    C314254   7.770   2.364   4.810
 1380ACTN    H414255   7.698   2.406   4.880
 1380ACTN    H514256   7.813   2.445   4.752
 1380ACTN    C214257   7.704   2.262   4.723
 1380ACTN    O114258   7.687   2.284   4.603
 1380ACTN    C114259   7.650   2.138   4.787
 1380ACTN    H114260   7.575   2.164   4.861
 1380ACTN    H214261   7.731   2.084   4.836
 1380ACTN    H314262   7.605   2.072   4.714
 1381ACTN    H614263   8.887   1.355   5.342
 1381ACTN    C314264   8.882   1.248   5.320
 1381ACTN    H414265   8.948   1.196   5.388
 1381ACTN    H514266   8.917   1.233   5.219
 1381ACTN    C214267   8.741   1.199   5.337
 1381ACTN    O114268   8.687   1.202   5.447
 1381ACTN    C114269   8.668   1.140   5.220
 1381ACTN    H114270   8.578   1.197   5.199
 1381ACTN    H214271   8.639   1.037   5.242
 1381ACTN    H314272   8.730   1.140   5.131
 1382ACTN    H614273   8.812   6.262   2.718
 1382ACTN    C314274   8.821   6.159   2.686
 1382ACTN    H414275   8.825   6.158   2.577
 1382ACTN    H514276   8.914   6.119   2.724
 1382ACTN    C214277   8.705   6.077   2.734
 1382ACTN    O114278   8.701   5.957   2.709
 1382ACTN    C114279   8.595   6.140   2.813
 1382ACTN    H114280   8.590   6.096   2.912
 1382ACTN    H214281   8.500   6.126   2.764
 1382ACTN    H314282   8.612   6.247   2.825
 1383ACTN    H614283   0.068   7.247   4.650
 1383ACTN    C314284   0.095   7.152   4.603
 1383ACTN    H414285   0.008   7.113   4.551
 1383ACTN    H514286   0.173   7.171   4.530
 1383ACTN    C214287   0.143   7.054   4.706
 1383ACTN    O114288   0.178   6.942   4.671
 1383ACTN    C114289   0.143   7.091   4.851
 1383ACTN    H114290   0.082   7.021   4.908
 1383ACTN    H214291   0.105   7.191   4.866
 1383ACTN    H314292   0.244   7.087   4.890
 1384ACTN    H614293   7.280   6.756   3.132
 1384ACTN    C314294   7.344   6.766   3.220
 1384ACTN    H414295   7.343   6.870   3.252
 1384ACTN    H514296   7.303   6.705   3.300
 1384ACTN    C214297   7.484   6.724   3.189
 1384ACTN    O114298   7.542   6.772   3.093
 1384ACTN    C114299   7.548   6.613   3.267
 1384ACTN    H114300   7.482   6.576   3.345
 1384ACTN    H214301   7.639   6.650   3.315
 1384ACTN    H314302   7.575   6.531   3.202
 1385ACTN    H614303   8.518   6.553   2.408
 1385ACTN    C314304   8.542   6.609   2.499
 1385ACTN    H414305   8.626   6.562   2.548
 1385ACTN    H514306   8.571   6.710   2.470
 1385ACTN    C214307   8.423   6.612   2.591
 1385ACTN    O114308   8.360   6.715   2.608
 1385ACTN    C114309   8.375   6.482   2.648
 1385ACTN    H114310   8.344   6.414   2.568
 1385ACTN    H214311   8.290   6.497   2.714
 1385ACTN    H314312   8.454   6.434   2.705
 1386ACTN    H614313   8.564   5.378   4.398
 1386ACTN    C314314   8.631   5.354   4.317
 1386ACTN    H414315   8.732   5.348   4.356
 1386ACTN    H514316   8.603   5.256   4.278
 1386ACTN    C214317   8.621   5.458   4.210
 1386ACTN    O114318   8.517   5.473   4.147
 1386ACTN    C114319   8.742   5.540   4.178
 1386ACTN    H114320   8.769   5.602   4.263
 1386ACTN    H214321   8.726   5.605   4.092
 1386ACTN    H314322   8.827   5.475   4.156
 1387ACTN    H614323   8.447   2.326   2.108
 1387ACTN    C314324   8.365   2.315   2.177
 1387ACTN    H414325   8.328   2.213   2.170
 1387ACTN    H514326   8.403   2.331   2.278
 1387ACTN    C214327   8.256   2.412   2.143
 1387ACTN    O114328   8.205   2.482   2.230
 1387ACTN    C114329   8.201   2.411   2.004
 1387ACTN    H114330   8.280   2.433   1.933
 1387ACTN    H214331   8.122   2.484   1.991
 1387ACTN    H314332   8.161   2.312   1.981
 1388ACTN    H614333   8.540   0.861   7.156
 1388ACTN    C314334   8.506   0.762   7.185
 1388ACTN    H414335   8.411   0.743   7.138
 1388ACTN    H514336   8.578   0.689   7.147
 1388ACTN    C214337   8.496   0.752   7.334
 1388ACTN    O114338   8.597   0.766   7.403
 1388ACTN    C114339   8.366   0.716   7.398
 1388ACTN    H114340   8.333   0.797   7.463
 1388ACTN    H214341   8.376   0.626   7.458
 1388ACTN    H314342   8.289   0.699   7.323
 1389ACTN    H614343   8.574   6.912   2.620
 1389ACTN    C314344   8.593   7.019   2.623
 1389ACTN    H414345   8.585   7.052   2.726
 1389ACTN    H514346   8.694   7.037   2.589
 1389ACTN    C214347   8.492   7.092   2.539
 1389ACTN    O114348   8.528   7.156   2.440
 1389ACTN    C114349   8.347   7.073   2.568
 1389ACTN    H114350   8.332   6.991   2.638
 1389ACTN    H214351   8.291   7.052   2.477
 1389ACTN    H314352   8.306   7.163   2.613
 1390ACTN    H614353   8.374   7.234   1.950
 1390ACTN    C314354   8.460   7.268   1.892
 1390ACTN    H414355   8.453   7.376   1.883
 1390ACTN    H514356   8.550   7.244   1.947
 1390ACTN    C214357   8.460   7.204   1.756
 1390ACTN    O114358   8.358   7.207   1.687
 1390ACTN    C114359   8.580   7.130   1.708
 1390ACTN    H114360   8.659   7.131   1.783
 1390ACTN    H214361   8.619   7.176   1.617
 1390ACTN    H314362   8.555   7.026   1.687
 1391ACTN    H614363   8.234   1.685   5.798
 1391ACTN    C314364   8.273   1.768   5.856
 1391ACTN    H414365   8.353   1.730   5.920
 1391ACTN    H514366   8.317   1.840   5.788
 1391ACTN    C214367   8.165   1.832   5.936
 1391ACTN    O114368   8.165   1.825   6.059
 1391ACTN    C114369   8.046   1.888   5.864
 1391ACTN    H114370   7.982   1.945   5.931
 1391ACTN    H214371   7.987   1.808   5.820
 1391ACTN    H314372   8.078   1.955   5.785
 1392ACTN    H614373   7.425   5.381   5.417
 1392ACTN    C314374   7.384   5.444   5.339
 1392ACTN    H414375   7.282   5.414   5.319
 1392ACTN    H514376   7.383   5.546   5.375
 1392ACTN    C214377   7.469   5.435   5.216
 1392ACTN    O114378   7.420   5.403   5.108
 1392ACTN    C114379   7.616   5.464   5.226
 1392ACTN    H114380   7.674   5.377   5.197
 1392ACTN    H214381   7.643   5.490   5.328
 1392ACTN    H314382   7.642   5.547   5.161
 1393ACTN    H614383   7.587   6.361   3.447
 1393ACTN    C314384   7.658   6.284   3.475
 1393ACTN    H414385   7.697   6.308   3.574
 1393ACTN    H514386   7.606   6.189   3.482
 1393ACTN    C214387   7.771   6.274   3.377
 1393ACTN    O114388   7.770   6.341   3.274
 1393ACTN    C114389   7.880   6.176   3.403
 1393ACTN    H114390   7.955   6.179   3.324
 1393ACTN    H214391   7.840   6.075   3.409
 1393ACTN    H314392   7.929   6.199   3.497
 1394ACTN    H614393   7.849   2.314   3.855
 1394ACTN    C314394   7.870   2.400   3.918
 1394ACTN    H414395   7.840   2.489   3.864
 1394ACTN    H514396   7.811   2.392   4.008
 1394ACTN    C214397   8.016   2.406   3.950
 1394ACTN    O114398   8.098   2.420   3.859
 1394ACTN    C114399   8.063   2.393   4.091
 1394ACTN    H114400   8.121   2.480   4.121
 1394ACTN    H214401   8.127   2.305   4.102
 1394ACTN    H314402   7.980   2.383   4.160
 1395ACTN    H614403   7.510   5.585   1.449
 1395ACTN    C314404   7.429   5.591   1.522
 1395ACTN    H414405   7.340   5.547   1.478
 1395ACTN    H514406   7.457   5.532   1.609
 1395ACTN    C214407   7.404   5.734   1.560
 1395ACTN    O114408   7.357   5.812   1.478
 1395ACTN    C114409   7.435   5.779   1.699
 1395ACTN    H114410   7.540   5.761   1.722
 1395ACTN    H214411   7.375   5.725   1.771
 1395ACTN    H314412   7.417   5.886   1.711
 1396ACTN    H614413   7.414   2.664   5.692
 1396ACTN    C314414   7.512   2.618   5.694
 1396ACTN    H414415   7.569   2.657   5.610
 1396ACTN    H514416   7.562   2.648   5.785
 1396ACTN    C214417   7.503   2.469   5.685
 1396ACTN    O114418   7.397   2.414   5.658
 1396ACTN    C114419   7.630   2.390   5.693
 1396ACTN    H114420   7.699   2.420   5.616
 1396ACTN    H214421   7.610   2.284   5.682
 1396ACTN    H314422   7.677   2.405   5.790
 1397ACTN    H614423   7.693   3.893   3.803
 1397ACTN    C314424   7.791   3.937   3.785
 1397ACTN    H414425   7.809   4.012   3.862
 1397ACTN    H514426   7.866   3.859   3.794
 1397ACTN    C214427   7.797   3.999   3.649
 1397ACTN    O114428   7.894   4.066   3.616
 1397ACTN    C114429   7.680   3.985   3.557
 1397ACTN    H114430   7.698   4.033   3.461
 1397ACTN    H214431   7.591   4.030   3.601
 1397ACTN    H314432   7.659   3.880   3.538
 1398ACTN    H614433   7.473   7.308   3.542
 1398ACTN    C314434   7.550   7.235   3.519
 1398ACTN    H414435   7.646   7.277   3.545
 1398ACTN    H514436   7.533   7.147   3.581
 1398ACTN    C214437   7.547   7.197   3.374
 1398ACTN    O114438   7.482   7.263   3.294
 1398ACTN    C114439   7.638   7.088   3.325
 1398ACTN    H114440   7.699   7.049   3.406
 1398ACTN    H214441   7.703   7.125   3.247
 1398ACTN    H314442   7.579   7.006   3.285
 1399ACTN    H614443   7.837   0.870   6.352
 1399ACTN    C314444   7.924   0.932   6.374
 1399ACTN    H414445   7.986   0.880   6.446
 1399ACTN    H514446   7.982   0.944   6.283
 1399ACTN    C214447   7.881   1.066   6.426
 1399ACTN    O114448   7.923   1.109   6.532
 1399ACTN    C114449   7.786   1.148   6.343
 1399ACTN    H114450   7.830   1.244   6.317
 1399ACTN    H214451   7.694   1.166   6.398
 1399ACTN    H314452   7.761   1.096   6.251
 1400ACTN    H614453   7.777   7.110   2.296
 1400ACTN    C314454   7.769   7.024   2.362
 1400ACTN    H414455   7.844   6.950   2.332
 1400ACTN    H514456   7.791   7.056   2.463
 1400ACTN    C214457   7.631   6.967   2.355
 1400ACTN    O114458   7.612   6.850   2.323
 1400ACTN    C114459   7.515   7.057   2.383
 1400ACTN    H114460   7.514   7.140   2.313
 1400ACTN    H214461   7.524   7.098   2.484
 1400ACTN    H314462   7.420   7.004   2.377
 1401ACTN    H614463   7.686   1.288   4.188
 1401ACTN    C314464   7.686   1.236   4.092
 1401ACTN    H414465   7.772   1.169   4.089
 1401ACTN    H514466   7.597   1.176   4.085
 1401ACTN    C214467   7.691   1.333   3.978
 1401ACTN    O114468   7.774   1.322   3.888
 1401ACTN    C114469   7.592   1.445   3.977
 1401ACTN    H114470   7.601   1.504   4.067
 1401ACTN    H214471   7.491   1.405   3.972
 1401ACTN    H314472   7.607   1.510   3.891
 1402ACTN    H614473   7.801   4.470   2.784
 1402ACTN    C314474   7.788   4.377   2.730
 1402ACTN    H414475   7.886   4.334   2.711
 1402ACTN    H514476   7.732   4.309   2.795
 1402ACTN    C214477   7.714   4.401   2.603
 1402ACTN    O114478   7.601   4.451   2.605
 1402ACTN    C114479   7.779   4.365   2.473
 1402ACTN    H114480   7.870   4.422   2.460
 1402ACTN    H214481   7.714   4.384   2.388
 1402ACTN    H314482   7.805   4.259   2.472
 1403ACTN    H614483   8.001   2.228   3.652
 1403ACTN    C314484   7.979   2.235   3.546
 1403ACTN    H414485   7.952   2.339   3.524
 1403ACTN    H514486   7.893   2.172   3.523
 1403ACTN    C214487   8.097   2.192   3.465
 1403ACTN    O114488   8.152   2.270   3.388
 1403ACTN    C114489   8.154   2.055   3.488
 1403ACTN    H114490   8.258   2.062   3.520
 1403ACTN    H214491   8.150   1.997   3.396
 1403ACTN    H314492   8.098   2.002   3.565
 1404ACTN    H614493   8.245   0.680   2.736
 1404ACTN    C314494   8.275   0.576   2.742
 1404ACTN    H414495   8.218   0.528   2.822
 1404ACTN    H514496   8.380   0.572   2.767
 1404ACTN    C214497   8.250   0.507   2.612
 1404ACTN    O114498   8.263   0.386   2.601
 1404ACTN    C114499   8.204   0.592   2.497
 1404ACTN    H114500   8.204   0.535   2.405
 1404ACTN    H214501   8.269   0.678   2.485
 1404ACTN    H314502   8.103   0.628   2.515
 1405ACTN    H614503   7.501   1.724   7.064
 1405ACTN    C314504   7.424   1.775   7.007
 1405ACTN    H414505   7.327   1.741   7.041
 1405ACTN    H514506   7.435   1.747   6.903
 1405ACTN    C214507   7.435   1.924   7.023
 1405ACTN    O114508   7.353   1.998   6.969
 1405ACTN    C114509   7.547   1.982   7.104
 1405ACTN    H114510   7.601   2.056   7.045
 1405ACTN    H214511   7.617   1.905   7.134
 1405ACTN    H314512   7.508   2.030   7.193
 1406ACTN    H614513   7.584   0.749   4.481
 1406ACTN    C314514   7.643   0.668   4.523
 1406ACTN    H414515   7.691   0.615   4.442
 1406ACTN    H514516   7.721   0.713   4.585
 1406ACTN    C214517   7.555   0.577   4.603
 1406ACTN    O114518   7.582   0.548   4.720
 1406ACTN    C114519   7.437   0.513   4.536
 1406ACTN    H114520   7.430   0.545   4.433
 1406ACTN    H214521   7.345   0.542   4.587
 1406ACTN    H314522   7.445   0.405   4.539
 1407ACTN    H614523   8.271   5.932   5.424
 1407ACTN    C314524   8.263   6.033   5.385
 1407ACTN    H414525   8.186   6.086   5.439
 1407ACTN    H514526   8.358   6.083   5.402
 1407ACTN    C214527   8.230   6.029   5.239
 1407ACTN    O114528   8.310   6.068   5.155
 1407ACTN    C114529   8.101   5.965   5.197
 1407ACTN    H114530   8.017   6.015   5.244
 1407ACTN    H214531   8.100   5.860   5.228
 1407ACTN    H314532   8.088   5.969   5.089
 1408ACTN    H614533   8.903   6.279   0.707
 1408ACTN    C314534   8.909   6.239   0.605
 1408ACTN    H414535   8.877   6.318   0.537
 1408ACTN    H514536   0.013   6.215   0.584
 1408ACTN    C214537   8.820   6.119   0.592
 1408ACTN    O114538   8.869   6.007   0.583
 1408ACTN    C114539   8.673   6.138   0.607
 1408ACTN    H114540   8.618   6.047   0.584
 1408ACTN    H214541   8.637   6.216   0.540
 1408ACTN    H314542   8.650   6.167   0.709
 1409ACTN    H614543   7.411   1.192   6.153
 1409ACTN    C314544   7.383   1.297   6.161
 1409ACTN    H414545   7.370   1.338   6.061
 1409ACTN    H514546   7.288   1.303   6.212
 1409ACTN    C214547   7.490   1.372   6.235
 1409ACTN    O114548   7.597   1.395   6.180
 1409ACTN    C114549   7.461   1.427   6.371
 1409ACTN    H114550   7.481   1.534   6.374
 1409ACTN    H214551   7.523   1.378   6.445
 1409ACTN    H314552   7.357   1.411   6.398
 1410ACTN    H614553   7.799   3.528   4.953
 1410ACTN    C314554   7.732   3.443   4.962
 1410ACTN    H414555   7.790   3.353   4.975
 1410ACTN    H514556   7.670   3.458   5.051
 1410ACTN    C214557   7.646   3.432   4.840
 1410ACTN    O114558   7.697   3.413   4.730
 1410ACTN    C114559   7.498   3.436   4.855
 1410ACTN    H114560   7.464   3.355   4.919
 1410ACTN    H214561   7.447   3.429   4.760
 1410ACTN    H314562   7.468   3.530   4.902
 1411ACTN    H614563   8.653   4.850   2.247
 1411ACTN    C314564   8.573   4.910   2.203
 1411ACTN    H414565   8.617   4.976   2.128
 1411ACTN    H514566   8.505   4.842   2.152
 1411ACTN    C214567   8.503   4.989   2.308
 1411ACTN    O114568   8.563   5.075   2.371
 1411ACTN    C114569   8.358   4.964   2.337
 1411ACTN    H114570   8.320   4.881   2.278
 1411ACTN    H214571   8.300   5.053   2.311
 1411ACTN    H314572   8.343   4.943   2.442
 1412ACTN    H614573   8.319   5.181   3.464
 1412ACTN    C314574   8.246   5.173   3.383
 1412ACTN    H414575   8.188   5.265   3.381
 1412ACTN    H514576   8.301   5.165   3.290
 1412ACTN    C214577   8.159   5.053   3.403
 1412ACTN    O114578   8.208   4.942   3.416
 1412ACTN    C114579   8.010   5.070   3.410
 1412ACTN    H114580   7.972   5.032   3.504
 1412ACTN    H214581   7.962   5.015   3.329
 1412ACTN    H314582   7.981   5.175   3.402
 1413ACTN    H614583   0.073   7.355   0.768
 1413ACTN    C314584   8.978   7.311   0.738
 1413ACTN    H414585   8.985   7.285   0.633
 1413ACTN    H514586   8.962   7.221   0.796
 1413ACTN    C214587   8.865   7.407   0.760
 1413ACTN    O114588   8.886   7.520   0.805
 1413ACTN    C114589   8.728   7.364   0.721
 1413ACTN    H114590   8.723   7.346   0.614
 1413ACTN    H214591   8.653   7.439   0.747
 1413ACTN    H314592   8.702   7.272   0.773
 1414ACTN    H614593   7.391   6.289   3.295
 1414ACTN    C314594   7.344   6.284   3.197
 1414ACTN    H414595   7.276   6.199   3.197
 1414ACTN    H514596   7.285   6.375   3.183
 1414ACTN    C214597   7.448   6.268   3.091
 1414ACTN    O114598   7.459   6.352   3.001
 1414ACTN    C114599   7.539   6.149   3.095
 1414ACTN    H114600   7.516   6.087   3.181
 1414ACTN    H214601   7.642   6.182   3.102
 1414ACTN    H314602   7.527   6.089   3.005
 1415ACTN    H614603   8.137   5.174   5.767
 1415ACTN    C314604   8.072   5.146   5.684
 1415ACTN    H414605   8.129   5.156   5.592
 1415ACTN    H514606   8.045   5.041   5.696
 1415ACTN    C214607   7.949   5.231   5.679
 1415ACTN    O114608   7.867   5.215   5.590
 1415ACTN    C114609   7.927   5.335   5.785
 1415ACTN    H114610   7.838   5.311   5.843
 1415ACTN    H214611   7.913   5.433   5.740
 1415ACTN    H314612   8.011   5.341   5.853
 1416ACTN    H614613   8.165   0.703   4.418
 1416ACTN    C314614   8.152   0.793   4.358
 1416ACTN    H414615   8.129   0.876   4.425
 1416ACTN    H514616   8.245   0.815   4.308
 1416ACTN    C214617   8.040   0.775   4.260
 1416ACTN    O114618   7.928   0.748   4.301
 1416ACTN    C114619   8.068   0.778   4.113
 1416ACTN    H114620   8.172   0.798   4.093
 1416ACTN    H214621   8.008   0.857   4.066
 1416ACTN    H314622   8.042   0.683   4.068
 1417ACTN    H614623   7.948   6.389   0.766
 1417ACTN    C314624   7.943   6.491   0.728
 1417ACTN    H414625   7.840   6.524   0.730
 1417ACTN    H514626   8.001   6.555   0.794
 1417ACTN    C214627   7.999   6.497   0.589
 1417ACTN    O114628   8.115   6.465   0.568
 1417ACTN    C114629   7.910   6.544   0.478
 1417ACTN    H114630   7.875   6.645   0.498
 1417ACTN    H214631   7.824   6.479   0.468
 1417ACTN    H314632   7.963   6.545   0.383
 1418ACTN    H614633   8.195   5.025   1.144
 1418ACTN    C314634   8.214   5.025   1.037
 1418ACTN    H414635   8.170   4.936   0.994
 1418ACTN    H514636   8.322   5.020   1.022
 1418ACTN    C214637   8.158   5.147   0.971
 1418ACTN    O114638   8.098   5.233   1.036
 1418ACTN    C114639   8.181   5.166   0.824
 1418ACTN    H114640   8.288   5.177   0.804
 1418ACTN    H214641   8.129   5.253   0.786
 1418ACTN    H314642   8.146   5.079   0.770
 1419ACTN    H614643   7.790   7.445   6.440
 1419ACTN    C314644   7.872   7.388   6.400
 1419ACTN    H414645   7.890   7.421   6.297
 1419ACTN    H514646   7.962   7.409   6.458
 1419ACTN    C214647   7.841   7.241   6.404
 1419ACTN    O114648   7.817   7.187   6.511
 1419ACTN    C114649   7.835   7.162   6.277
 1419ACTN    H114650   7.854   7.226   6.191
 1419ACTN    H214651   7.737   7.117   6.265
 1419ACTN    H314652   7.910   7.083   6.278
 1420ACTN    H614653   8.522   5.585   6.165
 1420ACTN    C314654   8.456   5.666   6.193
 1420ACTN    H414655   8.514   5.758   6.194
 1420ACTN    H514656   8.378   5.675   6.117
 1420ACTN    C214657   8.394   5.642   6.327
 1420ACTN    O114658   8.409   5.534   6.384
 1420ACTN    C114659   8.303   5.746   6.384
 1420ACTN    H114660   8.293   5.831   6.317
 1420ACTN    H214661   8.341   5.781   6.479
 1420ACTN    H314662   8.204   5.704   6.401
 1421ACTN    H614663   7.865   0.093   2.793
 1421ACTN    C314664   7.840   0.197   2.772
 1421ACTN    H414665   7.834   0.210   2.664
 1421ACTN    H514666   7.743   0.219   2.814
 1421ACTN    C214667   7.943   0.289   2.830
 1421ACTN    O114668   7.936   0.410   2.809
 1421ACTN    C114669   8.060   0.231   2.902
 1421ACTN    H114670   8.026   0.170   2.986
 1421ACTN    H214671   8.124   0.309   2.941
 1421ACTN    H314672   8.118   0.169   2.835
 1422ACTN    H614673   7.702   6.702   6.130
 1422ACTN    C314674   7.699   6.811   6.132
 1422ACTN    H414675   7.607   6.843   6.084
 1422ACTN    H514676   7.698   6.843   6.236
 1422ACTN    C214677   7.818   6.867   6.061
 1422ACTN    O114678   7.931   6.846   6.104
 1422ACTN    C114679   7.797   6.951   5.939
 1422ACTN    H114680   7.745   6.894   5.863
 1422ACTN    H214681   7.892   6.985   5.897
 1422ACTN    H314682   7.737   7.039   5.963
 1423ACTN    H614683   8.079   2.808   4.384
 1423ACTN    C314684   8.107   2.718   4.439
 1423ACTN    H414685   8.186   2.667   4.384
 1423ACTN    H514686   8.147   2.747   4.535
 1423ACTN    C214687   7.988   2.629   4.458
 1423ACTN    O114688   7.988   2.514   4.416
 1423ACTN    C114689   7.864   2.686   4.521
 1423ACTN    H114690   7.847   2.638   4.617
 1423ACTN    H214691   7.778   2.668   4.458
 1423ACTN    H314692   7.875   2.793   4.537
 1424ACTN    H614693   8.386   5.708   5.723
 1424ACTN    C314694   8.388   5.802   5.669
 1424ACTN    H414695   8.443   5.788   5.576
 1424ACTN    H514696   8.286   5.830   5.644
 1424ACTN    C214697   8.452   5.910   5.750
 1424ACTN    O114698   8.463   6.023   5.704
 1424ACTN    C114699   8.500   5.880   5.889
 1424ACTN    H114700   8.605   5.904   5.899
 1424ACTN    H214701   8.487   5.775   5.913
 1424ACTN    H314702   8.444   5.939   5.961
 1425ACTN    H614703   8.862   1.727   5.504
 1425ACTN    C314704   8.837   1.800   5.580
 1425ACTN    H414705   8.847   1.754   5.678
 1425ACTN    H514706   8.909   1.882   5.574
 1425ACTN    C214707   8.699   1.853   5.558
 1425ACTN    O114708   8.607   1.822   5.633
 1425ACTN    C114709   8.670   1.928   5.431
 1425ACTN    H114710   8.594   1.876   5.373
 1425ACTN    H214711   8.760   1.937   5.370
 1425ACTN    H314712   8.634   2.028   5.454
 1426ACTN    H614713   8.918   7.080   1.607
 1426ACTN    C314714   8.887   7.024   1.519
 1426ACTN    H414715   8.968   6.959   1.489
 1426ACTN    H514716   8.801   6.963   1.546
 1426ACTN    C214717   8.853   7.118   1.407
 1426ACTN    O114718   8.939   7.196   1.365
 1426ACTN    C114719   8.714   7.120   1.351
 1426ACTN    H114720   8.717   7.094   1.245
 1426ACTN    H214721   8.672   7.220   1.359
 1426ACTN    H314722   8.649   7.050   1.402
 1427ACTN    H614723   7.420   6.314   3.873
 1427ACTN    C314724   7.522   6.278   3.866
 1427ACTN    H414725   7.562   6.310   3.770
 1427ACTN    H514726   7.522   6.170   3.869
 1427ACTN    C214727   7.606   6.336   3.977
 1427ACTN    O114728   7.612   6.457   3.993
 1427ACTN    C114729   7.679   6.244   4.071
 1427ACTN    H114730   7.647   6.261   4.173
 1427ACTN    H214731   7.786   6.262   4.065
 1427ACTN    H314732   7.661   6.140   4.046
 1428ACTN    H614733   7.635   1.972   6.454
 1428ACTN    C314734   7.657   1.866   6.466
 1428ACTN    H414735   7.639   1.816   6.371
 1428ACTN    H514736   7.762   1.855   6.493
 1428ACTN    C214737   7.570   1.805   6.571
 1428ACTN    O114738   7.578   1.686   6.599
 1428ACTN    C114739   7.478   1.895   6.647
 1428ACTN    H114740   7.425   1.961   6.578
 1428ACTN    H214741   7.534   1.956   6.717
 1428ACTN    H314742   7.403   1.838   6.703
 1429ACTN    H614743   8.226   2.838   3.568
 1429ACTN    C314744   8.154   2.918   3.580
 1429ACTN    H414745   8.203   3.012   3.553
 1429ACTN    H514746   8.072   2.902   3.510
 1429ACTN    C214747   8.102   2.921   3.720
 1429ACTN    O114748   8.092   3.028   3.779
 1429ACTN    C114749   8.042   2.797   3.778
 1429ACTN    H114750   8.117   2.718   3.781
 1429ACTN    H214751   7.960   2.763   3.716
 1429ACTN    H314752   8.005   2.813   3.878
 1430ACTN    H614753   8.514   2.427   3.906
 1430ACTN    C314754   8.451   2.492   3.967
 1430ACTN    H414755   8.477   2.596   3.944
 1430ACTN    H514756   8.347   2.476   3.939
 1430ACTN    C214757   8.471   2.466   4.113
 1430ACTN    O114758   8.403   2.524   4.196
 1430ACTN    C114759   8.570   2.361   4.155
 1430ACTN    H114760   8.540   2.264   4.116
 1430ACTN    H214761   8.576   2.354   4.263
 1430ACTN    H314762   8.668   2.385   4.117
 1431ACTN    H614763   7.873   6.071   4.324
 1431ACTN    C314764   7.976   6.061   4.293
 1431ACTN    H414765   7.997   6.136   4.218
 1431ACTN    H514766   8.039   6.081   4.380
 1431ACTN    C214767   8.005   5.924   4.239
 1431ACTN    O114768   7.917   5.838   4.236
 1431ACTN    C114769   8.143   5.896   4.188
 1431ACTN    H114770   8.215   5.906   4.269
 1431ACTN    H214771   8.169   5.966   4.109
 1431ACTN    H314772   8.150   5.795   4.148
 1432ACTN    H614773   7.768   5.327   3.496
 1432ACTN    C314774   7.785   5.434   3.481
 1432ACTN    H414775   7.795   5.453   3.375
 1432ACTN    H514776   7.697   5.487   3.518
 1432ACTN    C214777   7.907   5.480   3.555
 1432ACTN    O114778   7.985   5.398   3.602
 1432ACTN    C114779   7.939   5.626   3.558
 1432ACTN    H114780   8.039   5.644   3.520
 1432ACTN    H214781   7.933   5.663   3.660
 1432ACTN    H314782   7.869   5.682   3.496
 1433ACTN    H614783   7.619   5.704   4.429
 1433ACTN    C314784   7.576   5.787   4.484
 1433ACTN    H414785   7.468   5.776   4.484
 1433ACTN    H514786   7.610   5.781   4.587
 1433ACTN    C214787   7.615   5.917   4.421
 1433ACTN    O114788   7.675   6.003   4.486
 1433ACTN    C114789   7.574   5.945   4.280
 1433ACTN    H114790   7.515   6.037   4.275
 1433ACTN    H214791   7.514   5.864   4.241
 1433ACTN    H314792   7.662   5.957   4.217
 1434ACTN    H614793   8.295   4.843   6.506
 1434ACTN    C314794   8.224   4.796   6.439
 1434ACTN    H414795   8.261   4.806   6.337
 1434ACTN    H514796   8.220   4.690   6.464
 1434ACTN    C214797   8.090   4.861   6.452
 1434ACTN    O114798   7.988   4.793   6.458
 1434ACTN    C114799   8.080   5.009   6.431
 1434ACTN    H114800   8.147   5.061   6.499
 1434ACTN    H214801   7.979   5.045   6.450
 1434ACTN    H314802   8.107   5.035   6.329
 1435ACTN    H614803   8.487   1.481   4.890
 1435ACTN    C314804   8.419   1.398   4.878
 1435ACTN    H414805   8.477   1.307   4.864
 1435ACTN    H514806   8.361   1.388   4.970
 1435ACTN    C214807   8.327   1.422   4.762
 1435ACTN    O114808   8.333   1.352   4.662
 1435ACTN    C114809   8.230   1.536   4.771
 1435ACTN    H114810   8.171   1.544   4.679
 1435ACTN    H214811   8.283   1.629   4.786
 1435ACTN    H314812   8.162   1.521   4.854
 1436ACTN    H614813   8.317   3.945   2.772
 1436ACTN    C314814   8.389   3.916   2.847
 1436ACTN    H414815   8.394   3.994   2.923
 1436ACTN    H514816   8.354   3.824   2.895
 1436ACTN    C214817   8.523   3.893   2.785
 1436ACTN    O114818   8.536   3.811   2.695
 1436ACTN    C114819   8.639   3.976   2.831
 1436ACTN    H114820   8.731   3.950   2.777
 1436ACTN    H214821   8.656   3.959   2.937
 1436ACTN    H314822   8.620   4.081   2.815
 1437ACTN    H614823   8.837   5.897   2.125
 1437ACTN    C314824   8.911   5.903   2.205
 1437ACTN    H414825   0.010   5.900   2.161
 1437ACTN    H514826   8.898   5.998   2.255
 1437ACTN    C214827   8.893   5.788   2.299
 1437ACTN    O114828   8.906   5.673   2.259
 1437ACTN    C114829   8.863   5.813   2.444
 1437ACTN    H114830   8.854   5.919   2.465
 1437ACTN    H214831   8.941   5.772   2.507
 1437ACTN    H314832   8.769   5.766   2.471
 1438ACTN    H614833   8.342   5.430   3.707
 1438ACTN    C314834   8.326   5.523   3.652
 1438ACTN    H414835   8.416   5.546   3.597
 1438ACTN    H514836   8.245   5.506   3.581
 1438ACTN    C214837   8.290   5.632   3.748
 1438ACTN    O114838   8.343   5.743   3.738
 1438ACTN    C114839   8.175   5.613   3.842
 1438ACTN    H114840   8.101   5.692   3.830
 1438ACTN    H214841   8.210   5.613   3.945
 1438ACTN    H314842   8.126   5.517   3.823
 1439ACTN    H614843   8.806   6.266   6.731
 1439ACTN    C314844   8.765   6.194   6.802
 1439ACTN    H414845   8.743   6.247   6.894
 1439ACTN    H514846   8.672   6.156   6.761
 1439ACTN    C214847   8.863   6.084   6.827
 1439ACTN    O114848   8.977   6.111   6.864
 1439ACTN    C114849   8.823   5.942   6.801
 1439ACTN    H114850   8.884   5.898   6.723
 1439ACTN    H214851   8.719   5.936   6.771
 1439ACTN    H314852   8.836   5.883   6.891
 1440ACTN    H614853   7.234   6.532   1.707
 1440ACTN    C314854   7.335   6.550   1.670
 1440ACTN    H414855   7.394   6.461   1.689
 1440ACTN    H514856   7.329   6.565   1.562
 1440ACTN    C214857   7.396   6.670   1.736
 1440ACTN    O114858   7.508   6.707   1.703
 1440ACTN    C114859   7.320   6.739   1.846
 1440ACTN    H114860   7.377   6.823   1.885
 1440ACTN    H214861   7.300   6.670   1.927
 1440ACTN    H314862   7.226   6.777   1.808
 1441ACTN    H614863   7.534   6.876   4.058
 1441ACTN    C314864   7.508   6.981   4.069
 1441ACTN    H414865   7.436   6.992   4.150
 1441ACTN    H514866   7.598   7.036   4.097
 1441ACTN    C214867   7.453   7.035   3.941
 1441ACTN    O114868   7.521   7.031   3.839
 1441ACTN    C114869   7.314   7.091   3.939
 1441ACTN    H114870   7.287   7.126   3.840
 1441ACTN    H214871   7.307   7.174   4.008
 1441ACTN    H314872   7.243   7.015   3.970
 1442ACTN    H614873   8.587   0.184   0.514
 1442ACTN    C314874   8.572   0.289   0.489
 1442ACTN    H414875   8.477   0.321   0.529
 1442ACTN    H514876   8.651   0.346   0.537
 1442ACTN    C214877   8.578   0.309   0.341
 1442ACTN    O114878   8.586   0.214   0.264
 1442ACTN    C114879   8.561   0.449   0.288
 1442ACTN    H114880   8.572   0.452   0.180
 1442ACTN    H214881   8.637   0.514   0.332
 1442ACTN    H314882   8.463   0.487   0.315
 1443ACTN    H614883   8.032   5.585   2.919
 1443ACTN    C314884   8.055   5.632   3.015
 1443ACTN    H414885   8.029   5.737   3.009
 1443ACTN    H514886   8.162   5.624   3.031
 1443ACTN    C214887   7.982   5.562   3.126
 1443ACTN    O114888   7.917   5.626   3.207
 1443ACTN    C114889   8.001   5.415   3.145
 1443ACTN    H114890   8.038   5.394   3.245
 1443ACTN    H214891   8.074   5.376   3.073
 1443ACTN    H314892   7.907   5.362   3.130
 1444ACTN    H614893   8.177   6.356   3.195
 1444ACTN    C314894   8.262   6.422   3.211
 1444ACTN    H414895   8.350   6.376   3.167
 1444ACTN    H514896   8.243   6.516   3.160
 1444ACTN    C214897   8.284   6.446   3.358
 1444ACTN    O114898   8.217   6.388   3.442
 1444ACTN    C114899   8.395   6.538   3.401
 1444ACTN    H114900   8.354   6.621   3.458
 1444ACTN    H214901   8.448   6.578   3.315
 1444ACTN    H314902   8.465   6.484   3.464
 1445ACTN    H614903   7.991   5.730   0.798
 1445ACTN    C314904   8.044   5.800   0.735
 1445ACTN    H414905   8.113   5.858   0.797
 1445ACTN    H514906   8.103   5.744   0.663
 1445ACTN    C214907   7.949   5.890   0.663
 1445ACTN    O114908   7.856   5.842   0.599
 1445ACTN    C114909   7.966   6.038   0.675
 1445ACTN    H114910   7.902   6.091   0.604
 1445ACTN    H214911   8.069   6.066   0.655
 1445ACTN    H314912   7.940   6.071   0.775
 1446ACTN    H614913   8.239   3.018   3.215
 1446ACTN    C314914   8.207   3.117   3.185
 1446ACTN    H414915   8.295   3.177   3.167
 1446ACTN    H514916   8.151   3.108   3.092
 1446ACTN    C214917   8.120   3.177   3.291
 1446ACTN    O114918   8.013   3.124   3.319
 1446ACTN    C114919   8.161   3.304   3.359
 1446ACTN    H114920   8.171   3.287   3.466
 1446ACTN    H214921   8.086   3.381   3.344
 1446ACTN    H314922   8.256   3.340   3.321
 1447ACTN    H614923   7.580   2.938   4.733
 1447ACTN    C314924   7.671   2.890   4.769
 1447ACTN    H414925   7.661   2.783   4.754
 1447ACTN    H514926   7.755   2.926   4.709
 1447ACTN    C214927   7.692   2.923   4.914
 1447ACTN    O114928   7.707   3.039   4.949
 1447ACTN    C114929   7.693   2.812   5.015
 1447ACTN    H114930   7.616   2.828   5.090
 1447ACTN    H214931   7.789   2.809   5.066
 1447ACTN    H314932   7.676   2.716   4.969
 1448ACTN    H614933   8.649   5.293   5.586
 1448ACTN    C314934   8.571   5.348   5.533
 1448ACTN    H414935   8.482   5.286   5.527
 1448ACTN    H514936   8.547   5.437   5.590
 1448ACTN    C214937   8.619   5.384   5.395
 1448ACTN    O114938   8.637   5.501   5.363
 1448ACTN    C114939   8.642   5.272   5.298
 1448ACTN    H114940   8.677   5.310   5.202
 1448ACTN    H214941   8.551   5.216   5.281
 1448ACTN    H314942   8.718   5.205   5.337
 1449ACTN    H614943   7.360   0.282   3.215
 1449ACTN    C314944   7.403   0.326   3.305
 1449ACTN    H414945   7.462   0.250   3.356
 1449ACTN    H514946   7.471   0.405   3.274
 1449ACTN    C214947   7.296   0.379   3.395
 1449ACTN    O114948   7.214   0.303   3.445
 1449ACTN    C114949   7.289   0.525   3.425
 1449ACTN    H114950   7.191   0.565   3.401
 1449ACTN    H214951   7.307   0.543   3.530
 1449ACTN    H314952   7.363   0.581   3.368
 1450ACTN    H614953   7.835   0.712   3.974
 1450ACTN    C314954   7.738   0.706   4.023
 1450ACTN    H414955   7.677   0.636   3.968
 1450ACTN    H514956   7.753   0.667   4.124
 1450ACTN    C214957   7.672   0.839   4.030
 1450ACTN    O114958   7.723   0.937   3.977
 1450ACTN    C114959   7.537   0.846   4.095
 1450ACTN    H114960   7.541   0.802   4.194
 1450ACTN    H214961   7.463   0.793   4.036
 1450ACTN    H314962   7.505   0.949   4.106
 1451ACTN    H614963   7.347   4.976   5.179
 1451ACTN    C314964   7.413   4.906   5.229
 1451ACTN    H414965   7.381   4.895   5.332
 1451ACTN    H514966   7.401   4.809   5.180
 1451ACTN    C214967   7.555   4.951   5.219
 1451ACTN    O114968   7.624   4.964   5.319
 1451ACTN    C114969   7.612   4.978   5.083
 1451ACTN    H114970   7.555   5.056   5.034
 1451ACTN    H214971   7.606   4.888   5.021
 1451ACTN    H314972   7.716   5.009   5.088
 1452ACTN    H614973   7.418   1.223   5.649
 1452ACTN    C314974   7.370   1.215   5.746
 1452ACTN    H414975   7.349   1.316   5.782
 1452ACTN    H514976   7.275   1.164   5.731
 1452ACTN    C214977   7.458   1.142   5.842
 1452ACTN    O114978   7.415   1.047   5.907
 1452ACTN    C114979   7.598   1.191   5.863
 1452ACTN    H114980   7.613   1.219   5.967
 1452ACTN    H214981   7.618   1.278   5.801
 1452ACTN    H314982   7.669   1.113   5.838
 1453ACTN    H614983   7.962   1.337   4.088
 1453ACTN    C314984   8.039   1.348   4.164
 1453ACTN    H414985   8.132   1.375   4.116
 1453ACTN    H514986   8.009   1.428   4.231
 1453ACTN    C214987   8.055   1.220   4.240
 1453ACTN    O114988   8.089   1.118   4.180
 1453ACTN    C114989   8.041   1.221   4.389
 1453ACTN    H114990   8.120   1.281   4.434
 1453ACTN    H214991   8.047   1.120   4.430
 1453ACTN    H314992   7.945   1.264   4.417
 1454ACTN    H614993   8.747   6.612   6.066
 1454ACTN    C314994   8.735   6.516   6.016
 1454ACTN    H414995   8.628   6.501   5.998
 1454ACTN    H514996   8.785   6.520   5.920
 1454ACTN    C214997   8.788   6.405   6.100
 1454ACTN    O114998   8.755   6.398   6.218
 1454ACTN    C114999   8.898   6.317   6.049
 1454ACTN    H115000   8.861   6.216   6.036
 1454ACTN    H215001   8.981   6.315   6.119
 1454ACTN    H315002   8.935   6.353   5.953
 1455ACTN    H615003   7.517   4.364   3.338
 1455ACTN    C315004   7.619   4.399   3.348
 1455ACTN    H415005   7.616   4.506   3.370
 1455ACTN    H515006   7.665   4.348   3.432
 1455ACTN    C215007   7.695   4.374   3.222
 1455ACTN    O115008   7.656   4.421   3.116
 1455ACTN    C115009   7.819   4.290   3.228
 1455ACTN    H115010   7.894   4.338   3.291
 1455ACTN    H215011   7.862   4.275   3.129
 1455ACTN    H315012   7.796   4.193   3.269
 1456ACTN    H615013   8.518   4.591   4.691
 1456ACTN    C315014   8.456   4.502   4.696
 1456ACTN    H415015   8.387   4.505   4.612
 1456ACTN    H515016   8.520   4.415   4.683
 1456ACTN    C215017   8.382   4.497   4.826
 1456ACTN    O115018   8.444   4.481   4.930
 1456ACTN    C115019   8.232   4.488   4.824
 1456ACTN    H115020   8.191   4.489   4.924
 1456ACTN    H215021   8.201   4.396   4.775
 1456ACTN    H315022   8.191   4.572   4.769
 1457ACTN    H615023   7.463   1.641   4.866
 1457ACTN    C315024   7.472   1.674   4.969
 1457ACTN    H415025   7.574   1.660   5.001
 1457ACTN    H515026   7.449   1.781   4.972
 1457ACTN    C215027   7.378   1.597   5.056
 1457ACTN    O115028   7.387   1.475   5.064
 1457ACTN    C115029   7.271   1.669   5.133
 1457ACTN    H115030   7.278   1.777   5.118
 1457ACTN    H215031   7.282   1.648   5.239
 1457ACTN    H315032   7.173   1.636   5.101
 1458ACTN    H615033   7.681   6.879   1.933
 1458ACTN    C315034   7.632   6.960   1.987
 1458ACTN    H415035   7.555   6.916   2.050
 1458ACTN    H515036   7.706   7.007   2.051
 1458ACTN    C215037   7.573   7.060   1.893
 1458ACTN    O115038   7.503   7.151   1.935
 1458ACTN    C115039   7.595   7.045   1.745
 1458ACTN    H115040   7.650   6.954   1.723
 1458ACTN    H215041   7.651   7.129   1.707
 1458ACTN    H315042   7.499   7.040   1.693
 1459ACTN    H615043   8.605   4.723   2.571
 1459ACTN    C315044   8.680   4.739   2.648
 1459ACTN    H415045   8.775   4.700   2.611
 1459ACTN    H515046   8.692   4.845   2.665
 1459ACTN    C215047   8.641   4.669   2.775
 1459ACTN    O115048   8.632   4.546   2.777
 1459ACTN    C115049   8.621   4.748   2.900
 1459ACTN    H115050   8.543   4.823   2.885
 1459ACTN    H215051   8.712   4.800   2.928
 1459ACTN    H315052   8.591   4.685   2.983
 1460ACTN    H615053   8.014   1.257   4.768
 1460ACTN    C315054   7.910   1.229   4.753
 1460ACTN    H415055   7.893   1.216   4.647
 1460ACTN    H515056   7.893   1.133   4.802
 1460ACTN    C215057   7.818   1.334   4.808
 1460ACTN    O115058   7.741   1.309   4.899
 1460ACTN    C115059   7.827   1.473   4.753
 1460ACTN    H115060   7.854   1.543   4.831
 1460ACTN    H215061   7.731   1.503   4.711
 1460ACTN    H315062   7.902   1.479   4.674
 1461ACTN    H615063   8.173   0.991   3.855
 1461ACTN    C315064   8.114   1.072   3.814
 1461ACTN    H415065   8.040   1.103   3.888
 1461ACTN    H515066   8.180   1.157   3.795
 1461ACTN    C215067   8.048   1.030   3.686
 1461ACTN    O115068   8.115   0.981   3.596
 1461ACTN    C115069   7.899   1.036   3.674
 1461ACTN    H115070   7.858   0.938   3.653
 1461ACTN    H215071   7.870   1.103   3.594
 1461ACTN    H315072   7.853   1.072   3.766
 1462ACTN    H615073   8.921   6.819   2.127
 1462ACTN    C315074   8.826   6.855   2.165
 1462ACTN    H415075   8.754   6.774   2.163
 1462ACTN    H515076   8.840   6.886   2.268
 1462ACTN    C215077   8.779   6.971   2.082
 1462ACTN    O115078   8.726   6.950   1.973
 1462ACTN    C115079   8.775   7.107   2.143
 1462ACTN    H115080   8.873   7.133   2.183
 1462ACTN    H215081   8.702   7.110   2.224
 1462ACTN    H315082   8.748   7.182   2.070
 1463ACTN    H615083   7.844   1.373   7.292
 1463ACTN    C315084   7.736   1.367   7.279
 1463ACTN    H415085   7.715   1.341   7.176
 1463ACTN    H515086   7.698   1.288   7.343
 1463ACTN    C215087   7.672   1.499   7.312
 1463ACTN    O115088   7.716   1.602   7.263
 1463ACTN    C115089   7.563   1.505   7.414
 1463ACTN    H115090   7.593   1.566   7.499
 1463ACTN    H215091   7.538   1.405   7.451
 1463ACTN    H315092   7.473   1.548   7.371
 1464ACTN    H615093   7.778   5.653   2.295
 1464ACTN    C315094   7.742   5.723   2.370
 1464ACTN    H415095   7.674   5.670   2.436
 1464ACTN    H515096   7.827   5.757   2.428
 1464ACTN    C215097   7.672   5.840   2.307
 1464ACTN    O115098   7.654   5.844   2.186
 1464ACTN    C115099   7.618   5.948   2.395
 1464ACTN    H115100   7.662   6.044   2.367
 1464ACTN    H215101   7.641   5.929   2.499
 1464ACTN    H315102   7.510   5.956   2.383
 1465ACTN    H615103   8.420   6.715   1.307
 1465ACTN    C315104   8.514   6.762   1.334
 1465ACTN    H415105   8.544   6.830   1.254
 1465ACTN    H515106   8.498   6.821   1.425
 1465ACTN    C215107   8.620   6.659   1.355
 1465ACTN    O115108   8.701   6.672   1.447
 1465ACTN    C115109   8.644   6.559   1.246
 1465ACTN    H115110   8.553   6.505   1.224
 1465ACTN    H215111   8.720   6.486   1.276
 1465ACTN    H315112   8.679   6.610   1.156
 1466ACTN    H615113   8.934   5.674   5.671
 1466ACTN    C315114   8.898   5.577   5.636
 1466ACTN    H415115   8.836   5.594   5.549
 1466ACTN    H515116   8.985   5.519   5.606
 1466ACTN    C215117   8.820   5.507   5.743
 1466ACTN    O115118   8.849   5.393   5.778
 1466ACTN    C115119   8.704   5.578   5.805
 1466ACTN    H115120   8.737   5.665   5.861
 1466ACTN    H215121   8.649   5.513   5.872
 1466ACTN    H315122   8.635   5.611   5.727
 1467ACTN    H615123   8.292   6.791   0.440
 1467ACTN    C315124   8.266   6.733   0.352
 1467ACTN    H415125   8.358   6.704   0.302
 1467ACTN    H515126   8.216   6.642   0.384
 1467ACTN    C215127   8.177   6.812   0.262
 1467ACTN    O115128   8.212   6.841   0.148
 1467ACTN    C115129   8.045   6.859   0.315
 1467ACTN    H115130   7.964   6.814   0.259
 1467ACTN    H215131   8.037   6.967   0.305
 1467ACTN    H315132   8.033   6.834   0.420
 1468ACTN    H615133   8.275   0.175   1.040
 1468ACTN    C315134   8.305   0.274   1.074
 1468ACTN    H415135   8.292   0.278   1.182
 1468ACTN    H515136   8.237   0.347   1.029
 1468ACTN    C215137   8.446   0.302   1.035
 1468ACTN    O115138   8.536   0.301   1.118
 1468ACTN    C115139   8.477   0.318   0.889
 1468ACTN    H115140   8.582   0.341   0.873
 1468ACTN    H215141   8.417   0.398   0.846
 1468ACTN    H315142   8.454   0.226   0.836
 1469ACTN    H615143   8.633   5.054   4.474
 1469ACTN    C315144   8.656   4.952   4.503
 1469ACTN    H415145   8.669   4.891   4.414
 1469ACTN    H515146   8.750   4.951   4.558
 1469ACTN    C215147   8.544   4.897   4.587
 1469ACTN    O115148   8.565   4.856   4.700
 1469ACTN    C115149   8.410   4.881   4.523
 1469ACTN    H115150   8.337   4.840   4.592
 1469ACTN    H215151   8.416   4.815   4.437
 1469ACTN    H315152   8.373   4.978   4.489
 1470ACTN    H615153   7.644   0.235   5.262
 1470ACTN    C315154   7.600   0.253   5.165
 1470ACTN    H415155   7.582   0.157   5.116
 1470ACTN    H515156   7.504   0.302   5.179
 1470ACTN    C215157   7.692   0.339   5.083
 1470ACTN    O115158   7.743   0.296   4.980
 1470ACTN    C115159   7.719   0.480   5.127
 1470ACTN    H115160   7.663   0.504   5.217
 1470ACTN    H215161   7.692   0.551   5.050
 1470ACTN    H315162   7.825   0.492   5.149
 1471ACTN    H615163   8.750   1.799   6.076
 1471ACTN    C315164   8.660   1.783   6.016
 1471ACTN    H415165   8.584   1.853   6.048
 1471ACTN    H515166   8.685   1.806   5.912
 1471ACTN    C215167   8.612   1.642   6.030
 1471ACTN    O115168   8.578   1.599   6.140
 1471ACTN    C115169   8.602   1.553   5.910
 1471ACTN    H115170   8.668   1.467   5.921
 1471ACTN    H215171   8.631   1.606   5.820
 1471ACTN    H315172   8.501   1.517   5.897
 1472ACTN    H615173   8.513   4.740   6.124
 1472ACTN    C315174   8.598   4.698   6.176
 1472ACTN    H415175   8.573   4.690   6.282
 1472ACTN    H515176   8.615   4.597   6.138
 1472ACTN    C215177   8.721   4.782   6.155
 1472ACTN    O115178   8.768   4.848   6.248
 1472ACTN    C115179   8.772   4.798   6.016
 1472ACTN    H115180   8.694   4.840   5.952
 1472ACTN    H215181   8.801   4.702   5.975
 1472ACTN    H315182   8.858   4.864   6.012
 1473ACTN    H615183   8.599   7.141   4.381
 1473ACTN    C315184   8.621   7.165   4.277
 1473ACTN    H415185   8.691   7.248   4.275
 1473ACTN    H515186   8.529   7.199   4.231
 1473ACTN    C215187   8.676   7.047   4.206
 1473ACTN    O115188   8.613   6.990   4.118
 1473ACTN    C115189   8.809   6.994   4.251
 1473ACTN    H115190   8.804   6.964   4.355
 1473ACTN    H215191   8.885   7.071   4.241
 1473ACTN    H315192   8.840   6.908   4.191
 1474ACTN    H615193   8.244   2.783   1.803
 1474ACTN    C315194   8.299   2.703   1.755
 1474ACTN    H415195   8.242   2.611   1.764
 1474ACTN    H515196   8.307   2.726   1.649
 1474ACTN    C215197   8.434   2.688   1.817
 1474ACTN    O115198   8.444   2.665   1.937
 1474ACTN    C115199   8.558   2.701   1.733
 1474ACTN    H115200   8.533   2.720   1.629
 1474ACTN    H215201   8.616   2.609   1.738
 1474ACTN    H315202   8.620   2.783   1.769
 1475ACTN    H615203   8.625   8.965   4.708
 1475ACTN    C315204   8.637   0.055   4.648
 1475ACTN    H415205   8.573   0.047   4.561
 1475ACTN    H515206   8.604   0.140   4.707
 1475ACTN    C215207   8.780   0.074   4.606
 1475ACTN    O115208   8.813   0.171   4.539
 1475ACTN    C115209   8.883   8.975   4.652
 1475ACTN    H115210   8.925   8.924   4.566
 1475ACTN    H215211   8.841   8.902   4.720
 1475ACTN    H315212   8.964   0.027   4.703
 1476ACTN    H615213   8.721   3.860   4.893
 1476ACTN    C315214   8.776   3.859   4.986
 1476ACTN    H415215   8.882   3.851   4.962
 1476ACTN    H515216   8.760   3.955   5.036
 1476ACTN    C215217   8.734   3.744   5.072
 1476ACTN    O115218   8.685   3.764   5.183
 1476ACTN    C115219   8.746   3.606   5.017
 1476ACTN    H115220   8.850   3.583   4.996
 1476ACTN    H215221   8.690   3.597   4.924
 1476ACTN    H315222   8.708   3.532   5.087
 1477ACTN    H615223   8.854   5.221   2.680
 1477ACTN    C315224   8.791   5.239   2.594
 1477ACTN    H415225   8.829   5.327   2.542
 1477ACTN    H515226   8.799   5.154   2.527
 1477ACTN    C215227   8.648   5.258   2.636
 1477ACTN    O115228   8.586   5.359   2.603
 1477ACTN    C115229   8.584   5.150   2.717
 1477ACTN    H115230   8.641   5.132   2.808
 1477ACTN    H215231   8.579   5.059   2.660
 1477ACTN    H315232   8.482   5.178   2.746
 1478ACTN    H615233   8.609   6.203   4.143
 1478ACTN    C315234   8.523   6.153   4.100
 1478ACTN    H415235   8.435   6.216   4.115
 1478ACTN    H515236   8.538   6.143   3.992
 1478ACTN    C215237   8.501   6.019   4.164
 1478ACTN    O115238   8.485   6.012   4.285
 1478ACTN    C115239   8.507   5.895   4.081
 1478ACTN    H115240   8.525   5.917   3.976
 1478ACTN    H215241   8.413   5.840   4.088
 1478ACTN    H315242   8.586   5.829   4.116
 1479ACTN    H615243   8.398   5.346   1.046
 1479ACTN    C315244   8.465   5.312   1.125
 1479ACTN    H415245   8.566   5.347   1.102
 1479ACTN    H515246   8.467   5.204   1.126
 1479ACTN    C215247   8.422   5.364   1.259
 1479ACTN    O115248   8.489   5.341   1.358
 1479ACTN    C115249   8.299   5.449   1.269
 1479ACTN    H115250   8.253   5.464   1.172
 1479ACTN    H215251   8.323   5.546   1.312
 1479ACTN    H315252   8.227   5.400   1.334
 1480ACTN    H615253   7.606   2.939   4.237
 1480ACTN    C315254   7.628   2.835   4.212
 1480ACTN    H415255   7.611   2.774   4.301
 1480ACTN    H515256   7.557   2.804   4.135
 1480ACTN    C215257   7.768   2.818   4.164
 1480ACTN    O115258   7.844   2.914   4.161
 1480ACTN    C115259   7.815   2.683   4.120
 1480ACTN    H115260   7.736   2.609   4.132
 1480ACTN    H215261   7.901   2.651   4.178
 1480ACTN    H315262   7.843   2.685   4.015
 1481ACTN    H615263   8.239   6.367   5.026
 1481ACTN    C315264   8.179   6.382   4.936
 1481ACTN    H415265   8.241   6.359   4.850
 1481ACTN    H515266   8.096   6.312   4.938
 1481ACTN    C215267   8.130   6.524   4.928
 1481ACTN    O115268   8.013   6.550   4.954
 1481ACTN    C115269   8.231   6.633   4.910
 1481ACTN    H115270   8.182   6.729   4.896
 1481ACTN    H215271   8.293   6.613   4.823
 1481ACTN    H315272   8.295   6.641   4.998
 1482ACTN    H615273   8.584   0.515   3.953
 1482ACTN    C315274   8.684   0.492   3.988
 1482ACTN    H415275   8.679   0.470   4.095
 1482ACTN    H515276   8.719   0.403   3.936
 1482ACTN    C215277   8.777   0.607   3.963
 1482ACTN    O115278   8.893   0.586   3.934
 1482ACTN    C115279   8.738   0.743   4.012
 1482ACTN    H115280   8.648   0.777   3.962
 1482ACTN    H215281   8.816   0.816   3.992
 1482ACTN    H315282   8.718   0.741   4.118
 1483ACTN    H615283   8.331   3.622   2.446
 1483ACTN    C315284   8.241   3.582   2.492
 1483ACTN    H415285   8.155   3.636   2.452
 1483ACTN    H515286   8.231   3.477   2.463
 1483ACTN    C215287   8.249   3.595   2.640
 1483ACTN    O115288   8.337   3.536   2.702
 1483ACTN    C115289   8.143   3.673   2.712
 1483ACTN    H115290   8.161   3.676   2.819
 1483ACTN    H215291   8.045   3.628   2.696
 1483ACTN    H315292   8.140   3.776   2.675
 1484ACTN    H615293   0.164   6.078   5.766
 1484ACTN    C315294   0.064   6.115   5.743
 1484ACTN    H415295   0.023   6.159   5.833
 1484ACTN    H515296   0.073   6.192   5.667
 1484ACTN    C215297   8.978   6.002   5.694
 1484ACTN    O115298   0.009   5.942   5.592
 1484ACTN    C115299   8.852   5.967   5.767
 1484ACTN    H115300   8.767   5.971   5.699
 1484ACTN    H215301   8.833   6.037   5.849
 1484ACTN    H315302   8.860   5.867   5.808
 1485ACTN    H615303   8.326   0.134   3.459
 1485ACTN    C315304   8.222   0.122   3.489
 1485ACTN    H415305   8.219   0.049   3.570
 1485ACTN    H515306   8.167   0.081   3.405
 1485ACTN    C215307   8.164   0.253   3.530
 1485ACTN    O115308   8.162   0.347   3.451
 1485ACTN    C115309   8.119   0.274   3.672
 1485ACTN    H115310   8.013   0.298   3.674
 1485ACTN    H215311   8.173   0.357   3.717
 1485ACTN    H315312   8.134   0.185   3.732
 1486ACTN    H615313   7.666   5.119   1.195
 1486ACTN    C315314   7.693   5.203   1.132
 1486ACTN    H415315   7.802   5.207   1.125
 1486ACTN    H515316   7.653   5.186   1.033
 1486ACTN    C215317   7.640   5.331   1.190
 1486ACTN    O115318   7.670   5.363   1.304
 1486ACTN    C115319   7.551   5.417   1.106
 1486ACTN    H115320   7.462   5.363   1.077
 1486ACTN    H215321   7.604   5.448   1.015
 1486ACTN    H315322   7.521   5.507   1.159
 1487ACTN    H615323   8.135   2.232   2.695
 1487ACTN    C315324   8.135   2.124   2.684
 1487ACTN    H415325   8.230   2.095   2.641
 1487ACTN    H515326   8.127   2.080   2.783
 1487ACTN    C215327   8.020   2.081   2.599
 1487ACTN    O115328   8.037   2.011   2.499
 1487ACTN    C115329   7.881   2.121   2.638
 1487ACTN    H115330   7.835   2.178   2.559
 1487ACTN    H215331   7.883   2.183   2.727
 1487ACTN    H315332   7.820   2.033   2.658
 1488ACTN    H615333   7.643   6.120   5.427
 1488ACTN    C315334   7.570   6.088   5.352
 1488ACTN    H415335   7.618   6.014   5.288
 1488ACTN    H515336   7.487   6.041   5.403
 1488ACTN    C215337   7.522   6.204   5.270
 1488ACTN    O115338   7.559   6.318   5.293
 1488ACTN    C115339   7.423   6.177   5.160
 1488ACTN    H115340   7.394   6.269   5.110
 1488ACTN    H215341   7.334   6.131   5.202
 1488ACTN    H315342   7.465   6.109   5.087
 1489ACTN    H615343   8.073   6.051   2.937
 1489ACTN    C315344   8.009   6.121   2.884
 1489ACTN    H415345   7.907   6.082   2.886
 1489ACTN    H515346   8.011   6.216   2.937
 1489ACTN    C215347   8.054   6.139   2.742
 1489ACTN    O115348   7.996   6.218   2.669
 1489ACTN    C115349   8.176   6.067   2.693
 1489ACTN    H115350   8.148   5.999   2.612
 1489ACTN    H215351   8.221   6.008   2.772
 1489ACTN    H315352   8.249   6.137   2.655
 1490ACTN    H615353   8.286   6.929   1.651
 1490ACTN    C315354   8.227   6.838   1.646
 1490ACTN    H415355   8.269   6.774   1.569
 1490ACTN    H515356   8.234   6.787   1.741
 1490ACTN    C215357   8.084   6.872   1.616
 1490ACTN    O115358   8.031   6.834   1.512
 1490ACTN    C115359   8.009   6.957   1.714
 1490ACTN    H115360   7.908   6.977   1.680
 1490ACTN    H215361   8.060   7.052   1.729
 1490ACTN    H315362   8.003   6.906   1.810
 1491ACTN    H615363   7.945   1.406   5.973
 1491ACTN    C315364   8.023   1.480   5.956
 1491ACTN    H415365   8.004   1.526   5.859
 1491ACTN    H515366   8.016   1.556   6.032
 1491ACTN    C215367   8.158   1.415   5.959
 1491ACTN    O115368   8.236   1.427   5.866
 1491ACTN    C115369   8.198   1.340   6.083
 1491ACTN    H115370   8.284   1.388   6.130
 1491ACTN    H215371   8.227   1.238   6.057
 1491ACTN    H315372   8.117   1.335   6.155
 1492ACTN    H615373   8.393   1.901   6.559
 1492ACTN    C315374   8.388   1.845   6.652
 1492ACTN    H415375   8.358   1.913   6.731
 1492ACTN    H515376   8.312   1.768   6.641
 1492ACTN    C215377   8.522   1.785   6.683
 1492ACTN    O115378   8.618   1.857   6.705
 1492ACTN    C115379   8.533   1.636   6.697
 1492ACTN    H115380   8.635   1.606   6.719
 1492ACTN    H215381   8.503   1.587   6.605
 1492ACTN    H315382   8.469   1.600   6.777
 1493ACTN    H615383   7.717   7.088   4.427
 1493ACTN    C315384   7.794   7.093   4.503
 1493ACTN    H415385   7.751   7.136   4.593
 1493ACTN    H515386   7.827   6.992   4.526
 1493ACTN    C215387   7.911   7.175   4.458
 1493ACTN    O115388   7.909   7.233   4.350
 1493ACTN    C115389   8.028   7.191   4.549
 1493ACTN    H115390   8.118   7.150   4.504
 1493ACTN    H215391   8.011   7.140   4.644
 1493ACTN    H315392   8.046   7.296   4.570
 1494ACTN    H615393   7.954   1.767   6.358
 1494ACTN    C315394   7.925   1.663   6.374
 1494ACTN    H415395   7.817   1.657   6.372
 1494ACTN    H515396   7.964   1.604   6.292
 1494ACTN    C215397   7.978   1.615   6.506
 1494ACTN    O115398   7.961   1.680   6.608
 1494ACTN    C115399   8.051   1.484   6.509
 1494ACTN    H115400   7.985   1.403   6.478
 1494ACTN    H215401   8.087   1.462   6.609
 1494ACTN    H315402   8.136   1.487   6.442
 1495ACTN    H615403   8.103   6.664   4.156
 1495ACTN    C315404   8.149   6.756   4.191
 1495ACTN    H415405   8.224   6.729   4.265
 1495ACTN    H515406   8.198   6.804   4.107
 1495ACTN    C215407   8.045   6.847   4.250
 1495ACTN    O115408   8.048   6.877   4.369
 1495ACTN    C115409   7.935   6.897   4.162
 1495ACTN    H115410   7.874   6.814   4.127
 1495ACTN    H215411   7.977   6.947   4.075
 1495ACTN    H315412   7.871   6.967   4.214
 1496ACTN    H615413   7.817   1.869   4.313
 1496ACTN    C315414   7.920   1.896   4.333
 1496ACTN    H415415   7.984   1.815   4.298
 1496ACTN    H515416   7.944   1.986   4.276
 1496ACTN    C215417   7.940   1.919   4.480
 1496ACTN    O115418   7.992   2.022   4.522
 1496ACTN    C115419   7.904   1.809   4.575
 1496ACTN    H115420   7.827   1.842   4.644
 1496ACTN    H215421   7.992   1.779   4.632
 1496ACTN    H315422   7.868   1.722   4.522
 1497ACTN    H615423   8.015   6.567   2.819
 1497ACTN    C315424   7.945   6.565   2.903
 1497ACTN    H415425   7.849   6.601   2.868
 1497ACTN    H515426   7.933   6.461   2.935
 1497ACTN    C215427   7.994   6.649   3.017
 1497ACTN    O115428   8.102   6.707   3.011
 1497ACTN    C115429   7.911   6.656   3.141
 1497ACTN    H115430   7.957   6.720   3.216
 1497ACTN    H215431   7.899   6.556   3.183
 1497ACTN    H315432   7.813   6.695   3.118
 1498ACTN    H615433   8.596   1.527   1.233
 1498ACTN    C315434   8.553   1.430   1.256
 1498ACTN    H415435   8.485   1.442   1.340
 1498ACTN    H515436   8.495   1.397   1.170
 1498ACTN    C215437   8.659   1.329   1.288
 1498ACTN    O115438   8.778   1.360   1.282
 1498ACTN    C115439   8.617   1.189   1.320
 1498ACTN    H115440   8.549   1.189   1.404
 1498ACTN    H215441   8.703   1.128   1.346
 1498ACTN    H315442   8.568   1.144   1.234
 1499ACTN    H615443   8.411   3.068   4.146
 1499ACTN    C315444   8.462   2.992   4.087
 1499ACTN    H415445   8.528   3.043   4.016
 1499ACTN    H515446   8.524   2.933   4.154
 1499ACTN    C215447   8.362   2.906   4.017
 1499ACTN    O115448   8.377   2.878   3.898
 1499ACTN    C115449   8.252   2.844   4.096
 1499ACTN    H115450   8.255   2.736   4.089
 1499ACTN    H215451   8.155   2.879   4.060
 1499ACTN    H315452   8.260   2.871   4.201
 1500ACTN    H615453   8.798   7.229   3.160
 1500ACTN    C315454   8.783   7.224   3.053
 1500ACTN    H415455   8.691   7.170   3.033
 1500ACTN    H515456   8.772   7.325   3.016
 1500ACTN    C215457   8.900   7.157   2.988
 1500ACTN    O115458   0.013   7.202   3.000
 1500ACTN    C115459   8.876   7.033   2.907
 1500ACTN    H115460   8.969   6.992   2.868
 1500ACTN    H215461   8.811   7.056   2.823
 1500ACTN    H315462   8.827   6.958   2.967
 1501ACTN    H615463   7.577   2.600   1.642
 1501ACTN    C315464   7.585   2.536   1.555
 1501ACTN    H415465   7.582   2.433   1.589
 1501ACTN    H515466   7.498   2.553   1.492
 1501ACTN    C215467   7.710   2.562   1.478
 1501ACTN    O115468   7.780   2.659   1.505
 1501ACTN    C115469   7.742   2.479   1.358
 1501ACTN    H115470   7.664   2.405   1.341
 1501ACTN    H215471   7.836   2.427   1.371
 1501ACTN    H315472   7.749   2.542   1.269
 1502ACTN    H615473   7.700   1.722   5.809
 1502ACTN    C315474   7.711   1.707   5.916
 1502ACTN    H415475   7.659   1.615   5.943
 1502ACTN    H515476   7.816   1.695   5.939
 1502ACTN    C215477   7.652   1.823   5.991
 1502ACTN    O115478   7.531   1.843   5.986
 1502ACTN    C115479   7.739   1.902   6.084
 1502ACTN    H115480   7.836   1.856   6.097
 1502ACTN    H215481   7.692   1.912   6.182
 1502ACTN    H315482   7.754   2.002   6.045
 1503ACTN    H615483   8.453   0.510   4.175
 1503ACTN    C315484   8.399   0.476   4.264
 1503ACTN    H415485   8.457   0.397   4.311
 1503ACTN    H515486   8.391   0.560   4.333
 1503ACTN    C215487   8.263   0.426   4.227
 1503ACTN    O115488   8.186   0.392   4.315
 1503ACTN    C115489   8.223   0.423   4.082
 1503ACTN    H115490   8.120   0.391   4.070
 1503ACTN    H215491   8.286   0.354   4.028
 1503ACTN    H315492   8.234   0.522   4.038
 1504ACTN    H615493   7.918   1.987   1.711
 1504ACTN    C315494   7.873   2.086   1.706
 1504ACTN    H415495   7.801   2.087   1.625
 1504ACTN    H515496   7.820   2.103   1.799
 1504ACTN    C215497   7.977   2.192   1.685
 1504ACTN    O115498   8.092   2.161   1.658
 1504ACTN    C115499   7.935   2.336   1.691
 1504ACTN    H115500   7.959   2.386   1.597
 1504ACTN    H215501   7.989   2.387   1.771
 1504ACTN    H315502   7.829   2.345   1.709
 1505ACTN    H615503   7.718   2.295   2.893
 1505ACTN    C315504   7.705   2.394   2.851
 1505ACTN    H415505   7.797   2.419   2.799
 1505ACTN    H515506   7.625   2.389   2.778
 1505ACTN    C215507   7.673   2.492   2.959
 1505ACTN    O115508   7.761   2.565   3.004
 1505ACTN    C115509   7.539   2.487   3.024
 1505ACTN    H115510   7.548   2.477   3.132
 1505ACTN    H215511   7.481   2.403   2.986
 1505ACTN    H315512   7.483   2.579   3.002
 1506ACTN    H615513   8.897   2.948   4.047
 1506ACTN    C315514   8.870   2.862   4.108
 1506ACTN    H415515   8.960   2.807   4.130
 1506ACTN    H515516   8.827   2.897   4.201
 1506ACTN    C215517   8.771   2.776   4.036
 1506ACTN    O115518   8.730   2.674   4.089
 1506ACTN    C115519   8.727   2.815   3.898
 1506ACTN    H115520   8.683   2.915   3.900
 1506ACTN    H215521   8.653   2.746   3.858
 1506ACTN    H315522   8.812   2.817   3.830
 1507ACTN    H615523   7.554   5.374   3.185
 1507ACTN    C315524   7.493   5.294   3.142
 1507ACTN    H415525   7.389   5.321   3.153
 1507ACTN    H515526   7.516   5.286   3.036
 1507ACTN    C215527   7.521   5.164   3.211
 1507ACTN    O115528   7.454   5.064   3.184
 1507ACTN    C115529   7.625   5.159   3.318
 1507ACTN    H115530   7.598   5.226   3.398
 1507ACTN    H215531   7.722   5.188   3.278
 1507ACTN    H315532   7.635   5.059   3.360
 1508ACTN    H615533   7.613   6.122   4.802
 1508ACTN    C315534   7.712   6.091   4.833
 1508ACTN    H415535   7.712   5.983   4.846
 1508ACTN    H515536   7.782   6.114   4.753
 1508ACTN    C215537   7.753   6.161   4.958
 1508ACTN    O115538   7.791   6.097   5.056
 1508ACTN    C115539   7.749   6.311   4.961
 1508ACTN    H115540   7.819   6.351   4.888
 1508ACTN    H215541   7.776   6.349   5.059
 1508ACTN    H315542   7.649   6.347   4.937
 1509ACTN    H615543   7.894   7.163   3.837
 1509ACTN    C315544   7.840   7.129   3.748
 1509ACTN    H415545   7.753   7.193   3.735
 1509ACTN    H515546   7.806   7.027   3.766
 1509ACTN    C215547   7.930   7.138   3.629
 1509ACTN    O115548   7.948   7.040   3.557
 1509ACTN    C115549   7.989   7.270   3.591
 1509ACTN    H115550   8.098   7.264   3.596
 1509ACTN    H215551   7.956   7.348   3.659
 1509ACTN    H315552   7.960   7.298   3.490
 1510ACTN    H615553   7.794   3.742   2.822
 1510ACTN    C315554   7.741   3.648   2.809
 1510ACTN    H415555   7.793   3.572   2.867
 1510ACTN    H515556   7.641   3.659   2.850
 1510ACTN    C215557   7.734   3.608   2.665
 1510ACTN    O115558   7.787   3.677   2.578
 1510ACTN    C115559   7.666   3.479   2.631
 1510ACTN    H115560   7.563   3.480   2.666
 1510ACTN    H215561   7.717   3.395   2.678
 1510ACTN    H315562   7.665   3.462   2.523
 1511ACTN    H615563   7.690   5.542   1.719
 1511ACTN    C315564   7.732   5.453   1.673
 1511ACTN    H415565   7.695   5.446   1.571
 1511ACTN    H515566   7.840   5.465   1.669
 1511ACTN    C215567   7.694   5.331   1.750
 1511ACTN    O115568   7.576   5.301   1.766
 1511ACTN    C115569   7.803   5.246   1.809
 1511ACTN    H115570   7.862   5.304   1.879
 1511ACTN    H215571   7.869   5.211   1.730
 1511ACTN    H315572   7.763   5.159   1.861
 1512ACTN    H615573   7.595   0.398   4.230
 1512ACTN    C315574   7.627   0.395   4.126
 1512ACTN    H415575   7.590   0.303   4.082
 1512ACTN    H515576   7.581   0.477   4.073
 1512ACTN    C215577   7.777   0.401   4.115
 1512ACTN    O115578   7.831   0.387   4.007
 1512ACTN    C115579   7.860   0.420   4.237
 1512ACTN    H115580   7.800   0.434   4.326
 1512ACTN    H215581   7.925   0.506   4.225
 1512ACTN    H315582   7.924   0.333   4.252
 1513ACTN    H615583   7.944   0.653   4.558
 1513ACTN    C315584   7.970   0.549   4.579
 1513ACTN    H415585   7.880   0.495   4.605
 1513ACTN    H515586   8.011   0.506   4.488
 1513ACTN    C215587   8.069   0.544   4.691
 1513ACTN    O115588   8.034   0.573   4.805
 1513ACTN    C115589   8.206   0.489   4.669
 1513ACTN    H115590   8.223   0.402   4.733
 1513ACTN    H215591   8.282   0.564   4.692
 1513ACTN    H315592   8.220   0.458   4.565
 1514ACTN    H615593   8.321   0.852   3.164
 1514ACTN    C315594   8.364   0.827   3.068
 1514ACTN    H415595   8.341   0.723   3.046
 1514ACTN    H515596   8.318   0.890   2.992
 1514ACTN    C215597   8.513   0.847   3.072
 1514ACTN    O115598   8.571   0.911   2.985
 1514ACTN    C115599   8.590   0.781   3.180
 1514ACTN    H115600   8.586   0.673   3.169
 1514ACTN    H215601   8.550   0.807   3.278
 1514ACTN    H315602   8.695   0.811   3.178
 1515ACTN    H615603   8.444   5.900   2.980
 1515ACTN    C315604   8.508   5.812   2.982
 1515ACTN    H415605   8.535   5.792   3.085
 1515ACTN    H515606   8.598   5.834   2.925
 1515ACTN    C215607   8.436   5.696   2.921
 1515ACTN    O115608   8.414   5.595   2.987
 1515ACTN    C115609   8.391   5.705   2.779
 1515ACTN    H115610   8.316   5.783   2.768
 1515ACTN    H215611   8.347   5.612   2.744
 1515ACTN    H315612   8.475   5.730   2.714
 1516ACTN    H615613   8.005   6.690   2.496
 1516ACTN    C315614   7.904   6.695   2.536
 1516ACTN    H415615   7.836   6.721   2.455
 1516ACTN    H515616   7.875   6.597   2.573
 1516ACTN    C215617   7.894   6.797   2.645
 1516ACTN    O115618   7.786   6.820   2.698
 1516ACTN    C115619   8.017   6.873   2.685
 1516ACTN    H115620   7.996   6.942   2.766
 1516ACTN    H215621   8.055   6.930   2.600
 1516ACTN    H315622   8.095   6.805   2.717
 1517ACTN    H615623   8.145   2.580   5.999
 1517ACTN    C315624   8.053   2.549   6.048
 1517ACTN    H415625   8.073   2.462   6.109
 1517ACTN    H515626   8.020   2.629   6.113
 1517ACTN    C215627   7.947   2.522   5.947
 1517ACTN    O115628   7.904   2.408   5.931
 1517ACTN    C115629   7.902   2.632   5.856
 1517ACTN    H115630   7.795   2.648   5.865
 1517ACTN    H215631   7.924   2.608   5.752
 1517ACTN    H315632   7.952   2.725   5.881
 1518ACTN    H615633   7.559   1.058   4.909
 1518ACTN    C315634   7.537   0.961   4.954
 1518ACTN    H415635   7.541   0.886   4.876
 1518ACTN    H515636   7.613   0.939   5.028
 1518ACTN    C215637   7.401   0.964   5.016
 1518ACTN    O115638   7.301   0.981   4.947
 1518ACTN    C115639   7.388   0.942   5.164
 1518ACTN    H115640   7.436   0.849   5.193
 1518ACTN    H215641   7.284   0.936   5.195
 1518ACTN    H315642   7.435   1.023   5.218
 1519ACTN    H615643   8.487   2.658   2.233
 1519ACTN    C315644   8.520   2.754   2.272
 1519ACTN    H415645   8.487   2.761   2.376
 1519ACTN    H515646   8.628   2.756   2.270
 1519ACTN    C215647   8.461   2.865   2.191
 1519ACTN    O115648   8.531   2.959   2.152
 1519ACTN    C115649   8.312   2.873   2.178
 1519ACTN    H115650   8.273   2.779   2.139
 1519ACTN    H215651   8.282   2.953   2.110
 1519ACTN    H315652   8.267   2.892   2.275
 1520ACTN    H615653   7.900   4.615   2.965
 1520ACTN    C315654   7.985   4.548   2.972
 1520ACTN    H415655   7.947   4.447   2.984
 1520ACTN    H515656   8.041   4.553   2.879
 1520ACTN    C215657   8.073   4.583   3.087
 1520ACTN    O115658   8.049   4.682   3.156
 1520ACTN    C115659   8.193   4.498   3.114
 1520ACTN    H115660   8.261   4.500   3.029
 1520ACTN    H215661   8.163   4.395   3.132
 1520ACTN    H315662   8.248   4.533   3.201
 1521ACTN    H615663   8.335   6.794   0.696
 1521ACTN    C315664   8.318   6.694   0.733
 1521ACTN    H415665   8.211   6.678   0.742
 1521ACTN    H515666   8.356   6.623   0.659
 1521ACTN    C215667   8.385   6.673   0.865
 1521ACTN    O115668   8.395   6.561   0.913
 1521ACTN    C115669   8.452   6.790   0.931
 1521ACTN    H115670   8.383   6.873   0.939
 1521ACTN    H215671   8.538   6.822   0.873
 1521ACTN    H315672   8.486   6.764   1.031
 1522ACTN    H615673   7.888   6.138   2.330
 1522ACTN    C315674   7.962   6.058   2.329
 1522ACTN    H415675   7.947   5.997   2.417
 1522ACTN    H515676   7.945   5.997   2.241
 1522ACTN    C215677   8.101   6.114   2.326
 1522ACTN    O115678   8.198   6.038   2.329
 1522ACTN    C115679   8.122   6.262   2.325
 1522ACTN    H115680   8.177   6.293   2.413
 1522ACTN    H215681   8.026   6.315   2.324
 1522ACTN    H315682   8.178   6.291   2.237
 1523ACTN    H615683   7.971   6.676   6.620
 1523ACTN    C315684   7.902   6.750   6.583
 1523ACTN    H415685   7.930   6.847   6.624
 1523ACTN    H515686   7.911   6.754   6.474
 1523ACTN    C215687   7.762   6.715   6.624
 1523ACTN    O115688   7.678   6.687   6.540
 1523ACTN    C115689   7.730   6.710   6.770
 1523ACTN    H115690   7.625   6.688   6.787
 1523ACTN    H215691   7.753   6.805   6.817
 1523ACTN    H315692   7.789   6.632   6.818
 1524ACTN    H615693   8.161   1.849   8.996
 1524ACTN    C315694   8.063   1.802   0.006
 1524ACTN    H415695   8.013   1.807   8.910
 1524ACTN    H515696   8.078   1.698   0.033
 1524ACTN    C215697   7.981   1.873   0.110
 1524ACTN    O115698   7.869   1.831   0.138
 1524ACTN    C115699   8.038   1.990   0.184
 1524ACTN    H115700   7.977   2.078   0.165
 1524ACTN    H215701   8.139   2.011   0.152
 1524ACTN    H315702   8.039   1.971   0.291
 1525ACTN    H615703   8.148   3.288   2.265
 1525ACTN    C315704   8.145   3.190   2.312
 1525ACTN    H415705   8.125   3.116   2.235
 1525ACTN    H515706   8.242   3.170   2.356
 1525ACTN    C215707   8.039   3.185   2.418
 1525ACTN    O115708   8.016   3.081   2.479
 1525ACTN    C115709   7.956   3.307   2.447
 1525ACTN    H115710   7.850   3.285   2.430
 1525ACTN    H215711   7.984   3.389   2.382
 1525ACTN    H315712   7.968   3.337   2.550
 1526ACTN    H615713   8.322   6.908   4.727
 1526ACTN    C315714   8.421   6.931   4.764
 1526ACTN    H415715   8.419   7.028   4.813
 1526ACTN    H515716   8.449   6.856   4.838
 1526ACTN    C215717   8.520   6.929   4.651
 1526ACTN    O115718   8.593   7.026   4.630
 1526ACTN    C115719   8.531   6.807   4.566
 1526ACTN    H115720   8.631   6.766   4.571
 1526ACTN    H215721   8.509   6.831   4.462
 1526ACTN    H315722   8.461   6.730   4.598
 1527ACTN    H615723   7.302   6.790   3.720
 1527ACTN    C315724   7.391   6.728   3.734
 1527ACTN    H415725   7.433   6.750   3.831
 1527ACTN    H515726   7.359   6.624   3.732
 1527ACTN    C215727   7.492   6.753   3.627
 1527ACTN    O115728   7.468   6.827   3.532
 1527ACTN    C115729   7.625   6.683   3.636
 1527ACTN    H115730   7.705   6.756   3.635
 1527ACTN    H215731   7.638   6.615   3.552
 1527ACTN    H315732   7.632   6.625   3.728
 1528ACTN    H615733   8.252   2.462   4.567
 1528ACTN    C315734   8.358   2.456   4.544
 1528ACTN    H415735   8.378   2.522   4.459
 1528ACTN    H515736   8.414   2.492   4.630
 1528ACTN    C215737   8.396   2.316   4.509
 1528ACTN    O115738   8.499   2.266   4.553
 1528ACTN    C115739   8.316   2.242   4.405
 1528ACTN    H115740   8.381   2.199   4.329
 1528ACTN    H215741   8.247   2.310   4.356
 1528ACTN    H315742   8.258   2.163   4.451
 1529ACTN    H615743   7.712   1.845   5.175
 1529ACTN    C315744   7.713   1.930   5.108
 1529ACTN    H415745   7.740   1.895   5.009
 1529ACTN    H515746   7.612   1.971   5.103
 1529ACTN    C215747   7.809   2.034   5.155
 1529ACTN    O115748   7.820   2.140   5.094
 1529ACTN    C115749   7.890   2.008   5.278
 1529ACTN    H115750   7.949   1.917   5.264
 1529ACTN    H215751   7.825   1.995   5.364
 1529ACTN    H315752   7.959   2.090   5.298
 1530ACTN    H615753   7.673   5.088   6.781
 1530ACTN    C315754   7.687   5.195   6.790
 1530ACTN    H415755   7.589   5.242   6.795
 1530ACTN    H515756   7.739   5.215   6.884
 1530ACTN    C215757   7.765   5.248   6.674
 1530ACTN    O115758   7.717   5.245   6.561
 1530ACTN    C115759   7.898   5.313   6.695
 1530ACTN    H115760   7.975   5.261   6.639
 1530ACTN    H215761   7.926   5.312   6.800
 1530ACTN    H315762   7.896   5.416   6.662
 1531ACTN    H615763   8.216   0.417   6.541
 1531ACTN    C315764   8.267   0.463   6.625
 1531ACTN    H415765   8.309   0.384   6.688
 1531ACTN    H515766   8.350   0.522   6.586
 1531ACTN    C215767   8.172   0.547   6.705
 1531ACTN    O115768   8.186   0.669   6.710
 1531ACTN    C115769   8.054   0.481   6.769
 1531ACTN    H115770   8.055   0.501   6.876
 1531ACTN    H215771   8.057   0.374   6.754
 1531ACTN    H315772   7.962   0.520   6.727
 1532ACTN    H615773   7.364   2.120   1.015
 1532ACTN    C315774   7.461   2.073   1.031
 1532ACTN    H415775   7.534   2.125   0.969
 1532ACTN    H515776   7.489   2.087   1.135
 1532ACTN    C215777   7.458   1.928   0.997
 1532ACTN    O115778   7.554   1.857   1.020
 1532ACTN    C115779   7.333   1.866   0.942
 1532ACTN    H115780   7.294   1.791   1.010
 1532ACTN    H215781   7.352   1.819   0.846
 1532ACTN    H315782   7.256   1.942   0.927
 1533ACTN    H615783   7.848   0.218   6.835
 1533ACTN    C315784   7.808   0.164   6.749
 1533ACTN    H415785   7.881   0.168   6.669
 1533ACTN    H515786   7.795   0.060   6.778
 1533ACTN    C215787   7.676   0.222   6.706
 1533ACTN    O115788   7.663   0.274   6.596
 1533ACTN    C115789   7.565   0.225   6.806
 1533ACTN    H115790   7.592   0.287   6.892
 1533ACTN    H215791   7.544   0.124   6.842
 1533ACTN    H315792   7.473   0.265   6.763
 1534ACTN    H615793   8.852   6.625   7.332
 1534ACTN    C315794   8.874   6.692   7.249
 1534ACTN    H415795   8.943   6.769   7.283
 1534ACTN    H515796   8.924   6.633   7.172
 1534ACTN    C215797   8.748   6.753   7.196
 1534ACTN    O115798   8.681   6.827   7.267
 1534ACTN    C115799   8.709   6.728   7.054
 1534ACTN    H115800   8.619   6.782   7.027
 1534ACTN    H215801   8.691   6.622   7.037
 1534ACTN    H315802   8.789   6.760   6.987
 1535ACTN    H615803   7.804   5.069   7.072
 1535ACTN    C315804   7.795   5.032   7.174
 1535ACTN    H415805   7.803   4.923   7.171
 1535ACTN    H515806   7.878   5.071   7.231
 1535ACTN    C215807   7.664   5.073   7.234
 1535ACTN    O115808   7.559   5.032   7.185
 1535ACTN    C115809   7.661   5.161   7.355
 1535ACTN    H115810   7.610   5.110   7.437
 1535ACTN    H215811   7.607   5.253   7.334
 1535ACTN    H315812   7.761   5.187   7.388
 1536ACTN    H615813   7.293   5.542   3.970
 1536ACTN    C315814   7.375   5.611   3.954
 1536ACTN    H415815   7.456   5.585   4.022
 1536ACTN    H515816   7.411   5.598   3.852
 1536ACTN    C215817   7.329   5.751   3.977
 1536ACTN    O115818   7.292   5.788   4.088
 1536ACTN    C115819   7.337   5.849   3.863
 1536ACTN    H115820   7.441   5.864   3.835
 1536ACTN    H215821   7.293   5.945   3.889
 1536ACTN    H315822   7.285   5.809   3.777
 1537ACTN    H615823   7.841   2.287   3.300
 1537ACTN    C315824   7.853   2.279   3.193
 1537ACTN    H415825   7.758   2.303   3.146
 1537ACTN    H515826   7.927   2.352   3.160
 1537ACTN    C215827   7.896   2.141   3.153
 1537ACTN    O115828   7.911   2.053   3.237
 1537ACTN    C115829   7.924   2.113   3.009
 1537ACTN    H115830   7.924   2.205   2.951
 1537ACTN    H215831   7.848   2.047   2.968
 1537ACTN    H315832   8.021   2.066   2.997
 1538ACTN    H615833   7.981   0.641   3.453
 1538ACTN    C315834   8.010   0.636   3.557
 1538ACTN    H415835   7.955   0.712   3.612
 1538ACTN    H515836   7.982   0.538   3.596
 1538ACTN    C215837   8.158   0.657   3.573
 1538ACTN    O115838   8.208   0.656   3.685
 1538ACTN    C115839   8.241   0.685   3.452
 1538ACTN    H115840   8.236   0.601   3.383
 1538ACTN    H215841   8.345   0.702   3.478
 1538ACTN    H315842   8.204   0.773   3.400
 1539ACTN    H615843   7.809   4.328   3.639
 1539ACTN    C315844   7.799   4.420   3.697
 1539ACTN    H415845   7.744   4.492   3.636
 1539ACTN    H515846   7.740   4.398   3.786
 1539ACTN    C215847   7.933   4.475   3.735
 1539ACTN    O115848   7.939   4.574   3.806
 1539ACTN    C115849   8.057   4.404   3.692
 1539ACTN    H115850   8.035   4.311   3.641
 1539ACTN    H215851   8.120   4.381   3.778
 1539ACTN    H315852   8.115   4.467   3.625
 1540ACTN    H615853   7.429   5.194   2.200
 1540ACTN    C315854   7.435   5.166   2.095
 1540ACTN    H415855   7.355   5.218   2.042
 1540ACTN    H515856   7.530   5.200   2.056
 1540ACTN    C215857   7.421   5.018   2.077
 1540ACTN    O115858   7.398   4.944   2.173
 1540ACTN    C115859   7.428   4.963   1.938
 1540ACTN    H115860   7.422   4.855   1.938
 1540ACTN    H215861   7.522   4.992   1.891
 1540ACTN    H315862   7.346   5.002   1.878
 1541ACTN    H615863   7.597   2.475   6.174
 1541ACTN    C315864   7.598   2.532   6.081
 1541ACTN    H415865   7.695   2.579   6.070
 1541ACTN    H515866   7.582   2.463   5.999
 1541ACTN    C215867   7.490   2.637   6.086
 1541ACTN    O115868   7.401   2.637   6.002
 1541ACTN    C115869   7.498   2.744   6.190
 1541ACTN    H115870   7.412   2.810   6.186
 1541ACTN    H215871   7.587   2.805   6.176
 1541ACTN    H315872   7.503   2.700   6.289
 1542ACTN    H615873   7.562   6.655   4.319
 1542ACTN    C315874   7.625   6.733   4.361
 1542ACTN    H415875   7.726   6.718   4.324
 1542ACTN    H515876   7.589   6.829   4.325
 1542ACTN    C215877   7.622   6.727   4.511
 1542ACTN    O115878   7.521   6.763   4.571
 1542ACTN    C115879   7.745   6.692   4.587
 1542ACTN    H115880   7.729   6.601   4.645
 1542ACTN    H215881   7.773   6.772   4.654
 1542ACTN    H315882   7.829   6.674   4.519
 1543ACTN    H615883   7.714   0.594   0.767
 1543ACTN    C315884   7.759   0.506   0.722
 1543ACTN    H415885   7.851   0.482   0.775
 1543ACTN    H515886   7.690   0.422   0.733
 1543ACTN    C215887   7.787   0.530   0.577
 1543ACTN    O115888   7.694   0.556   0.500
 1543ACTN    C115889   7.927   0.526   0.524
 1543ACTN    H115890   7.998   0.505   0.603
 1543ACTN    H215891   7.953   0.621   0.478
 1543ACTN    H315892   7.936   0.448   0.449
 1544ACTN    H615893   7.872   7.338   4.954
 1544ACTN    C315894   7.765   7.321   4.942
 1544ACTN    H415895   7.747   7.214   4.937
 1544ACTN    H515896   7.715   7.360   5.030
 1544ACTN    C215897   7.714   7.389   4.818
 1544ACTN    O115898   7.597   7.373   4.783
 1544ACTN    C115899   7.808   7.466   4.731
 1544ACTN    H115900   7.776   7.570   4.726
 1544ACTN    H215901   7.808   7.425   4.630
 1544ACTN    H315902   7.909   7.462   4.770
 1545ACTN    H615903   7.846   6.461   0.984
 1545ACTN    C315904   7.849   6.401   1.075
 1545ACTN    H415905   7.842   6.469   1.160
 1545ACTN    H515906   7.761   6.337   1.076
 1545ACTN    C215907   7.974   6.319   1.081
 1545ACTN    O115908   7.998   6.238   0.992
 1545ACTN    C115909   8.069   6.342   1.194
 1545ACTN    H115910   8.153   6.273   1.188
 1545ACTN    H215911   8.019   6.327   1.289
 1545ACTN    H315912   8.108   6.444   1.191
 1546ACTN    H615913   7.731   0.861   3.351
 1546ACTN    C315914   7.679   0.913   3.270
 1546ACTN    H415915   7.634   1.003   3.310
 1546ACTN    H515916   7.753   0.942   3.196
 1546ACTN    C215917   7.574   0.826   3.208
 1546ACTN    O115918   7.562   0.708   3.239
 1546ACTN    C115919   7.492   0.885   3.098
 1546ACTN    H115920   7.415   0.814   3.065
 1546ACTN    H215921   7.554   0.909   3.013
 1546ACTN    H315922   7.442   0.975   3.132
 1547ACTN    H615923   7.802   5.702   2.931
 1547ACTN    C315924   7.726   5.780   2.927
 1547ACTN    H415925   7.718   5.825   3.025
 1547ACTN    H515926   7.758   5.855   2.856
 1547ACTN    C215927   7.595   5.719   2.886
 1547ACTN    O115928   7.538   5.641   2.961
 1547ACTN    C115929   7.528   5.765   2.760
 1547ACTN    H115930   7.520   5.683   2.690
 1547ACTN    H215931   7.583   5.846   2.713
 1547ACTN    H315932   7.427   5.801   2.781
 1548ACTN    H615933   7.943   6.803   3.706
 1548ACTN    C315934   7.963   6.766   3.806
 1548ACTN    H415935   8.054   6.814   3.842
 1548ACTN    H515936   7.880   6.795   3.870
 1548ACTN    C215937   7.980   6.617   3.805
 1548ACTN    O115938   7.992   6.557   3.912
 1548ACTN    C115939   7.964   6.541   3.677
 1548ACTN    H115940   8.057   6.489   3.653
 1548ACTN    H215941   7.940   6.606   3.594
 1548ACTN    H315942   7.886   6.466   3.687
 1549ACTN    H615943   8.153   6.152   1.683
 1549ACTN    C315944   8.188   6.082   1.607
 1549ACTN    H415945   8.284   6.116   1.571
 1549ACTN    H515946   8.200   5.985   1.654
 1549ACTN    C215947   8.091   6.073   1.494
 1549ACTN    O115948   7.993   6.148   1.488
 1549ACTN    C115949   8.119   5.976   1.384
 1549ACTN    H115950   8.040   5.977   1.310
 1549ACTN    H215951   8.126   5.875   1.424
 1549ACTN    H315952   8.213   6.000   1.335
 1550ACTN    H615953   8.137   0.772   2.914
 1550ACTN    C315954   8.035   0.734   2.916
 1550ACTN    H415955   7.968   0.818   2.903
 1550ACTN    H515956   8.022   0.667   2.832
 1550ACTN    C215957   8.008   0.662   3.044
 1550ACTN    O115958   8.093   0.588   3.094
 1550ACTN    C115959   7.884   0.695   3.120
 1550ACTN    H115960   7.909   0.734   3.218
 1550ACTN    H215961   7.823   0.606   3.133
 1550ACTN    H315962   7.825   0.768   3.067
 1551ACTN    H615963   8.657   6.565   3.056
 1551ACTN    C315964   8.750   6.599   3.012
 1551ACTN    H415965   8.770   6.700   3.047
 1551ACTN    H515966   8.831   6.534   3.046
 1551ACTN    C215967   8.742   6.596   2.862
 1551ACTN    O115968   8.698   6.496   2.806
 1551ACTN    C115969   8.773   6.720   2.785
 1551ACTN    H115970   8.702   6.799   2.810
 1551ACTN    H215971   8.768   6.702   2.678
 1551ACTN    H315972   8.873   6.755   2.809
 1552ACTN    H615973   7.727   6.975   0.111
 1552ACTN    C315974   7.650   7.047   0.083
 1552ACTN    H415975   7.641   7.119   0.163
 1552ACTN    H515976   7.682   7.099   8.993
 1552ACTN    C215977   7.520   6.976   0.059
 1552ACTN    O115978   7.512   6.890   8.971
 1552ACTN    C115979   7.400   7.012   0.140
 1552ACTN    H115980   7.321   7.050   0.076
 1552ACTN    H215981   7.423   7.087   0.215
 1552ACTN    H315982   7.362   6.923   0.191
 1553ACTN    H615983   7.653   0.449   7.137
 1553ACTN    C315984   7.761   0.455   7.134
 1553ACTN    H415985   7.792   0.478   7.033
 1553ACTN    H515986   7.792   0.538   7.198
 1553ACTN    C215987   7.824   0.328   7.182
 1553ACTN    O115988   7.946   0.315   7.180
 1553ACTN    C115989   7.738   0.213   7.225
 1553ACTN    H115990   7.758   0.125   7.164
 1553ACTN    H215991   7.632   0.238   7.215
 1553ACTN    H315992   7.758   0.188   7.329
 1554ACTN    H615993   7.644   5.957   3.750
 1554ACTN    C315994   7.733   5.924   3.804
 1554ACTN    H415995   7.705   5.896   3.904
 1554ACTN    H515996   7.772   5.836   3.753
 1554ACTN    C215997   7.838   6.032   3.807
 1554ACTN    O115998   7.815   6.142   3.759
 1554ACTN    C115999   7.969   6.002   3.872
 1554ACTN    H116000   7.973   5.900   3.910
 1554ACTN    H216001   7.985   6.070   3.956
 1554ACTN    H316002   8.051   6.017   3.802
 1555ACTN    H616003   8.152   6.554   1.470
 1555ACTN    C316004   8.166   6.474   1.543
 1555ACTN    H416005   8.126   6.507   1.638
 1555ACTN    H516006   8.109   6.388   1.510
 1555ACTN    C216007   8.311   6.438   1.555
 1555ACTN    O116008   8.374   6.401   1.457
 1555ACTN    C116009   8.377   6.451   1.689
 1555ACTN    H116010   8.483   6.426   1.683
 1555ACTN    H216011   8.331   6.383   1.760
 1555ACTN    H316012   8.368   6.552   1.727
 1556ACTN    H616013   8.329   7.322   5.087
 1556ACTN    C316014   8.296   7.391   5.010
 1556ACTN    H416015   8.246   7.474   5.058
 1556ACTN    H516016   8.383   7.429   4.957
 1556ACTN    C216017   8.201   7.325   4.914
 1556ACTN    O116018   8.161   7.386   4.816
 1556ACTN    C116019   8.168   7.180   4.929
 1556ACTN    H116020   8.190   7.125   4.837
 1556ACTN    H216021   8.062   7.168   4.952
 1556ACTN    H316022   8.225   7.134   5.010
 1557ACTN    H616023   7.768   6.577   2.091
 1557ACTN    C316024   7.842   6.608   2.164
 1557ACTN    H416025   7.796   6.681   2.230
 1557ACTN    H516026   7.870   6.521   2.223
 1557ACTN    C216027   7.961   6.666   2.095
 1557ACTN    O116028   7.999   6.780   2.118
 1557ACTN    C116029   8.032   6.581   1.993
 1557ACTN    H116030   8.119   6.631   1.953
 1557ACTN    H216031   7.965   6.556   1.911
 1557ACTN    H316032   8.065   6.488   2.039
 1558ACTN    H616033   8.136   1.661   5.227
 1558ACTN    C316034   8.176   1.721   5.145
 1558ACTN    H416035   8.213   1.815   5.186
 1558ACTN    H516036   8.260   1.667   5.101
 1558ACTN    C216037   8.072   1.748   5.041
 1558ACTN    O116038   7.963   1.692   5.046
 1558ACTN    C116039   8.107   1.833   4.923
 1558ACTN    H116040   8.211   1.863   4.927
 1558ACTN    H216041   8.046   1.922   4.922
 1558ACTN    H316042   8.091   1.779   4.830
 1559ACTN    H616043   8.683   3.345   3.022
 1559ACTN    C316044   8.598   3.279   3.041
 1559ACTN    H416045   8.592   3.262   3.148
 1559ACTN    H516046   8.508   3.330   3.009
 1559ACTN    C216047   8.613   3.150   2.968
 1559ACTN    O116048   8.521   3.069   2.971
 1559ACTN    C116049   8.738   3.125   2.889
 1559ACTN    H116050   8.826   3.134   2.953
 1559ACTN    H216051   8.746   3.196   2.808
 1559ACTN    H316052   8.738   3.025   2.846
 1560ACTN    H616053   8.159   5.706   3.321
 1560ACTN    C316054   8.256   5.754   3.309
 1560ACTN    H416055   8.317   5.733   3.396
 1560ACTN    H516056   8.305   5.710   3.222
 1560ACTN    C216057   8.238   5.902   3.291
 1560ACTN    O116058   8.261   5.955   3.184
 1560ACTN    C116059   8.184   5.980   3.407
 1560ACTN    H116060   8.084   5.946   3.432
 1560ACTN    H216061   8.179   6.086   3.384
 1560ACTN    H316062   8.247   5.968   3.494
 1561ACTN    H616063   7.829   6.377   5.359
 1561ACTN    C316064   7.919   6.317   5.348
 1561ACTN    H416065   7.933   6.261   5.440
 1561ACTN    H516066   7.903   6.246   5.267
 1561ACTN    C216067   8.038   6.403   5.320
 1561ACTN    O116068   8.149   6.352   5.307
 1561ACTN    C116069   8.021   6.551   5.309
 1561ACTN    H116070   7.981   6.591   5.402
 1561ACTN    H216071   7.952   6.575   5.229
 1561ACTN    H316072   8.116   6.601   5.289
 1562ACTN    H616073   7.427   3.654   1.872
 1562ACTN    C316074   7.439   3.736   1.801
 1562ACTN    H416075   7.515   3.707   1.729
 1562ACTN    H516076   7.345   3.750   1.748
 1562ACTN    C216077   7.477   3.861   1.874
 1562ACTN    O116078   7.585   3.916   1.853
 1562ACTN    C116079   7.382   3.918   1.975
 1562ACTN    H116080   7.430   3.924   2.073
 1562ACTN    H216081   7.293   3.856   1.985
 1562ACTN    H316082   7.351   4.018   1.946
 1563ACTN    H616083   8.547   6.409   2.219
 1563ACTN    C316084   8.542   6.324   2.151
 1563ACTN    H416085   8.439   6.291   2.145
 1563ACTN    H516086   8.572   6.358   2.052
 1563ACTN    C216087   8.631   6.213   2.197
 1563ACTN    O116088   8.752   6.232   2.210
 1563ACTN    C116089   8.570   6.079   2.226
 1563ACTN    H116090   8.487   6.089   2.295
 1563ACTN    H216091   8.643   6.011   2.271
 1563ACTN    H316092   8.534   6.034   2.134
 1564ACTN    H616093   8.526   1.331   6.108
 1564ACTN    C316094   8.533   1.230   6.149
 1564ACTN    H416095   8.452   1.217   6.221
 1564ACTN    H516096   8.517   1.160   6.067
 1564ACTN    C216097   8.665   1.209   6.215
 1564ACTN    O116098   8.744   1.126   6.171
 1564ACTN    C116099   8.701   1.294   6.333
 1564ACTN    H116100   8.627   1.283   6.412
 1564ACTN    H216101   8.704   1.399   6.304
 1564ACTN    H316102   8.798   1.267   6.374
 1565ACTN    H616103   8.430   1.193   2.222
 1565ACTN    C316104   8.532   1.170   2.250
 1565ACTN    H416105   8.530   1.118   2.346
 1565ACTN    H516106   8.574   1.102   2.176
 1565ACTN    C216107   8.613   1.295   2.261
 1565ACTN    O116108   8.585   1.379   2.346
 1565ACTN    C116109   8.731   1.316   2.171
 1565ACTN    H116110   8.821   1.330   2.230
 1565ACTN    H216111   8.716   1.405   2.110
 1565ACTN    H316112   8.746   1.231   2.105
 1566ACTN    H616113   8.298   0.545   5.029
 1566ACTN    C316114   8.276   0.649   5.049
 1566ACTN    H416115   8.332   0.711   4.979
 1566ACTN    H516116   8.170   0.665   5.032
 1566ACTN    C216117   8.313   0.684   5.190
 1566ACTN    O116118   8.229   0.729   5.268
 1566ACTN    C116119   8.456   0.671   5.231
 1566ACTN    H116120   8.490   0.568   5.218
 1566ACTN    H216121   8.470   0.697   5.336
 1566ACTN    H316122   8.519   0.735   5.171
 1567ACTN    H616123   7.810   1.016   5.658
 1567ACTN    C316124   7.894   1.028   5.590
 1567ACTN    H416125   7.982   0.984   5.636
 1567ACTN    H516126   7.873   0.973   5.499
 1567ACTN    C216127   7.918   1.173   5.562
 1567ACTN    O116128   7.896   1.219   5.451
 1567ACTN    C116129   7.950   1.265   5.676
 1567ACTN    H116130   7.945   1.212   5.771
 1567ACTN    H216131   7.880   1.349   5.679
 1567ACTN    H316132   8.050   1.305   5.664
 1568ACTN    H616133   8.576   7.121   4.967
 1568ACTN    C316134   8.670   7.081   5.003
 1568ACTN    H416135   8.686   6.983   4.957
 1568ACTN    H516136   8.750   7.147   4.972
 1568ACTN    C216137   8.666   7.067   5.152
 1568ACTN    O116138   8.737   7.138   5.223
 1568ACTN    C116139   8.569   6.972   5.215
 1568ACTN    H116140   8.513   6.918   5.139
 1568ACTN    H216141   8.499   7.025   5.279
 1568ACTN    H316142   8.622   6.899   5.276
 1569ACTN    H616143   7.763   4.693   3.975
 1569ACTN    C316144   7.751   4.761   4.059
 1569ACTN    H416145   7.673   4.832   4.034
 1569ACTN    H516146   7.720   4.704   4.146
 1569ACTN    C216147   7.881   4.830   4.086
 1569ACTN    O116148   7.888   4.953   4.084
 1569ACTN    C116149   7.998   4.748   4.130
 1569ACTN    H116150   7.976   4.699   4.225
 1569ACTN    H216151   8.087   4.809   4.141
 1569ACTN    H316152   8.019   4.671   4.056
 1570ACTN    H616153   7.743   1.308   6.755
 1570ACTN    C316154   7.747   1.235   6.835
 1570ACTN    H416155   7.831   1.169   6.817
 1570ACTN    H516156   7.763   1.288   6.928
 1570ACTN    C216157   7.619   1.157   6.842
 1570ACTN    O116158   7.605   1.069   6.926
 1570ACTN    C116159   7.511   1.186   6.743
 1570ACTN    H116160   7.423   1.123   6.759
 1570ACTN    H216161   7.546   1.169   6.641
 1570ACTN    H316162   7.480   1.290   6.751
 1571ACTN    H616163   7.851   3.038   1.722
 1571ACTN    C316164   7.760   2.992   1.685
 1571ACTN    H416165   7.732   3.039   1.591
 1571ACTN    H516166   7.783   2.887   1.665
 1571ACTN    C216167   7.650   3.004   1.785
 1571ACTN    O116168   7.611   2.906   1.848
 1571ACTN    C116169   7.596   3.139   1.818
 1571ACTN    H116170   7.613   3.162   1.923
 1571ACTN    H216171   7.488   3.142   1.800
 1571ACTN    H316172   7.642   3.217   1.758
 1572ACTN    H616173   8.832   5.928   4.485
 1572ACTN    C316174   8.874   5.842   4.433
 1572ACTN    H416175   8.833   5.840   4.332
 1572ACTN    H516176   8.981   5.856   4.425
 1572ACTN    C216177   8.841   5.715   4.505
 1572ACTN    O116178   8.723   5.682   4.519
 1572ACTN    C116179   8.952   5.632   4.560
 1572ACTN    H116180   8.915   5.537   4.600
 1572ACTN    H216181   0.001   5.684   4.642
 1572ACTN    H316182   0.026   5.611   4.483
 1573ACTN    H616183   8.100   4.403   1.232
 1573ACTN    C316184   8.128   4.476   1.308
 1573ACTN    H416185   8.224   4.447   1.350
 1573ACTN    H516186   8.140   4.572   1.259
 1573ACTN    C216187   8.024   4.482   1.415
 1573ACTN    O116188   7.994   4.381   1.478
 1573ACTN    C116189   7.950   4.610   1.442
 1573ACTN    H116190   7.843   4.596   1.426
 1573ACTN    H216191   7.984   4.690   1.377
 1573ACTN    H316192   7.965   4.641   1.545
 1574ACTN    H616193   7.901   7.520   2.345
 1574ACTN    C316194   7.960   7.490   2.430
 1574ACTN    H416195   8.019   7.575   2.464
 1574ACTN    H516196   7.893   7.460   2.510
 1574ACTN    C216197   8.051   7.376   2.395
 1574ACTN    O116198   8.123   7.327   2.482
 1574ACTN    C116199   8.047   7.316   2.258
 1574ACTN    H116200   7.970   7.362   2.197
 1574ACTN    H216201   8.028   7.209   2.264
 1574ACTN    H316202   8.143   7.331   2.209
 1575ACTN    H616203   8.475   0.356   2.769
 1575ACTN    C316204   8.461   0.332   2.874
 1575ACTN    H416205   8.355   0.338   2.898
 1575ACTN    H516206   8.493   0.229   2.889
 1575ACTN    C216207   8.539   0.424   2.962
 1575ACTN    O116208   8.590   0.527   2.919
 1575ACTN    C116209   8.544   0.394   3.108
 1575ACTN    H116210   8.491   0.302   3.130
 1575ACTN    H216211   8.648   0.383   3.140
 1575ACTN    H316212   8.498   0.473   3.166
 1576ACTN    H616213   8.413   2.791   4.419
 1576ACTN    C316214   8.520   2.792   4.399
 1576ACTN    H416215   8.537   2.754   4.299
 1576ACTN    H516216   8.554   2.895   4.403
 1576ACTN    C216217   8.593   2.710   4.500
 1576ACTN    O116218   8.579   2.731   4.620
 1576ACTN    C116219   8.683   2.599   4.454
 1576ACTN    H116220   8.649   2.504   4.494
 1576ACTN    H216221   8.785   2.615   4.490
 1576ACTN    H316222   8.685   2.592   4.346
 1577ACTN    H616223   7.403   5.131   4.276
 1577ACTN    C316224   7.343   5.082   4.352
 1577ACTN    H416225   7.373   5.121   4.449
 1577ACTN    H516226   7.238   5.106   4.335
 1577ACTN    C216227   7.364   4.934   4.347
 1577ACTN    O116228   7.310   4.862   4.431
 1577ACTN    C116229   7.452   4.876   4.242
 1577ACTN    H116230   7.412   4.898   4.143
 1577ACTN    H216231   7.460   4.768   4.253
 1577ACTN    H316232   7.552   4.919   4.250
 1578ACTN    H616233   7.811   3.157   0.953
 1578ACTN    C316234   7.795   3.114   1.052
 1578ACTN    H416235   7.743   3.019   1.040
 1578ACTN    H516236   7.893   3.093   1.096
 1578ACTN    C216237   7.717   3.205   1.141
 1578ACTN    O116238   7.694   3.321   1.108
 1578ACTN    C116239   7.680   3.158   1.278
 1578ACTN    H116240   7.719   3.058   1.296
 1578ACTN    H216241   7.572   3.156   1.291
 1578ACTN    H316242   7.722   3.224   1.354
 1579ACTN    H616243   8.435   1.865   4.719
 1579ACTN    C316244   8.484   1.940   4.657
 1579ACTN    H416245   8.408   1.985   4.593
 1579ACTN    H516246   8.524   2.017   4.722
 1579ACTN    C216247   8.593   1.879   4.574
 1579ACTN    O116248   8.633   1.937   4.473
 1579ACTN    C116249   8.642   1.741   4.605
 1579ACTN    H116250   8.588   1.698   4.689
 1579ACTN    H216251   8.748   1.745   4.631
 1579ACTN    H316252   8.630   1.676   4.519
 1580ACTN    H616253   7.820   1.751   1.206
 1580ACTN    C316254   7.894   1.819   1.246
 1580ACTN    H416255   7.920   1.787   1.347
 1580ACTN    H516256   7.984   1.811   1.185
 1580ACTN    C216257   7.841   1.959   1.248
 1580ACTN    O116258   7.745   1.987   1.318
 1580ACTN    C116259   7.907   2.066   1.167
 1580ACTN    H116260   7.836   2.111   1.098
 1580ACTN    H216261   7.990   2.026   1.110
 1580ACTN    H316262   7.946   2.144   1.233
 1581ACTN    H616263   8.213   3.415   4.699
 1581ACTN    C316264   8.221   3.309   4.719
 1581ACTN    H416265   8.235   3.258   4.624
 1581ACTN    H516266   8.309   3.292   4.780
 1581ACTN    C216267   8.099   3.257   4.789
 1581ACTN    O116268   8.056   3.318   4.886
 1581ACTN    C116269   8.026   3.139   4.733
 1581ACTN    H116270   8.092   3.053   4.727
 1581ACTN    H216271   7.991   3.162   4.633
 1581ACTN    H316272   7.940   3.113   4.794
 1582ACTN    H616273   8.698   6.305   1.855
 1582ACTN    C316274   8.704   6.242   1.766
 1582ACTN    H416275   8.712   6.306   1.679
 1582ACTN    H516276   8.795   6.182   1.773
 1582ACTN    C216277   8.585   6.152   1.755
 1582ACTN    O116278   8.497   6.153   1.840
 1582ACTN    C116279   8.577   6.058   1.639
 1582ACTN    H116280   8.672   6.053   1.585
 1582ACTN    H216281   8.501   6.091   1.568
 1582ACTN    H316282   8.551   5.958   1.672
 1583ACTN    H616283   8.037   6.986   3.123
 1583ACTN    C316284   8.038   7.036   3.219
 1583ACTN    H416285   7.937   7.037   3.260
 1583ACTN    H516286   8.100   6.978   3.287
 1583ACTN    C216287   8.089   7.176   3.205
 1583ACTN    O116288   8.195   7.210   3.258
 1583ACTN    C116289   8.014   7.273   3.120
 1583ACTN    H116290   8.077   7.309   3.039
 1583ACTN    H216291   7.983   7.359   3.179
 1583ACTN    H316292   7.925   7.227   3.077
 1584ACTN    H616293   7.569   1.128   4.669
 1584ACTN    C316294   7.591   1.050   4.598
 1584ACTN    H416295   7.498   1.007   4.563
 1584ACTN    H516296   7.648   0.972   4.648
 1584ACTN    C216297   7.670   1.103   4.482
 1584ACTN    O116298   7.685   1.223   4.465
 1584ACTN    C116299   7.720   1.005   4.380
 1584ACTN    H116300   7.776   1.053   4.301
 1584ACTN    H216301   7.636   0.952   4.336
 1584ACTN    H316302   7.785   0.932   4.428
 1585ACTN    H616303   7.704   2.079   4.380
 1585ACTN    C316304   7.604   2.060   4.341
 1585ACTN    H416305   7.566   2.153   4.299
 1585ACTN    H516306   7.611   1.987   4.261
 1585ACTN    C216307   7.515   2.011   4.451
 1585ACTN    O116308   7.534   1.902   4.502
 1585ACTN    C116309   7.399   2.096   4.492
 1585ACTN    H116310   7.331   2.110   4.409
 1585ACTN    H216311   7.434   2.193   4.525
 1585ACTN    H316312   7.344   2.050   4.574
 1586ACTN    H616313   7.472   4.336   0.773
 1586ACTN    C316314   7.441   4.312   0.875
 1586ACTN    H416315   7.353   4.249   0.870
 1586ACTN    H516316   7.521   4.255   0.922
 1586ACTN    C216317   7.413   4.438   0.951
 1586ACTN    O116318   7.479   4.468   1.049
 1586ACTN    C116319   7.306   4.529   0.898
 1586ACTN    H116320   7.335   4.569   0.801
 1586ACTN    H216321   7.290   4.613   0.966
 1586ACTN    H316322   7.212   4.476   0.887
 1587ACTN    H616323   7.600   4.958   2.971
 1587ACTN    C316324   7.699   4.922   2.944
 1587ACTN    H416325   7.723   4.838   3.009
 1587ACTN    H516326   7.696   4.886   2.841
 1587ACTN    C216327   7.803   5.029   2.958
 1587ACTN    O116328   7.773   5.141   2.999
 1587ACTN    C116329   7.944   4.996   2.920
 1587ACTN    H116330   8.010   5.080   2.938
 1587ACTN    H216331   7.949   4.972   2.814
 1587ACTN    H316332   7.980   4.911   2.977
 1588ACTN    H616333   7.560   4.155   2.526
 1588ACTN    C316334   7.530   4.093   2.611
 1588ACTN    H416335   7.479   4.006   2.571
 1588ACTN    H516336   7.619   4.060   2.663
 1588ACTN    C216337   7.439   4.170   2.701
 1588ACTN    O116338   7.335   4.219   2.657
 1588ACTN    C116339   7.474   4.188   2.845
 1588ACTN    H116340   7.398   4.144   2.909
 1588ACTN    H216341   7.481   4.294   2.870
 1588ACTN    H316342   7.569   4.142   2.869
 1589ACTN    H616343   7.772   3.170   0.536
 1589ACTN    C316344   7.737   3.120   0.447
 1589ACTN    H416345   7.732   3.192   0.366
 1589ACTN    H516346   7.809   3.043   0.420
 1589ACTN    C216347   7.601   3.060   0.471
 1589ACTN    O116348   7.509   3.132   0.511
 1589ACTN    C116349   7.585   2.912   0.456
 1589ACTN    H116350   7.648   2.860   0.528
 1589ACTN    H216351   7.613   2.881   0.356
 1589ACTN    H316352   7.481   2.882   0.473
 1590ACTN    H616353   8.370   1.621   4.496
 1590ACTN    C316354   8.326   1.703   4.440
 1590ACTN    H416355   8.293   1.779   4.510
 1590ACTN    H516356   8.403   1.746   4.376
 1590ACTN    C216357   8.210   1.654   4.360
 1590ACTN    O116358   8.118   1.596   4.415
 1590ACTN    C116359   8.213   1.671   4.211
 1590ACTN    H116360   8.121   1.637   4.165
 1590ACTN    H216361   8.295   1.615   4.168
 1590ACTN    H316362   8.226   1.776   4.185
 1591ACTN    H616363   7.355   5.054   2.448
 1591ACTN    C316364   7.415   5.123   2.507
 1591ACTN    H416365   7.508   5.141   2.454
 1591ACTN    H516366   7.362   5.217   2.515
 1591ACTN    C216367   7.442   5.064   2.643
 1591ACTN    O116368   7.501   4.957   2.652
 1591ACTN    C116369   7.402   5.139   2.766
 1591ACTN    H116370   7.330   5.081   2.824
 1591ACTN    H216371   7.356   5.235   2.741
 1591ACTN    H316372   7.489   5.158   2.829
 1592ACTN    H616373   8.536   0.109   6.425
 1592ACTN    C316374   8.448   0.113   6.488
 1592ACTN    H416375   8.439   0.018   6.541
 1592ACTN    H516376   8.463   0.192   6.562
 1592ACTN    C216377   8.325   0.141   6.408
 1592ACTN    O116378   8.215   0.136   6.461
 1592ACTN    C116379   8.339   0.169   6.261
 1592ACTN    H116380   8.242   0.185   6.214
 1592ACTN    H216381   8.387   0.085   6.211
 1592ACTN    H316382   8.399   0.257   6.245
 1593ACTN    H616383   8.483   1.355   4.431
 1593ACTN    C316384   8.451   1.365   4.328
 1593ACTN    H416385   8.423   1.267   4.292
 1593ACTN    H516386   8.363   1.429   4.325
 1593ACTN    C216387   8.561   1.424   4.245
 1593ACTN    O116388   8.609   1.532   4.274
 1593ACTN    C116389   8.616   1.346   4.129
 1593ACTN    H116390   8.601   1.401   4.036
 1593ACTN    H216391   8.566   1.250   4.119
 1593ACTN    H316392   8.722   1.328   4.142
 1594ACTN    H616393   8.227   2.609   3.257
 1594ACTN    C316394   8.152   2.684   3.283
 1594ACTN    H416395   8.204   2.771   3.323
 1594ACTN    H516396   8.099   2.713   3.193
 1594ACTN    C216397   8.058   2.629   3.386
 1594ACTN    O116398   8.100   2.593   3.495
 1594ACTN    C116399   7.912   2.619   3.353
 1594ACTN    H116400   7.897   2.557   3.265
 1594ACTN    H216401   7.872   2.717   3.332
 1594ACTN    H316402   7.856   2.576   3.436
 1595ACTN    H616403   7.329   1.487   4.263
 1595ACTN    C316404   7.411   1.475   4.333
 1595ACTN    H416405   7.370   1.472   4.434
 1595ACTN    H516406   7.459   1.379   4.314
 1595ACTN    C216407   7.511   1.586   4.322
 1595ACTN    O116408   7.494   1.677   4.242
 1595ACTN    C116409   7.637   1.578   4.402
 1595ACTN    H116410   7.724   1.581   4.338
 1595ACTN    H216411   7.640   1.487   4.461
 1595ACTN    H316412   7.642   1.662   4.471
 1596ACTN    H616413   8.737   5.746   3.642
 1596ACTN    C316414   8.718   5.851   3.662
 1596ACTN    H416415   8.632   5.858   3.728
 1596ACTN    H516416   8.804   5.892   3.715
 1596ACTN    C216417   8.692   5.925   3.535
 1596ACTN    O116418   8.779   5.997   3.487
 1596ACTN    C116419   8.571   5.887   3.454
 1596ACTN    H116420   8.580   5.785   3.420
 1596ACTN    H216421   8.560   5.952   3.367
 1596ACTN    H316422   8.482   5.896   3.515
 1597ACTN    H616423   7.563   4.728   0.037
 1597ACTN    C316424   7.600   4.694   0.133
 1597ACTN    H416425   7.517   4.654   0.190
 1597ACTN    H516426   7.671   4.613   0.116
 1597ACTN    C216427   7.668   4.807   0.206
 1597ACTN    O116428   7.624   4.850   0.312
 1597ACTN    C116429   7.785   4.874   0.141
 1597ACTN    H116430   7.767   4.980   0.129
 1597ACTN    H216431   7.804   4.831   0.043
 1597ACTN    H316432   7.874   4.860   0.202
 1598ACTN    H616433   8.529   7.161   0.108
 1598ACTN    C316434   8.490   7.081   0.170
 1598ACTN    H416435   8.407   7.035   0.119
 1598ACTN    H516436   8.568   7.007   0.183
 1598ACTN    C216437   8.449   7.135   0.303
 1598ACTN    O116438   8.332   7.128   0.341
 1598ACTN    C116439   8.551   7.202   0.389
 1598ACTN    H116440   8.508   7.238   0.483
 1598ACTN    H216441   8.595   7.287   0.337
 1598ACTN    H316442   8.631   7.133   0.413
 1599ACTN    H616443   7.614   0.616   2.323
 1599ACTN    C316444   7.657   0.703   2.372
 1599ACTN    H416445   7.666   0.682   2.478
 1599ACTN    H516446   7.757   0.718   2.331
 1599ACTN    C216447   7.573   0.823   2.347
 1599ACTN    O116448   7.517   0.881   2.440
 1599ACTN    C116449   7.548   0.866   2.206
 1599ACTN    H116450   7.589   0.966   2.189
 1599ACTN    H216451   7.442   0.869   2.184
 1599ACTN    H316452   7.596   0.798   2.136
 1600ACTN    H616453   8.510   5.193   6.097
 1600ACTN    C316454   8.567   5.150   6.179
 1600ACTN    H416455   8.502   5.145   6.266
 1600ACTN    H516456   8.596   5.049   6.152
 1600ACTN    C216457   8.688   5.235   6.205
 1600ACTN    O116458   8.693   5.306   6.304
 1600ACTN    C116459   8.795   5.240   6.101
 1600ACTN    H116460   8.755   5.280   6.008
 1600ACTN    H216461   8.834   5.140   6.082
 1600ACTN    H316462   8.878   5.303   6.132
 1601ACTN    H616463   8.726   6.645   4.240
 1601ACTN    C316464   8.659   6.629   4.156
 1601ACTN    H416465   8.712   6.572   4.080
 1601ACTN    H516466   8.633   6.726   4.114
 1601ACTN    C216467   8.535   6.557   4.199
 1601ACTN    O116468   8.515   6.531   4.317
 1601ACTN    C116469   8.434   6.521   4.094
 1601ACTN    H116470   8.350   6.466   4.137
 1601ACTN    H216471   8.479   6.461   4.016
 1601ACTN    H316472   8.393   6.611   4.048
 1602ACTN    H616473   7.916   5.236   2.745
 1602ACTN    C316474   7.932   5.342   2.760
 1602ACTN    H416475   7.939   5.361   2.867
 1602ACTN    H516476   8.028   5.368   2.715
 1602ACTN    C216477   7.822   5.423   2.700
 1602ACTN    O116478   7.831   5.545   2.696
 1602ACTN    C116479   7.700   5.355   2.645
 1602ACTN    H116480   7.611   5.388   2.698
 1602ACTN    H216481   7.709   5.247   2.654
 1602ACTN    H316482   7.688   5.379   2.540
 1603ACTN    H616483   8.571   3.497   1.618
 1603ACTN    C316484   8.567   3.393   1.585
 1603ACTN    H416485   8.645   3.379   1.510
 1603ACTN    H516486   8.588   3.329   1.669
 1603ACTN    C216487   8.431   3.363   1.529
 1603ACTN    O116488   8.416   3.347   1.408
 1603ACTN    C116489   8.312   3.369   1.619
 1603ACTN    H116490   8.240   3.442   1.582
 1603ACTN    H216491   8.340   3.397   1.720
 1603ACTN    H316492   8.263   3.272   1.622
 1604ACTN    H616493   7.936   5.863   1.840
 1604ACTN    C316494   7.888   5.856   1.937
 1604ACTN    H416495   7.907   5.948   1.991
 1604ACTN    H516496   7.781   5.848   1.921
 1604ACTN    C216497   7.939   5.736   2.012
 1604ACTN    O116498   7.992   5.749   2.122
 1604ACTN    C116499   7.917   5.601   1.952
 1604ACTN    H116500   7.963   5.523   2.012
 1604ACTN    H216501   7.959   5.597   1.852
 1604ACTN    H316502   7.810   5.580   1.945
 1605ACTN    H616503   7.844   5.060   5.907
 1605ACTN    C316504   7.892   5.037   6.002
 1605ACTN    H416505   7.903   4.929   6.009
 1605ACTN    H516506   7.991   5.082   6.003
 1605ACTN    C216507   7.809   5.089   6.115
 1605ACTN    O116508   7.790   5.210   6.126
 1605ACTN    C116509   7.753   4.995   6.217
 1605ACTN    H116510   7.644   4.997   6.215
 1605ACTN    H216511   7.785   5.023   6.317
 1605ACTN    H316512   7.785   4.892   6.198
 1606ACTN    H616513   8.156   0.409   6.268
 1606ACTN    C316514   8.048   0.396   6.270
 1606ACTN    H416515   8.012   0.392   6.168
 1606ACTN    H516516   8.025   0.302   6.318
 1606ACTN    C216517   7.980   0.509   6.342
 1606ACTN    O116518   8.046   0.604   6.382
 1606ACTN    C116519   7.831   0.507   6.356
 1606ACTN    H116520   7.788   0.598   6.314
 1606ACTN    H216521   7.803   0.500   6.461
 1606ACTN    H316522   7.789   0.422   6.303
 1607ACTN    H616523   7.875   0.943   6.776
 1607ACTN    C316524   7.847   0.842   6.746
 1607ACTN    H416525   7.779   0.849   6.662
 1607ACTN    H516526   7.937   0.790   6.714
 1607ACTN    C216527   7.784   0.771   6.862
 1607ACTN    O116528   7.849   0.749   6.963
 1607ACTN    C116529   7.645   0.716   6.846
 1607ACTN    H116530   7.576   0.796   6.820
 1607ACTN    H216531   7.611   0.671   6.939
 1607ACTN    H316532   7.643   0.640   6.769
 1608ACTN    H616533   8.153   6.862   6.313
 1608ACTN    C316534   8.155   6.915   6.408
 1608ACTN    H416535   8.054   6.952   6.427
 1608ACTN    H516536   8.182   6.845   6.486
 1608ACTN    C216537   8.251   7.030   6.401
 1608ACTN    O116538   8.233   7.120   6.321
 1608ACTN    C116539   8.365   7.034   6.498
 1608ACTN    H116540   8.329   7.043   6.600
 1608ACTN    H216541   8.431   7.119   6.478
 1608ACTN    H316542   8.425   6.943   6.490
 1609ACTN    H616543   8.375   1.560   5.305
 1609ACTN    C316544   8.456   1.491   5.283
 1609ACTN    H416545   8.421   1.389   5.300
 1609ACTN    H516546   8.483   1.501   5.178
 1609ACTN    C216547   8.574   1.520   5.372
 1609ACTN    O116548   8.678   1.561   5.324
 1609ACTN    C116549   8.556   1.508   5.520
 1609ACTN    H116550   8.482   1.579   5.555
 1609ACTN    H216551   8.650   1.528   5.572
 1609ACTN    H316552   8.524   1.407   5.546
 1610ACTN    H616553   8.589   2.020   4.980
 1610ACTN    C316554   8.539   1.948   5.044
 1610ACTN    H416555   8.577   1.960   5.145
 1610ACTN    H516556   8.433   1.971   5.045
 1610ACTN    C216557   8.564   1.809   4.995
 1610ACTN    O116558   8.473   1.740   4.950
 1610ACTN    C116559   8.704   1.755   4.995
 1610ACTN    H116560   8.711   1.668   5.059
 1610ACTN    H216561   8.774   1.831   5.030
 1610ACTN    H316562   8.734   1.727   4.894
 1611ACTN    H616563   8.923   4.449   6.546
 1611ACTN    C316564   8.840   4.516   6.570
 1611ACTN    H416565   8.845   4.539   6.676
 1611ACTN    H516566   8.855   4.609   6.515
 1611ACTN    C216567   8.710   4.454   6.534
 1611ACTN    O116568   8.687   4.422   6.417
 1611ACTN    C116569   8.608   4.430   6.641
 1611ACTN    H116570   8.646   4.360   6.714
 1611ACTN    H216571   8.515   4.390   6.600
 1611ACTN    H316572   8.584   4.523   6.692
 1612ACTN    H616573   7.560   3.029   2.514
 1612ACTN    C316574   7.524   3.130   2.530
 1612ACTN    H416575   7.455   3.129   2.614
 1612ACTN    H516576   7.609   3.193   2.556
 1612ACTN    C216577   7.457   3.181   2.406
 1612ACTN    O116578   7.337   3.205   2.406
 1612ACTN    C116579   7.539   3.196   2.281
 1612ACTN    H116580   7.499   3.133   2.202
 1612ACTN    H216581   7.642   3.168   2.299
 1612ACTN    H316582   7.536   3.300   2.247
 1613ACTN    H616583   8.216   2.391   5.119
 1613ACTN    C316584   8.142   2.313   5.127
 1613ACTN    H416585   8.124   2.294   5.233
 1613ACTN    H516586   8.049   2.347   5.083
 1613ACTN    C216587   8.189   2.188   5.058
 1613ACTN    O116588   8.194   2.081   5.117
 1613ACTN    C116589   8.224   2.197   4.913
 1613ACTN    H116590   8.137   2.226   4.855
 1613ACTN    H216591   8.261   2.102   4.875
 1613ACTN    H316592   8.301   2.272   4.897
 1614ACTN    H616593   7.572   4.774   6.482
 1614ACTN    C316594   7.516   4.726   6.562
 1614ACTN    H416595   7.410   4.745   6.546
 1614ACTN    H516596   7.532   4.619   6.556
 1614ACTN    C216597   7.562   4.777   6.695
 1614ACTN    O116598   7.481   4.820   6.777
 1614ACTN    C116599   7.707   4.767   6.730
 1614ACTN    H116600   7.764   4.719   6.650
 1614ACTN    H216601   7.720   4.708   6.821
 1614ACTN    H316602   7.750   4.865   6.748
 1615ACTN    H616603   7.828   2.193   2.293
 1615ACTN    C316604   7.888   2.278   2.262
 1615ACTN    H416605   7.854   2.365   2.318
 1615ACTN    H516606   7.992   2.259   2.289
 1615ACTN    C216607   7.874   2.301   2.115
 1615ACTN    O116608   7.908   2.213   2.037
 1615ACTN    C116609   7.820   2.431   2.065
 1615ACTN    H116610   7.874   2.514   2.110
 1615ACTN    H216611   7.715   2.440   2.091
 1615ACTN    H316612   7.829   2.439   1.957
 1616ACTN    H616613   7.967   2.697   2.262
 1616ACTN    C316614   7.940   2.802   2.267
 1616ACTN    H416615   7.878   2.817   2.355
 1616ACTN    H516616   8.031   2.860   2.281
 1616ACTN    C216617   7.870   2.846   2.142
 1616ACTN    O116618   7.766   2.910   2.148
 1616ACTN    C116619   7.937   2.820   2.011
 1616ACTN    H116620   7.872   2.847   1.928
 1616ACTN    H216621   7.964   2.715   2.001
 1616ACTN    H316622   8.027   2.880   2.003
 1617ACTN    H616623   7.544   6.267   1.549
 1617ACTN    C316624   7.465   6.221   1.491
 1617ACTN    H416625   7.453   6.119   1.525
 1617ACTN    H516626   7.372   6.275   1.510
 1617ACTN    C216627   7.497   6.224   1.344
 1617ACTN    O116628   7.603   6.270   1.304
 1617ACTN    C116629   7.397   6.168   1.247
 1617ACTN    H116630   7.311   6.126   1.299
 1617ACTN    H216631   7.443   6.089   1.188
 1617ACTN    H316632   7.363   6.245   1.180
 1618ACTN    H616633   8.226   7.412   4.041
 1618ACTN    C316634   8.133   7.357   4.039
 1618ACTN    H416635   8.073   7.388   4.125
 1618ACTN    H516636   8.079   7.383   3.949
 1618ACTN    C216637   8.160   7.210   4.046
 1618ACTN    O116638   8.135   7.137   3.951
 1618ACTN    C116639   8.223   7.155   4.170
 1618ACTN    H116640   8.246   7.049   4.160
 1618ACTN    H216641   8.157   7.169   4.255
 1618ACTN    H316642   8.316   7.208   4.190
 1619ACTN    H616643   8.032   1.917   5.537
 1619ACTN    C316644   8.104   1.838   5.516
 1619ACTN    H416645   8.132   1.845   5.411
 1619ACTN    H516646   8.193   1.856   5.576
 1619ACTN    C216647   8.046   1.703   5.547
 1619ACTN    O116648   7.932   1.692   5.589
 1619ACTN    C116649   8.131   1.581   5.527
 1619ACTN    H116650   8.084   1.513   5.456
 1619ACTN    H216651   8.145   1.529   5.621
 1619ACTN    H316652   8.230   1.609   5.489
 1620ACTN    H616653   8.729   6.406   3.819
 1620ACTN    C316654   8.660   6.439   3.742
 1620ACTN    H416655   8.670   6.373   3.656
 1620ACTN    H516656   8.559   6.430   3.781
 1620ACTN    C216657   8.688   6.582   3.705
 1620ACTN    O116658   8.688   6.669   3.792
 1620ACTN    C116659   8.723   6.617   3.563
 1620ACTN    H116660   8.649   6.686   3.523
 1620ACTN    H216661   8.726   6.528   3.500
 1620ACTN    H316662   8.820   6.665   3.559
 1621ACTN    H616663   8.226   4.354   0.119
 1621ACTN    C316664   8.273   4.349   0.216
 1621ACTN    H416665   8.370   4.398   0.209
 1621ACTN    H516666   8.212   4.405   0.287
 1621ACTN    C216667   8.289   4.208   0.262
 1621ACTN    O116668   8.343   4.183   0.370
 1621ACTN    C116669   8.236   4.096   0.178
 1621ACTN    H116670   8.161   4.040   0.234
 1621ACTN    H216671   8.316   4.029   0.150
 1621ACTN    H316672   8.189   4.134   0.087
 1622ACTN    H616673   8.468   6.488   5.019
 1622ACTN    C316674   8.575   6.477   5.004
 1622ACTN    H416675   8.606   6.384   5.053
 1622ACTN    H516676   8.593   6.467   4.897
 1622ACTN    C216677   8.648   6.595   5.061
 1622ACTN    O116678   8.639   6.704   5.007
 1622ACTN    C116679   8.743   6.573   5.175
 1622ACTN    H116680   8.692   6.522   5.256
 1622ACTN    H216681   8.780   6.668   5.213
 1622ACTN    H316682   8.827   6.512   5.143
 1623ACTN    H616683   8.407   7.169   1.171
 1623ACTN    C316684   8.308   7.156   1.128
 1623ACTN    H416685   8.295   7.230   1.049
 1623ACTN    H516686   8.303   7.057   1.083
 1623ACTN    C216687   8.201   7.173   1.232
 1623ACTN    O116688   8.196   7.276   1.298
 1623ACTN    C116689   8.106   7.061   1.257
 1623ACTN    H116690   8.034   7.085   1.336
 1623ACTN    H216691   8.159   6.971   1.287
 1623ACTN    H316692   8.049   7.038   1.167
 1624ACTN    H616693   7.989   4.800   8.162
 1624ACTN    C316694   7.973   4.741   8.072
 1624ACTN    H416695   8.010   4.640   8.090
 1624ACTN    H516696   7.866   4.735   8.054
 1624ACTN    C216697   8.044   4.802   7.956
 1624ACTN    O116698   8.166   4.819   7.960
 1624ACTN    C116699   7.965   4.846   7.837
 1624ACTN    H116700   7.858   4.836   7.853
 1624ACTN    H216701   7.992   4.786   7.751
 1624ACTN    H316702   7.986   4.950   7.812
 1625ACTN    H616703   8.107   0.893   8.387
 1625ACTN    C316704   8.199   0.944   8.413
 1625ACTN    H416705   8.263   0.874   8.467
 1625ACTN    H516706   8.249   0.972   8.320
 1625ACTN    C216707   8.170   1.065   8.497
 1625ACTN    O116708   8.215   1.175   8.468
 1625ACTN    C116709   8.093   1.047   8.625
 1625ACTN    H116710   8.067   0.942   8.640
 1625ACTN    H216711   8.002   1.105   8.622
 1625ACTN    H316712   8.152   1.080   8.710
 1626ACTN    H616713   7.544   6.254   8.052
 1626ACTN    C316714   7.627   6.193   8.087
 1626ACTN    H416715   7.673   6.242   8.173
 1626ACTN    H516716   7.701   6.187   8.008
 1626ACTN    C216717   7.578   6.056   8.123
 1626ACTN    O116718   7.594   6.010   8.235
 1626ACTN    C116719   7.510   5.975   8.016
 1626ACTN    H116720   7.424   6.029   7.978
 1626ACTN    H216721   7.477   5.879   8.054
 1626ACTN    H316722   7.579   5.957   7.933
 1627ACTN    H616723   8.066   0.268   7.753
 1627ACTN    C316724   8.107   0.204   7.676
 1627ACTN    H416725   8.050   0.112   7.674
 1627ACTN    H516726   8.094   0.253   7.580
 1627ACTN    C216727   8.251   0.175   7.704
 1627ACTN    O116728   8.338   0.204   7.622
 1627ACTN    C116729   8.287   0.108   7.833
 1627ACTN    H116730   8.337   0.013   7.813
 1627ACTN    H216731   8.199   0.089   7.893
 1627ACTN    H316732   8.354   0.172   7.890
 1628ACTN    H616733   8.904   6.293   8.056
 1628ACTN    C316734   8.916   6.264   7.952
 1628ACTN    H416735   8.892   6.350   7.889
 1628ACTN    H516736   0.020   6.237   7.934
 1628ACTN    C216737   8.824   6.151   7.918
 1628ACTN    O116738   8.868   6.039   7.898
 1628ACTN    C116739   8.676   6.174   7.927
 1628ACTN    H116740   8.621   6.086   7.894
 1628ACTN    H216741   8.648   6.258   7.865
 1628ACTN    H316742   8.648   6.195   8.030
 1629ACTN    H616743   0.055   7.342   8.111
 1629ACTN    C316744   8.954   7.310   8.087
 1629ACTN    H416745   8.953   7.269   7.986
 1629ACTN    H516746   8.925   7.232   8.157
 1629ACTN    C216747   8.858   7.425   8.096
 1629ACTN    O116748   8.898   7.540   8.113
 1629ACTN    C116749   8.714   7.399   8.063
 1629ACTN    H116750   8.703   7.379   7.957
 1629ACTN    H216751   8.652   7.484   8.090
 1629ACTN    H316752   8.679   7.313   8.119
 1630ACTN    H616753   7.929   6.382   8.122
 1630ACTN    C316754   7.936   6.485   8.087
 1630ACTN    H416755   7.836   6.528   8.088
 1630ACTN    H516756   7.999   6.540   8.157
 1630ACTN    C216757   7.995   6.489   7.950
 1630ACTN    O116758   8.109   6.448   7.932
 1630ACTN    C116759   7.915   6.549   7.839
 1630ACTN    H116760   7.891   6.652   7.861
 1630ACTN    H216761   7.822   6.494   7.826
 1630ACTN    H316762   7.970   6.546   7.745
 1631ACTN    H616763   8.146   5.000   8.474
 1631ACTN    C316764   8.187   5.006   8.374
 1631ACTN    H416765   8.155   4.918   8.318
 1631ACTN    H516766   8.296   5.004   8.381
 1631ACTN    C216767   8.142   5.131   8.304
 1631ACTN    O116768   8.073   5.214   8.362
 1631ACTN    C116769   8.187   5.154   8.164
 1631ACTN    H116770   8.295   5.166   8.160
 1631ACTN    H216771   8.141   5.242   8.121
 1631ACTN    H316772   8.161   5.069   8.102
 1632ACTN    H616773   8.794   1.072   7.545
 1632ACTN    C316774   8.686   1.070   7.562
 1632ACTN    H416775   8.638   1.041   7.470
 1632ACTN    H516776   8.654   1.171   7.587
 1632ACTN    C216777   8.649   0.975   7.672
 1632ACTN    O116778   8.736   0.927   7.744
 1632ACTN    C116779   8.505   0.954   7.703
 1632ACTN    H116780   8.482   0.983   7.805
 1632ACTN    H216781   8.479   0.849   7.691
 1632ACTN    H316782   8.442   1.012   7.636
 1633ACTN    H616783   8.847   7.164   8.964
 1633ACTN    C316784   8.825   7.091   8.887
 1633ACTN    H416785   8.902   7.015   8.887
 1633ACTN    H516786   8.730   7.043   8.911
 1633ACTN    C216787   8.820   7.157   8.753
 1633ACTN    O116788   8.917   7.219   8.711
 1633ACTN    C116789   8.692   7.154   8.674
 1633ACTN    H116790   8.709   7.105   8.578
 1633ACTN    H216791   8.658   7.255   8.654
 1633ACTN    H316792   8.614   7.101   8.726
 1634ACTN    H616793   8.605   0.173   7.817
 1634ACTN    C316794   8.642   0.273   7.838
 1634ACTN    H416795   8.570   0.324   7.902
 1634ACTN    H516796   8.736   0.264   7.893
 1634ACTN    C216797   8.664   0.348   7.711
 1634ACTN    O116798   8.741   0.302   7.626
 1634ACTN    C116799   8.592   0.478   7.690
 1634ACTN    H116800   8.616   0.521   7.593
 1634ACTN    H216801   8.620   0.549   7.767
 1634ACTN    H316802   8.484   0.462   7.694
 1635ACTN    H616803   7.969   5.719   8.121
 1635ACTN    C316804   8.028   5.791   8.064
 1635ACTN    H416805   8.093   5.844   8.134
 1635ACTN    H516806   8.091   5.736   7.995
 1635ACTN    C216807   7.941   5.886   7.989
 1635ACTN    O116808   7.853   5.843   7.915
 1635ACTN    C116809   7.956   6.033   8.014
 1635ACTN    H116810   7.895   6.091   7.945
 1635ACTN    H216811   8.060   6.062   8.001
 1635ACTN    H316812   7.925   6.057   8.115
 1636ACTN    H616813   8.431   6.747   8.624
 1636ACTN    C316814   8.520   6.804   8.651
 1636ACTN    H416815   8.546   6.870   8.569
 1636ACTN    H516816   8.496   6.865   8.738
 1636ACTN    C216817   8.634   6.711   8.680
 1636ACTN    O116818   8.703   6.728   8.779
 1636ACTN    C116819   8.672   6.611   8.575
 1636ACTN    H116820   8.587   6.548   8.549
 1636ACTN    H216821   8.752   6.546   8.611
 1636ACTN    H316822   8.707   6.661   8.486
 1637ACTN    H616823   8.287   6.794   7.782
 1637ACTN    C316824   8.259   6.719   7.708
 1637ACTN    H416825   8.349   6.681   7.662
 1637ACTN    H516826   8.210   6.637   7.760
 1637ACTN    C216827   8.166   6.778   7.606
 1637ACTN    O116828   8.193   6.775   7.487
 1637ACTN    C116829   8.039   6.842   7.652
 1637ACTN    H116830   7.953   6.791   7.610
 1637ACTN    H216831   8.036   6.946   7.621
 1637ACTN    H316832   8.031   6.839   7.761
 1638ACTN    H616833   8.361   0.591   8.428
 1638ACTN    C316834   8.350   0.505   8.362
 1638ACTN    H416835   8.332   0.417   8.424
 1638ACTN    H516836   8.262   0.522   8.300
 1638ACTN    C216837   8.472   0.486   8.279
 1638ACTN    O116838   8.581   0.466   8.332
 1638ACTN    C116839   8.461   0.490   8.129
 1638ACTN    H116840   8.559   0.479   8.082
 1638ACTN    H216841   8.417   0.584   8.097
 1638ACTN    H316842   8.397   0.409   8.095
 1639ACTN    H616843   8.473   5.378   8.458
 1639ACTN    C316844   8.464   5.277   8.497
 1639ACTN    H416845   8.553   5.254   8.555
 1639ACTN    H516846   8.460   5.208   8.413
 1639ACTN    C216847   8.341   5.262   8.580
 1639ACTN    O116848   8.317   5.157   8.638
 1639ACTN    C116849   8.251   5.381   8.595
 1639ACTN    H116850   8.226   5.422   8.497
 1639ACTN    H216851   8.299   5.458   8.654
 1639ACTN    H316852   8.158   5.353   8.644
 1640ACTN    H616853   7.674   5.125   8.542
 1640ACTN    C316854   7.710   5.207   8.480
 1640ACTN    H416855   7.818   5.201   8.476
 1640ACTN    H516856   7.670   5.193   8.379
 1640ACTN    C216857   7.667   5.338   8.537
 1640ACTN    O116858   7.697   5.367   8.653
 1640ACTN    C116859   7.581   5.429   8.455
 1640ACTN    H116860   7.486   5.381   8.432
 1640ACTN    H216861   7.631   5.452   8.361
 1640ACTN    H316862   7.561   5.522   8.507
 1641ACTN    H616863   8.333   6.784   8.044
 1641ACTN    C316864   8.297   6.691   8.087
 1641ACTN    H416865   8.188   6.697   8.093
 1641ACTN    H516866   8.323   6.610   8.019
 1641ACTN    C216867   8.356   6.666   8.222
 1641ACTN    O116868   8.327   6.566   8.286
 1641ACTN    C116869   8.453   6.767   8.276
 1641ACTN    H116870   8.408   6.866   8.278
 1641ACTN    H216871   8.542   6.770   8.213
 1641ACTN    H316872   8.484   6.741   8.377
 1642ACTN    H616873   8.141   1.689   7.303
 1642ACTN    C316874   8.063   1.717   7.373
 1642ACTN    H416875   7.976   1.655   7.353
 1642ACTN    H516876   8.098   1.694   7.474
 1642ACTN    C216877   8.029   1.862   7.360
 1642ACTN    O116878   7.985   1.906   7.254
 1642ACTN    C116879   8.050   1.951   7.478
 1642ACTN    H116880   8.024   2.054   7.455
 1642ACTN    H216881   8.154   1.949   7.510
 1642ACTN    H316882   7.987   1.918   7.561
 1643ACTN    H616883   7.344   2.066   8.285
 1643ACTN    C316884   7.412   2.004   8.343
 1643ACTN    H416885   7.513   2.044   8.330
 1643ACTN    H516886   7.386   2.012   8.448
 1643ACTN    C216887   7.403   1.862   8.297
 1643ACTN    O116888   7.502   1.801   8.256
 1643ACTN    C116889   7.271   1.792   8.305
 1643ACTN    H116890   7.277   1.705   8.370
 1643ACTN    H216891   7.241   1.759   8.206
 1643ACTN    H316892   7.194   1.859   8.342
 1644ACTN    H616893   7.986   0.838   7.869
 1644ACTN    C316894   7.987   0.742   7.818
 1644ACTN    H416895   8.007   0.665   7.891
 1644ACTN    H516896   7.889   0.725   7.774
 1644ACTN    C216897   8.093   0.740   7.712
 1644ACTN    O116898   8.156   0.841   7.683
 1644ACTN    C116899   8.114   0.614   7.633
 1644ACTN    H116900   8.216   0.579   7.646
 1644ACTN    H216901   8.097   0.632   7.528
 1644ACTN    H316902   8.046   0.536   7.666
 1645ACTN    H616903   7.833   6.472   8.338
 1645ACTN    C316904   7.833   6.412   8.429
 1645ACTN    H416905   7.827   6.479   8.514
 1645ACTN    H516906   7.744   6.349   8.429
 1645ACTN    C216907   7.957   6.327   8.436
 1645ACTN    O116908   7.976   6.238   8.355
 1645ACTN    C116909   8.055   6.353   8.547
 1645ACTN    H116910   8.137   6.283   8.543
 1645ACTN    H216911   8.006   6.344   8.643
 1645ACTN    H316912   8.095   6.454   8.538
 1646ACTN    H616913   8.959   5.659   8.789
 1646ACTN    C316914   8.857   5.686   8.763
 1646ACTN    H416915   8.826   5.625   8.679
 1646ACTN    H516916   8.793   5.663   8.847
 1646ACTN    C216917   8.846   5.832   8.729
 1646ACTN    O116918   8.947   5.900   8.714
 1646ACTN    C116919   8.711   5.888   8.697
 1646ACTN    H116920   8.710   5.932   8.597
 1646ACTN    H216921   8.686   5.966   8.769
 1646ACTN    H316922   8.635   5.812   8.701
 1647ACTN    H616923   7.728   7.012   7.366
 1647ACTN    C316924   7.647   7.084   7.375
 1647ACTN    H416925   7.652   7.127   7.475
 1647ACTN    H516926   7.663   7.163   7.303
 1647ACTN    C216927   7.515   7.017   7.352
 1647ACTN    O116928   7.489   6.971   7.241
 1647ACTN    C116929   7.413   7.011   7.461
 1647ACTN    H116930   7.321   7.059   7.430
 1647ACTN    H216931   7.449   7.060   7.551
 1647ACTN    H316932   7.391   6.907   7.486
 1648ACTN    H616933   8.153   4.356   8.621
 1648ACTN    C316934   8.176   4.452   8.665
 1648ACTN    H416935   8.269   4.442   8.721
 1648ACTN    H516936   8.192   4.524   8.585
 1648ACTN    C216937   8.066   4.496   8.756
 1648ACTN    O116938   8.027   4.422   8.846
 1648ACTN    C116939   7.998   4.627   8.733
 1648ACTN    H116940   7.890   4.613   8.723
 1648ACTN    H216941   8.034   4.676   8.643
 1648ACTN    H316942   8.014   4.694   8.818
 1649ACTN    H616943   7.800   3.150   8.316
 1649ACTN    C316944   7.799   3.100   8.413
 1649ACTN    H416945   7.744   3.007   8.402
 1649ACTN    H516946   7.901   3.076   8.440
 1649ACTN    C216947   7.736   3.185   8.518
 1649ACTN    O116948   7.708   3.303   8.496
 1649ACTN    C116949   7.724   3.130   8.657
 1649ACTN    H116950   7.771   3.032   8.664
 1649ACTN    H216951   7.620   3.119   8.684
 1649ACTN    H316952   7.772   3.196   8.730
 1650ACTN    H616953   7.797   1.766   8.545
 1650ACTN    C316954   7.836   1.839   8.615
 1650ACTN    H416955   7.809   1.807   8.716
 1650ACTN    H516956   7.945   1.839   8.607
 1650ACTN    C216957   7.780   1.975   8.587
 1650ACTN    O116958   7.658   1.992   8.587
 1650ACTN    C116959   7.871   2.088   8.551
 1650ACTN    H116960   7.841   2.132   8.457
 1650ACTN    H216961   7.974   2.053   8.541
 1650ACTN    H316962   7.868   2.164   8.628
 1651ACTN    H616963   7.503   4.374   8.221
 1651ACTN    C316964   7.429   4.362   8.301
 1651ACTN    H416965   7.366   4.277   8.276
 1651ACTN    H516966   7.483   4.339   8.392
 1651ACTN    C216967   7.347   4.486   8.316
 1651ACTN    O116968   7.343   4.547   8.423
 1651ACTN    C116969   7.269   4.535   8.198
 1651ACTN    H116970   7.336   4.559   8.116
 1651ACTN    H216971   7.211   4.624   8.222
 1651ACTN    H316972   7.200   4.458   8.164
 1652ACTN    H616973   7.779   3.168   7.939
 1652ACTN    C316974   7.768   3.115   7.845
 1652ACTN    H416975   7.800   3.180   7.765
 1652ACTN    H516976   7.832   3.027   7.847
 1652ACTN    C216977   7.624   3.075   7.826
 1652ACTN    O116978   7.538   3.162   7.817
 1652ACTN    C116979   7.591   2.929   7.815
 1652ACTN    H116980   7.624   2.877   7.904
 1652ACTN    H216981   7.641   2.886   7.728
 1652ACTN    H316982   7.484   2.914   7.804
 1653ACTN    H616983   7.563   4.755   7.389
 1653ACTN    C316984   7.592   4.719   7.487
 1653ACTN    H416985   7.502   4.703   7.545
 1653ACTN    H516986   7.641   4.622   7.475
 1653ACTN    C216987   7.685   4.816   7.553
 1653ACTN    O116988   7.650   4.878   7.654
 1653ACTN    C116989   7.815   4.846   7.486
 1653ACTN    H116990   7.826   4.953   7.469
 1653ACTN    H216991   7.822   4.795   7.391
 1653ACTN    H316992   7.897   4.813   7.549
 1654ACTN    H616993   8.477   7.157   7.429
 1654ACTN    C316994   8.452   7.075   7.496
 1654ACTN    H416995   8.359   7.031   7.462
 1654ACTN    H516996   8.530   7.000   7.489
 1654ACTN    C216997   8.440   7.125   7.637
 1654ACTN    O116998   8.341   7.098   7.705
 1654ACTN    C116999   8.557   7.195   7.699
 1654ACTN    H117000   8.534   7.229   7.799
 1654ACTN    H217001   8.585   7.281   7.639
 1654ACTN    H317002   8.642   7.128   7.704
 1655ACTN    H617003   7.543   6.300   8.912
 1655ACTN    C317004   7.464   6.275   8.842
 1655ACTN    H417005   7.417   6.183   8.875
 1655ACTN    H517006   7.389   6.354   8.846
 1655ACTN    C217007   7.514   6.261   8.702
 1655ACTN    O117008   7.634   6.274   8.679
 1655ACTN    C117009   7.419   6.226   8.592
 1655ACTN    H117010   7.318   6.212   8.632
 1655ACTN    H217011   7.449   6.134   8.543
 1655ACTN    H317012   7.415   6.305   8.518
 1656ACTN    H617013   8.217   4.343   7.457
 1656ACTN    C317014   8.269   4.344   7.552
 1656ACTN    H417015   8.366   4.392   7.538
 1656ACTN    H517016   8.211   4.405   7.621
 1656ACTN    C217017   8.287   4.206   7.608
 1656ACTN    O117018   8.348   4.188   7.712
 1656ACTN    C117019   8.229   4.089   7.534
 1656ACTN    H117020   8.158   4.036   7.597
 1656ACTN    H217021   8.308   4.020   7.505
 1656ACTN    H317022   8.177   4.121   7.444
 1657ACTN    H617023   8.399   7.126   8.502
 1657ACTN    C317024   8.296   7.121   8.465
 1657ACTN    H417025   8.287   7.191   8.382
 1657ACTN    H517026   8.279   7.021   8.427
 1657ACTN    C217027   8.198   7.156   8.572
 1657ACTN    O117028   8.212   7.260   8.635
 1657ACTN    C117029   8.093   7.056   8.611
 1657ACTN    H117030   8.028   7.095   8.688
 1657ACTN    H217031   8.139   6.965   8.648
 1657ACTN    H317032   8.032   7.031   8.524
 1658ACTN    H617033   8.474   8.424   5.811
 1658ACTN    C317034   8.443   8.478   5.722
 1658ACTN    H417035   8.429   8.583   5.749
 1658ACTN    H517036   8.522   8.471   5.648
 1658ACTN    C217037   8.315   8.421   5.669
 1658ACTN    O117038   8.213   8.427   5.736
 1658ACTN    C117039   8.313   8.364   5.530
 1658ACTN    H117040   8.335   8.441   5.457
 1658ACTN    H217041   8.215   8.322   5.507
 1658ACTN    H317042   8.387   8.285   5.521
 1659ACTN    H617043   8.149   8.180   1.112
 1659ACTN    C317044   8.227   8.246   1.148
 1659ACTN    H417045   8.274   8.200   1.235
 1659ACTN    H517046   8.303   8.256   1.071
 1659ACTN    C217047   8.170   8.379   1.185
 1659ACTN    O117048   8.196   8.479   1.119
 1659ACTN    C117049   8.069   8.388   1.296
 1659ACTN    H117050   8.049   8.290   1.338
 1659ACTN    H217051   7.975   8.429   1.260
 1659ACTN    H317052   8.107   8.452   1.375
 1660ACTN    H617053   7.757   0.004   5.239
 1660ACTN    C317054   7.754   8.899   5.268
 1660ACTN    H417055   7.794   8.840   5.186
 1660ACTN    H517056   7.820   8.886   5.354
 1660ACTN    C217057   7.615   8.857   5.301
 1660ACTN    O117058   7.532   8.845   5.212
 1660ACTN    C117059   7.584   8.808   5.440
 1660ACTN    H117060   7.478   8.789   5.453
 1660ACTN    H217061   7.615   8.882   5.513
 1660ACTN    H317062   7.639   8.716   5.459
 1661ACTN    H617063   8.605   8.136   4.873
 1661ACTN    C317064   8.560   8.223   4.827
 1661ACTN    H417065   8.463   8.195   4.786
 1661ACTN    H517066   8.543   8.299   4.904
 1661ACTN    C217067   8.647   8.276   4.718
 1661ACTN    O117068   8.683   8.204   4.626
 1661ACTN    C117069   8.697   8.417   4.728
 1661ACTN    H117070   8.763   8.442   4.645
 1661ACTN    H217071   8.753   8.431   4.821
 1661ACTN    H317072   8.613   8.487   4.727
 1662ACTN    H617073   8.129   8.284   5.149
 1662ACTN    C317074   8.180   8.324   5.062
 1662ACTN    H417075   8.285   8.293   5.067
 1662ACTN    H517076   8.136   8.281   4.973
 1662ACTN    C217077   8.168   8.473   5.058
 1662ACTN    O117078   8.268   8.544   5.063
 1662ACTN    C117079   8.031   8.533   5.054
 1662ACTN    H117080   7.975   8.506   5.143
 1662ACTN    H217081   7.977   8.495   4.967
 1662ACTN    H317082   8.035   8.641   5.047
 1663ACTN    H617083   8.023   7.644   0.439
 1663ACTN    C317084   8.043   7.579   0.354
 1663ACTN    H417085   7.986   7.487   0.368
 1663ACTN    H517086   8.008   7.628   0.264
 1663ACTN    C217087   8.190   7.548   0.346
 1663ACTN    O117088   8.256   7.580   0.248
 1663ACTN    C117089   8.255   7.479   0.462
 1663ACTN    H117090   8.302   7.387   0.430
 1663ACTN    H217091   8.182   7.454   0.539
 1663ACTN    H317092   8.330   7.543   0.507
 1664ACTN    H617093   8.480   7.914   5.541
 1664ACTN    C317094   8.407   7.846   5.584
 1664ACTN    H417095   8.424   7.747   5.543
 1664ACTN    H517096   8.425   7.842   5.692
 1664ACTN    C217097   8.268   7.893   5.556
 1664ACTN    O117098   8.229   7.999   5.603
 1664ACTN    C117099   8.177   7.802   5.480
 1664ACTN    H117100   8.224   7.770   5.388
 1664ACTN    H217101   8.084   7.852   5.453
 1664ACTN    H317102   8.153   7.714   5.539
 1665ACTN    H617103   8.576   8.238   7.159
 1665ACTN    C317104   8.540   8.139   7.185
 1665ACTN    H417105   8.446   8.121   7.132
 1665ACTN    H517106   8.612   8.066   7.150
 1665ACTN    C217107   8.522   8.128   7.333
 1665ACTN    O117108   8.619   8.139   7.407
 1665ACTN    C117109   8.387   8.095   7.390
 1665ACTN    H117110   8.352   8.177   7.453
 1665ACTN    H217111   8.393   8.005   7.451
 1665ACTN    H317112   8.314   8.078   7.311
 1666ACTN    H617113   7.807   8.227   6.334
 1666ACTN    C317114   7.898   8.278   6.364
 1666ACTN    H417115   7.951   8.215   6.435
 1666ACTN    H517116   7.961   8.290   6.276
 1666ACTN    C217117   7.865   8.412   6.422
 1666ACTN    O117118   7.909   8.445   6.532
 1666ACTN    C117119   7.784   8.509   6.341
 1666ACTN    H117120   7.839   8.601   6.325
 1666ACTN    H217121   7.692   8.533   6.394
 1666ACTN    H317122   7.758   8.466   6.245
 1667ACTN    H617123   8.365   7.912   2.833
 1667ACTN    C317124   8.388   7.823   2.775
 1667ACTN    H417125   8.380   7.736   2.840
 1667ACTN    H517126   8.492   7.830   2.742
 1667ACTN    C217127   8.298   7.811   2.657
 1667ACTN    O117128   8.229   7.711   2.641
 1667ACTN    C117129   8.293   7.923   2.558
 1667ACTN    H117130   8.318   7.887   2.459
 1667ACTN    H217131   8.364   8.001   2.584
 1667ACTN    H317132   8.193   7.968   2.554
 1668ACTN    H617133   7.608   8.065   4.445
 1668ACTN    C317134   7.652   7.987   4.507
 1668ACTN    H417135   7.697   7.913   4.442
 1668ACTN    H517136   7.731   8.033   4.567
 1668ACTN    C217137   7.547   7.924   4.594
 1668ACTN    O117138   7.560   7.919   4.716
 1668ACTN    C117139   7.428   7.861   4.528
 1668ACTN    H117140   7.435   7.867   4.420
 1668ACTN    H217141   7.337   7.912   4.559
 1668ACTN    H317142   7.420   7.757   4.557
 1669ACTN    H617143   7.420   8.579   6.128
 1669ACTN    C317144   7.374   8.677   6.141
 1669ACTN    H417145   7.345   8.716   6.044
 1669ACTN    H517146   7.284   8.664   6.201
 1669ACTN    C217147   7.470   8.770   6.209
 1669ACTN    O117148   7.563   8.819   6.146
 1669ACTN    C117149   7.441   8.812   6.350
 1669ACTN    H117150   7.518   8.880   6.388
 1669ACTN    H217151   7.438   8.725   6.415
 1669ACTN    H317152   7.345   8.863   6.355
 1670ACTN    H617153   7.907   7.486   2.846
 1670ACTN    C317154   7.881   7.588   2.818
 1670ACTN    H417155   7.874   7.593   2.710
 1670ACTN    H517156   7.784   7.611   2.861
 1670ACTN    C217157   7.984   7.684   2.868
 1670ACTN    O117158   7.975   7.803   2.840
 1670ACTN    C117159   8.099   7.632   2.950
 1670ACTN    H117160   8.062   7.586   3.041
 1670ACTN    H217161   8.167   7.712   2.977
 1670ACTN    H317162   8.155   7.558   2.893
 1671ACTN    H617163   8.776   8.483   0.250
 1671ACTN    C317164   8.668   8.478   0.236
 1671ACTN    H417165   8.649   8.431   0.140
 1671ACTN    H517166   8.630   8.580   0.233
 1671ACTN    C217167   8.601   8.401   0.346
 1671ACTN    O117168   8.667   8.347   0.434
 1671ACTN    C117169   8.453   8.384   0.344
 1671ACTN    H117170   8.409   8.428   0.433
 1671ACTN    H217171   8.426   8.279   0.341
 1671ACTN    H317172   8.409   8.433   0.257
 1672ACTN    H617173   8.578   7.540   0.529
 1672ACTN    C317174   8.603   7.645   0.547
 1672ACTN    H417175   8.521   7.691   0.601
 1672ACTN    H517176   8.691   7.648   0.611
 1672ACTN    C217177   8.629   7.716   0.419
 1672ACTN    O117178   8.718   7.677   0.344
 1672ACTN    C117179   8.547   7.837   0.384
 1672ACTN    H117180   8.572   7.874   0.285
 1672ACTN    H217181   8.566   7.916   0.456
 1672ACTN    H317182   8.441   7.812   0.386
 1673ACTN    H617183   7.423   8.560   5.639
 1673ACTN    C317184   7.373   8.568   5.735
 1673ACTN    H417185   7.363   8.673   5.760
 1673ACTN    H517186   7.274   8.525   5.726
 1673ACTN    C217187   7.454   8.497   5.840
 1673ACTN    O117188   7.403   8.408   5.908
 1673ACTN    C117189   7.595   8.541   5.864
 1673ACTN    H117190   7.607   8.574   5.967
 1673ACTN    H217191   7.621   8.624   5.799
 1673ACTN    H317192   7.663   8.459   5.845
 1674ACTN    H617193   8.128   8.227   3.848
 1674ACTN    C317194   8.074   8.321   3.836
 1674ACTN    H417195   7.996   8.326   3.911
 1674ACTN    H517196   8.143   8.403   3.852
 1674ACTN    C217197   8.017   8.328   3.698
 1674ACTN    O117198   8.092   8.334   3.601
 1674ACTN    C117199   7.868   8.336   3.678
 1674ACTN    H117200   7.833   8.250   3.621
 1674ACTN    H217201   7.842   8.426   3.623
 1674ACTN    H317202   7.816   8.338   3.774
 1675ACTN    H617203   7.929   8.749   7.283
 1675ACTN    C317204   7.830   8.717   7.316
 1675ACTN    H417205   7.807   8.623   7.268
 1675ACTN    H517206   7.833   8.700   7.424
 1675ACTN    C217207   7.727   8.819   7.281
 1675ACTN    O117208   7.705   8.848   7.164
 1675ACTN    C117209   7.646   8.881   7.390
 1675ACTN    H117210   7.711   8.926   7.464
 1675ACTN    H217211   7.586   8.804   7.440
 1675ACTN    H317212   7.579   8.957   7.352
 1676ACTN    H617213   8.338   7.972   1.104
 1676ACTN    C317214   8.365   7.876   1.061
 1676ACTN    H417215   8.385   7.806   1.142
 1676ACTN    H517216   8.280   7.839   1.003
 1676ACTN    C217217   8.486   7.890   0.974
 1676ACTN    O117218   8.589   7.937   1.019
 1676ACTN    C117219   8.476   7.851   0.830
 1676ACTN    H117220   8.570   7.866   0.778
 1676ACTN    H217221   8.399   7.909   0.780
 1676ACTN    H317222   8.450   7.745   0.823
 1677ACTN    H617223   7.581   7.603   5.260
 1677ACTN    C317224   7.558   7.624   5.156
 1677ACTN    H417225   7.543   7.530   5.105
 1677ACTN    H517226   7.464   7.680   5.153
 1677ACTN    C217227   7.668   7.704   5.094
 1677ACTN    O117228   7.733   7.660   5.000
 1677ACTN    C117229   7.702   7.839   5.151
 1677ACTN    H117230   7.633   7.866   5.230
 1677ACTN    H217231   7.697   7.915   5.074
 1677ACTN    H317232   7.802   7.838   5.192
 1678ACTN    H617233   8.583   7.274   4.765
 1678ACTN    C317234   8.584   7.377   4.733
 1678ACTN    H417235   8.482   7.415   4.736
 1678ACTN    H517236   8.644   7.436   4.802
 1678ACTN    C217237   8.640   7.388   4.595
 1678ACTN    O117238   8.577   7.442   4.505
 1678ACTN    C117239   8.779   7.335   4.570
 1678ACTN    H117240   8.808   7.349   4.466
 1678ACTN    H217241   8.782   7.229   4.593
 1678ACTN    H317242   8.850   7.387   4.634
 1679ACTN    H617243   8.625   7.744   3.788
 1679ACTN    C317244   8.663   7.731   3.889
 1679ACTN    H417245   8.600   7.789   3.957
 1679ACTN    H517246   8.654   7.626   3.915
 1679ACTN    C217247   8.805   7.778   3.897
 1679ACTN    O117248   8.892   7.706   3.944
 1679ACTN    C117249   8.836   7.920   3.861
 1679ACTN    H117250   8.904   7.923   3.776
 1679ACTN    H217251   8.882   7.972   3.944
 1679ACTN    H317252   8.745   7.973   3.833
 1680ACTN    H617253   8.382   7.504   3.430
 1680ACTN    C317254   8.300   7.474   3.494
 1680ACTN    H417255   8.341   7.411   3.573
 1680ACTN    H517256   8.231   7.414   3.435
 1680ACTN    C217257   8.230   7.593   3.551
 1680ACTN    O117258   8.180   7.675   3.476
 1680ACTN    C117259   8.220   7.607   3.700
 1680ACTN    H117260   8.160   7.526   3.742
 1680ACTN    H217261   8.174   7.702   3.728
 1680ACTN    H317262   8.319   7.603   3.745
 1681ACTN    H617263   7.924   8.717   5.983
 1681ACTN    C317264   7.992   8.801   5.977
 1681ACTN    H417265   7.967   8.858   5.887
 1681ACTN    H517266   7.976   8.866   6.063
 1681ACTN    C217267   8.134   8.755   5.973
 1681ACTN    O117268   8.211   8.794   5.886
 1681ACTN    C117269   8.185   8.670   6.085
 1681ACTN    H117270   8.266   8.720   6.137
 1681ACTN    H217271   8.224   8.576   6.045
 1681ACTN    H317272   8.107   8.646   6.156
 1682ACTN    H617273   7.844   0.109   6.386
 1682ACTN    C317274   7.873   0.012   6.346
 1682ACTN    H417275   7.804   8.987   6.266
 1682ACTN    H517276   7.973   0.021   6.304
 1682ACTN    C217277   7.867   8.908   6.454
 1682ACTN    O117278   7.763   8.887   6.513
 1682ACTN    C117279   7.990   8.827   6.482
 1682ACTN    H117280   8.021   8.771   6.395
 1682ACTN    H217281   7.973   8.757   6.564
 1682ACTN    H317282   8.072   8.893   6.512
 1683ACTN    H617283   8.516   8.784   1.192
 1683ACTN    C317284   8.509   8.692   1.250
 1683ACTN    H417285   8.441   8.709   1.334
 1683ACTN    H517286   8.466   8.615   1.187
 1683ACTN    C217287   8.643   8.649   1.300
 1683ACTN    O117288   8.738   8.728   1.300
 1683ACTN    C117289   8.656   8.510   1.353
 1683ACTN    H117290   8.588   8.495   1.435
 1683ACTN    H217291   8.757   8.491   1.388
 1683ACTN    H317292   8.632   8.438   1.275
 1684ACTN    H617293   8.704   7.397   5.042
 1684ACTN    C317294   8.740   7.485   5.095
 1684ACTN    H417295   8.771   7.453   5.195
 1684ACTN    H517296   8.827   7.524   5.043
 1684ACTN    C217297   8.632   7.589   5.102
 1684ACTN    O117298   8.585   7.635   4.999
 1684ACTN    C117299   8.583   7.636   5.235
 1684ACTN    H117300   8.599   7.743   5.246
 1684ACTN    H217301   8.634   7.585   5.316
 1684ACTN    H317302   8.476   7.616   5.245
 1685ACTN    H617303   8.485   7.871   4.174
 1685ACTN    C317304   8.435   7.805   4.245
 1685ACTN    H417305   8.501   7.721   4.265
 1685ACTN    H517306   8.419   7.859   4.338
 1685ACTN    C217307   8.305   7.756   4.190
 1685ACTN    O117308   8.233   7.684   4.259
 1685ACTN    C117309   8.264   7.797   4.052
 1685ACTN    H117310   8.167   7.756   4.026
 1685ACTN    H217311   8.337   7.763   3.979
 1685ACTN    H317312   8.258   7.906   4.045
 1686ACTN    H617313   7.560   7.376   4.025
 1686ACTN    C317314   7.642   7.341   3.963
 1686ACTN    H417315   7.677   7.246   4.002
 1686ACTN    H517316   7.604   7.326   3.862
 1686ACTN    C217317   7.753   7.442   3.965
 1686ACTN    O117318   7.818   7.464   3.864
 1686ACTN    C117319   7.795   7.498   4.097
 1686ACTN    H117320   7.711   7.550   4.143
 1686ACTN    H217321   7.878   7.568   4.086
 1686ACTN    H317322   7.826   7.418   4.164
 1687ACTN    H617323   7.861   7.725   4.526
 1687ACTN    C317324   7.963   7.689   4.514
 1687ACTN    H417325   7.961   7.581   4.509
 1687ACTN    H517326   8.002   7.727   4.420
 1687ACTN    C217327   8.051   7.734   4.627
 1687ACTN    O117328   8.009   7.811   4.713
 1687ACTN    C117329   8.194   7.689   4.629
 1687ACTN    H117330   8.198   7.581   4.633
 1687ACTN    H217331   8.247   7.728   4.715
 1687ACTN    H317332   8.245   7.722   4.539
 1688ACTN    H617333   8.461   8.060   3.297
 1688ACTN    C317334   8.485   8.077   3.193
 1688ACTN    H417335   8.454   7.989   3.136
 1688ACTN    H517336   8.429   8.163   3.158
 1688ACTN    C217337   8.633   8.097   3.178
 1688ACTN    O117338   8.677   8.203   3.136
 1688ACTN    C117339   8.725   7.988   3.224
 1688ACTN    H117340   8.702   7.895   3.172
 1688ACTN    H217341   8.712   7.971   3.331
 1688ACTN    H317342   8.829   8.013   3.205
 1689ACTN    H617343   7.551   8.311   4.914
 1689ACTN    C317344   7.517   8.225   4.971
 1689ACTN    H417345   7.500   8.143   4.901
 1689ACTN    H517346   7.596   8.196   5.039
 1689ACTN    C217347   7.391   8.257   5.044
 1689ACTN    O117348   7.293   8.301   4.985
 1689ACTN    C117349   7.388   8.243   5.193
 1689ACTN    H117350   7.419   8.143   5.222
 1689ACTN    H217351   7.288   8.260   5.233
 1689ACTN    H317352   7.455   8.315   5.239
 1690ACTN    H617353   8.223   7.767   6.551
 1690ACTN    C317354   8.274   7.821   6.631
 1690ACTN    H417355   8.320   7.749   6.698
 1690ACTN    H517356   8.353   7.881   6.586
 1690ACTN    C217357   8.175   7.906   6.706
 1690ACTN    O117358   8.191   8.027   6.713
 1690ACTN    C117359   8.058   7.840   6.772
 1690ACTN    H117360   8.058   7.863   6.878
 1690ACTN    H217361   8.062   7.732   6.760
 1690ACTN    H317362   7.966   7.877   6.728
 1691ACTN    H617363   7.808   7.548   6.832
 1691ACTN    C317364   7.743   7.495   6.763
 1691ACTN    H417365   7.804   7.462   6.678
 1691ACTN    H517366   7.705   7.406   6.813
 1691ACTN    C217367   7.630   7.582   6.718
 1691ACTN    O117368   7.626   7.627   6.604
 1691ACTN    C117369   7.535   7.632   6.823
 1691ACTN    H117370   7.586   7.701   6.891
 1691ACTN    H217371   7.497   7.549   6.881
 1691ACTN    H317372   7.450   7.683   6.778
 1692ACTN    H617373   7.961   7.959   3.462
 1692ACTN    C317374   7.989   7.953   3.567
 1692ACTN    H417375   7.925   8.020   3.624
 1692ACTN    H517376   7.971   7.851   3.601
 1692ACTN    C217377   8.133   7.989   3.586
 1692ACTN    O117378   8.179   8.000   3.700
 1692ACTN    C117379   8.216   8.026   3.467
 1692ACTN    H117380   8.214   7.945   3.395
 1692ACTN    H217381   8.320   8.043   3.495
 1692ACTN    H317382   8.177   8.115   3.419
 1693ACTN    H617383   7.879   8.205   0.590
 1693ACTN    C317384   7.925   8.124   0.535
 1693ACTN    H417385   8.004   8.082   0.596
 1693ACTN    H517386   7.850   8.047   0.518
 1693ACTN    C217387   7.980   8.172   0.404
 1693ACTN    O117388   7.948   8.282   0.359
 1693ACTN    C117389   8.061   8.076   0.323
 1693ACTN    H117390   8.146   8.040   0.381
 1693ACTN    H217391   8.099   8.123   0.232
 1693ACTN    H317392   8.001   7.990   0.294
 1694ACTN    H617393   7.602   8.144   3.516
 1694ACTN    C317394   7.581   8.219   3.440
 1694ACTN    H417395   7.486   8.266   3.463
 1694ACTN    H517396   7.659   8.295   3.444
 1694ACTN    C217397   7.577   8.157   3.303
 1694ACTN    O117398   7.599   8.037   3.289
 1694ACTN    C117399   7.542   8.242   3.185
 1694ACTN    H117400   7.451   8.205   3.138
 1694ACTN    H217401   7.622   8.239   3.112
 1694ACTN    H317402   7.526   8.345   3.214
 1695ACTN    H617403   8.231   8.120   3.002
 1695ACTN    C317404   8.137   8.085   2.961
 1695ACTN    H417405   8.085   8.168   2.916
 1695ACTN    H517406   8.159   8.012   2.883
 1695ACTN    C217407   8.053   8.020   3.067
 1695ACTN    O117408   8.103   7.937   3.143
 1695ACTN    C117409   7.913   8.067   3.090
 1695ACTN    H117410   7.899   8.100   3.193
 1695ACTN    H217411   7.843   7.986   3.071
 1695ACTN    H317412   7.887   8.149   3.024
 1696ACTN    H617413   7.640   7.799   7.142
 1696ACTN    C317414   7.748   7.809   7.140
 1696ACTN    H417415   7.778   7.836   7.039
 1696ACTN    H517416   7.776   7.890   7.206
 1696ACTN    C217417   7.816   7.682   7.182
 1696ACTN    O117418   7.938   7.673   7.180
 1696ACTN    C117419   7.733   7.563   7.221
 1696ACTN    H117420   7.755   7.479   7.156
 1696ACTN    H217421   7.627   7.585   7.214
 1696ACTN    H317422   7.755   7.534   7.323
 1697ACTN    H617423   8.542   8.676   6.122
 1697ACTN    C317424   8.548   8.573   6.155
 1697ACTN    H417425   8.473   8.556   6.231
 1697ACTN    H517426   8.524   8.508   6.070
 1697ACTN    C217427   8.685   8.543   6.209
 1697ACTN    O117428   8.756   8.459   6.155
 1697ACTN    C117429   8.733   8.621   6.328
 1697ACTN    H117430   8.667   8.605   6.412
 1697ACTN    H217431   8.736   8.727   6.305
 1697ACTN    H317432   8.833   8.590   6.357
 1698ACTN    H617433   8.440   8.419   2.184
 1698ACTN    C317434   8.532   8.433   2.241
 1698ACTN    H417435   8.513   8.403   2.344
 1698ACTN    H517436   8.608   8.367   2.200
 1698ACTN    C217437   8.575   8.576   2.236
 1698ACTN    O117438   8.498   8.664   2.274
 1698ACTN    C117439   8.710   8.612   2.182
 1698ACTN    H117440   8.769   8.661   2.259
 1698ACTN    H217441   8.700   8.681   2.099
 1698ACTN    H317442   8.763   8.524   2.148
 1699ACTN    H617443   8.266   7.881   4.982
 1699ACTN    C317444   8.236   7.979   5.018
 1699ACTN    H417445   8.269   8.054   4.946
 1699ACTN    H517446   8.128   7.982   5.024
 1699ACTN    C217447   8.298   8.005   5.152
 1699ACTN    O117448   8.228   8.035   5.249
 1699ACTN    C117449   8.447   8.003   5.163
 1699ACTN    H117450   8.486   7.909   5.124
 1699ACTN    H217451   8.479   8.012   5.267
 1699ACTN    H317452   8.490   8.085   5.106
 1700ACTN    H617453   7.816   8.367   5.656
 1700ACTN    C317454   7.898   8.385   5.587
 1700ACTN    H417455   7.989   8.344   5.631
 1700ACTN    H517456   7.878   8.330   5.495
 1700ACTN    C217457   7.914   8.531   5.561
 1700ACTN    O117458   7.883   8.578   5.452
 1700ACTN    C117459   7.946   8.622   5.675
 1700ACTN    H117460   7.953   8.567   5.768
 1700ACTN    H217461   7.870   8.699   5.686
 1700ACTN    H317462   8.041   8.671   5.658
 1701ACTN    H617463   7.730   8.670   6.756
 1701ACTN    C317464   7.732   8.599   6.838
 1701ACTN    H417465   7.821   8.538   6.827
 1701ACTN    H517466   7.741   8.656   6.931
 1701ACTN    C217467   7.609   8.515   6.840
 1701ACTN    O117468   7.594   8.429   6.927
 1701ACTN    C117469   7.505   8.536   6.735
 1701ACTN    H117470   7.421   8.467   6.747
 1701ACTN    H217471   7.548   8.521   6.636
 1701ACTN    H317472   7.467   8.637   6.741
 1702ACTN    H617473   8.564   7.569   2.956
 1702ACTN    C317474   8.617   7.648   3.009
 1702ACTN    H417475   8.544   7.725   3.037
 1702ACTN    H517476   8.659   7.606   3.100
 1702ACTN    C217477   8.725   7.704   2.922
 1702ACTN    O117478   8.727   7.823   2.892
 1702ACTN    C117479   8.834   7.611   2.878
 1702ACTN    H117480   8.889   7.573   2.965
 1702ACTN    H217481   8.906   7.661   2.813
 1702ACTN    H317482   8.793   7.526   2.825
 1703ACTN    H617483   8.528   7.416   6.392
 1703ACTN    C317484   8.455   7.436   6.470
 1703ACTN    H417485   8.450   7.349   6.535
 1703ACTN    H517486   8.489   7.521   6.529
 1703ACTN    C217487   8.321   7.465   6.410
 1703ACTN    O117488   8.225   7.488   6.484
 1703ACTN    C117489   8.307   7.473   6.261
 1703ACTN    H117490   8.204   7.487   6.231
 1703ACTN    H217491   8.344   7.381   6.215
 1703ACTN    H317492   8.366   7.556   6.223
 1704ACTN    H617493   8.829   8.649   4.552
 1704ACTN    C317494   8.743   8.685   4.497
 1704ACTN    H417495   8.670   8.605   4.489
 1704ACTN    H517496   8.697   8.767   4.553
 1704ACTN    C217497   8.783   8.731   4.360
 1704ACTN    O117498   8.775   8.849   4.329
 1704ACTN    C117499   8.836   8.628   4.265
 1704ACTN    H117500   8.859   8.673   4.168
 1704ACTN    H217501   8.763   8.550   4.250
 1704ACTN    H317502   8.927   8.584   4.304
 1705ACTN    H617503   7.443   8.848   4.355
 1705ACTN    C317504   7.389   8.819   4.444
 1705ACTN    H417505   7.307   8.889   4.460
 1705ACTN    H517506   7.345   8.720   4.427
 1705ACTN    C217507   7.480   8.814   4.563
 1705ACTN    O117508   7.462   8.887   4.660
 1705ACTN    C117509   7.596   8.719   4.560
 1705ACTN    H117510   7.661   8.741   4.475
 1705ACTN    H217511   7.560   8.617   4.550
 1705ACTN    H317512   7.655   8.726   4.651
 1706ACTN    H617513   7.625   7.994   2.324
 1706ACTN    C317514   7.675   8.076   2.373
 1706ACTN    H417515   7.692   8.049   2.477
 1706ACTN    H517516   7.772   8.090   2.325
 1706ACTN    C217517   7.593   8.201   2.362
 1706ACTN    O117518   7.542   8.250   2.462
 1706ACTN    C117519   7.561   8.255   2.227
 1706ACTN    H117520   7.601   8.355   2.216
 1706ACTN    H217521   7.453   8.259   2.211
 1706ACTN    H317522   7.604   8.192   2.149
 1707ACTN    H617523   8.149   7.763   6.321
 1707ACTN    C317524   8.044   7.741   6.302
 1707ACTN    H417525   8.029   7.741   6.194
 1707ACTN    H517526   8.023   7.641   6.340
 1707ACTN    C217527   7.954   7.841   6.366
 1707ACTN    O117528   8.000   7.932   6.435
 1707ACTN    C117529   7.806   7.828   6.347
 1707ACTN    H117530   7.766   7.918   6.301
 1707ACTN    H217531   7.757   7.814   6.443
 1707ACTN    H317532   7.783   7.743   6.284
 1708ACTN    H617533   0.195   8.376   3.783
 1708ACTN    C317534   0.196   8.479   3.819
 1708ACTN    H417535   0.281   8.530   3.776
 1708ACTN    H517536   0.105   8.528   3.785
 1708ACTN    C217537   0.205   8.480   3.969
 1708ACTN    O117538   0.292   8.415   4.026
 1708ACTN    C117539   0.105   8.557   4.049
 1708ACTN    H117540   0.155   8.630   4.111
 1708ACTN    H217541   0.049   8.490   4.113
 1708ACTN    H317542   0.035   8.609   3.984
 1709ACTN    H617543   7.871   8.297   6.792
 1709ACTN    C317544   7.844   8.197   6.760
 1709ACTN    H417545   7.776   8.205   6.676
 1709ACTN    H517546   7.935   8.147   6.725
 1709ACTN    C217547   7.783   8.121   6.873
 1709ACTN    O117548   7.848   8.097   6.973
 1709ACTN    C117549   7.644   8.068   6.857
 1709ACTN    H117550   7.575   8.149   6.835
 1709ACTN    H217551   7.610   8.018   6.948
 1709ACTN    H317552   7.640   7.996   6.775
 1710ACTN    H617553   8.151   8.193   8.465
 1710ACTN    C317554   8.224   8.264   8.504
 1710ACTN    H417555   8.275   8.220   8.589
 1710ACTN    H517556   8.298   8.283   8.426
 1710ACTN    C217557   8.155   8.391   8.545
 1710ACTN    O117558   8.177   8.496   8.486
 1710ACTN    C117559   8.054   8.387   8.655
 1710ACTN    H117560   8.043   8.287   8.694
 1710ACTN    H217561   7.958   8.422   8.619
 1710ACTN    H317562   8.085   8.452   8.737
 1711ACTN    H617563   8.066   7.637   7.742
 1711ACTN    C317564   8.069   7.546   7.683
 1711ACTN    H417565   7.989   7.481   7.717
 1711ACTN    H517566   8.050   7.571   7.579
 1711ACTN    C217567   8.202   7.478   7.700
 1711ACTN    O117568   8.272   7.451   7.602
 1711ACTN    C117569   8.246   7.439   7.837
 1711ACTN    H117570   8.261   7.332   7.844
 1711ACTN    H217571   8.172   7.467   7.911
 1711ACTN    H317572   8.340   7.488   7.863
 1712ACTN    H617573   8.792   8.459   7.524
 1712ACTN    C317574   8.684   8.456   7.541
 1712ACTN    H417575   8.636   8.424   7.448
 1712ACTN    H517576   8.650   8.557   7.563
 1712ACTN    C217577   8.648   8.363   7.652
 1712ACTN    O117578   8.735   8.309   7.720
 1712ACTN    C117579   8.503   8.344   7.687
 1712ACTN    H117580   8.483   8.377   7.788
 1712ACTN    H217581   8.476   8.239   7.679
 1712ACTN    H317582   8.440   8.401   7.619
 1713ACTN    H617583   8.552   7.579   7.872
 1713ACTN    C317584   8.588   7.681   7.884
 1713ACTN    H417585   8.506   7.743   7.920
 1713ACTN    H517586   8.667   7.682   7.958
 1713ACTN    C217587   8.639   7.733   7.753
 1713ACTN    O117588   8.725   7.670   7.693
 1713ACTN    C117589   8.587   7.863   7.700
 1713ACTN    H117590   8.627   7.885   7.601
 1713ACTN    H217591   8.616   7.945   7.766
 1713ACTN    H317592   8.478   7.861   7.693
 1714ACTN    H617593   8.313   7.971   8.444
 1714ACTN    C317594   8.338   7.872   8.405
 1714ACTN    H417595   8.358   7.806   8.489
 1714ACTN    H517596   8.252   7.834   8.350
 1714ACTN    C217597   8.458   7.881   8.316
 1714ACTN    O117598   8.563   7.928   8.359
 1714ACTN    C117599   8.448   7.837   8.174
 1714ACTN    H117600   8.543   7.850   8.122
 1714ACTN    H217601   8.372   7.895   8.122
 1714ACTN    H317602   8.421   7.732   8.169
 1715ACTN    H617603   8.674   8.741   8.561
 1715ACTN    C317604   8.593   8.680   8.602
 1715ACTN    H417605   8.560   8.726   8.695
 1715ACTN    H517606   8.511   8.680   8.532
 1715ACTN    C217607   8.639   8.540   8.629
 1715ACTN    O117608   8.755   8.506   8.611
 1715ACTN    C117609   8.538   8.444   8.683
 1715ACTN    H117610   8.491   8.484   8.773
 1715ACTN    H217611   8.584   8.349   8.708
 1715ACTN    H317612   8.460   8.426   8.609
 1716ACTN    H617613   7.945   8.220   7.898
 1716ACTN    C317614   7.958   8.125   7.846
 1716ACTN    H417615   7.986   8.050   7.918
 1716ACTN    H517616   7.862   8.098   7.803
 1716ACTN    C217617   8.062   8.136   7.739
 1716ACTN    O117618   8.123   8.241   7.720
 1716ACTN    C117619   8.091   8.016   7.654
 1716ACTN    H117620   8.196   7.988   7.664
 1716ACTN    H217621   8.072   8.039   7.549
 1716ACTN    H317622   8.029   7.932   7.683
 1717SOL     OW17623   2.854   5.471   3.546
 1717SOL    HW117624   2.897   5.388   3.584
 1717SOL    HW217625   2.755   5.459   3.543
 1718SOL     OW17626   2.376   5.349   1.480
 1718SOL    HW117627   2.365   5.292   1.562
 1718SOL    HW217628   2.385   5.290   1.400
 1719SOL     OW17629   2.476   0.324   7.274
 1719SOL    HW117630   2.572   0.351   7.264
 1719SOL    HW217631   2.444   0.349   7.365
 1720SOL     OW17632   5.005   4.639   6.640
 1720SOL    HW117633   4.942   4.561   6.635
 1720SOL    HW217634   4.952   4.724   6.643
 1721SOL     OW17635   1.232   1.007   0.946
 1721SOL    HW117636   1.249   0.942   1.020
 1721SOL    HW217637   1.172   0.964   0.878
 1722SOL     OW17638   2.719   3.877   5.603
 1722SOL    HW117639   2.639   3.876   5.663
 1722SOL    HW217640   2.696   3.834   5.516
 1723SOL     OW17641   4.403   0.412   6.619
 1723SOL    HW117642   4.481   0.350   6.617
 1723SOL    HW217643   4.376   0.427   6.714
 1724SOL     OW17644   4.583   5.864   0.576
 1724SOL    HW117645   4.683   5.873   0.585
 1724SOL    HW217646   4.547   5.941   0.524
 1725SOL     OW17647   6.598   6.882   3.979
 1725SOL    HW117648   6.599   6.932   3.892
 1725SOL    HW217649   6.585   6.946   4.054
 1726SOL     OW17650   5.894   5.723   0.930
 1726SOL    HW117651   5.837   5.785   0.983
 1726SOL    HW217652   5.843   5.689   0.851
 1727SOL     OW17653   5.967   1.590   2.352
 1727SOL    HW117654   6.025   1.562   2.429
 1727SOL    HW217655   5.977   1.524   2.278
 1728SOL     OW17656   3.896   3.617   1.370
 1728SOL    HW117657   3.918   3.670   1.452
 1728SOL    HW217658   3.800   3.632   1.346
 1729SOL     OW17659   3.789   4.202   5.062
 1729SOL    HW117660   3.869   4.145   5.042
 1729SOL    HW217661   3.737   4.217   4.978
 1730SOL     OW17662   3.156   4.449   1.515
 1730SOL    HW117663   3.156   4.405   1.425
 1730SOL    HW217664   3.223   4.524   1.515
 1731SOL     OW17665   7.158   1.192   1.412
 1731SOL    HW117666   7.136   1.276   1.461
 1731SOL    HW217667   7.092   1.178   1.338
 1732SOL     OW17668   2.744   2.193   1.394
 1732SOL    HW117669   2.733   2.184   1.295
 1732SOL    HW217670   2.825   2.142   1.423
 1733SOL     OW17671   0.769   0.275   5.198
 1733SOL    HW117672   0.683   0.285   5.248
 1733SOL    HW217673   0.761   0.317   5.108
 1734SOL     OW17674   6.153   5.509   4.064
 1734SOL    HW117675   6.130   5.549   3.976
 1734SOL    HW217676   6.252   5.508   4.075
 1735SOL     OW17677   2.606   2.464   7.162
 1735SOL    HW117678   2.701   2.473   7.191
 1735SOL    HW217679   2.563   2.555   7.161
 1736SOL     OW17680   7.112   1.261   3.019
 1736SOL    HW117681   7.081   1.240   2.927
 1736SOL    HW217682   7.154   1.352   3.020
 1737SOL     OW17683   3.503   2.435   2.318
 1737SOL    HW117684   3.484   2.422   2.221
 1737SOL    HW217685   3.575   2.371   2.347
 1738SOL     OW17686   7.499   1.618   0.670
 1738SOL    HW117687   7.579   1.559   0.678
 1738SOL    HW217688   7.438   1.583   0.599
 1739SOL     OW17689   5.435   3.476   4.888
 1739SOL    HW117690   5.486   3.482   4.803
 1739SOL    HW217691   5.458   3.391   4.935
 1740SOL     OW17692   2.871   3.405   6.400
 1740SOL    HW117693   2.774   3.411   6.422
 1740SOL    HW217694   2.898   3.309   6.392
 1741SOL     OW17695   1.040   1.085   3.346
 1741SOL    HW117696   1.085   1.000   3.373
 1741SOL    HW217697   1.103   1.141   3.293
 1742SOL     OW17698   3.067   0.242   4.129
 1742SOL    HW117699   3.083   0.309   4.057
 1742SOL    HW217700   3.146   0.237   4.189
 1743SOL     OW17701   4.453   3.413   2.383
 1743SOL    HW117702   4.539   3.361   2.378
 1743SOL    HW217703   4.382   3.356   2.423
 1744SOL     OW17704   6.543   4.780   5.603
 1744SOL    HW117705   6.617   4.732   5.651
 1744SOL    HW217706   6.547   4.759   5.506
 1745SOL     OW17707   0.688   0.686   5.890
 1745SOL    HW117708   0.698   0.785   5.903
 1745SOL    HW217709   0.607   0.654   5.939
 1746SOL     OW17710   4.269   3.200   0.848
 1746SOL    HW117711   4.287   3.222   0.944
 1746SOL    HW217712   4.184   3.245   0.819
 1747SOL     OW17713   6.952   0.185   7.075
 1747SOL    HW117714   6.892   0.264   7.074
 1747SOL    HW217715   7.047   0.215   7.065
 1748SOL     OW17716   7.296   4.322   4.670
 1748SOL    HW117717   7.206   4.355   4.698
 1748SOL    HW217718   7.292   4.291   4.575
 1749SOL     OW17719   4.516   5.150   6.282
 1749SOL    HW117720   4.509   5.248   6.261
 1749SOL    HW217721   4.432   5.105   6.254
 1750SOL     OW17722   5.411   4.570   2.205
 1750SOL    HW117723   5.313   4.585   2.220
 1750SOL    HW217724   5.439   4.610   2.118
 1751SOL     OW17725   3.147   2.918   5.616
 1751SOL    HW117726   3.160   2.943   5.712
 1751SOL    HW217727   3.091   2.835   5.611
 1752SOL     OW17728   6.042   0.968   2.665
 1752SOL    HW117729   6.133   0.974   2.705
 1752SOL    HW217730   6.048   0.978   2.566
 1753SOL     OW17731   3.974   1.066   2.097
 1753SOL    HW117732   4.013   1.156   2.117
 1753SOL    HW217733   3.876   1.067   2.116
 1754SOL     OW17734   5.273   2.363   6.229
 1754SOL    HW117735   5.309   2.454   6.214
 1754SOL    HW217736   5.323   2.319   6.304
 1755SOL     OW17737   1.890   3.262   2.970
 1755SOL    HW117738   1.934   3.268   2.880
 1755SOL    HW217739   1.839   3.176   2.976
 1756SOL     OW17740   7.229   2.134   3.752
 1756SOL    HW117741   7.321   2.131   3.714
 1756SOL    HW217742   7.174   2.201   3.703
 1757SOL     OW17743   0.628   4.431   1.820
 1757SOL    HW117744   0.626   4.373   1.902
 1757SOL    HW217745   0.722   4.446   1.792
 1758SOL     OW17746   2.317   1.535   6.949
 1758SOL    HW117747   2.240   1.476   6.970
 1758SOL    HW217748   2.385   1.484   6.895
 1759SOL     OW17749   0.317   7.110   5.666
 1759SOL    HW117750   0.349   7.094   5.572
 1759SOL    HW217751   0.334   7.206   5.690
 1760SOL     OW17752   4.246   3.856   1.556
 1760SOL    HW117753   4.249   3.956   1.563
 1760SOL    HW217754   4.323   3.817   1.606
 1761SOL     OW17755   2.719   5.769   2.913
 1761SOL    HW117756   2.655   5.709   2.864
 1761SOL    HW217757   2.674   5.855   2.935
 1762SOL     OW17758   4.055   2.056   5.825
 1762SOL    HW117759   4.008   2.144   5.826
 1762SOL    HW217760   4.087   2.036   5.733
 1763SOL     OW17761   6.014   2.911   4.583
 1763SOL    HW117762   5.931   2.891   4.531
 1763SOL    HW217763   5.991   2.916   4.681
 1764SOL     OW17764   5.975   5.679   2.811
 1764SOL    HW117765   5.937   5.643   2.726
 1764SOL    HW217766   5.906   5.673   2.883
 1765SOL     OW17767   5.965   0.448   4.366
 1765SOL    HW117768   5.943   0.452   4.269
 1765SOL    HW217769   5.928   0.364   4.406
 1766SOL     OW17770   6.503   6.825   6.900
 1766SOL    HW117771   6.555   6.768   6.836
 1766SOL    HW217772   6.555   6.834   6.985
 1767SOL     OW17773   5.343   1.078   6.724
 1767SOL    HW117774   5.249   1.107   6.711
 1767SOL    HW217775   5.401   1.158   6.740
 1768SOL     OW17776   3.458   2.348   0.391
 1768SOL    HW117777   3.392   2.290   0.344
 1768SOL    HW217778   3.482   2.426   0.332
 1769SOL     OW17779   5.878   2.834   7.103
 1769SOL    HW117780   5.820   2.753   7.097
 1769SOL    HW217781   5.828   2.914   7.070
 1770SOL     OW17782   4.607   6.404   4.678
 1770SOL    HW117783   4.659   6.337   4.625
 1770SOL    HW217784   4.510   6.395   4.656
 1771SOL     OW17785   2.173   5.304   5.668
 1771SOL    HW117786   2.083   5.279   5.704
 1771SOL    HW217787   2.237   5.319   5.744
 1772SOL     OW17788   0.438   2.585   6.859
 1772SOL    HW117789   0.512   2.631   6.810
 1772SOL    HW217790   0.447   2.602   6.957
 1773SOL     OW17791   5.077   2.092   1.860
 1773SOL    HW117792   5.040   2.178   1.825
 1773SOL    HW217793   5.104   2.034   1.783
 1774SOL     OW17794   5.963   6.178   5.061
 1774SOL    HW117795   5.944   6.261   5.114
 1774SOL    HW217796   6.057   6.180   5.029
 1775SOL     OW17797   3.464   6.082   4.752
 1775SOL    HW117798   3.467   5.983   4.736
 1775SOL    HW217799   3.369   6.111   4.762
 1776SOL     OW17800   4.780   4.631   1.384
 1776SOL    HW117801   4.773   4.713   1.328
 1776SOL    HW217802   4.691   4.585   1.387
 1777SOL     OW17803   2.408   6.092   3.949
 1777SOL    HW117804   2.459   6.174   3.978
 1777SOL    HW217805   2.312   6.116   3.937
 1778SOL     OW17806   3.718   5.611   3.107
 1778SOL    HW117807   3.810   5.639   3.137
 1778SOL    HW217808   3.650   5.675   3.142
 1779SOL     OW17809   1.056   3.521   3.751
 1779SOL    HW117810   1.135   3.531   3.690
 1779SOL    HW217811   1.047   3.603   3.808
 1780SOL     OW17812   2.651   1.822   2.117
 1780SOL    HW117813   2.724   1.831   2.184
 1780SOL    HW217814   2.656   1.731   2.074
 1781SOL     OW17815   1.008   5.938   6.790
 1781SOL    HW117816   0.998   5.990   6.706
 1781SOL    HW217817   1.008   5.840   6.770
 1782SOL     OW17818   5.295   5.027   5.754
 1782SOL    HW117819   5.340   5.069   5.833
 1782SOL    HW217820   5.353   4.953   5.718
 1783SOL     OW17821   2.175   7.330   2.620
 1783SOL    HW117822   2.270   7.345   2.646
 1783SOL    HW217823   2.115   7.386   2.678
 1784SOL     OW17824   7.038   4.177   1.768
 1784SOL    HW117825   7.054   4.193   1.865
 1784SOL    HW217826   7.122   4.145   1.725
 1785SOL     OW17827   1.157   7.284   2.844
 1785SOL    HW117828   1.102   7.340   2.782
 1785SOL    HW217829   1.130   7.302   2.939
 1786SOL     OW17830   3.388   2.815   5.511
 1786SOL    HW117831   3.366   2.760   5.431
 1786SOL    HW217832   3.304   2.849   5.553
 1787SOL     OW17833   0.988   6.563   6.049
 1787SOL    HW117834   1.028   6.630   5.987
 1787SOL    HW217835   0.900   6.597   6.082
 1788SOL     OW17836   4.041   4.164   3.863
 1788SOL    HW117837   4.130   4.196   3.831
 1788SOL    HW217838   3.973   4.175   3.791
 1789SOL     OW17839   5.099   1.994   3.576
 1789SOL    HW117840   5.096   1.989   3.476
 1789SOL    HW217841   5.176   2.052   3.604
 1790SOL     OW17842   7.011   3.044   5.912
 1790SOL    HW117843   7.006   3.100   5.830
 1790SOL    HW217844   7.039   2.951   5.888
 1791SOL     OW17845   2.648   5.232   4.003
 1791SOL    HW117846   2.717   5.286   4.052
 1791SOL    HW217847   2.626   5.150   4.056
 1792SOL     OW17848   4.169   0.833   0.725
 1792SOL    HW117849   4.247   0.789   0.768
 1792SOL    HW217850   4.164   0.929   0.755
 1793SOL     OW17851   7.239   4.409   6.267
 1793SOL    HW117852   7.298   4.348   6.213
 1793SOL    HW217853   7.207   4.361   6.349
 1794SOL     OW17854   3.135   3.226   6.010
 1794SOL    HW117855   3.141   3.256   5.915
 1794SOL    HW217856   3.069   3.283   6.059
 1795SOL     OW17857   4.667   1.736   7.234
 1795SOL    HW117858   4.655   1.811   7.299
 1795SOL    HW217859   4.582   1.683   7.229
 1796SOL     OW17860   0.466   4.279   1.424
 1796SOL    HW117861   0.477   4.191   1.378
 1796SOL    HW217862   0.554   4.307   1.462
 1797SOL     OW17863   5.415   4.660   1.558
 1797SOL    HW117864   5.495   4.600   1.570
 1797SOL    HW217865   5.375   4.645   1.468
 1798SOL     OW17866   6.883   5.538   4.187
 1798SOL    HW117867   6.880   5.488   4.101
 1798SOL    HW217868   6.968   5.517   4.235
 1799SOL     OW17869   4.704   4.964   6.980
 1799SOL    HW117870   4.803   4.957   6.963
 1799SOL    HW217871   4.689   4.999   7.072
 1800SOL     OW17872   2.483   5.802   0.526
 1800SOL    HW117873   2.548   5.772   0.596
 1800SOL    HW217874   2.394   5.820   0.567
 1801SOL     OW17875   6.907   2.430   1.181
 1801SOL    HW117876   6.875   2.342   1.148
 1801SOL    HW217877   6.922   2.425   1.280
 1802SOL     OW17878   4.054   7.342   5.784
 1802SOL    HW117879   4.120   7.269   5.800
 1802SOL    HW217880   4.077   7.420   5.842
 1803SOL     OW17881   0.603   5.636   4.629
 1803SOL    HW117882   0.537   5.662   4.700
 1803SOL    HW217883   0.670   5.709   4.619
 1804SOL     OW17884   1.877   4.334   1.191
 1804SOL    HW117885   1.781   4.338   1.217
 1804SOL    HW217886   1.900   4.241   1.163
 1805SOL     OW17887   6.115   5.216   1.218
 1805SOL    HW117888   6.203   5.194   1.261
 1805SOL    HW217889   6.119   5.306   1.176
 1806SOL     OW17890   2.692   1.908   1.571
 1806SOL    HW117891   2.781   1.864   1.580
 1806SOL    HW217892   2.668   1.916   1.474
 1807SOL     OW17893   5.926   0.410   6.556
 1807SOL    HW117894   5.946   0.313   6.568
 1807SOL    HW217895   5.932   0.457   6.644
 1808SOL     OW17896   0.404   2.108   7.263
 1808SOL    HW117897   0.414   2.039   7.334
 1808SOL    HW217898   0.366   2.191   7.303
 1809SOL     OW17899   1.148   2.242   0.636
 1809SOL    HW117900   1.230   2.195   0.666
 1809SOL    HW217901   1.170   2.300   0.557
 1810SOL     OW17902   2.822   3.829   6.986
 1810SOL    HW117903   2.780   3.919   6.977
 1810SOL    HW217904   2.851   3.815   7.081
 1811SOL     OW17905   6.981   4.439   6.120
 1811SOL    HW117906   6.961   4.345   6.146
 1811SOL    HW217907   7.069   4.467   6.158
 1812SOL     OW17908   3.916   5.470   2.938
 1812SOL    HW117909   3.845   5.532   2.972
 1812SOL    HW217910   3.897   5.377   2.971
 1813SOL     OW17911   0.444   2.668   0.606
 1813SOL    HW117912   0.378   2.609   0.559
 1813SOL    HW217913   0.518   2.692   0.544
 1814SOL     OW17914   5.744   3.948   3.683
 1814SOL    HW117915   5.760   3.934   3.780
 1814SOL    HW217916   5.813   4.010   3.646
 1815SOL     OW17917   6.104   3.760   3.691
 1815SOL    HW117918   6.102   3.845   3.743
 1815SOL    HW217919   6.186   3.760   3.633
 1816SOL     OW17920   6.490   4.499   0.626
 1816SOL    HW117921   6.435   4.559   0.568
 1816SOL    HW217922   6.437   4.472   0.707
 1817SOL     OW17923   3.946   7.009   6.001
 1817SOL    HW117924   3.878   6.990   5.931
 1817SOL    HW217925   4.038   6.994   5.964
 1818SOL     OW17926   6.516   3.939   7.344
 1818SOL    HW117927   6.484   3.851   7.380
 1818SOL    HW217928   6.538   4.000   7.421
 1819SOL     OW17929   3.944   2.311   5.782
 1819SOL    HW117930   3.880   2.263   5.722
 1819SOL    HW217931   3.955   2.405   5.751
 1820SOL     OW17932   5.391   7.372   7.189
 1820SOL    HW117933   5.488   7.360   7.208
 1820SOL    HW217934   5.350   7.284   7.165
 1821SOL     OW17935   2.163   7.128   3.040
 1821SOL    HW117936   2.261   7.119   3.055
 1821SOL    HW217937   2.126   7.197   3.103
 1822SOL     OW17938   0.465   6.141   6.901
 1822SOL    HW117939   0.381   6.130   6.953
 1822SOL    HW217940   0.526   6.064   6.919
 1823SOL     OW17941   5.415   2.239   6.422
 1823SOL    HW117942   5.477   2.165   6.398
 1823SOL    HW217943   5.408   2.246   6.522
 1824SOL     OW17944   5.681   6.043   6.706
 1824SOL    HW117945   5.668   6.133   6.665
 1824SOL    HW217946   5.592   5.999   6.718
 1825SOL     OW17947   3.009   1.859   0.802
 1825SOL    HW117948   2.973   1.942   0.759
 1825SOL    HW217949   2.933   1.805   0.838
 1826SOL     OW17950   3.204   7.167   1.111
 1826SOL    HW117951   3.198   7.080   1.064
 1826SOL    HW217952   3.114   7.211   1.112
 1827SOL     OW17953   6.734   0.109   0.739
 1827SOL    HW117954   6.706   0.144   0.650
 1827SOL    HW217955   6.682   0.026   0.760
 1828SOL     OW17956   4.678   1.322   3.426
 1828SOL    HW117957   4.677   1.264   3.508
 1828SOL    HW217958   4.707   1.267   3.348
 1829SOL     OW17959   5.593   6.627   6.408
 1829SOL    HW117960   5.666   6.566   6.439
 1829SOL    HW217961   5.525   6.575   6.358
 1830SOL     OW17962   5.788   1.020   1.570
 1830SOL    HW117963   5.859   0.950   1.572
 1830SOL    HW217964   5.752   1.033   1.663
 1831SOL     OW17965   0.952   5.957   0.546
 1831SOL    HW117966   1.004   5.882   0.505
 1831SOL    HW217967   0.919   6.018   0.473
 1832SOL     OW17968   2.608   0.418   1.119
 1832SOL    HW117969   2.669   0.381   1.190
 1832SOL    HW217970   2.513   0.411   1.150
 1833SOL     OW17971   3.868   2.539   2.849
 1833SOL    HW117972   3.936   2.577   2.911
 1833SOL    HW217973   3.834   2.452   2.885
 1834SOL     OW17974   5.404   4.293   2.601
 1834SOL    HW117975   5.443   4.321   2.513
 1834SOL    HW217976   5.359   4.204   2.590
 1835SOL     OW17977   5.913   6.414   5.208
 1835SOL    HW117978   5.833   6.416   5.147
 1835SOL    HW217979   5.930   6.506   5.243
 1836SOL     OW17980   4.187   3.567   6.535
 1836SOL    HW117981   4.284   3.549   6.552
 1836SOL    HW217982   4.144   3.599   6.620
 1837SOL     OW17983   5.780   2.823   4.461
 1837SOL    HW117984   5.787   2.728   4.432
 1837SOL    HW217985   5.693   2.861   4.429
 1838SOL     OW17986   0.141   4.259   6.484
 1838SOL    HW117987   0.181   4.332   6.430
 1838SOL    HW217988   0.171   4.267   6.579
 1839SOL     OW17989   5.438   3.091   0.048
 1839SOL    HW117990   5.509   3.149   0.089
 1839SOL    HW217991   5.352   3.143   0.042
 1840SOL     OW17992   1.140   3.582   2.944
 1840SOL    HW117993   1.115   3.575   2.847
 1840SOL    HW217994   1.231   3.621   2.952
 1841SOL     OW17995   1.014   3.278   0.440
 1841SOL    HW117996   1.012   3.275   0.540
 1841SOL    HW217997   0.971   3.362   0.408
 1842SOL     OW17998   4.000   0.699   3.351
 1842SOL    HW117999   4.056   0.751   3.287
 1842SOL    HW218000   3.992   0.605   3.321
 1843SOL     OW18001   4.057   0.118   0.457
 1843SOL    HW118002   3.969   0.129   0.410
 1843SOL    HW218003   4.040   0.086   0.550
 1844SOL     OW18004   5.486   0.132   2.633
 1844SOL    HW118005   5.511   0.050   2.685
 1844SOL    HW218006   5.562   0.159   2.574
 1845SOL     OW18007   4.410   2.826   2.877
 1845SOL    HW118008   4.366   2.785   2.798
 1845SOL    HW218009   4.505   2.848   2.854
 1846SOL     OW18010   6.970   1.307   7.018
 1846SOL    HW118011   7.003   1.401   7.016
 1846SOL    HW218012   7.022   1.255   7.086
 1847SOL     OW18013   6.860   5.365   7.365
 1847SOL    HW118014   6.956   5.372   7.340
 1847SOL    HW218015   6.839   5.271   7.392
 1848SOL     OW18016   0.045   4.415   2.445
 1848SOL    HW118017   0.072   4.339   2.385
 1848SOL    HW218018   0.103   4.414   2.527
 1849SOL     OW18019   5.344   3.659   1.342
 1849SOL    HW118020   5.436   3.631   1.315
 1849SOL    HW218021   5.351   3.736   1.405
 1850SOL     OW18022   6.365   2.763   6.615
 1850SOL    HW118023   6.462   2.751   6.639
 1850SOL    HW218024   6.320   2.674   6.615
 1851SOL     OW18025   6.846   5.412   0.432
 1851SOL    HW118026   6.768   5.418   0.495
 1851SOL    HW218027   6.917   5.353   0.473
 1852SOL     OW18028   1.655   5.885   5.119
 1852SOL    HW118029   1.622   5.790   5.115
 1852SOL    HW218030   1.674   5.917   5.026
 1853SOL     OW18031   1.847   1.418   0.797
 1853SOL    HW118032   1.867   1.372   0.884
 1853SOL    HW218033   1.929   1.417   0.740
 1854SOL     OW18034   1.868   0.457   3.081
 1854SOL    HW118035   1.967   0.453   3.079
 1854SOL    HW218036   1.831   0.371   3.116
 1855SOL     OW18037   8.985   1.841   3.352
 1855SOL    HW118038   0.057   1.810   3.415
 1855SOL    HW218039   8.936   1.918   3.393
 1856SOL     OW18040   1.574   1.824   1.669
 1856SOL    HW118041   1.532   1.743   1.629
 1856SOL    HW218042   1.541   1.906   1.622
 1857SOL     OW18043   1.993   1.510   0.205
 1857SOL    HW118044   1.933   1.498   0.284
 1857SOL    HW218045   2.084   1.475   0.226
 1858SOL     OW18046   3.621   7.032   7.254
 1858SOL    HW118047   3.532   7.077   7.264
 1858SOL    HW218048   3.615   6.961   7.185
 1859SOL     OW18049   2.401   3.642   1.947
 1859SOL    HW118050   2.409   3.702   1.867
 1859SOL    HW218051   2.482   3.583   1.952
 1860SOL     OW18052   7.036   5.228   0.523
 1860SOL    HW118053   7.097   5.269   0.590
 1860SOL    HW218054   7.049   5.129   0.522
 1861SOL     OW18055   5.655   3.803   0.383
 1861SOL    HW118056   5.631   3.713   0.346
 1861SOL    HW218057   5.635   3.805   0.481
 1862SOL     OW18058   5.505   0.759   1.626
 1862SOL    HW118059   5.527   0.740   1.721
 1862SOL    HW218060   5.537   0.683   1.568
 1863SOL     OW18061   2.456   7.089   3.870
 1863SOL    HW118062   2.496   7.063   3.958
 1863SOL    HW218063   2.508   7.164   3.830
 1864SOL     OW18064   0.754   4.097   5.422
 1864SOL    HW118065   0.773   4.172   5.485
 1864SOL    HW218066   0.783   4.122   5.330
 1865SOL     OW18067   4.999   6.727   6.920
 1865SOL    HW118068   5.010   6.630   6.897
 1865SOL    HW218069   4.972   6.777   6.838
 1866SOL     OW18070   5.262   0.883   7.208
 1866SOL    HW118071   5.171   0.843   7.197
 1866SOL    HW218072   5.302   0.898   7.118
 1867SOL     OW18073   3.797   1.629   4.432
 1867SOL    HW118074   3.722   1.636   4.366
 1867SOL    HW218075   3.884   1.624   4.383
 1868SOL     OW18076   3.093   1.040   1.296
 1868SOL    HW118077   3.161   1.007   1.230
 1868SOL    HW218078   3.064   1.132   1.270
 1869SOL     OW18079   2.372   7.021   2.086
 1869SOL    HW118080   2.306   6.951   2.112
 1869SOL    HW218081   2.462   6.980   2.072
 1870SOL     OW18082   5.450   5.307   1.842
 1870SOL    HW118083   5.468   5.377   1.774
 1870SOL    HW218084   5.456   5.347   1.934
 1871SOL     OW18085   4.929   4.766   0.352
 1871SOL    HW118086   4.945   4.677   0.309
 1871SOL    HW218087   5.007   4.826   0.335
 1872SOL     OW18088   3.458   5.839   4.134
 1872SOL    HW118089   3.519   5.918   4.132
 1872SOL    HW218090   3.472   5.784   4.051
 1873SOL     OW18091   6.795   2.086   4.586
 1873SOL    HW118092   6.784   2.078   4.685
 1873SOL    HW218093   6.879   2.136   4.566
 1874SOL     OW18094   5.868   0.868   0.826
 1874SOL    HW118095   5.876   0.878   0.727
 1874SOL    HW218096   5.915   0.785   0.855
 1875SOL     OW18097   1.444   5.477   0.524
 1875SOL    HW118098   1.473   5.573   0.527
 1875SOL    HW218099   1.371   5.462   0.590
 1876SOL     OW18100   6.822   2.579   7.293
 1876SOL    HW118101   6.904   2.633   7.311
 1876SOL    HW218102   6.769   2.622   7.220
 1877SOL     OW18103   4.543   6.042   2.030
 1877SOL    HW118104   4.555   6.120   1.969
 1877SOL    HW218105   4.491   5.971   1.983
 1878SOL     OW18106   6.330   4.421   0.840
 1878SOL    HW118107   6.356   4.369   0.921
 1878SOL    HW218108   6.231   4.434   0.839
 1879SOL     OW18109   7.305   2.391   6.217
 1879SOL    HW118110   7.221   2.345   6.186
 1879SOL    HW218111   7.282   2.483   6.249
 1880SOL     OW18112   4.012   3.690   1.002
 1880SOL    HW118113   4.069   3.650   1.072
 1880SOL    HW218114   3.920   3.649   1.005
 1881SOL     OW18115   7.274   4.223   0.306
 1881SOL    HW118116   7.229   4.178   0.228
 1881SOL    HW218117   7.370   4.237   0.284
 1882SOL     OW18118   4.434   4.334   6.439
 1882SOL    HW118119   4.507   4.266   6.435
 1882SOL    HW218120   4.466   4.415   6.488
 1883SOL     OW18121   6.129   3.188   2.801
 1883SOL    HW118122   6.121   3.286   2.783
 1883SOL    HW218123   6.211   3.152   2.756
 1884SOL     OW18124   2.455   2.164   0.756
 1884SOL    HW118125   2.445   2.263   0.761
 1884SOL    HW218126   2.469   2.137   0.660
 1885SOL     OW18127   7.148   5.916   6.815
 1885SOL    HW118128   7.167   5.922   6.717
 1885SOL    HW218129   7.180   6.000   6.859
 1886SOL     OW18130   6.718   1.109   6.690
 1886SOL    HW118131   6.650   1.173   6.728
 1886SOL    HW218132   6.790   1.093   6.757
 1887SOL     OW18133   0.396   6.281   6.677
 1887SOL    HW118134   0.331   6.349   6.709
 1887SOL    HW218135   0.422   6.221   6.753
 1888SOL     OW18136   2.496   5.970   1.634
 1888SOL    HW118137   2.422   5.940   1.694
 1888SOL    HW218138   2.480   6.065   1.607
 1889SOL     OW18139   4.923   0.957   3.177
 1889SOL    HW118140   5.023   0.957   3.178
 1889SOL    HW218141   4.889   0.944   3.270
 1890SOL     OW18142   0.867   0.218   0.830
 1890SOL    HW118143   0.856   0.222   0.930
 1890SOL    HW218144   0.779   0.196   0.788
 1891SOL     OW18145   0.919   2.950   1.079
 1891SOL    HW118146   0.897   3.040   1.116
 1891SOL    HW218147   1.018   2.937   1.080
 1892SOL     OW18148   1.080   2.493   6.003
 1892SOL    HW118149   1.043   2.538   5.922
 1892SOL    HW218150   1.100   2.561   6.073
 1893SOL     OW18151   1.228   5.472   0.692
 1893SOL    HW118152   1.165   5.469   0.615
 1893SOL    HW218153   1.200   5.545   0.755
 1894SOL     OW18154   5.663   1.083   0.204
 1894SOL    HW118155   5.672   1.140   0.286
 1894SOL    HW218156   5.711   0.997   0.219
 1895SOL     OW18157   1.544   0.442   6.453
 1895SOL    HW118158   1.456   0.400   6.432
 1895SOL    HW218159   1.551   0.455   6.552
 1896SOL     OW18160   5.738   3.047   6.997
 1896SOL    HW118161   5.695   3.131   7.029
 1896SOL    HW218162   5.797   3.067   6.919
 1897SOL     OW18163   2.654   3.787   5.351
 1897SOL    HW118164   2.581   3.841   5.310
 1897SOL    HW218165   2.624   3.692   5.361
 1898SOL     OW18166   0.089   4.016   5.066
 1898SOL    HW118167   0.050   4.063   4.987
 1898SOL    HW218168   0.095   4.079   5.143
 1899SOL     OW18169   1.441   6.115   6.418
 1899SOL    HW118170   1.354   6.067   6.435
 1899SOL    HW218171   1.424   6.195   6.360
 1900SOL     OW18172   0.608   0.561   2.551
 1900SOL    HW118173   0.602   0.657   2.580
 1900SOL    HW218174   0.585   0.502   2.628
 1901SOL     OW18175   4.729   4.694   2.902
 1901SOL    HW118176   4.677   4.779   2.893
 1901SOL    HW218177   4.707   4.651   2.989
 1902SOL     OW18178   2.570   3.329   4.200
 1902SOL    HW118179   2.619   3.345   4.285
 1902SOL    HW218180   2.575   3.232   4.176
 1903SOL     OW18181   1.506   2.136   3.470
 1903SOL    HW118182   1.507   2.088   3.558
 1903SOL    HW218183   1.599   2.142   3.435
 1904SOL     OW18184   5.502   5.292   1.469
 1904SOL    HW118185   5.415   5.259   1.434
 1904SOL    HW218186   5.487   5.365   1.535
 1905SOL     OW18187   3.202   4.616   5.776
 1905SOL    HW118188   3.208   4.526   5.821
 1905SOL    HW218189   3.113   4.624   5.731
 1906SOL     OW18190   6.416   6.484   7.005
 1906SOL    HW118191   6.357   6.411   7.040
 1906SOL    HW218192   6.364   6.569   7.000
 1907SOL     OW18193   5.215   6.728   3.540
 1907SOL    HW118194   5.281   6.728   3.464
 1907SOL    HW218195   5.164   6.814   3.538
 1908SOL     OW18196   4.050   1.631   5.365
 1908SOL    HW118197   3.988   1.696   5.323
 1908SOL    HW218198   4.078   1.663   5.455
 1909SOL     OW18199   0.136   5.991   7.397
 1909SOL    HW118200   0.166   6.043   7.477
 1909SOL    HW218201   0.051   6.030   7.362
 1910SOL     OW18202   3.866   3.617   0.455
 1910SOL    HW118203   3.852   3.525   0.417
 1910SOL    HW218204   3.961   3.644   0.440
 1911SOL     OW18205   1.531   0.861   2.186
 1911SOL    HW118206   1.449   0.822   2.228
 1911SOL    HW218207   1.532   0.838   2.088
 1912SOL     OW18208   4.106   6.844   3.933
 1912SOL    HW118209   4.059   6.805   4.012
 1912SOL    HW218210   4.112   6.944   3.944
 1913SOL     OW18211   7.297   3.494   0.192
 1913SOL    HW118212   7.238   3.471   0.270
 1913SOL    HW218213   7.313   3.412   0.137
 1914SOL     OW18214   4.678   5.864   5.170
 1914SOL    HW118215   4.746   5.838   5.102
 1914SOL    HW218216   4.689   5.961   5.193
 1915SOL     OW18217   2.911   0.154   2.598
 1915SOL    HW118218   2.925   0.074   2.540
 1915SOL    HW218219   2.835   0.137   2.661
 1916SOL     OW18220   6.642   0.919   0.675
 1916SOL    HW118221   6.675   0.883   0.588
 1916SOL    HW218222   6.654   1.019   0.676
 1917SOL     OW18223   0.352   7.079   0.435
 1917SOL    HW118224   0.421   7.120   0.376
 1917SOL    HW218225   0.346   6.981   0.416
 1918SOL     OW18226   5.007   2.752   1.232
 1918SOL    HW118227   4.969   2.818   1.167
 1918SOL    HW218228   5.107   2.756   1.227
 1919SOL     OW18229   6.555   1.648   2.708
 1919SOL    HW118230   6.500   1.712   2.762
 1919SOL    HW218231   6.590   1.576   2.768
 1920SOL     OW18232   3.362   6.828   2.028
 1920SOL    HW118233   3.325   6.899   2.089
 1920SOL    HW218234   3.308   6.744   2.038
 1921SOL     OW18235   4.253   6.268   5.428
 1921SOL    HW118236   4.261   6.170   5.412
 1921SOL    HW218237   4.164   6.300   5.394
 1922SOL     OW18238   4.347   1.035   4.875
 1922SOL    HW118239   4.289   1.000   4.949
 1922SOL    HW218240   4.432   0.983   4.871
 1923SOL     OW18241   6.605   3.633   2.426
 1923SOL    HW118242   6.694   3.590   2.437
 1923SOL    HW218243   6.543   3.603   2.499
 1924SOL     OW18244   4.532   2.954   1.802
 1924SOL    HW118245   4.517   3.013   1.881
 1924SOL    HW218246   4.562   3.010   1.724
 1925SOL     OW18247   7.211   2.526   7.260
 1925SOL    HW118248   7.304   2.547   7.289
 1925SOL    HW218249   7.210   2.499   7.164
 1926SOL     OW18250   6.249   4.730   3.834
 1926SOL    HW118251   6.162   4.759   3.793
 1926SOL    HW218252   6.319   4.798   3.812
 1927SOL     OW18253   2.610   3.046   4.253
 1927SOL    HW118254   2.595   3.073   4.348
 1927SOL    HW218255   2.707   3.022   4.241
 1928SOL     OW18256   4.201   2.194   5.365
 1928SOL    HW118257   4.143   2.275   5.371
 1928SOL    HW218258   4.173   2.128   5.434
 1929SOL     OW18259   1.076   3.868   5.366
 1929SOL    HW118260   0.984   3.865   5.406
 1929SOL    HW218261   1.079   3.808   5.286
 1930SOL     OW18262   4.859   5.437   4.904
 1930SOL    HW118263   4.934   5.499   4.930
 1930SOL    HW218264   4.884   5.343   4.930
 1931SOL     OW18265   2.748   6.047   1.033
 1931SOL    HW118266   2.762   5.949   1.016
 1931SOL    HW218267   2.822   6.099   0.990
 1932SOL     OW18268   5.713   0.204   2.485
 1932SOL    HW118269   5.801   0.174   2.450
 1932SOL    HW218270   5.727   0.265   2.563
 1933SOL     OW18271   3.912   1.478   3.513
 1933SOL    HW118272   3.972   1.398   3.511
 1933SOL    HW218273   3.819   1.451   3.490
 1934SOL     OW18274   5.113   5.673   5.629
 1934SOL    HW118275   5.114   5.612   5.550
 1934SOL    HW218276   5.190   5.650   5.689
 1935SOL     OW18277   2.489   3.702   3.888
 1935SOL    HW118278   2.425   3.765   3.843
 1935SOL    HW218279   2.475   3.610   3.853
 1936SOL     OW18280   5.953   2.453   6.647
 1936SOL    HW118281   5.922   2.463   6.553
 1936SOL    HW218282   5.947   2.542   6.694
 1937SOL     OW18283   6.817   2.716   4.046
 1937SOL    HW118284   6.875   2.645   4.007
 1937SOL    HW218285   6.874   2.782   4.096
 1938SOL     OW18286   2.755   3.681   1.207
 1938SOL    HW118287   2.802   3.664   1.121
 1938SOL    HW218288   2.675   3.621   1.214
 1939SOL     OW18289   6.852   6.468   6.562
 1939SOL    HW118290   6.890   6.539   6.621
 1939SOL    HW218291   6.774   6.505   6.511
 1940SOL     OW18292   7.195   0.511   2.522
 1940SOL    HW118293   7.105   0.543   2.551
 1940SOL    HW218294   7.203   0.413   2.537
 1941SOL     OW18295   5.280   0.798   3.658
 1941SOL    HW118296   5.281   0.782   3.756
 1941SOL    HW218297   5.191   0.772   3.620
 1942SOL     OW18298   4.302   0.461   0.986
 1942SOL    HW118299   4.231   0.442   0.918
 1942SOL    HW218300   4.375   0.393   0.979
 1943SOL     OW18301   4.486   6.620   6.139
 1943SOL    HW118302   4.497   6.530   6.180
 1943SOL    HW218303   4.568   6.645   6.089
 1944SOL     OW18304   0.120   3.522   1.135
 1944SOL    HW118305   0.071   3.535   1.221
 1944SOL    HW218306   0.173   3.438   1.139
 1945SOL     OW18307   6.262   0.835   5.425
 1945SOL    HW118308   6.207   0.883   5.356
 1945SOL    HW218309   6.342   0.795   5.380
 1946SOL     OW18310   3.375   6.148   6.257
 1946SOL    HW118311   3.462   6.196   6.246
 1946SOL    HW218312   3.391   6.063   6.307
 1947SOL     OW18313   0.217   1.021   5.551
 1947SOL    HW118314   0.257   1.042   5.462
 1947SOL    HW218315   0.260   0.938   5.588
 1948SOL     OW18316   1.303   1.991   0.188
 1948SOL    HW118317   1.331   1.934   0.111
 1948SOL    HW218318   1.356   1.967   0.269
 1949SOL     OW18319   6.856   4.977   6.784
 1949SOL    HW118320   6.866   4.982   6.685
 1949SOL    HW218321   6.947   4.978   6.827
 1950SOL     OW18322   6.743   2.753   6.417
 1950SOL    HW118323   6.732   2.665   6.371
 1950SOL    HW218324   6.763   2.824   6.349
 1951SOL     OW18325   0.800   4.709   2.100
 1951SOL    HW118326   0.775   4.620   2.138
 1951SOL    HW218327   0.717   4.762   2.082
 1952SOL     OW18328   1.846   5.071   5.111
 1952SOL    HW118329   1.778   5.141   5.089
 1952SOL    HW218330   1.850   5.005   5.036
 1953SOL     OW18331   4.580   7.200   0.910
 1953SOL    HW118332   4.672   7.221   0.945
 1953SOL    HW218333   4.521   7.173   0.986
 1954SOL     OW18334   4.057   6.006   6.090
 1954SOL    HW118335   4.071   5.908   6.102
 1954SOL    HW218336   4.117   6.040   6.017
 1955SOL     OW18337   2.715   3.149   4.614
 1955SOL    HW118338   2.699   3.187   4.706
 1955SOL    HW218339   2.770   3.066   4.622
 1956SOL     OW18340   6.957   1.543   2.882
 1956SOL    HW118341   6.969   1.557   2.784
 1956SOL    HW218342   7.046   1.533   2.926
 1957SOL     OW18343   6.506   6.579   0.025
 1957SOL    HW118344   6.570   6.524   8.972
 1957SOL    HW218345   6.460   6.645   8.965
 1958SOL     OW18346   2.220   0.096   8.970
 1958SOL    HW118347   2.315   0.092   0.000
 1958SOL    HW218348   2.183   0.187   8.987
 1959SOL     OW18349   1.248   1.278   0.897
 1959SOL    HW118350   1.270   1.184   0.922
 1959SOL    HW218351   1.148   1.290   0.897
 1960SOL     OW18352   6.156   5.547   2.985
 1960SOL    HW118353   6.137   5.449   2.977
 1960SOL    HW218354   6.091   5.597   2.928
 1961SOL     OW18355   6.010   7.146   4.217
 1961SOL    HW118356   6.010   7.062   4.270
 1961SOL    HW218357   5.990   7.126   4.121
 1962SOL     OW18358   4.842   3.143   5.491
 1962SOL    HW118359   4.748   3.142   5.455
 1962SOL    HW218360   4.900   3.086   5.433
 1963SOL     OW18361   1.125   2.496   3.370
 1963SOL    HW118362   1.150   2.419   3.311
 1963SOL    HW218363   1.073   2.462   3.448
 1964SOL     OW18364   4.593   4.588   7.054
 1964SOL    HW118365   4.526   4.657   7.027
 1964SOL    HW218366   4.671   4.590   6.991
 1965SOL     OW18367   3.682   5.893   6.228
 1965SOL    HW118368   3.712   5.976   6.182
 1965SOL    HW218369   3.678   5.817   6.163
 1966SOL     OW18370   2.296   2.879   2.871
 1966SOL    HW118371   2.234   2.938   2.819
 1966SOL    HW218372   2.251   2.792   2.890
 1967SOL     OW18373   2.646   2.711   2.562
 1967SOL    HW118374   2.581   2.655   2.613
 1967SOL    HW218375   2.664   2.796   2.613
 1968SOL     OW18376   2.625   2.087   4.554
 1968SOL    HW118377   2.556   2.016   4.537
 1968SOL    HW218378   2.581   2.166   4.596
 1969SOL     OW18379   2.700   4.328   1.532
 1969SOL    HW118380   2.763   4.251   1.540
 1969SOL    HW218381   2.664   4.333   1.439
 1970SOL     OW18382   3.686   0.380   3.294
 1970SOL    HW118383   3.671   0.361   3.391
 1970SOL    HW218384   3.606   0.429   3.258
 1971SOL     OW18385   5.378   3.227   2.191
 1971SOL    HW118386   5.410   3.311   2.236
 1971SOL    HW218387   5.430   3.212   2.107
 1972SOL     OW18388   1.427   4.125   5.978
 1972SOL    HW118389   1.367   4.097   5.903
 1972SOL    HW218390   1.383   4.104   6.065
 1973SOL     OW18391   7.340   4.338   2.081
 1973SOL    HW118392   7.386   4.274   2.142
 1973SOL    HW218393   7.381   4.333   1.990
 1974SOL     OW18394   4.449   2.482   1.848
 1974SOL    HW118395   4.398   2.511   1.929
 1974SOL    HW218396   4.505   2.559   1.815
 1975SOL     OW18397   0.835   5.402   2.116
 1975SOL    HW118398   0.844   5.432   2.211
 1975SOL    HW218399   0.778   5.320   2.112
 1976SOL     OW18400   7.141   5.574   1.994
 1976SOL    HW118401   7.063   5.517   1.967
 1976SOL    HW218402   7.223   5.545   1.945
 1977SOL     OW18403   6.493   7.061   5.169
 1977SOL    HW118404   6.564   7.019   5.226
 1977SOL    HW218405   6.435   7.120   5.226
 1978SOL     OW18406   5.464   5.597   2.783
 1978SOL    HW118407   5.393   5.526   2.784
 1978SOL    HW218408   5.492   5.617   2.877
 1979SOL     OW18409   3.706   4.792   0.192
 1979SOL    HW118410   3.737   4.746   0.109
 1979SOL    HW218411   3.641   4.734   0.241
 1980SOL     OW18412   2.126   4.879   4.471
 1980SOL    HW118413   2.210   4.930   4.486
 1980SOL    HW218414   2.132   4.829   4.384
 1981SOL     OW18415   0.645   6.287   4.679
 1981SOL    HW118416   0.561   6.287   4.626
 1981SOL    HW218417   0.688   6.377   4.674
 1982SOL     OW18418   4.111   2.202   1.942
 1982SOL    HW118419   4.052   2.121   1.933
 1982SOL    HW218420   4.062   2.282   1.908
 1983SOL     OW18421   1.748   5.507   4.913
 1983SOL    HW118422   1.812   5.582   4.901
 1983SOL    HW218423   1.740   5.456   4.827
 1984SOL     OW18424   5.640   8.926   1.024
 1984SOL    HW118425   5.702   8.963   1.092
 1984SOL    HW218426   5.567   8.992   1.005
 1985SOL     OW18427   0.294   0.728   6.109
 1985SOL    HW118428   0.257   0.647   6.064
 1985SOL    HW218429   0.254   0.737   6.200
 1986SOL     OW18430   4.847   2.666   6.923
 1986SOL    HW118431   4.935   2.618   6.925
 1986SOL    HW218432   4.847   2.739   6.991
 1987SOL     OW18433   2.297   5.191   4.644
 1987SOL    HW118434   2.237   5.266   4.615
 1987SOL    HW218435   2.312   5.129   4.567
 1988SOL     OW18436   4.748   3.115   4.716
 1988SOL    HW118437   4.756   3.160   4.805
 1988SOL    HW218438   4.831   3.130   4.663
 1989SOL     OW18439   3.300   2.305   3.842
 1989SOL    HW118440   3.218   2.256   3.872
 1989SOL    HW218441   3.367   2.305   3.916
 1990SOL     OW18442   2.907   1.338   6.580
 1990SOL    HW118443   2.961   1.389   6.647
 1990SOL    HW218444   2.938   1.362   6.488
 1991SOL     OW18445   5.813   6.210   4.349
 1991SOL    HW118446   5.871   6.237   4.272
 1991SOL    HW218447   5.868   6.201   4.432
 1992SOL     OW18448   5.243   5.425   3.057
 1992SOL    HW118449   5.324   5.424   3.114
 1992SOL    HW218450   5.171   5.370   3.099
 1993SOL     OW18451   3.940   3.628   6.419
 1993SOL    HW118452   3.899   3.537   6.430
 1993SOL    HW218453   4.035   3.625   6.449
 1994SOL     OW18454   5.201   6.499   4.332
 1994SOL    HW118455   5.136   6.429   4.364
 1994SOL    HW218456   5.166   6.590   4.356
 1995SOL     OW18457   0.536   4.956   1.020
 1995SOL    HW118458   0.506   5.028   0.958
 1995SOL    HW218459   0.573   4.998   1.103
 1996SOL     OW18460   2.787   1.923   5.512
 1996SOL    HW118461   2.718   1.927   5.440
 1996SOL    HW218462   2.878   1.930   5.472
 1997SOL     OW18463   0.920   4.691   6.868
 1997SOL    HW118464   0.839   4.709   6.924
 1997SOL    HW218465   0.897   4.624   6.797
 1998SOL     OW18466   3.387   5.328   1.556
 1998SOL    HW118467   3.317   5.333   1.628
 1998SOL    HW218468   3.460   5.267   1.586
 1999SOL     OW18469   5.354   2.549   0.182
 1999SOL    HW118470   5.318   2.544   0.089
 1999SOL    HW218471   5.359   2.457   0.221
 2000SOL     OW18472   2.084   3.102   3.406
 2000SOL    HW118473   2.167   3.122   3.458
 2000SOL    HW218474   2.004   3.134   3.457
 2001SOL     OW18475   5.651   4.094   0.596
 2001SOL    HW118476   5.738   4.143   0.603
 2001SOL    HW218477   5.620   4.093   0.501
 2002SOL     OW18478   2.495   5.571   6.129
 2002SOL    HW118479   2.463   5.480   6.157
 2002SOL    HW218480   2.480   5.581   6.030
 2003SOL     OW18481   4.039   5.788   2.061
 2003SOL    HW118482   3.986   5.703   2.062
 2003SOL    HW218483   3.992   5.858   2.114
 2004SOL     OW18484   2.542   1.104   2.056
 2004SOL    HW118485   2.593   1.018   2.049
 2004SOL    HW218486   2.546   1.138   2.150
 2005SOL     OW18487   3.627   6.537   2.969
 2005SOL    HW118488   3.709   6.480   2.964
 2005SOL    HW218489   3.558   6.501   2.907
 2006SOL     OW18490   4.630   7.297   4.892
 2006SOL    HW118491   4.660   7.317   4.799
 2006SOL    HW218492   4.607   7.200   4.900
 2007SOL     OW18493   5.468   3.647   0.866
 2007SOL    HW118494   5.423   3.690   0.944
 2007SOL    HW218495   5.398   3.608   0.805
 2008SOL     OW18496   7.422   3.228   3.233
 2008SOL    HW118497   7.365   3.145   3.235
 2008SOL    HW218498   7.455   3.244   3.140
 2009SOL     OW18499   2.542   6.324   4.011
 2009SOL    HW118500   2.564   6.384   4.087
 2009SOL    HW218501   2.592   6.354   3.929
 2010SOL     OW18502   1.567   3.137   5.823
 2010SOL    HW118503   1.570   3.226   5.776
 2010SOL    HW218504   1.504   3.143   5.901
 2011SOL     OW18505   4.433   3.307   0.231
 2011SOL    HW118506   4.382   3.266   0.156
 2011SOL    HW218507   4.405   3.264   0.317
 2012SOL     OW18508   2.297   5.701   4.382
 2012SOL    HW118509   2.314   5.716   4.479
 2012SOL    HW218510   2.360   5.631   4.348
 2013SOL     OW18511   6.834   5.399   3.939
 2013SOL    HW118512   6.895   5.334   3.986
 2013SOL    HW218513   6.784   5.351   3.866
 2014SOL     OW18514   4.428   2.257   4.874
 2014SOL    HW118515   4.499   2.262   4.944
 2014SOL    HW218516   4.352   2.317   4.900
 2015SOL     OW18517   1.906   4.903   0.793
 2015SOL    HW118518   1.885   4.998   0.818
 2015SOL    HW218519   1.821   4.854   0.775
 2016SOL     OW18520   2.726   1.392   7.231
 2016SOL    HW118521   2.796   1.378   7.302
 2016SOL    HW218522   2.637   1.404   7.274
 2017SOL     OW18523   2.057   3.305   7.045
 2017SOL    HW118524   2.122   3.261   6.984
 2017SOL    HW218525   2.096   3.313   7.137
 2018SOL     OW18526   6.405   5.583   5.993
 2018SOL    HW118527   6.439   5.662   5.941
 2018SOL    HW218528   6.440   5.587   6.087
 2019SOL     OW18529   4.138   4.191   2.665
 2019SOL    HW118530   4.178   4.155   2.749
 2019SOL    HW218531   4.132   4.119   2.597
 2020SOL     OW18532   0.974   2.281   6.150
 2020SOL    HW118533   1.043   2.226   6.198
 2020SOL    HW218534   1.020   2.354   6.099
 2021SOL     OW18535   7.057   1.053   1.175
 2021SOL    HW118536   7.024   0.997   1.100
 2021SOL    HW218537   7.091   1.141   1.139
 2022SOL     OW18538   3.295   1.814   7.052
 2022SOL    HW118539   3.253   1.893   7.096
 2022SOL    HW218540   3.241   1.732   7.072
 2023SOL     OW18541   3.695   2.846   4.014
 2023SOL    HW118542   3.711   2.833   4.112
 2023SOL    HW218543   3.621   2.912   4.000
 2024SOL     OW18544   1.686   2.557   6.634
 2024SOL    HW118545   1.770   2.558   6.687
 2024SOL    HW218546   1.651   2.651   6.627
 2025SOL     OW18547   5.260   2.307   5.584
 2025SOL    HW118548   5.227   2.279   5.674
 2025SOL    HW218549   5.254   2.230   5.520
 2026SOL     OW18550   3.766   0.408   1.294
 2026SOL    HW118551   3.726   0.320   1.321
 2026SOL    HW218552   3.860   0.414   1.329
 2027SOL     OW18553   5.010   5.470   0.999
 2027SOL    HW118554   4.976   5.564   0.995
 2027SOL    HW218555   5.014   5.432   0.907
 2028SOL     OW18556   4.306   6.909   1.683
 2028SOL    HW118557   4.343   6.853   1.610
 2028SOL    HW218558   4.288   7.001   1.649
 2029SOL     OW18559   3.264   5.314   4.916
 2029SOL    HW118560   3.331   5.363   4.861
 2029SOL    HW218561   3.196   5.271   4.856
 2030SOL     OW18562   2.642   6.906   2.329
 2030SOL    HW118563   2.550   6.924   2.363
 2030SOL    HW218564   2.666   6.811   2.348
 2031SOL     OW18565   5.925   0.990   4.840
 2031SOL    HW118566   5.958   0.896   4.839
 2031SOL    HW218567   5.827   0.992   4.824
 2032SOL     OW18568   1.636   3.172   1.637
 2032SOL    HW118569   1.569   3.131   1.574
 2032SOL    HW218570   1.659   3.264   1.606
 2033SOL     OW18571   3.474   5.676   3.466
 2033SOL    HW118572   3.394   5.617   3.473
 2033SOL    HW218573   3.538   5.654   3.540
 2034SOL     OW18574   2.128   3.385   6.163
 2034SOL    HW118575   2.086   3.475   6.162
 2034SOL    HW218576   2.057   3.314   6.161
 2035SOL     OW18577   4.929   8.935   3.353
 2035SOL    HW118578   4.879   0.016   3.323
 2035SOL    HW218579   4.864   8.863   3.376
 2036SOL     OW18580   6.380   0.386   5.881
 2036SOL    HW118581   6.329   0.396   5.967
 2036SOL    HW218582   6.472   0.424   5.893
 2037SOL     OW18583   4.855   4.690   1.015
 2037SOL    HW118584   4.815   4.742   1.091
 2037SOL    HW218585   4.908   4.752   0.957
 2038SOL     OW18586   4.040   7.053   2.901
 2038SOL    HW118587   4.035   7.145   2.941
 2038SOL    HW218588   4.101   7.054   2.822
 2039SOL     OW18589   2.006   7.229   6.514
 2039SOL    HW118590   2.095   7.190   6.538
 2039SOL    HW218591   1.995   7.317   6.558
 2040SOL     OW18592   0.173   5.405   0.489
 2040SOL    HW118593   0.205   5.467   0.417
 2040SOL    HW218594   0.171   5.453   0.576
 2041SOL     OW18595   0.043   4.309   1.502
 2041SOL    HW118596   0.040   4.210   1.496
 2041SOL    HW218597   8.994   4.349   1.424
 2042SOL     OW18598   0.066   4.578   5.558
 2042SOL    HW118599   8.975   4.567   5.518
 2042SOL    HW218600   0.126   4.623   5.492
 2043SOL     OW18601   2.634   2.031   3.248
 2043SOL    HW118602   2.570   2.101   3.218
 2043SOL    HW218603   2.728   2.060   3.230
 2044SOL     OW18604   5.254   6.450   3.458
 2044SOL    HW118605   5.181   6.382   3.458
 2044SOL    HW218606   5.218   6.537   3.493
 2045SOL     OW18607   6.603   0.501   1.109
 2045SOL    HW118608   6.697   0.499   1.076
 2045SOL    HW218609   6.575   0.596   1.125
 2046SOL     OW18610   6.110   1.636   4.882
 2046SOL    HW118611   6.108   1.557   4.822
 2046SOL    HW218612   6.189   1.693   4.859
 2047SOL     OW18613   3.369   4.947   2.755
 2047SOL    HW118614   3.313   4.901   2.686
 2047SOL    HW218615   3.449   4.890   2.776
 2048SOL     OW18616   4.624   5.774   3.553
 2048SOL    HW118617   4.566   5.765   3.634
 2048SOL    HW218618   4.707   5.720   3.566
 2049SOL     OW18619   6.253   3.001   5.741
 2049SOL    HW118620   6.163   3.021   5.701
 2049SOL    HW218621   6.323   3.054   5.692
 2050SOL     OW18622   5.588   3.950   1.906
 2050SOL    HW118623   5.507   3.905   1.868
 2050SOL    HW218624   5.617   3.902   1.989
 2051SOL     OW18625   3.757   6.049   5.804
 2051SOL    HW118626   3.828   6.045   5.733
 2051SOL    HW218627   3.709   5.961   5.808
 2052SOL     OW18628   4.232   0.270   0.311
 2052SOL    HW118629   4.162   0.224   0.365
 2052SOL    HW218630   4.195   0.355   0.274
 2053SOL     OW18631   4.328   4.940   2.023
 2053SOL    HW118632   4.312   4.890   2.108
 2053SOL    HW218633   4.406   4.899   1.974
 2054SOL     OW18634   0.606   0.692   0.856
 2054SOL    HW118635   0.584   0.787   0.878
 2054SOL    HW218636   0.534   0.653   0.798
 2055SOL     OW18637   1.801   2.421   3.935
 2055SOL    HW118638   1.786   2.407   4.033
 2055SOL    HW218639   1.713   2.419   3.887
 2056SOL     OW18640   4.969   4.635   0.682
 2056SOL    HW118641   4.941   4.549   0.640
 2056SOL    HW218642   5.025   4.616   0.763
 2057SOL     OW18643   5.680   4.038   3.198
 2057SOL    HW118644   5.624   3.957   3.216
 2057SOL    HW218645   5.664   4.107   3.268
 2058SOL     OW18646   0.594   6.470   4.397
 2058SOL    HW118647   0.529   6.404   4.436
 2058SOL    HW218648   0.556   6.507   4.312
 2059SOL     OW18649   1.028   4.437   0.967
 2059SOL    HW118650   1.052   4.387   1.051
 2059SOL    HW218651   1.095   4.510   0.952
 2060SOL     OW18652   6.512   4.892   0.142
 2060SOL    HW118653   6.601   4.934   0.125
 2060SOL    HW218654   6.465   4.877   0.056
 2061SOL     OW18655   1.078   2.997   1.354
 2061SOL    HW118656   1.120   3.085   1.331
 2061SOL    HW218657   1.050   2.998   1.450
 2062SOL     OW18658   7.150   3.490   7.269
 2062SOL    HW118659   7.139   3.425   7.193
 2062SOL    HW218660   7.069   3.548   7.275
 2063SOL     OW18661   4.482   3.191   4.671
 2063SOL    HW118662   4.576   3.158   4.686
 2063SOL    HW218663   4.476   3.236   4.582
 2064SOL     OW18664   1.103   4.481   1.518
 2064SOL    HW118665   1.022   4.540   1.524
 2064SOL    HW218666   1.184   4.537   1.499
 2065SOL     OW18667   4.453   5.618   2.884
 2065SOL    HW118668   4.452   5.689   2.814
 2065SOL    HW218669   4.516   5.645   2.957
 2066SOL     OW18670   3.533   5.741   6.406
 2066SOL    HW118671   3.584   5.809   6.354
 2066SOL    HW218672   3.528   5.656   6.354
 2067SOL     OW18673   2.532   4.266   4.931
 2067SOL    HW118674   2.500   4.179   4.893
 2067SOL    HW218675   2.487   4.281   5.020
 2068SOL     OW18676   0.623   5.927   0.049
 2068SOL    HW118677   0.585   5.933   0.141
 2068SOL    HW218678   0.556   5.962   8.983
 2069SOL     OW18679   5.481   0.944   3.264
 2069SOL    HW118680   5.567   0.929   3.215
 2069SOL    HW218681   5.469   0.872   3.332
 2070SOL     OW18682   6.491   6.640   3.916
 2070SOL    HW118683   6.516   6.576   3.989
 2070SOL    HW218684   6.537   6.727   3.931
 2071SOL     OW18685   5.319   5.254   6.883
 2071SOL    HW118686   5.332   5.335   6.826
 2071SOL    HW218687   5.384   5.183   6.856
 2072SOL     OW18688   5.195   5.110   0.532
 2072SOL    HW118689   5.210   5.072   0.624
 2072SOL    HW218690   5.103   5.148   0.527
 2073SOL     OW18691   7.041   6.897   6.635
 2073SOL    HW118692   7.007   6.975   6.582
 2073SOL    HW218693   7.076   6.929   6.723
 2074SOL     OW18694   1.811   3.713   4.968
 2074SOL    HW118695   1.906   3.740   4.953
 2074SOL    HW218696   1.806   3.613   4.978
 2075SOL     OW18697   5.019   5.299   3.143
 2075SOL    HW118698   4.996   5.216   3.092
 2075SOL    HW218699   4.938   5.358   3.150
 2076SOL     OW18700   0.917   2.274   1.204
 2076SOL    HW118701   0.945   2.294   1.110
 2076SOL    HW218702   0.857   2.347   1.237
 2077SOL     OW18703   4.338   6.548   4.408
 2077SOL    HW118704   4.331   6.473   4.473
 2077SOL    HW218705   4.429   6.550   4.367
 2078SOL     OW18706   1.559   0.800   0.828
 2078SOL    HW118707   1.468   0.809   0.786
 2078SOL    HW218708   1.626   0.848   0.771
 2079SOL     OW18709   2.183   0.112   6.777
 2079SOL    HW118710   2.191   0.027   6.726
 2079SOL    HW218711   2.242   0.109   6.857
 2080SOL     OW18712   5.160   3.853   1.928
 2080SOL    HW118713   5.088   3.874   1.862
 2080SOL    HW218714   5.139   3.896   2.016
 2081SOL     OW18715   3.207   6.189   7.165
 2081SOL    HW118716   3.279   6.253   7.192
 2081SOL    HW218717   3.149   6.168   7.243
 2082SOL     OW18718   1.924   2.098   1.861
 2082SOL    HW118719   1.927   2.031   1.935
 2082SOL    HW218720   1.985   2.174   1.882
 2083SOL     OW18721   3.680   5.685   6.050
 2083SOL    HW118722   3.657   5.726   5.962
 2083SOL    HW218723   3.766   5.635   6.041
 2084SOL     OW18724   3.180   2.980   5.884
 2084SOL    HW118725   3.153   2.898   5.934
 2084SOL    HW218726   3.157   3.061   5.939
 2085SOL     OW18727   4.598   0.987   0.356
 2085SOL    HW118728   4.510   0.940   0.360
 2085SOL    HW218729   4.599   1.059   0.426
 2086SOL     OW18730   3.333   2.930   6.590
 2086SOL    HW118731   3.342   2.954   6.493
 2086SOL    HW218732   3.263   2.860   6.601
 2087SOL     OW18733   5.874   1.815   0.006
 2087SOL    HW118734   5.898   1.736   8.949
 2087SOL    HW218735   5.776   1.815   0.022
 2088SOL     OW18736   3.979   6.921   4.861
 2088SOL    HW118737   3.995   6.827   4.828
 2088SOL    HW218738   3.924   6.970   4.794
 2089SOL     OW18739   1.331   4.118   4.508
 2089SOL    HW118740   1.265   4.102   4.581
 2089SOL    HW218741   1.410   4.058   4.519
 2090SOL     OW18742   4.129   0.839   2.071
 2090SOL    HW118743   4.204   0.832   2.137
 2090SOL    HW218744   4.073   0.918   2.092
 2091SOL     OW18745   3.714   7.320   5.265
 2091SOL    HW118746   3.634   7.330   5.207
 2091SOL    HW218747   3.794   7.300   5.209
 2092SOL     OW18748   3.392   4.350   0.625
 2092SOL    HW118749   3.322   4.402   0.674
 2092SOL    HW218750   3.348   4.294   0.554
 2093SOL     OW18751   3.009   2.762   1.161
 2093SOL    HW118752   2.914   2.777   1.189
 2093SOL    HW218753   3.022   2.665   1.140
 2094SOL     OW18754   4.476   6.600   6.616
 2094SOL    HW118755   4.404   6.531   6.616
 2094SOL    HW218756   4.473   6.652   6.531
 2095SOL     OW18757   1.103   0.150   5.574
 2095SOL    HW118758   1.029   0.144   5.507
 2095SOL    HW218759   1.069   0.126   5.665
 2096SOL     OW18760   6.787   0.532   7.095
 2096SOL    HW118761   6.741   0.467   7.155
 2096SOL    HW218762   6.886   0.520   7.104
 2097SOL     OW18763   4.287   1.545   5.782
 2097SOL    HW118764   4.348   1.486   5.729
 2097SOL    HW218765   4.319   1.548   5.877
 2098SOL     OW18766   4.004   2.731   6.476
 2098SOL    HW118767   4.092   2.732   6.524
 2098SOL    HW218768   3.973   2.637   6.465
 2099SOL     OW18769   0.769   0.250   5.854
 2099SOL    HW118770   0.813   0.333   5.888
 2099SOL    HW218771   0.677   0.272   5.823
 2100SOL     OW18772   4.945   3.720   2.898
 2100SOL    HW118773   4.990   3.701   2.811
 2100SOL    HW218774   4.908   3.812   2.897
 2101SOL     OW18775   1.540   3.691   1.789
 2101SOL    HW118776   1.515   3.780   1.827
 2101SOL    HW218777   1.540   3.622   1.862
 2102SOL     OW18778   5.118   6.355   2.895
 2102SOL    HW118779   5.181   6.313   2.960
 2102SOL    HW218780   5.140   6.324   2.802
 2103SOL     OW18781   6.786   6.103   4.029
 2103SOL    HW118782   6.699   6.091   3.981
 2103SOL    HW218783   6.861   6.090   3.965
 2104SOL     OW18784   3.396   0.507   1.184
 2104SOL    HW118785   3.473   0.556   1.143
 2104SOL    HW218786   3.422   0.413   1.204
 2105SOL     OW18787   3.987   5.534   0.581
 2105SOL    HW118788   4.037   5.449   0.569
 2105SOL    HW218789   4.035   5.593   0.647
 2106SOL     OW18790   6.167   1.197   0.685
 2106SOL    HW118791   6.184   1.152   0.772
 2106SOL    HW218792   6.212   1.146   0.611
 2107SOL     OW18793   4.633   6.617   4.034
 2107SOL    HW118794   4.721   6.575   4.052
 2107SOL    HW218795   4.575   6.608   4.115
 2108SOL     OW18796   2.036   0.153   2.787
 2108SOL    HW118797   1.963   0.128   2.850
 2108SOL    HW218798   2.117   0.181   2.840
 2109SOL     OW18799   3.115   0.363   2.981
 2109SOL    HW118800   3.034   0.413   2.951
 2109SOL    HW218801   3.127   0.281   2.925
 2110SOL     OW18802   4.959   5.618   4.641
 2110SOL    HW118803   4.906   5.534   4.652
 2110SOL    HW218804   4.896   5.696   4.634
 2111SOL     OW18805   4.571   5.619   3.335
 2111SOL    HW118806   4.556   5.530   3.379
 2111SOL    HW218807   4.583   5.689   3.404
 2112SOL     OW18808   6.547   3.016   6.112
 2112SOL    HW118809   6.475   3.056   6.055
 2112SOL    HW218810   6.512   3.001   6.205
 2113SOL     OW18811   4.072   2.202   7.004
 2113SOL    HW118812   3.998   2.139   7.028
 2113SOL    HW218813   4.158   2.152   6.998
 2114SOL     OW18814   5.289   3.402   2.570
 2114SOL    HW118815   5.341   3.487   2.560
 2114SOL    HW218816   5.198   3.414   2.532
 2115SOL     OW18817   1.908   4.118   4.216
 2115SOL    HW118818   1.848   4.179   4.269
 2115SOL    HW218819   1.861   4.032   4.199
 2116SOL     OW18820   4.627   3.897   7.237
 2116SOL    HW118821   4.530   3.898   7.213
 2116SOL    HW218822   4.682   3.894   7.154
 2117SOL     OW18823   4.385   0.188   6.329
 2117SOL    HW118824   4.287   0.205   6.325
 2117SOL    HW218825   4.427   0.251   6.394
 2118SOL     OW18826   6.132   4.744   5.855
 2118SOL    HW118827   6.227   4.775   5.856
 2118SOL    HW218828   6.071   4.823   5.859
 2119SOL     OW18829   6.042   7.059   6.716
 2119SOL    HW118830   6.056   7.129   6.646
 2119SOL    HW218831   6.106   6.983   6.701
 2120SOL     OW18832   4.660   1.389   6.853
 2120SOL    HW118833   4.699   1.308   6.896
 2120SOL    HW218834   4.733   1.454   6.831
 2121SOL     OW18835   4.792   4.317   5.553
 2121SOL    HW118836   4.874   4.293   5.501
 2121SOL    HW218837   4.798   4.413   5.582
 2122SOL     OW18838   4.716   1.436   0.478
 2122SOL    HW118839   4.735   1.459   0.573
 2122SOL    HW218840   4.725   1.517   0.420
 2123SOL     OW18841   4.233   4.824   5.848
 2123SOL    HW118842   4.256   4.742   5.796
 2123SOL    HW218843   4.296   4.833   5.925
 2124SOL     OW18844   3.035   4.021   6.248
 2124SOL    HW118845   2.950   3.982   6.212
 2124SOL    HW218846   3.022   4.048   6.343
 2125SOL     OW18847   6.048   2.083   0.453
 2125SOL    HW118848   5.996   2.054   0.533
 2125SOL    HW218849   6.004   2.050   0.370
 2126SOL     OW18850   0.948   1.823   7.032
 2126SOL    HW118851   0.894   1.819   6.948
 2126SOL    HW218852   0.930   1.742   7.087
 2127SOL     OW18853   2.585   1.361   6.077
 2127SOL    HW118854   2.538   1.449   6.087
 2127SOL    HW218855   2.525   1.297   6.029
 2128SOL     OW18856   4.466   2.167   0.084
 2128SOL    HW118857   4.407   2.099   0.130
 2128SOL    HW218858   4.410   2.243   0.051
 2129SOL     OW18859   5.169   0.559   1.493
 2129SOL    HW118860   5.110   0.480   1.478
 2129SOL    HW218861   5.177   0.611   1.408
 2130SOL     OW18862   5.278   6.449   4.078
 2130SOL    HW118863   5.247   6.467   4.171
 2130SOL    HW218864   5.334   6.367   4.077
 2131SOL     OW18865   6.781   6.783   3.269
 2131SOL    HW118866   6.851   6.761   3.201
 2131SOL    HW218867   6.819   6.846   3.337
 2132SOL     OW18868   3.351   1.844   7.346
 2132SOL    HW118869   3.265   1.888   7.317
 2132SOL    HW218870   3.426   1.879   7.290
 2133SOL     OW18871   6.222   2.304   3.788
 2133SOL    HW118872   6.320   2.325   3.797
 2133SOL    HW218873   6.181   2.297   3.879
 2134SOL     OW18874   4.881   3.466   0.164
 2134SOL    HW118875   4.913   3.472   0.070
 2134SOL    HW218876   4.813   3.393   0.172
 2135SOL     OW18877   4.868   0.559   0.476
 2135SOL    HW118878   4.799   0.611   0.426
 2135SOL    HW218879   4.941   0.620   0.507
 2136SOL     OW18880   4.667   6.886   1.542
 2136SOL    HW118881   4.578   6.851   1.510
 2136SOL    HW218882   4.698   6.830   1.619
 2137SOL     OW18883   1.742   2.099   5.406
 2137SOL    HW118884   1.764   2.010   5.446
 2137SOL    HW218885   1.679   2.147   5.466
 2138SOL     OW18886   5.220   1.403   7.247
 2138SOL    HW118887   5.134   1.453   7.242
 2138SOL    HW218888   5.242   1.365   7.157
 2139SOL     OW18889   1.961   6.837   5.940
 2139SOL    HW118890   2.046   6.890   5.940
 2139SOL    HW218891   1.978   6.748   5.898
 2140SOL     OW18892   4.780   5.124   5.810
 2140SOL    HW118893   4.863   5.075   5.783
 2140SOL    HW218894   4.791   5.222   5.791
 2141SOL     OW18895   1.302   2.272   1.563
 2141SOL    HW118896   1.344   2.342   1.505
 2141SOL    HW218897   1.222   2.235   1.517
 2142SOL     OW18898   5.709   3.345   0.708
 2142SOL    HW118899   5.657   3.283   0.766
 2142SOL    HW218900   5.772   3.399   0.764
 2143SOL     OW18901   6.961   1.671   4.006
 2143SOL    HW118902   7.022   1.644   3.931
 2143SOL    HW218903   6.924   1.762   3.988
 2144SOL     OW18904   3.116   0.162   2.785
 2144SOL    HW118905   3.197   0.139   2.730
 2144SOL    HW218906   3.037   0.175   2.724
 2145SOL     OW18907   4.173   0.558   4.076
 2145SOL    HW118908   4.151   0.559   3.979
 2145SOL    HW218909   4.103   0.606   4.127
 2146SOL     OW18910   2.583   3.892   0.569
 2146SOL    HW118911   2.501   3.917   0.516
 2146SOL    HW218912   2.600   3.794   0.559
 2147SOL     OW18913   2.910   1.855   7.177
 2147SOL    HW118914   2.859   1.775   7.146
 2147SOL    HW218915   2.847   1.917   7.226
 2148SOL     OW18916   4.099   5.470   2.737
 2148SOL    HW118917   4.037   5.475   2.816
 2148SOL    HW218918   4.046   5.451   2.655
 2149SOL     OW18919   4.295   4.132   4.973
 2149SOL    HW118920   4.319   4.128   5.071
 2149SOL    HW218921   4.379   4.149   4.920
 2150SOL     OW18922   2.881   3.866   4.914
 2150SOL    HW118923   2.894   3.893   5.010
 2150SOL    HW218924   2.923   3.934   4.854
 2151SOL     OW18925   3.247   3.128   1.443
 2151SOL    HW118926   3.213   3.050   1.391
 2151SOL    HW218927   3.181   3.203   1.436
 2152SOL     OW18928   7.111   7.157   6.259
 2152SOL    HW118929   7.120   7.254   6.234
 2152SOL    HW218930   7.096   7.103   6.176
 2153SOL     OW18931   5.734   6.832   3.740
 2153SOL    HW118932   5.759   6.900   3.807
 2153SOL    HW218933   5.799   6.833   3.664
 2154SOL     OW18934   3.502   6.164   2.683
 2154SOL    HW118935   3.581   6.132   2.735
 2154SOL    HW218936   3.432   6.092   2.681
 2155SOL     OW18937   3.147   1.059   4.739
 2155SOL    HW118938   3.076   1.117   4.699
 2155SOL    HW218939   3.172   1.094   4.829
 2156SOL     OW18940   3.067   4.119   5.745
 2156SOL    HW118941   3.144   4.176   5.715
 2156SOL    HW218942   3.004   4.175   5.799
 2157SOL     OW18943   3.963   6.933   7.035
 2157SOL    HW118944   4.030   6.862   7.014
 2157SOL    HW218945   3.939   6.981   6.951
 2158SOL     OW18946   3.945   1.891   5.015
 2158SOL    HW118947   3.890   1.829   4.960
 2158SOL    HW218948   3.978   1.967   4.958
 2159SOL     OW18949   5.289   7.128   7.102
 2159SOL    HW118950   5.257   7.044   7.145
 2159SOL    HW218951   5.348   7.106   7.025
 2160SOL     OW18952   5.038   4.222   5.455
 2160SOL    HW118953   5.104   4.284   5.411
 2160SOL    HW218954   5.083   4.175   5.530
 2161SOL     OW18955   6.197   4.370   3.496
 2161SOL    HW118956   6.224   4.409   3.583
 2161SOL    HW218957   6.199   4.270   3.502
 2162SOL     OW18958   2.800   4.482   5.752
 2162SOL    HW118959   2.705   4.513   5.745
 2162SOL    HW218960   2.859   4.544   5.700
 2163SOL     OW18961   1.225   5.060   3.103
 2163SOL    HW118962   1.203   4.976   3.154
 2163SOL    HW218963   1.148   5.082   3.043
 2164SOL     OW18964   5.092   3.429   6.401
 2164SOL    HW118965   5.148   3.475   6.333
 2164SOL    HW218966   5.009   3.481   6.417
 2165SOL     OW18967   5.668   0.398   3.764
 2165SOL    HW118968   5.721   0.352   3.692
 2165SOL    HW218969   5.581   0.429   3.727
 2166SOL     OW18970   3.649   6.415   0.449
 2166SOL    HW118971   3.743   6.385   0.432
 2166SOL    HW218972   3.594   6.406   0.366
 2167SOL     OW18973   2.398   3.299   2.143
 2167SOL    HW118974   2.456   3.217   2.138
 2167SOL    HW218975   2.347   3.299   2.230
 2168SOL     OW18976   0.994   0.090   5.828
 2168SOL    HW118977   0.915   0.152   5.836
 2168SOL    HW218978   0.968   8.999   5.860
 2169SOL     OW18979   0.192   3.784   6.919
 2169SOL    HW118980   0.272   3.731   6.893
 2169SOL    HW218981   0.195   3.804   7.017
 2170SOL     OW18982   4.139   7.321   3.218
 2170SOL    HW118983   4.083   7.322   3.135
 2170SOL    HW218984   4.230   7.284   3.197
 2171SOL     OW18985   6.338   7.020   4.570
 2171SOL    HW118986   6.408   6.949   4.565
 2171SOL    HW218987   6.363   7.087   4.640
 2172SOL     OW18988   4.229   1.457   3.965
 2172SOL    HW118989   4.167   1.379   3.949
 2172SOL    HW218990   4.231   1.514   3.883
 2173SOL     OW18991   4.077   3.739   1.945
 2173SOL    HW118992   4.150   3.688   1.899
 2173SOL    HW218993   4.010   3.675   1.982
 2174SOL     OW18994   4.833   2.075   3.594
 2174SOL    HW118995   4.828   2.174   3.602
 2174SOL    HW218996   4.928   2.046   3.603
 2175SOL     OW18997   5.644   2.004   1.993
 2175SOL    HW118998   5.593   2.089   1.979
 2175SOL    HW218999   5.690   1.979   1.908
 2176SOL     OW19000   2.858   1.535   5.657
 2176SOL    HW119001   2.939   1.515   5.602
 2176SOL    HW219002   2.804   1.452   5.668
 2177SOL     OW19003   2.958   4.399   4.956
 2177SOL    HW119004   2.899   4.326   4.988
 2177SOL    HW219005   2.951   4.477   5.018
 2178SOL     OW19006   6.731   2.232   3.921
 2178SOL    HW119007   6.826   2.202   3.919
 2178SOL    HW219008   6.686   2.195   4.003
 2179SOL     OW19009   1.673   2.850   5.598
 2179SOL    HW119010   1.666   2.756   5.630
 2179SOL    HW219011   1.583   2.894   5.603
 2180SOL     OW19012   6.912   1.430   1.940
 2180SOL    HW119013   6.836   1.366   1.942
 2180SOL    HW219014   6.992   1.389   1.984
 2181SOL     OW19015   3.377   0.443   3.857
 2181SOL    HW119016   3.394   0.534   3.896
 2181SOL    HW219017   3.444   0.379   3.894
 2182SOL     OW19018   6.584   2.949   4.742
 2182SOL    HW119019   6.569   3.033   4.796
 2182SOL    HW219020   6.588   2.871   4.804
 2183SOL     OW19021   1.785   3.834   3.906
 2183SOL    HW119022   1.831   3.910   3.859
 2183SOL    HW219023   1.764   3.860   4.000
 2184SOL     OW19024   5.505   5.042   6.851
 2184SOL    HW119025   5.577   5.098   6.891
 2184SOL    HW219026   5.542   4.953   6.825
 2185SOL     OW19027   4.221   1.793   6.857
 2185SOL    HW119028   4.129   1.755   6.848
 2185SOL    HW219029   4.273   1.775   6.774
 2186SOL     OW19030   7.247   1.600   0.121
 2186SOL    HW119031   7.322   1.612   0.187
 2186SOL    HW219032   7.188   1.681   0.123
 2187SOL     OW19033   6.037   5.222   5.808
 2187SOL    HW119034   6.086   5.219   5.896
 2187SOL    HW219035   6.003   5.315   5.792
 2188SOL     OW19036   0.408   1.236   3.440
 2188SOL    HW119037   0.428   1.175   3.364
 2188SOL    HW219038   0.311   1.260   3.439
 2189SOL     OW19039   1.788   4.505   4.183
 2189SOL    HW119040   1.850   4.544   4.251
 2189SOL    HW219041   1.834   4.500   4.095
 2190SOL     OW19042   4.121   1.189   4.219
 2190SOL    HW119043   4.112   1.090   4.206
 2190SOL    HW219044   4.217   1.215   4.207
 2191SOL     OW19045   1.917   5.282   4.501
 2191SOL    HW119046   1.918   5.183   4.517
 2191SOL    HW219047   2.008   5.319   4.520
 2192SOL     OW19048   3.691   4.048   6.332
 2192SOL    HW119049   3.675   4.128   6.274
 2192SOL    HW219050   3.630   3.974   6.304
 2193SOL     OW19051   4.870   0.571   2.552
 2193SOL    HW119052   4.904   0.596   2.461
 2193SOL    HW219053   4.773   0.547   2.546
 2194SOL     OW19054   4.354   3.181   0.468
 2194SOL    HW119055   4.307   3.260   0.508
 2194SOL    HW219056   4.438   3.163   0.519
 2195SOL     OW19057   5.441   4.439   7.165
 2195SOL    HW119058   5.525   4.438   7.219
 2195SOL    HW219059   5.406   4.346   7.155
 2196SOL     OW19060   0.335   0.789   5.680
 2196SOL    HW119061   0.416   0.735   5.656
 2196SOL    HW219062   0.353   0.839   5.766
 2197SOL     OW19063   4.057   2.559   0.557
 2197SOL    HW119064   4.086   2.641   0.607
 2197SOL    HW219065   3.959   2.545   0.569
 2198SOL     OW19066   6.873   1.857   7.096
 2198SOL    HW119067   6.874   1.882   7.192
 2198SOL    HW219068   6.936   1.780   7.080
 2199SOL     OW19069   0.070   2.750   7.114
 2199SOL    HW119070   0.007   2.716   7.184
 2199SOL    HW219071   0.039   2.719   7.024
 2200SOL     OW19072   5.832   3.263   2.986
 2200SOL    HW119073   5.846   3.195   2.914
 2200SOL    HW219074   5.759   3.326   2.959
 2201SOL     OW19075   3.476   6.620   0.529
 2201SOL    HW119076   3.523   6.536   0.502
 2201SOL    HW219077   3.402   6.598   0.592
 2202SOL     OW19078   6.576   3.497   6.089
 2202SOL    HW119079   6.636   3.419   6.104
 2202SOL    HW219080   6.504   3.472   6.024
 2203SOL     OW19081   3.073   2.172   3.946
 2203SOL    HW119082   3.047   2.099   3.883
 2203SOL    HW219083   3.045   2.147   4.039
 2204SOL     OW19084   6.353   3.072   2.683
 2204SOL    HW119085   6.314   2.980   2.691
 2204SOL    HW219086   6.432   3.069   2.620
 2205SOL     OW19087   0.877   1.391   0.192
 2205SOL    HW119088   0.817   1.449   0.247
 2205SOL    HW219089   0.839   1.299   0.187
 2206SOL     OW19090   1.430   4.904   5.398
 2206SOL    HW119091   1.449   4.999   5.422
 2206SOL    HW219092   1.516   4.854   5.389
 2207SOL     OW19093   0.921   4.465   7.166
 2207SOL    HW119094   0.859   4.386   7.168
 2207SOL    HW219095   0.988   4.453   7.093
 2208SOL     OW19096   5.727   4.719   3.185
 2208SOL    HW119097   5.699   4.648   3.121
 2208SOL    HW219098   5.743   4.679   3.275
 2209SOL     OW19099   4.245   0.438   3.315
 2209SOL    HW119100   4.150   0.432   3.284
 2209SOL    HW219101   4.282   0.346   3.328
 2210SOL     OW19102   3.844   6.250   0.739
 2210SOL    HW119103   3.872   6.156   0.717
 2210SOL    HW219104   3.747   6.262   0.719
 2211SOL     OW19105   6.846   3.325   1.624
 2211SOL    HW119106   6.810   3.308   1.715
 2211SOL    HW219107   6.853   3.423   1.608
 2212SOL     OW19108   3.645   5.764   2.325
 2212SOL    HW119109   3.697   5.796   2.404
 2212SOL    HW219110   3.665   5.667   2.308
 2213SOL     OW19111   4.983   4.905   0.898
 2213SOL    HW119112   4.909   4.971   0.883
 2213SOL    HW219113   5.068   4.941   0.861
 2214SOL     OW19114   2.507   4.289   1.725
 2214SOL    HW119115   2.432   4.352   1.704
 2214SOL    HW219116   2.581   4.303   1.658
 2215SOL     OW19117   3.987   7.349   2.079
 2215SOL    HW119118   3.888   7.364   2.081
 2215SOL    HW219119   4.006   7.252   2.093
 2216SOL     OW19120   0.305   5.502   5.615
 2216SOL    HW119121   0.255   5.581   5.578
 2216SOL    HW219122   0.393   5.494   5.568
 2217SOL     OW19123   5.370   3.676   2.578
 2217SOL    HW119124   5.443   3.737   2.548
 2217SOL    HW219125   5.368   3.672   2.677
 2218SOL     OW19126   5.521   3.251   1.947
 2218SOL    HW119127   5.513   3.350   1.963
 2218SOL    HW219128   5.610   3.231   1.907
 2219SOL     OW19129   1.109   2.210   3.698
 2219SOL    HW119130   1.059   2.288   3.662
 2219SOL    HW219131   1.158   2.164   3.624
 2220SOL     OW19132   2.290   0.338   6.644
 2220SOL    HW119133   2.214   0.364   6.584
 2220SOL    HW219134   2.266   0.254   6.694
 2221SOL     OW19135   2.141   0.871   1.998
 2221SOL    HW119136   2.138   0.899   1.902
 2221SOL    HW219137   2.116   0.948   2.057
 2222SOL     OW19138   5.619   1.282   5.258
 2222SOL    HW119139   5.619   1.222   5.177
 2222SOL    HW219140   5.542   1.259   5.317
 2223SOL     OW19141   4.928   5.670   7.022
 2223SOL    HW119142   4.828   5.661   7.024
 2223SOL    HW219143   4.956   5.746   7.080
 2224SOL     OW19144   5.278   1.493   0.137
 2224SOL    HW119145   5.295   1.432   0.059
 2224SOL    HW219146   5.194   1.466   0.183
 2225SOL     OW19147   6.691   2.369   4.844
 2225SOL    HW119148   6.642   2.421   4.774
 2225SOL    HW219149   6.718   2.430   4.919
 2226SOL     OW19150   6.515   0.233   1.657
 2226SOL    HW119151   6.528   0.320   1.705
 2226SOL    HW219152   6.545   0.243   1.563
 2227SOL     OW19153   4.033   7.348   6.758
 2227SOL    HW119154   4.064   7.258   6.726
 2227SOL    HW219155   3.980   7.392   6.686
 2228SOL     OW19156   3.290   4.920   3.741
 2228SOL    HW119157   3.319   4.983   3.670
 2228SOL    HW219158   3.327   4.829   3.723
 2229SOL     OW19159   3.634   6.957   6.864
 2229SOL    HW119160   3.726   6.993   6.846
 2229SOL    HW219161   3.567   7.030   6.853
 2230SOL     OW19162   0.329   0.608   0.168
 2230SOL    HW119163   0.259   0.549   0.130
 2230SOL    HW219164   0.306   0.633   0.262
 2231SOL     OW19165   2.498   2.780   2.327
 2231SOL    HW119166   2.552   2.757   2.408
 2231SOL    HW219167   2.455   2.870   2.339
 2232SOL     OW19168   5.693   0.589   4.227
 2232SOL    HW119169   5.767   0.540   4.181
 2232SOL    HW219170   5.659   0.535   4.303
 2233SOL     OW19171   6.819   5.933   2.407
 2233SOL    HW119172   6.770   6.001   2.460
 2233SOL    HW219173   6.803   5.842   2.447
 2234SOL     OW19174   0.219   3.218   5.996
 2234SOL    HW119175   0.174   3.290   6.050
 2234SOL    HW219176   0.227   3.249   5.901
 2235SOL     OW19177   3.249   7.376   7.256
 2235SOL    HW119178   3.202   7.348   7.340
 2235SOL    HW219179   3.186   7.369   7.179
 2236SOL     OW19180   7.088   5.168   4.808
 2236SOL    HW119181   7.173   5.118   4.825
 2236SOL    HW219182   7.060   5.216   4.892
 2237SOL     OW19183   0.459   7.316   5.317
 2237SOL    HW119184   0.492   7.367   5.397
 2237SOL    HW219185   0.362   7.334   5.303
 2238SOL     OW19186   0.876   0.982   6.143
 2238SOL    HW119187   0.958   0.935   6.110
 2238SOL    HW219188   0.895   1.026   6.231
 2239SOL     OW19189   3.918   6.598   5.638
 2239SOL    HW119190   3.925   6.498   5.635
 2239SOL    HW219191   4.002   6.636   5.676
 2240SOL     OW19192   3.112   7.114   3.638
 2240SOL    HW119193   3.186   7.100   3.703
 2240SOL    HW219194   3.104   7.211   3.616
 2241SOL     OW19195   0.962   1.080   7.334
 2241SOL    HW119196   0.899   1.105   7.408
 2241SOL    HW219197   0.911   1.037   7.260
 2242SOL     OW19198   4.230   5.641   5.002
 2242SOL    HW119199   4.308   5.660   5.061
 2242SOL    HW219200   4.153   5.608   5.057
 2243SOL     OW19201   0.973   2.899   0.193
 2243SOL    HW119202   1.032   2.914   0.113
 2243SOL    HW219203   0.891   2.955   0.184
 2244SOL     OW19204   0.525   0.717   4.805
 2244SOL    HW119205   0.425   0.713   4.805
 2244SOL    HW219206   0.562   0.634   4.765
 2245SOL     OW19207   7.046   5.316   4.571
 2245SOL    HW119208   6.987   5.265   4.509
 2245SOL    HW219209   7.065   5.261   4.653
 2246SOL     OW19210   6.712   5.665   1.218
 2246SOL    HW119211   6.645   5.644   1.290
 2246SOL    HW219212   6.798   5.694   1.260
 2247SOL     OW19213   2.963   5.679   2.990
 2247SOL    HW119214   2.966   5.700   3.087
 2247SOL    HW219215   2.877   5.713   2.951
 2248SOL     OW19216   1.145   3.254   6.703
 2248SOL    HW119217   1.162   3.181   6.769
 2248SOL    HW219218   1.190   3.232   6.617
 2249SOL     OW19219   6.833   4.430   5.389
 2249SOL    HW119220   6.822   4.529   5.399
 2249SOL    HW219221   6.928   4.409   5.365
 2250SOL     OW19222   3.773   2.419   5.988
 2250SOL    HW119223   3.820   2.507   5.993
 2250SOL    HW219224   3.815   2.363   5.918
 2251SOL     OW19225   5.963   6.543   3.551
 2251SOL    HW119226   5.976   6.545   3.452
 2251SOL    HW219227   5.871   6.509   3.572
 2252SOL     OW19228   5.307   0.350   6.488
 2252SOL    HW119229   5.395   0.313   6.518
 2252SOL    HW219230   5.305   0.354   6.388
 2253SOL     OW19231   4.276   1.585   8.958
 2253SOL    HW119232   4.348   1.628   0.013
 2253SOL    HW219233   4.214   1.534   0.018
 2254SOL     OW19234   0.967   6.303   5.958
 2254SOL    HW119235   0.952   6.298   5.860
 2254SOL    HW219236   0.986   6.398   5.984
 2255SOL     OW19237   5.495   1.135   7.115
 2255SOL    HW119238   5.486   1.126   7.214
 2255SOL    HW219239   5.561   1.208   7.094
 2256SOL     OW19240   2.571   2.346   6.910
 2256SOL    HW119241   2.579   2.385   7.002
 2256SOL    HW219242   2.660   2.352   6.864
 2257SOL     OW19243   6.076   6.221   2.261
 2257SOL    HW119244   6.169   6.237   2.228
 2257SOL    HW219245   6.078   6.154   2.335
 2258SOL     OW19246   3.724   6.120   7.382
 2258SOL    HW119247   3.758   6.189   7.318
 2258SOL    HW219248   3.671   6.164   7.454
 2259SOL     OW19249   6.434   4.511   5.248
 2259SOL    HW119250   6.360   4.501   5.181
 2259SOL    HW219251   6.497   4.433   5.240
 2260SOL     OW19252   0.084   2.220   3.532
 2260SOL    HW119253   0.069   2.263   3.443
 2260SOL    HW219254   0.162   2.157   3.526
 2261SOL     OW19255   4.109   5.308   0.497
 2261SOL    HW119256   4.092   5.322   0.400
 2261SOL    HW219257   4.103   5.210   0.518
 2262SOL     OW19258   5.632   2.505   0.843
 2262SOL    HW119259   5.612   2.506   0.941
 2262SOL    HW219260   5.625   2.597   0.806
 2263SOL     OW19261   5.423   1.122   0.477
 2263SOL    HW119262   5.352   1.188   0.450
 2263SOL    HW219263   5.513   1.162   0.460
 2264SOL     OW19264   1.776   2.956   6.435
 2264SOL    HW119265   1.860   2.917   6.397
 2264SOL    HW219266   1.782   3.055   6.435
 2265SOL     OW19267   6.229   6.437   5.590
 2265SOL    HW119268   6.201   6.402   5.501
 2265SOL    HW219269   6.323   6.471   5.585
 2266SOL     OW19270   1.237   1.921   2.187
 2266SOL    HW119271   1.138   1.935   2.186
 2266SOL    HW219272   1.276   1.951   2.100
 2267SOL     OW19273   4.125   3.574   1.227
 2267SOL    HW119274   4.148   3.477   1.236
 2267SOL    HW219275   4.042   3.594   1.278
 2268SOL     OW19276   0.193   3.834   7.216
 2268SOL    HW119277   0.238   3.745   7.225
 2268SOL    HW219278   0.259   3.902   7.185
 2269SOL     OW19279   4.918   6.020   2.664
 2269SOL    HW119280   4.916   6.090   2.736
 2269SOL    HW219281   4.858   5.945   2.689
 2270SOL     OW19282   5.061   2.883   2.025
 2270SOL    HW119283   5.011   2.961   1.986
 2270SOL    HW219284   5.133   2.917   2.086
 2271SOL     OW19285   4.041   2.635   3.053
 2271SOL    HW119286   4.009   2.578   3.129
 2271SOL    HW219287   4.137   2.656   3.065
 2272SOL     OW19288   6.174   0.254   5.225
 2272SOL    HW119289   6.098   0.299   5.271
 2272SOL    HW219290   6.238   0.217   5.292
 2273SOL     OW19291   6.210   2.339   5.036
 2273SOL    HW119292   6.111   2.357   5.032
 2273SOL    HW219293   6.226   2.250   5.078
 2274SOL     OW19294   2.282   4.301   3.732
 2274SOL    HW119295   2.304   4.399   3.737
 2274SOL    HW219296   2.328   4.253   3.807
 2275SOL     OW19297   2.440   1.599   5.015
 2275SOL    HW119298   2.446   1.639   5.107
 2275SOL    HW219299   2.458   1.501   5.021
 2276SOL     OW19300   2.768   2.940   0.430
 2276SOL    HW119301   2.821   2.930   0.346
 2276SOL    HW219302   2.780   2.860   0.488
 2277SOL     OW19303   3.608   6.283   6.646
 2277SOL    HW119304   3.570   6.372   6.672
 2277SOL    HW219305   3.586   6.216   6.717
 2278SOL     OW19306   2.410   1.909   4.519
 2278SOL    HW119307   2.339   1.946   4.579
 2278SOL    HW219308   2.402   1.809   4.516
 2279SOL     OW19309   4.922   3.245   2.862
 2279SOL    HW119310   4.883   3.329   2.900
 2279SOL    HW219311   4.891   3.234   2.767
 2280SOL     OW19312   5.645   4.933   7.189
 2280SOL    HW119313   5.551   4.912   7.161
 2280SOL    HW219314   5.696   4.969   7.111
 2281SOL     OW19315   1.634   5.278   0.536
 2281SOL    HW119316   1.727   5.302   0.507
 2281SOL    HW219317   1.572   5.354   0.515
 2282SOL     OW19318   6.756   2.774   1.511
 2282SOL    HW119319   6.845   2.783   1.465
 2282SOL    HW219320   6.705   2.698   1.471
 2283SOL     OW19321   0.047   5.969   3.375
 2283SOL    HW119322   8.957   5.991   3.413
 2283SOL    HW219323   0.042   5.880   3.328
 2284SOL     OW19324   1.303   4.555   1.279
 2284SOL    HW119325   1.270   4.633   1.332
 2284SOL    HW219326   1.376   4.509   1.329
 2285SOL     OW19327   4.306   1.483   0.534
 2285SOL    HW119328   4.323   1.557   0.470
 2285SOL    HW219329   4.207   1.466   0.540
 2286SOL     OW19330   5.698   0.488   6.421
 2286SOL    HW119331   5.658   0.557   6.482
 2286SOL    HW219332   5.786   0.458   6.457
 2287SOL     OW19333   6.165   6.605   1.994
 2287SOL    HW119334   6.143   6.649   1.907
 2287SOL    HW219335   6.197   6.674   2.059
 2288SOL     OW19336   5.577   2.189   1.421
 2288SOL    HW119337   5.575   2.157   1.516
 2288SOL    HW219338   5.602   2.113   1.361
 2289SOL     OW19339   5.288   0.243   3.725
 2289SOL    HW119340   5.335   0.163   3.688
 2289SOL    HW219341   5.345   0.324   3.710
 2290SOL     OW19342   3.646   3.562   5.190
 2290SOL    HW119343   3.704   3.482   5.180
 2290SOL    HW219344   3.613   3.568   5.284
 2291SOL     OW19345   3.724   0.720   0.893
 2291SOL    HW119346   3.822   0.702   0.886
 2291SOL    HW219347   3.687   0.736   0.802
 2292SOL     OW19348   4.902   2.938   1.040
 2292SOL    HW119349   4.863   3.016   1.089
 2292SOL    HW219350   4.934   2.968   0.951
 2293SOL     OW19351   1.939   0.453   0.546
 2293SOL    HW119352   1.966   0.358   0.527
 2293SOL    HW219353   1.877   0.455   0.624
 2294SOL     OW19354   5.816   3.620   3.324
 2294SOL    HW119355   5.842   3.526   3.344
 2294SOL    HW219356   5.727   3.640   3.365
 2295SOL     OW19357   2.580   2.506   1.090
 2295SOL    HW119358   2.559   2.602   1.068
 2295SOL    HW219359   2.516   2.473   1.158
 2296SOL     OW19360   0.778   5.441   0.415
 2296SOL    HW119361   0.785   5.475   0.509
 2296SOL    HW219362   0.787   5.341   0.416
 2297SOL     OW19363   1.685   5.532   6.639
 2297SOL    HW119364   1.772   5.566   6.604
 2297SOL    HW219365   1.698   5.443   6.681
 2298SOL     OW19366   2.977   7.046   5.747
 2298SOL    HW119367   2.954   7.040   5.844
 2298SOL    HW219368   3.048   7.116   5.734
 2299SOL     OW19369   2.967   4.072   4.333
 2299SOL    HW119370   2.896   4.130   4.374
 2299SOL    HW219371   2.970   3.984   4.380
 2300SOL     OW19372   2.825   3.254   1.746
 2300SOL    HW119373   2.818   3.193   1.825
 2300SOL    HW219374   2.870   3.205   1.671
 2301SOL     OW19375   0.240   2.917   2.812
 2301SOL    HW119376   0.298   2.971   2.750
 2301SOL    HW219377   0.295   2.882   2.887
 2302SOL     OW19378   3.813   0.216   2.007
 2302SOL    HW119379   3.806   0.312   1.979
 2302SOL    HW219380   3.784   0.206   2.101
 2303SOL     OW19381   4.691   2.457   5.618
 2303SOL    HW119382   4.784   2.482   5.646
 2303SOL    HW219383   4.628   2.471   5.694
 2304SOL     OW19384   5.593   3.915   5.644
 2304SOL    HW119385   5.588   3.816   5.661
 2304SOL    HW219386   5.592   3.931   5.545
 2305SOL     OW19387   6.957   4.463   5.843
 2305SOL    HW119388   6.959   4.460   5.943
 2305SOL    HW219389   7.045   4.496   5.808
 2306SOL     OW19390   5.688   5.246   0.776
 2306SOL    HW119391   5.770   5.265   0.831
 2306SOL    HW219392   5.715   5.218   0.684
 2307SOL     OW19393   6.428   3.490   2.986
 2307SOL    HW119394   6.432   3.425   2.911
 2307SOL    HW219395   6.469   3.577   2.957
 2308SOL     OW19396   6.655   6.648   6.754
 2308SOL    HW119397   6.754   6.645   6.768
 2308SOL    HW219398   6.618   6.555   6.758
 2309SOL     OW19399   1.209   6.444   7.343
 2309SOL    HW119400   1.155   6.360   7.349
 2309SOL    HW219401   1.288   6.428   7.284
 2310SOL     OW19402   2.538   6.853   3.499
 2310SOL    HW119403   2.471   6.857   3.574
 2310SOL    HW219404   2.595   6.771   3.511
 2311SOL     OW19405   6.115   1.106   6.811
 2311SOL    HW119406   6.023   1.087   6.779
 2311SOL    HW219407   6.116   1.108   6.911
 2312SOL     OW19408   6.243   0.034   6.082
 2312SOL    HW119409   6.202   0.032   5.991
 2312SOL    HW219410   6.289   8.946   6.099
 2313SOL     OW19411   0.163   1.773   3.540
 2313SOL    HW119412   0.109   1.708   3.594
 2313SOL    HW219413   0.248   1.728   3.510
 2314SOL     OW19414   1.200   2.400   0.399
 2314SOL    HW119415   1.144   2.477   0.368
 2314SOL    HW219416   1.229   2.346   0.321
 2315SOL     OW19417   1.867   5.200   5.515
 2315SOL    HW119418   1.809   5.133   5.562
 2315SOL    HW219419   1.853   5.291   5.556
 2316SOL     OW19420   4.894   3.719   0.988
 2316SOL    HW119421   4.973   3.659   0.982
 2316SOL    HW219422   4.887   3.774   0.905
 2317SOL     OW19423   4.994   1.345   2.485
 2317SOL    HW119424   4.905   1.373   2.523
 2317SOL    HW219425   5.061   1.417   2.502
 2318SOL     OW19426   0.979   2.217   6.866
 2318SOL    HW119427   0.941   2.169   6.945
 2318SOL    HW219428   1.077   2.229   6.877
 2319SOL     OW19429   3.182   0.564   0.130
 2319SOL    HW119430   3.142   0.591   0.042
 2319SOL    HW219431   3.128   0.490   0.170
 2320SOL     OW19432   1.116   2.952   3.638
 2320SOL    HW119433   1.118   2.875   3.574
 2320SOL    HW219434   1.072   2.923   3.723
 2321SOL     OW19435   6.579   7.006   3.739
 2321SOL    HW119436   6.495   6.964   3.704
 2321SOL    HW219437   6.617   7.068   3.670
 2322SOL     OW19438   3.312   3.963   0.326
 2322SOL    HW119439   3.405   3.935   0.348
 2322SOL    HW219440   3.287   4.043   0.379
 2323SOL     OW19441   4.937   5.301   3.503
 2323SOL    HW119442   4.917   5.218   3.450
 2323SOL    HW219443   4.961   5.375   3.440
 2324SOL     OW19444   4.357   1.264   0.704
 2324SOL    HW119445   4.333   1.330   0.633
 2324SOL    HW219446   4.367   1.311   0.792
 2325SOL     OW19447   0.930   3.780   1.116
 2325SOL    HW119448   0.927   3.803   1.019
 2325SOL    HW219449   0.957   3.860   1.169
 2326SOL     OW19450   4.277   6.023   5.106
 2326SOL    HW119451   4.301   6.020   5.203
 2326SOL    HW219452   4.334   6.091   5.059
 2327SOL     OW19453   7.054   1.233   2.747
 2327SOL    HW119454   6.967   1.274   2.718
 2327SOL    HW219455   7.068   1.147   2.698
 2328SOL     OW19456   5.899   5.912   2.401
 2328SOL    HW119457   5.908   5.823   2.355
 2328SOL    HW219458   5.990   5.953   2.412
 2329SOL     OW19459   0.744   1.020   2.758
 2329SOL    HW119460   0.844   1.016   2.757
 2329SOL    HW219461   0.707   0.942   2.707
 2330SOL     OW19462   6.703   6.097   2.590
 2330SOL    HW119463   6.767   6.073   2.662
 2330SOL    HW219464   6.613   6.114   2.630
 2331SOL     OW19465   1.337   0.289   5.536
 2331SOL    HW119466   1.392   0.270   5.617
 2331SOL    HW219467   1.252   0.238   5.541
 2332SOL     OW19468   0.695   4.466   0.489
 2332SOL    HW119469   0.738   4.397   0.546
 2332SOL    HW219470   0.764   4.532   0.459
 2333SOL     OW19471   7.348   2.159   6.731
 2333SOL    HW119472   7.303   2.248   6.743
 2333SOL    HW219473   7.333   2.103   6.813
 2334SOL     OW19474   1.321   6.317   5.726
 2334SOL    HW119475   1.341   6.250   5.656
 2334SOL    HW219476   1.302   6.270   5.813
 2335SOL     OW19477   5.025   6.734   2.679
 2335SOL    HW119478   5.055   6.691   2.764
 2335SOL    HW219479   5.078   6.696   2.602
 2336SOL     OW19480   0.526   4.511   1.019
 2336SOL    HW119481   0.478   4.459   1.090
 2336SOL    HW219482   0.489   4.604   1.017
 2337SOL     OW19483   4.430   0.529   1.759
 2337SOL    HW119484   4.492   0.608   1.762
 2337SOL    HW219485   4.416   0.495   1.852
 2338SOL     OW19486   3.746   3.544   5.652
 2338SOL    HW119487   3.702   3.475   5.709
 2338SOL    HW219488   3.686   3.566   5.575
 2339SOL     OW19489   4.658   2.304   1.872
 2339SOL    HW119490   4.735   2.367   1.884
 2339SOL    HW219491   4.573   2.356   1.866
 2340SOL     OW19492   0.882   1.458   3.230
 2340SOL    HW119493   0.901   1.414   3.318
 2340SOL    HW219494   0.846   1.390   3.166
 2341SOL     OW19495   4.897   1.976   2.619
 2341SOL    HW119496   4.897   1.994   2.717
 2341SOL    HW219497   4.818   2.021   2.577
 2342SOL     OW19498   6.639   2.762   6.676
 2342SOL    HW119499   6.680   2.842   6.720
 2342SOL    HW219500   6.676   2.752   6.583
 2343SOL     OW19501   5.478   3.210   6.723
 2343SOL    HW119502   5.451   3.118   6.751
 2343SOL    HW219503   5.397   3.267   6.711
 2344SOL     OW19504   4.368   4.163   5.241
 2344SOL    HW119505   4.457   4.198   5.271
 2344SOL    HW219506   4.304   4.239   5.230
 2345SOL     OW19507   5.497   5.667   4.545
 2345SOL    HW119508   5.475   5.576   4.579
 2345SOL    HW219509   5.472   5.735   4.615
 2346SOL     OW19510   2.626   3.622   0.532
 2346SOL    HW119511   2.678   3.582   0.457
 2346SOL    HW219512   2.531   3.595   0.525
 2347SOL     OW19513   2.571   0.037   0.508
 2347SOL    HW119514   2.485   0.020   0.556
 2347SOL    HW219515   2.623   0.107   0.558
 2348SOL     OW19516   0.048   0.940   1.301
 2348SOL    HW119517   0.050   1.036   1.271
 2348SOL    HW219518   8.967   0.925   1.356
 2349SOL     OW19519   0.346   4.587   4.654
 2349SOL    HW119520   0.405   4.506   4.649
 2349SOL    HW219521   0.383   4.659   4.597
 2350SOL     OW19522   5.725   5.140   6.526
 2350SOL    HW119523   5.760   5.171   6.614
 2350SOL    HW219524   5.761   5.049   6.506
 2351SOL     OW19525   6.108   5.747   0.177
 2351SOL    HW119526   6.190   5.690   0.174
 2351SOL    HW219527   6.035   5.704   0.125
 2352SOL     OW19528   1.444   2.971   7.043
 2352SOL    HW119529   1.519   3.000   7.103
 2352SOL    HW219530   1.394   2.896   7.087
 2353SOL     OW19531   4.685   2.662   3.966
 2353SOL    HW119532   4.599   2.712   3.951
 2353SOL    HW219533   4.680   2.574   3.919
 2354SOL     OW19534   4.931   1.890   5.382
 2354SOL    HW119535   5.028   1.867   5.393
 2354SOL    HW219536   4.876   1.835   5.444
 2355SOL     OW19537   5.271   2.837   4.846
 2355SOL    HW119538   5.297   2.813   4.940
 2355SOL    HW219539   5.198   2.905   4.848
 2356SOL     OW19540   6.687   5.800   2.793
 2356SOL    HW119541   6.590   5.822   2.783
 2356SOL    HW219542   6.700   5.740   2.872
 2357SOL     OW19543   4.306   2.381   0.017
 2357SOL    HW119544   4.364   2.449   0.061
 2357SOL    HW219545   4.211   2.396   0.044
 2358SOL     OW19546   5.971   2.703   1.923
 2358SOL    HW119547   5.993   2.641   1.998
 2358SOL    HW219548   5.886   2.753   1.944
 2359SOL     OW19549   1.164   4.293   5.671
 2359SOL    HW119550   1.127   4.323   5.583
 2359SOL    HW219551   1.171   4.371   5.733
 2360SOL     OW19552   6.256   4.979   2.388
 2360SOL    HW119553   6.344   4.932   2.400
 2360SOL    HW219554   6.256   5.065   2.439
 2361SOL     OW19555   6.358   4.430   7.267
 2361SOL    HW119556   6.406   4.376   7.337
 2361SOL    HW219557   6.423   4.462   7.199
 2362SOL     OW19558   0.595   4.742   1.794
 2362SOL    HW119559   0.616   4.819   1.734
 2362SOL    HW219560   0.633   4.658   1.755
 2363SOL     OW19561   1.790   4.343   7.089
 2363SOL    HW119562   1.834   4.432   7.102
 2363SOL    HW219563   1.698   4.357   7.052
 2364SOL     OW19564   2.933   6.430   8.947
 2364SOL    HW119565   2.874   6.462   0.022
 2364SOL    HW219566   2.979   6.509   8.906
 2365SOL     OW19567   7.169   3.938   2.607
 2365SOL    HW119568   7.230   3.920   2.530
 2365SOL    HW219569   7.122   4.025   2.593
 2366SOL     OW19570   5.637   4.927   3.723
 2366SOL    HW119571   5.707   4.894   3.785
 2366SOL    HW219572   5.589   5.004   3.764
 2367SOL     OW19573   3.183   5.375   0.338
 2367SOL    HW119574   3.221   5.292   0.379
 2367SOL    HW219575   3.229   5.455   0.376
 2368SOL     OW19576   3.482   5.265   5.603
 2368SOL    HW119577   3.476   5.344   5.665
 2368SOL    HW219578   3.551   5.282   5.533
 2369SOL     OW19579   6.395   0.832   0.594
 2369SOL    HW119580   6.390   0.732   0.587
 2369SOL    HW219581   6.477   0.858   0.645
 2370SOL     OW19582   3.388   4.430   3.747
 2370SOL    HW119583   3.392   4.419   3.847
 2370SOL    HW219584   3.370   4.341   3.705
 2371SOL     OW19585   7.086   4.054   2.265
 2371SOL    HW119586   7.164   3.992   2.280
 2371SOL    HW219587   7.057   4.092   2.353
 2372SOL     OW19588   5.474   5.954   2.078
 2372SOL    HW119589   5.534   6.032   2.063
 2372SOL    HW219590   5.447   5.951   2.174
 2373SOL     OW19591   0.640   2.246   7.208
 2373SOL    HW119592   0.670   2.274   7.299
 2373SOL    HW219593   0.556   2.192   7.216
 2374SOL     OW19594   4.998   6.085   5.707
 2374SOL    HW119595   5.063   6.122   5.774
 2374SOL    HW219596   5.005   6.137   5.622
 2375SOL     OW19597   4.733   6.277   4.221
 2375SOL    HW119598   4.788   6.196   4.206
 2375SOL    HW219599   4.776   6.356   4.176
 2376SOL     OW19600   4.026   3.069   2.165
 2376SOL    HW119601   4.043   3.002   2.093
 2376SOL    HW219602   3.928   3.073   2.184
 2377SOL     OW19603   0.203   2.127   1.422
 2377SOL    HW119604   0.116   2.141   1.374
 2377SOL    HW219605   0.248   2.045   1.385
 2378SOL     OW19606   3.784   2.927   4.540
 2378SOL    HW119607   3.843   2.995   4.585
 2378SOL    HW219608   3.703   2.912   4.596
 2379SOL     OW19609   4.821   7.337   5.343
 2379SOL    HW119610   4.824   7.341   5.243
 2379SOL    HW219611   4.888   7.270   5.375
 2380SOL     OW19612   3.129   0.437   1.174
 2380SOL    HW119613   3.222   0.474   1.184
 2380SOL    HW219614   3.127   0.376   1.095
 2381SOL     OW19615   4.846   4.615   6.180
 2381SOL    HW119616   4.817   4.649   6.090
 2381SOL    HW219617   4.946   4.611   6.184
 2382SOL     OW19618   6.354   6.219   1.143
 2382SOL    HW119619   6.433   6.278   1.161
 2382SOL    HW219620   6.331   6.223   1.046
 2383SOL     OW19621   2.274   6.676   6.223
 2383SOL    HW119622   2.221   6.740   6.279
 2383SOL    HW219623   2.321   6.726   6.150
 2384SOL     OW19624   4.774   4.692   5.926
 2384SOL    HW119625   4.857   4.672   5.873
 2384SOL    HW219626   4.704   4.624   5.904
 2385SOL     OW19627   0.115   2.904   0.165
 2385SOL    HW119628   0.094   2.934   0.071
 2385SOL    HW219629   0.134   2.984   0.221
 2386SOL     OW19630   2.568   4.181   4.291
 2386SOL    HW119631   2.505   4.243   4.245
 2386SOL    HW219632   2.530   4.089   4.292
 2387SOL     OW19633   3.780   1.765   6.156
 2387SOL    HW119634   3.841   1.811   6.092
 2387SOL    HW219635   3.831   1.736   6.236
 2388SOL     OW19636   2.879   4.265   1.959
 2388SOL    HW119637   2.922   4.290   2.046
 2388SOL    HW219638   2.943   4.282   1.884
 2389SOL     OW19639   1.126   2.075   2.564
 2389SOL    HW119640   1.060   2.013   2.522
 2389SOL    HW219641   1.179   2.026   2.633
 2390SOL     OW19642   7.283   0.934   1.798
 2390SOL    HW119643   7.224   0.865   1.755
 2390SOL    HW219644   7.230   1.017   1.815
 2391SOL     OW19645   2.789   0.845   6.428
 2391SOL    HW119646   2.804   0.923   6.489
 2391SOL    HW219647   2.876   0.815   6.390
 2392SOL     OW19648   3.313   4.214   5.659
 2392SOL    HW119649   3.364   4.129   5.641
 2392SOL    HW219650   3.291   4.258   5.572
 2393SOL     OW19651   4.433   4.269   0.661
 2393SOL    HW119652   4.337   4.296   0.666
 2393SOL    HW219653   4.464   4.238   0.751
 2394SOL     OW19654   5.682   5.761   3.927
 2394SOL    HW119655   5.676   5.775   3.828
 2394SOL    HW219656   5.717   5.669   3.945
 2395SOL     OW19657   2.689   4.896   0.954
 2395SOL    HW119658   2.608   4.944   0.919
 2395SOL    HW219659   2.749   4.961   1.001
 2396SOL     OW19660   1.901   3.101   3.956
 2396SOL    HW119661   1.957   3.018   3.966
 2396SOL    HW219662   1.844   3.093   3.875
 2397SOL     OW19663   0.130   3.481   6.797
 2397SOL    HW119664   0.151   3.447   6.705
 2397SOL    HW219665   0.062   3.554   6.791
 2398SOL     OW19666   6.242   2.181   5.409
 2398SOL    HW119667   6.142   2.180   5.405
 2398SOL    HW219668   6.272   2.176   5.504
 2399SOL     OW19669   4.968   3.028   0.785
 2399SOL    HW119670   4.927   3.120   0.786
 2399SOL    HW219671   4.945   2.982   0.700
 2400SOL     OW19672   6.250   4.230   1.503
 2400SOL    HW119673   6.293   4.155   1.553
 2400SOL    HW219674   6.165   4.257   1.549
 2401SOL     OW19675   7.062   6.324   6.459
 2401SOL    HW119676   7.038   6.236   6.419
 2401SOL    HW219677   6.979   6.372   6.488
 2402SOL     OW19678   5.874   3.359   3.382
 2402SOL    HW119679   5.873   3.339   3.480
 2402SOL    HW219680   5.815   3.294   3.334
 2403SOL     OW19681   6.653   7.265   2.926
 2403SOL    HW119682   6.687   7.258   2.832
 2403SOL    HW219683   6.633   7.361   2.947
 2404SOL     OW19684   7.611   1.435   0.417
 2404SOL    HW119685   7.585   1.348   0.376
 2404SOL    HW219686   7.641   1.420   0.512
 2405SOL     OW19687   7.210   7.185   5.849
 2405SOL    HW119688   7.161   7.128   5.915
 2405SOL    HW219689   7.305   7.153   5.843
 2406SOL     OW19690   2.945   6.080   3.153
 2406SOL    HW119691   3.022   6.036   3.108
 2406SOL    HW219692   2.949   6.179   3.139
 2407SOL     OW19693   4.959   5.558   3.363
 2407SOL    HW119694   4.910   5.587   3.445
 2407SOL    HW219695   4.893   5.543   3.289
 2408SOL     OW19696   2.684   7.166   6.090
 2408SOL    HW119697   2.619   7.231   6.051
 2408SOL    HW219698   2.709   7.196   6.183
 2409SOL     OW19699   3.686   6.706   0.023
 2409SOL    HW119700   3.750   6.649   0.075
 2409SOL    HW219701   3.619   6.647   8.978
 2410SOL     OW19702   1.646   3.809   2.622
 2410SOL    HW119703   1.677   3.888   2.568
 2410SOL    HW219704   1.719   3.741   2.626
 2411SOL     OW19705   2.049   0.349   6.500
 2411SOL    HW119706   2.007   0.440   6.499
 2411SOL    HW219707   1.995   0.288   6.559
 2412SOL     OW19708   1.168   4.332   1.182
 2412SOL    HW119709   1.237   4.281   1.130
 2412SOL    HW219710   1.208   4.415   1.220
 2413SOL     OW19711   2.279   6.034   4.805
 2413SOL    HW119712   2.233   6.034   4.894
 2413SOL    HW219713   2.377   6.044   4.819
 2414SOL     OW19714   4.461   1.530   4.976
 2414SOL    HW119715   4.436   1.442   4.934
 2414SOL    HW219716   4.504   1.589   4.907
 2415SOL     OW19717   6.581   5.701   0.533
 2415SOL    HW119718   6.568   5.711   0.434
 2415SOL    HW219719   6.591   5.604   0.556
 2416SOL     OW19720   5.850   4.844   7.353
 2416SOL    HW119721   5.850   4.748   7.380
 2416SOL    HW219722   5.770   4.863   7.297
 2417SOL     OW19723   4.619   3.303   6.587
 2417SOL    HW119724   4.656   3.232   6.528
 2417SOL    HW219725   4.671   3.306   6.672
 2418SOL     OW19726   5.455   6.337   5.618
 2418SOL    HW119727   5.383   6.311   5.554
 2418SOL    HW219728   5.468   6.436   5.615
 2419SOL     OW19729   4.124   4.363   3.026
 2419SOL    HW119730   4.068   4.325   3.099
 2419SOL    HW219731   4.173   4.289   2.980
 2420SOL     OW19732   2.571   4.949   1.258
 2420SOL    HW119733   2.668   4.956   1.284
 2420SOL    HW219734   2.554   4.860   1.217
 2421SOL     OW19735   3.017   4.201   3.144
 2421SOL    HW119736   3.092   4.134   3.142
 2421SOL    HW219737   2.953   4.182   3.069
 2422SOL     OW19738   2.285   6.163   0.626
 2422SOL    HW119739   2.286   6.193   0.722
 2422SOL    HW219740   2.203   6.109   0.609
 2423SOL     OW19741   3.492   4.945   6.963
 2423SOL    HW119742   3.497   5.009   6.887
 2423SOL    HW219743   3.479   4.995   7.048
 2424SOL     OW19744   6.531   1.373   1.819
 2424SOL    HW119745   6.545   1.323   1.733
 2424SOL    HW219746   6.534   1.471   1.802
 2425SOL     OW19747   6.626   4.311   5.250
 2425SOL    HW119748   6.672   4.251   5.185
 2425SOL    HW219749   6.694   4.357   5.307
 2426SOL     OW19750   3.457   3.119   7.059
 2426SOL    HW119751   3.444   3.216   7.080
 2426SOL    HW219752   3.424   3.100   6.967
 2427SOL     OW19753   5.975   6.653   5.307
 2427SOL    HW119754   6.069   6.667   5.276
 2427SOL    HW219755   5.934   6.741   5.330
 2428SOL     OW19756   1.160   0.481   2.249
 2428SOL    HW119757   1.077   0.521   2.211
 2428SOL    HW219758   1.168   0.385   2.220
 2429SOL     OW19759   2.609   0.696   6.581
 2429SOL    HW119760   2.594   0.599   6.564
 2429SOL    HW219761   2.675   0.732   6.515
 2430SOL     OW19762   5.513   4.796   0.640
 2430SOL    HW119763   5.517   4.780   0.739
 2430SOL    HW219764   5.469   4.718   0.595
 2431SOL     OW19765   3.920   6.323   5.587
 2431SOL    HW119766   3.942   6.230   5.615
 2431SOL    HW219767   3.951   6.338   5.493
 2432SOL     OW19768   2.094   4.977   0.075
 2432SOL    HW119769   2.181   4.963   0.123
 2432SOL    HW219770   2.071   5.075   0.078
 2433SOL     OW19771   0.483   5.393   0.768
 2433SOL    HW119772   0.435   5.472   0.729
 2433SOL    HW219773   0.523   5.338   0.694
 2434SOL     OW19774   6.081   6.674   1.745
 2434SOL    HW119775   6.094   6.623   1.661
 2434SOL    HW219776   6.012   6.745   1.732
 2435SOL     OW19777   7.069   7.014   6.024
 2435SOL    HW119778   7.075   6.919   6.054
 2435SOL    HW219779   6.977   7.031   5.988
 2436SOL     OW19780   1.887   5.233   0.321
 2436SOL    HW119781   1.970   5.235   0.266
 2436SOL    HW219782   1.836   5.317   0.308
 2437SOL     OW19783   6.011   5.938   4.178
 2437SOL    HW119784   6.079   5.870   4.207
 2437SOL    HW219785   5.919   5.901   4.192
 2438SOL     OW19786   4.188   2.957   3.248
 2438SOL    HW119787   4.226   3.029   3.306
 2438SOL    HW219788   4.197   2.984   3.152
 2439SOL     OW19789   5.701   3.405   5.149
 2439SOL    HW119790   5.625   3.367   5.096
 2439SOL    HW219791   5.745   3.332   5.201
 2440SOL     OW19792   2.933   7.252   8.975
 2440SOL    HW119793   2.841   7.257   8.935
 2440SOL    HW219794   2.928   7.262   0.074
 2441SOL     OW19795   5.192   2.130   6.114
 2441SOL    HW119796   5.275   2.085   6.081
 2441SOL    HW219797   5.218   2.215   6.161
 2442SOL     OW19798   4.404   1.483   6.814
 2442SOL    HW119799   4.360   1.509   6.901
 2442SOL    HW219800   4.496   1.449   6.833
 2443SOL     OW19801   3.637   3.098   5.741
 2443SOL    HW119802   3.629   3.192   5.772
 2443SOL    HW219803   3.581   3.039   5.799
 2444SOL     OW19804   1.118   4.214   7.180
 2444SOL    HW119805   1.054   4.137   7.177
 2444SOL    HW219806   1.167   4.212   7.267
 2445SOL     OW19807   6.783   4.503   1.472
 2445SOL    HW119808   6.838   4.539   1.548
 2445SOL    HW219809   6.750   4.579   1.416
 2446SOL     OW19810   4.235   4.383   1.464
 2446SOL    HW119811   4.284   4.442   1.529
 2446SOL    HW219812   4.271   4.398   1.372
 2447SOL     OW19813   4.853   6.642   6.436
 2447SOL    HW119814   4.802   6.726   6.453
 2447SOL    HW219815   4.948   6.654   6.462
 2448SOL     OW19816   3.482   4.689   3.039
 2448SOL    HW119817   3.515   4.603   3.080
 2448SOL    HW219818   3.508   4.766   3.097
 2449SOL     OW19819   2.528   4.093   1.182
 2449SOL    HW119820   2.489   4.076   1.092
 2449SOL    HW219821   2.457   4.080   1.252
 2450SOL     OW19822   5.429   0.479   3.376
 2450SOL    HW119823   5.488   0.500   3.298
 2450SOL    HW219824   5.363   0.409   3.349
 2451SOL     OW19825   6.188   1.769   7.247
 2451SOL    HW119826   6.244   1.687   7.261
 2451SOL    HW219827   6.095   1.752   7.281
 2452SOL     OW19828   1.374   2.718   1.056
 2452SOL    HW119829   1.403   2.734   0.962
 2452SOL    HW219830   1.449   2.741   1.118
 2453SOL     OW19831   1.786   1.379   1.779
 2453SOL    HW119832   1.688   1.363   1.790
 2453SOL    HW219833   1.806   1.476   1.793
 2454SOL     OW19834   4.390   3.499   2.822
 2454SOL    HW119835   4.474   3.507   2.770
 2454SOL    HW219836   4.411   3.469   2.915
 2455SOL     OW19837   5.386   5.387   7.284
 2455SOL    HW119838   5.316   5.393   7.355
 2455SOL    HW219839   5.370   5.307   7.228
 2456SOL     OW19840   6.826   5.102   5.635
 2456SOL    HW119841   6.754   5.169   5.617
 2456SOL    HW219842   6.914   5.150   5.646
 2457SOL     OW19843   5.896   5.494   1.087
 2457SOL    HW119844   5.903   5.572   1.025
 2457SOL    HW219845   5.900   5.409   1.035
 2458SOL     OW19846   0.036   2.986   3.771
 2458SOL    HW119847   0.108   2.918   3.781
 2458SOL    HW219848   0.031   3.015   3.675
 2459SOL     OW19849   3.981   3.532   5.791
 2459SOL    HW119850   3.892   3.545   5.747
 2459SOL    HW219851   4.025   3.620   5.805
 2460SOL     OW19852   5.745   5.315   6.311
 2460SOL    HW119853   5.836   5.354   6.301
 2460SOL    HW219854   5.743   5.253   6.389
 2461SOL     OW19855   2.933   5.884   1.401
 2461SOL    HW119856   2.846   5.927   1.375
 2461SOL    HW219857   2.925   5.848   1.494
 2462SOL     OW19858   5.970   5.489   5.770
 2462SOL    HW119859   5.981   5.557   5.842
 2462SOL    HW219860   6.017   5.519   5.688
 2463SOL     OW19861   3.376   5.233   7.022
 2463SOL    HW119862   3.400   5.326   7.051
 2463SOL    HW219863   3.291   5.205   7.067
 2464SOL     OW19864   7.392   0.418   6.200
 2464SOL    HW119865   7.369   0.337   6.146
 2464SOL    HW219866   7.311   0.476   6.209
 2465SOL     OW19867   0.177   3.514   3.152
 2465SOL    HW119868   0.088   3.516   3.197
 2465SOL    HW219869   0.194   3.602   3.106
 2466SOL     OW19870   2.684   4.353   6.982
 2466SOL    HW119871   2.763   4.391   7.031
 2466SOL    HW219872   2.665   4.408   6.901
 2467SOL     OW19873   6.097   4.069   0.667
 2467SOL    HW119874   6.180   4.122   0.653
 2467SOL    HW219875   6.100   3.986   0.611
 2468SOL     OW19876   4.517   5.425   3.528
 2468SOL    HW119877   4.418   5.433   3.519
 2468SOL    HW219878   4.543   5.445   3.623
 2469SOL     OW19879   5.574   6.918   2.317
 2469SOL    HW119880   5.503   6.950   2.381
 2469SOL    HW219881   5.662   6.957   2.343
 2470SOL     OW19882   6.955   0.461   0.646
 2470SOL    HW119883   6.930   0.390   0.711
 2470SOL    HW219884   7.048   0.492   0.665
 2471SOL     OW19885   4.006   2.510   4.831
 2471SOL    HW119886   4.022   2.434   4.768
 2471SOL    HW219887   3.959   2.584   4.783
 2472SOL     OW19888   5.286   2.969   2.180
 2472SOL    HW119889   5.310   3.066   2.188
 2472SOL    HW219890   5.343   2.926   2.110
 2473SOL     OW19891   2.004   2.892   6.276
 2473SOL    HW119892   1.956   2.806   6.256
 2473SOL    HW219893   2.103   2.878   6.265
 2474SOL     OW19894   0.187   3.803   6.367
 2474SOL    HW119895   0.114   3.749   6.407
 2474SOL    HW219896   0.219   3.759   6.283
 2475SOL     OW19897   3.729   5.097   5.286
 2475SOL    HW119898   3.655   5.063   5.230
 2475SOL    HW219899   3.757   5.026   5.351
 2476SOL     OW19900   5.075   4.923   3.399
 2476SOL    HW119901   5.053   4.857   3.471
 2476SOL    HW219902   4.996   4.983   3.383
 2477SOL     OW19903   0.816   5.521   1.662
 2477SOL    HW119904   0.897   5.577   1.676
 2477SOL    HW219905   0.742   5.577   1.627
 2478SOL     OW19906   3.479   2.298   1.067
 2478SOL    HW119907   3.479   2.394   1.094
 2478SOL    HW219908   3.477   2.240   1.149
 2479SOL     OW19909   6.321   6.187   3.912
 2479SOL    HW119910   6.274   6.193   3.824
 2479SOL    HW219911   6.409   6.139   3.900
 2480SOL     OW19912   2.438   2.302   2.215
 2480SOL    HW119913   2.488   2.269   2.295
 2480SOL    HW219914   2.403   2.393   2.234
 2481SOL     OW19915   7.139   6.641   1.348
 2481SOL    HW119916   7.069   6.692   1.397
 2481SOL    HW219917   7.205   6.705   1.308
 2482SOL     OW19918   1.243   2.526   2.725
 2482SOL    HW119919   1.200   2.553   2.811
 2482SOL    HW219920   1.190   2.452   2.683
 2483SOL     OW19921   6.042   4.487   2.776
 2483SOL    HW119922   6.024   4.438   2.691
 2483SOL    HW219923   5.974   4.559   2.789
 2484SOL     OW19924   4.627   4.158   3.060
 2484SOL    HW119925   4.588   4.157   2.968
 2484SOL    HW219926   4.567   4.109   3.123
 2485SOL     OW19927   4.663   1.957   6.099
 2485SOL    HW119928   4.741   1.969   6.039
 2485SOL    HW219929   4.623   2.046   6.120
 2486SOL     OW19930   4.292   4.091   5.499
 2486SOL    HW119931   4.376   4.105   5.552
 2486SOL    HW219932   4.309   4.112   5.403
 2487SOL     OW19933   3.153   6.215   0.565
 2487SOL    HW119934   3.249   6.188   0.554
 2487SOL    HW219935   3.109   6.155   0.633
 2488SOL     OW19936   0.505   1.015   2.103
 2488SOL    HW119937   0.456   1.026   2.016
 2488SOL    HW219938   0.566   1.093   2.116
 2489SOL     OW19939   4.343   1.447   1.495
 2489SOL    HW119940   4.346   1.350   1.470
 2489SOL    HW219941   4.316   1.456   1.591
 2490SOL     OW19942   3.932   6.033   5.594
 2490SOL    HW119943   3.890   6.063   5.509
 2490SOL    HW219944   3.974   5.943   5.580
 2491SOL     OW19945   1.132   0.757   1.522
 2491SOL    HW119946   1.061   0.706   1.474
 2491SOL    HW219947   1.160   0.706   1.603
 2492SOL     OW19948   3.497   6.737   1.807
 2492SOL    HW119949   3.425   6.720   1.739
 2492SOL    HW219950   3.456   6.780   1.888
 2493SOL     OW19951   0.135   0.227   6.381
 2493SOL    HW119952   0.200   0.225   6.457
 2493SOL    HW219953   0.079   0.309   6.387
 2494SOL     OW19954   4.152   1.346   1.159
 2494SOL    HW119955   4.073   1.298   1.121
 2494SOL    HW219956   4.232   1.286   1.157
 2495SOL     OW19957   6.995   5.558   7.129
 2495SOL    HW119958   7.056   5.607   7.067
 2495SOL    HW219959   7.049   5.500   7.189
 2496SOL     OW19960   5.513   2.910   0.470
 2496SOL    HW119961   5.550   2.999   0.445
 2496SOL    HW219962   5.443   2.884   0.404
 2497SOL     OW19963   0.918   3.584   5.521
 2497SOL    HW119964   0.875   3.672   5.502
 2497SOL    HW219965   0.933   3.535   5.436
 2498SOL     OW19966   0.885   0.354   1.309
 2498SOL    HW119967   0.818   0.340   1.382
 2498SOL    HW219968   0.855   0.308   1.226
 2499SOL     OW19969   2.155   5.577   3.771
 2499SOL    HW119970   2.207   5.551   3.690
 2499SOL    HW219971   2.067   5.529   3.772
 2500SOL     OW19972   3.411   4.360   6.278
 2500SOL    HW119973   3.499   4.328   6.242
 2500SOL    HW219974   3.337   4.310   6.234
 2501SOL     OW19975   5.614   3.278   7.079
 2501SOL    HW119976   5.626   3.377   7.068
 2501SOL    HW219977   5.517   3.256   7.069
 2502SOL     OW19978   0.390   1.648   3.462
 2502SOL    HW119979   0.437   1.618   3.379
 2502SOL    HW219980   0.374   1.570   3.522
 2503SOL     OW19981   5.797   2.728   1.023
 2503SOL    HW119982   5.747   2.755   0.941
 2503SOL    HW219983   5.837   2.809   1.065
 2504SOL     OW19984   4.606   0.852   4.241
 2504SOL    HW119985   4.597   0.771   4.299
 2504SOL    HW219986   4.518   0.899   4.236
 2505SOL     OW19987   6.310   2.205   5.672
 2505SOL    HW119988   6.229   2.262   5.680
 2505SOL    HW219989   6.391   2.256   5.702
 2506SOL     OW19990   4.577   4.329   3.658
 2506SOL    HW119991   4.670   4.293   3.653
 2506SOL    HW219992   4.577   4.415   3.708
 2507SOL     OW19993   2.663   1.668   0.045
 2507SOL    HW119994   2.755   1.661   0.085
 2507SOL    HW219995   2.594   1.657   0.116
 2508SOL     OW19996   6.338   1.775   4.783
 2508SOL    HW119997   6.332   1.874   4.795
 2508SOL    HW219998   6.434   1.747   4.779
 2509SOL     OW19999   4.101   3.941   0.491
 2509SOL    HW120000   4.103   3.854   0.443
 2509SOL    HW220001   4.025   3.943   0.556
 2510SOL     OW20002   1.912   4.308   5.465
 2510SOL    HW120003   1.919   4.221   5.514
 2510SOL    HW220004   1.895   4.290   5.368
 2511SOL     OW20005   6.098   3.575   3.001
 2511SOL    HW120006   6.167   3.637   3.038
 2511SOL    HW220007   6.088   3.496   3.061
 2512SOL     OW20008   3.901   3.753   5.514
 2512SOL    HW120009   3.898   3.732   5.416
 2512SOL    HW220010   3.857   3.680   5.565
 2513SOL     OW20011   3.593   3.611   0.520
 2513SOL    HW120012   3.692   3.617   0.505
 2513SOL    HW220013   3.566   3.515   0.531
 2514SOL     OW20014   2.368   5.316   3.123
 2514SOL    HW120015   2.271   5.339   3.129
 2514SOL    HW220016   2.384   5.259   3.043
 2515SOL     OW20017   5.516   5.140   3.847
 2515SOL    HW120018   5.471   5.110   3.931
 2515SOL    HW220019   5.452   5.194   3.792
 2516SOL     OW20020   5.433   5.998   1.527
 2516SOL    HW120021   5.417   6.097   1.525
 2516SOL    HW220022   5.445   5.964   1.434
 2517SOL     OW20023   2.214   0.775   6.819
 2517SOL    HW120024   2.258   0.685   6.819
 2517SOL    HW220025   2.213   0.812   6.912
 2518SOL     OW20026   2.603   3.456   2.042
 2518SOL    HW120027   2.676   3.388   2.050
 2518SOL    HW220028   2.517   3.415   2.071
 2519SOL     OW20029   4.778   6.379   5.356
 2519SOL    HW120030   4.793   6.455   5.293
 2519SOL    HW220031   4.681   6.374   5.380
 2520SOL     OW20032   2.334   5.573   3.981
 2520SOL    HW120033   2.266   5.572   3.908
 2520SOL    HW220034   2.364   5.667   3.997
 2521SOL     OW20035   6.611   5.750   3.391
 2521SOL    HW120036   6.563   5.663   3.405
 2521SOL    HW220037   6.585   5.788   3.302
 2522SOL     OW20038   4.719   3.907   0.160
 2522SOL    HW120039   4.745   3.996   0.197
 2522SOL    HW220040   4.787   3.876   0.095
 2523SOL     OW20041   3.089   2.303   0.702
 2523SOL    HW120042   3.149   2.271   0.776
 2523SOL    HW220043   3.031   2.377   0.736
 2524SOL     OW20044   5.926   4.061   6.783
 2524SOL    HW120045   5.953   4.086   6.690
 2524SOL    HW220046   5.996   4.092   6.848
 2525SOL     OW20047   2.996   2.440   3.983
 2525SOL    HW120048   3.034   2.350   3.960
 2525SOL    HW220049   2.920   2.429   4.046
 2526SOL     OW20050   3.431   4.418   4.852
 2526SOL    HW120051   3.342   4.372   4.852
 2526SOL    HW220052   3.435   4.483   4.776
 2527SOL     OW20053   3.194   0.521   2.191
 2527SOL    HW120054   3.127   0.451   2.216
 2527SOL    HW220055   3.282   0.477   2.172
 2528SOL     OW20056   0.436   1.576   0.503
 2528SOL    HW120057   0.406   1.662   0.462
 2528SOL    HW220058   0.389   1.499   0.458
 2529SOL     OW20059   4.589   6.511   4.308
 2529SOL    HW120060   4.644   6.553   4.381
 2529SOL    HW220061   4.627   6.422   4.283
 2530SOL     OW20062   7.035   5.135   1.803
 2530SOL    HW120063   7.061   5.051   1.851
 2530SOL    HW220064   6.938   5.132   1.780
 2531SOL     OW20065   3.449   1.310   5.785
 2531SOL    HW120066   3.416   1.404   5.792
 2531SOL    HW220067   3.536   1.301   5.834
 2532SOL     OW20068   2.836   4.395   2.453
 2532SOL    HW120069   2.739   4.373   2.438
 2532SOL    HW220070   2.842   4.476   2.512
 2533SOL     OW20071   3.616   5.618   1.287
 2533SOL    HW120072   3.624   5.654   1.380
 2533SOL    HW220073   3.691   5.553   1.270
 2534SOL     OW20074   1.576   2.585   1.949
 2534SOL    HW120075   1.484   2.549   1.969
 2534SOL    HW220076   1.613   2.538   1.870
 2535SOL     OW20077   6.259   8.989   0.477
 2535SOL    HW120078   6.327   0.051   0.438
 2535SOL    HW220079   6.195   8.959   0.406
 2536SOL     OW20080   5.328   3.756   6.410
 2536SOL    HW120081   5.384   3.836   6.391
 2536SOL    HW220082   5.231   3.783   6.412
 2537SOL     OW20083   4.771   5.973   7.242
 2537SOL    HW120084   4.784   6.032   7.322
 2537SOL    HW220085   4.767   5.877   7.273
 2538SOL     OW20086   2.073   5.667   4.660
 2538SOL    HW120087   2.018   5.687   4.741
 2538SOL    HW220088   2.163   5.708   4.669
 2539SOL     OW20089   5.477   6.524   5.368
 2539SOL    HW120090   5.419   6.583   5.313
 2539SOL    HW220091   5.497   6.568   5.456
 2540SOL     OW20092   2.201   6.191   6.010
 2540SOL    HW120093   2.167   6.097   6.009
 2540SOL    HW220094   2.219   6.221   5.917
 2541SOL     OW20095   6.220   2.749   4.502
 2541SOL    HW120096   6.149   2.808   4.539
 2541SOL    HW220097   6.192   2.716   4.412
 2542SOL     OW20098   2.157   4.335   1.100
 2542SOL    HW120099   2.067   4.376   1.117
 2542SOL    HW220100   2.227   4.388   1.149
 2543SOL     OW20101   2.364   2.156   1.106
 2543SOL    HW120102   2.285   2.169   1.047
 2543SOL    HW220103   2.436   2.109   1.055
 2544SOL     OW20104   4.667   0.008   0.298
 2544SOL    HW120105   4.582   0.051   0.267
 2544SOL    HW220106   4.742   0.073   0.287
 2545SOL     OW20107   4.506   3.803   0.530
 2545SOL    HW120108   4.567   3.761   0.464
 2545SOL    HW220109   4.558   3.861   0.592
 2546SOL     OW20110   1.931   2.009   5.719
 2546SOL    HW120111   1.876   1.949   5.661
 2546SOL    HW220112   1.902   2.104   5.706
 2547SOL     OW20113   4.233   0.894   2.916
 2547SOL    HW120114   4.332   0.909   2.921
 2547SOL    HW220115   4.197   0.878   3.008
 2548SOL     OW20116   3.746   3.611   1.023
 2548SOL    HW120117   3.715   3.704   1.005
 2548SOL    HW220118   3.717   3.583   1.115
 2549SOL     OW20119   0.370   3.890   0.798
 2549SOL    HW120120   0.392   3.987   0.803
 2549SOL    HW220121   0.274   3.877   0.823
 2550SOL     OW20122   5.816   3.469   2.693
 2550SOL    HW120123   5.754   3.446   2.768
 2550SOL    HW220124   5.910   3.451   2.720
 2551SOL     OW20125   0.671   6.407   7.188
 2551SOL    HW120126   0.613   6.410   7.107
 2551SOL    HW220127   0.677   6.498   7.228
 2552SOL     OW20128   4.335   4.725   3.594
 2552SOL    HW120129   4.361   4.708   3.689
 2552SOL    HW220130   4.402   4.787   3.552
 2553SOL     OW20131   4.673   5.978   3.151
 2553SOL    HW120132   4.614   6.053   3.121
 2553SOL    HW220133   4.682   5.980   3.251
 2554SOL     OW20134   1.216   5.511   0.120
 2554SOL    HW120135   1.215   5.455   0.037
 2554SOL    HW220136   1.232   5.453   0.200
 2555SOL     OW20137   3.951   5.478   6.897
 2555SOL    HW120138   4.010   5.418   6.951
 2555SOL    HW220139   3.933   5.435   6.808
 2556SOL     OW20140   6.199   1.627   1.444
 2556SOL    HW120141   6.138   1.706   1.453
 2556SOL    HW220142   6.155   1.546   1.483
 2557SOL     OW20143   3.262   5.506   3.515
 2557SOL    HW120144   3.180   5.559   3.495
 2557SOL    HW220145   3.262   5.479   3.612
 2558SOL     OW20146   0.575   6.500   6.333
 2558SOL    HW120147   0.601   6.459   6.420
 2558SOL    HW220148   0.475   6.507   6.328
 2559SOL     OW20149   1.696   1.031   3.138
 2559SOL    HW120150   1.775   0.981   3.173
 2559SOL    HW220151   1.651   0.978   3.067
 2560SOL     OW20152   5.549   2.081   5.100
 2560SOL    HW120153   5.553   2.011   5.170
 2560SOL    HW220154   5.468   2.138   5.113
 2561SOL     OW20155   0.425   3.578   6.463
 2561SOL    HW120156   0.415   3.673   6.492
 2561SOL    HW220157   0.476   3.527   6.533
 2562SOL     OW20158   2.285   0.790   5.355
 2562SOL    HW120159   2.329   0.705   5.383
 2562SOL    HW220160   2.329   0.867   5.402
 2563SOL     OW20161   3.289   6.603   0.740
 2563SOL    HW120162   3.235   6.571   0.818
 2563SOL    HW220163   3.359   6.666   0.772
 2564SOL     OW20164   0.911   5.549   4.182
 2564SOL    HW120165   1.009   5.534   4.172
 2564SOL    HW220166   0.889   5.558   4.279
 2565SOL     OW20167   2.544   4.719   6.598
 2565SOL    HW120168   2.542   4.717   6.498
 2565SOL    HW220169   2.565   4.812   6.629
 2566SOL     OW20170   5.175   6.478   1.956
 2566SOL    HW120171   5.244   6.523   2.014
 2566SOL    HW220172   5.171   6.381   1.978
 2567SOL     OW20173   1.245   3.834   2.315
 2567SOL    HW120174   1.303   3.817   2.395
 2567SOL    HW220175   1.219   3.747   2.273
 2568SOL     OW20176   5.260   3.395   6.620
 2568SOL    HW120177   5.316   3.477   6.632
 2568SOL    HW220178   5.189   3.413   6.552
 2569SOL     OW20179   5.687   6.480   6.832
 2569SOL    HW120180   5.773   6.531   6.829
 2569SOL    HW220181   5.684   6.415   6.757
 2570SOL     OW20182   7.188   0.696   1.319
 2570SOL    HW120183   7.103   0.747   1.327
 2570SOL    HW220184   7.210   0.653   1.407
 2571SOL     OW20185   2.168   3.368   4.774
 2571SOL    HW120186   2.089   3.367   4.713
 2571SOL    HW220187   2.147   3.421   4.855
 2572SOL     OW20188   7.163   0.103   6.537
 2572SOL    HW120189   7.162   0.131   6.441
 2572SOL    HW220190   7.217   0.019   6.547
 2573SOL     OW20191   1.114   6.376   6.986
 2573SOL    HW120192   1.163   6.300   7.029
 2573SOL    HW220193   1.163   6.405   6.904
 2574SOL     OW20194   1.263   2.527   6.510
 2574SOL    HW120195   1.263   2.456   6.580
 2574SOL    HW220196   1.170   2.559   6.494
 2575SOL     OW20197   1.140   1.462   2.896
 2575SOL    HW120198   1.122   1.369   2.928
 2575SOL    HW220199   1.061   1.520   2.919
 2576SOL     OW20200   4.628   6.998   3.688
 2576SOL    HW120201   4.532   6.972   3.677
 2576SOL    HW220202   4.663   6.961   3.775
 2577SOL     OW20203   7.177   6.305   6.705
 2577SOL    HW120204   7.228   6.390   6.717
 2577SOL    HW220205   7.140   6.300   6.613
 2578SOL     OW20206   1.186   4.911   3.523
 2578SOL    HW120207   1.269   4.961   3.545
 2578SOL    HW220208   1.106   4.966   3.548
 2579SOL     OW20209   1.931   7.003   2.574
 2579SOL    HW120210   1.975   7.023   2.662
 2579SOL    HW220211   1.861   7.072   2.556
 2580SOL     OW20212   1.788   3.241   7.077
 2580SOL    HW120213   1.749   3.267   6.988
 2580SOL    HW220214   1.886   3.261   7.076
 2581SOL     OW20215   5.757   5.750   4.948
 2581SOL    HW120216   5.792   5.745   4.855
 2581SOL    HW220217   5.667   5.795   4.948
 2582SOL     OW20218   1.735   0.929   0.649
 2582SOL    HW120219   1.748   0.886   0.560
 2582SOL    HW220220   1.820   0.924   0.701
 2583SOL     OW20221   2.423   0.613   3.575
 2583SOL    HW120222   2.419   0.586   3.671
 2583SOL    HW220223   2.335   0.593   3.531
 2584SOL     OW20224   5.795   6.321   5.440
 2584SOL    HW120225   5.703   6.293   5.413
 2584SOL    HW220226   5.843   6.356   5.359
 2585SOL     OW20227   0.168   4.379   2.083
 2585SOL    HW120228   0.205   4.330   2.004
 2585SOL    HW220229   0.158   4.315   2.159
 2586SOL     OW20230   0.361   4.942   1.339
 2586SOL    HW120231   0.350   4.967   1.436
 2586SOL    HW220232   0.325   4.849   1.325
 2587SOL     OW20233   5.666   1.994   1.230
 2587SOL    HW120234   5.747   1.942   1.255
 2587SOL    HW220235   5.605   1.938   1.174
 2588SOL     OW20236   0.285   5.436   4.715
 2588SOL    HW120237   0.235   5.351   4.735
 2588SOL    HW220238   0.344   5.422   4.636
 2589SOL     OW20239   1.090   3.108   3.403
 2589SOL    HW120240   1.121   3.203   3.407
 2589SOL    HW220241   1.095   3.067   3.494
 2590SOL     OW20242   6.160   6.291   6.141
 2590SOL    HW120243   6.199   6.309   6.051
 2590SOL    HW220244   6.207   6.212   6.182
 2591SOL     OW20245   2.825   5.499   1.012
 2591SOL    HW120246   2.826   5.599   1.004
 2591SOL    HW220247   2.857   5.473   1.103
 2592SOL     OW20248   8.995   2.103   5.318
 2592SOL    HW120249   0.039   2.191   5.336
 2592SOL    HW220250   0.054   2.029   5.352
 2593SOL     OW20251   5.250   5.219   5.560
 2593SOL    HW120252   5.270   5.146   5.625
 2593SOL    HW220253   5.193   5.288   5.604
 2594SOL     OW20254   3.644   2.849   6.780
 2594SOL    HW120255   3.569   2.915   6.780
 2594SOL    HW220256   3.710   2.874   6.708
 2595SOL     OW20257   1.863   3.642   3.512
 2595SOL    HW120258   1.830   3.559   3.468
 2595SOL    HW220259   1.792   3.677   3.573
 2596SOL     OW20260   2.578   5.273   4.324
 2596SOL    HW120261   2.568   5.267   4.423
 2596SOL    HW220262   2.566   5.182   4.284
 2597SOL     OW20263   4.998   7.219   1.383
 2597SOL    HW120264   5.032   7.231   1.290
 2597SOL    HW220265   4.940   7.138   1.387
 2598SOL     OW20266   2.327   0.121   1.194
 2598SOL    HW120267   2.346   0.220   1.193
 2598SOL    HW220268   2.410   0.072   1.167
 2599SOL     OW20269   0.873   6.131   0.342
 2599SOL    HW120270   0.943   6.201   0.332
 2599SOL    HW220271   0.881   6.065   0.267
 2600SOL     OW20272   6.232   2.489   6.628
 2600SOL    HW120273   6.133   2.480   6.643
 2600SOL    HW220274   6.281   2.478   6.714
 2601SOL     OW20275   0.748   0.067   1.648
 2601SOL    HW120276   0.798   8.981   1.659
 2601SOL    HW220277   0.797   0.140   1.695
 2602SOL     OW20278   5.387   3.850   0.055
 2602SOL    HW120279   5.288   3.867   0.053
 2602SOL    HW220280   5.431   3.898   8.980
 2603SOL     OW20281   4.715   3.103   6.427
 2603SOL    HW120282   4.726   3.023   6.486
 2603SOL    HW220283   4.805   3.137   6.401
 2604SOL     OW20284   6.298   0.512   4.635
 2604SOL    HW120285   6.254   0.595   4.600
 2604SOL    HW220286   6.317   0.450   4.559
 2605SOL     OW20287   0.698   0.296   1.490
 2605SOL    HW120288   0.611   0.344   1.500
 2605SOL    HW220289   0.694   0.209   1.538
 2606SOL     OW20290   2.893   3.628   0.969
 2606SOL    HW120291   2.951   3.691   0.918
 2606SOL    HW220292   2.823   3.591   0.907
 2607SOL     OW20293   5.123   3.898   3.708
 2607SOL    HW120294   5.097   3.803   3.723
 2607SOL    HW220295   5.186   3.903   3.630
 2608SOL     OW20296   3.387   2.990   4.991
 2608SOL    HW120297   3.312   2.924   4.985
 2608SOL    HW220298   3.474   2.941   4.998
 2609SOL     OW20299   0.393   1.380   2.118
 2609SOL    HW120300   0.475   1.323   2.111
 2609SOL    HW220301   0.329   1.339   2.182
 2610SOL     OW20302   2.444   3.102   5.784
 2610SOL    HW120303   2.380   3.147   5.845
 2610SOL    HW220304   2.535   3.101   5.827
 2611SOL     OW20305   2.320   7.069   1.619
 2611SOL    HW120306   2.358   7.096   1.707
 2611SOL    HW220307   2.231   7.113   1.606
 2612SOL     OW20308   3.408   6.105   0.553
 2612SOL    HW120309   3.488   6.083   0.498
 2612SOL    HW220310   3.385   6.026   0.611
 2613SOL     OW20311   7.108   2.779   5.872
 2613SOL    HW120312   7.123   2.680   5.878
 2613SOL    HW220313   7.196   2.826   5.882
 2614SOL     OW20314   0.373   4.090   6.216
 2614SOL    HW120315   0.275   4.097   6.235
 2614SOL    HW220316   0.387   4.033   6.135
 2615SOL     OW20317   5.115   5.155   6.519
 2615SOL    HW120318   5.165   5.225   6.468
 2615SOL    HW220319   5.180   5.101   6.573
 2616SOL     OW20320   3.648   3.577   2.154
 2616SOL    HW120321   3.622   3.670   2.126
 2616SOL    HW220322   3.567   3.518   2.150
 2617SOL     OW20323   0.104   2.343   5.391
 2617SOL    HW120324   0.067   2.362   5.482
 2617SOL    HW220325   0.133   2.428   5.348
 2618SOL     OW20326   1.065   2.250   6.522
 2618SOL    HW120327   1.141   2.264   6.585
 2618SOL    HW220328   1.094   2.191   6.447
 2619SOL     OW20329   5.372   7.020   3.763
 2619SOL    HW120330   5.457   7.067   3.737
 2619SOL    HW220331   5.390   6.921   3.771
 2620SOL     OW20332   2.062   1.121   2.104
 2620SOL    HW120333   2.136   1.188   2.095
 2620SOL    HW220334   2.000   1.130   2.026
 2621SOL     OW20335   4.699   6.712   4.821
 2621SOL    HW120336   4.710   6.622   4.864
 2621SOL    HW220337   4.771   6.774   4.853
 2622SOL     OW20338   5.957   3.260   2.042
 2622SOL    HW120339   5.923   3.352   2.062
 2622SOL    HW220340   6.056   3.256   2.059
 2623SOL     OW20341   5.490   2.645   1.342
 2623SOL    HW120342   5.439   2.620   1.425
 2623SOL    HW220343   5.587   2.656   1.365
 2624SOL     OW20344   7.126   3.468   4.388
 2624SOL    HW120345   7.064   3.392   4.370
 2624SOL    HW220346   7.134   3.525   4.306
 2625SOL     OW20347   4.223   1.759   1.755
 2625SOL    HW120348   4.168   1.766   1.839
 2625SOL    HW220349   4.184   1.819   1.685
 2626SOL     OW20350   3.439   0.072   4.602
 2626SOL    HW120351   3.495   0.034   4.529
 2626SOL    HW220352   3.481   0.055   4.690
 2627SOL     OW20353   6.728   2.218   1.105
 2627SOL    HW120354   6.679   2.297   1.067
 2627SOL    HW220355   6.774   2.169   1.031
 2628SOL     OW20356   6.440   4.169   6.434
 2628SOL    HW120357   6.499   4.250   6.428
 2628SOL    HW220358   6.492   4.088   6.408
 2629SOL     OW20359   6.531   6.900   3.234
 2629SOL    HW120360   6.620   6.857   3.248
 2629SOL    HW220361   6.459   6.834   3.255
 2630SOL     OW20362   5.632   5.522   5.042
 2630SOL    HW120363   5.546   5.560   5.077
 2630SOL    HW220364   5.693   5.597   5.015
 2631SOL     OW20365   6.104   6.591   6.653
 2631SOL    HW120366   6.181   6.537   6.619
 2631SOL    HW220367   6.129   6.688   6.651
 2632SOL     OW20368   5.332   1.122   2.488
 2632SOL    HW120369   5.338   1.190   2.415
 2632SOL    HW220370   5.391   1.149   2.564
 2633SOL     OW20371   0.891   4.254   2.103
 2633SOL    HW120372   0.896   4.299   2.192
 2633SOL    HW220373   0.981   4.220   2.077
 2634SOL     OW20374   2.198   4.174   3.269
 2634SOL    HW120375   2.258   4.131   3.201
 2634SOL    HW220376   2.245   4.176   3.358
 2635SOL     OW20377   6.394   4.992   0.567
 2635SOL    HW120378   6.358   4.968   0.477
 2635SOL    HW220379   6.489   5.022   0.558
 2636SOL     OW20380   5.899   1.843   1.276
 2636SOL    HW120381   5.871   1.748   1.264
 2636SOL    HW220382   5.953   1.852   1.359
 2637SOL     OW20383   6.283   2.865   0.476
 2637SOL    HW120384   6.265   2.886   0.572
 2637SOL    HW220385   6.355   2.795   0.471
 2638SOL     OW20386   3.497   6.957   3.646
 2638SOL    HW120387   3.488   6.859   3.624
 2638SOL    HW220388   3.577   6.994   3.598
 2639SOL     OW20389   3.330   2.963   6.301
 2639SOL    HW120390   3.415   2.955   6.250
 2639SOL    HW220391   3.291   2.872   6.316
 2640SOL     OW20392   1.594   4.712   5.684
 2640SOL    HW120393   1.544   4.667   5.611
 2640SOL    HW220394   1.625   4.802   5.653
 2641SOL     OW20395   3.632   5.810   2.751
 2641SOL    HW120396   3.697   5.800   2.676
 2641SOL    HW220397   3.647   5.898   2.797
 2642SOL     OW20398   3.164   3.502   0.530
 2642SOL    HW120399   3.171   3.584   0.474
 2642SOL    HW220400   3.185   3.524   0.626
 2643SOL     OW20401   0.835   5.559   4.450
 2643SOL    HW120402   0.857   5.649   4.488
 2643SOL    HW220403   0.747   5.528   4.485
 2644SOL     OW20404   1.691   4.824   0.479
 2644SOL    HW120405   1.773   4.872   0.450
 2644SOL    HW220406   1.697   4.804   0.577
 2645SOL     OW20407   6.061   4.460   0.847
 2645SOL    HW120408   6.032   4.368   0.871
 2645SOL    HW220409   5.982   4.513   0.816
 2646SOL     OW20410   5.895   3.068   1.620
 2646SOL    HW120411   5.958   2.998   1.653
 2646SOL    HW220412   5.823   3.025   1.565
 2647SOL     OW20413   3.579   3.830   2.094
 2647SOL    HW120414   3.638   3.902   2.056
 2647SOL    HW220415   3.497   3.872   2.132
 2648SOL     OW20416   1.759   2.974   2.208
 2648SOL    HW120417   1.803   3.053   2.166
 2648SOL    HW220418   1.688   3.005   2.271
 2649SOL     OW20419   4.735   3.436   6.239
 2649SOL    HW120420   4.747   3.394   6.148
 2649SOL    HW220421   4.638   3.448   6.257
 2650SOL     OW20422   5.687   4.402   7.298
 2650SOL    HW120423   5.744   4.474   7.338
 2650SOL    HW220424   5.679   4.326   7.363
 2651SOL     OW20425   4.158   5.451   2.164
 2651SOL    HW120426   4.183   5.363   2.126
 2651SOL    HW220427   4.073   5.483   2.121
 2652SOL     OW20428   6.050   0.538   1.741
 2652SOL    HW120429   6.016   0.513   1.650
 2652SOL    HW220430   5.975   0.578   1.794
 2653SOL     OW20431   6.973   3.259   0.284
 2653SOL    HW120432   7.039   3.314   0.334
 2653SOL    HW220433   6.892   3.314   0.263
 2654SOL     OW20434   3.525   0.804   6.569
 2654SOL    HW120435   3.587   0.749   6.512
 2654SOL    HW220436   3.559   0.805   6.663
 2655SOL     OW20437   5.938   4.121   3.143
 2655SOL    HW120438   5.848   4.087   3.169
 2655SOL    HW220439   5.935   4.221   3.135
 2656SOL     OW20440   1.366   4.522   0.570
 2656SOL    HW120441   1.405   4.571   0.492
 2656SOL    HW220442   1.319   4.586   0.630
 2657SOL     OW20443   6.590   3.088   6.566
 2657SOL    HW120444   6.630   3.178   6.580
 2657SOL    HW220445   6.503   3.082   6.615
 2658SOL     OW20446   4.623   3.071   3.520
 2658SOL    HW120447   4.606   3.170   3.511
 2658SOL    HW220448   4.716   3.051   3.490
 2659SOL     OW20449   5.864   1.059   6.703
 2659SOL    HW120450   5.820   1.033   6.617
 2659SOL    HW220451   5.821   1.141   6.740
 2660SOL     OW20452   2.330   6.464   2.351
 2660SOL    HW120453   2.326   6.381   2.294
 2660SOL    HW220454   2.414   6.463   2.405
 2661SOL     OW20455   5.857   3.802   6.720
 2661SOL    HW120456   5.879   3.893   6.752
 2661SOL    HW220457   5.937   3.743   6.728
 2662SOL     OW20458   5.265   5.405   2.785
 2662SOL    HW120459   5.260   5.411   2.885
 2662SOL    HW220460   5.201   5.334   2.754
 2663SOL     OW20461   3.517   1.704   1.360
 2663SOL    HW120462   3.490   1.762   1.283
 2663SOL    HW220463   3.438   1.691   1.421
 2664SOL     OW20464   3.482   3.033   4.033
 2664SOL    HW120465   3.431   3.118   4.021
 2664SOL    HW220466   3.424   2.966   4.079
 2665SOL     OW20467   4.590   0.010   6.225
 2665SOL    HW120468   4.666   0.047   6.280
 2665SOL    HW220469   4.505   0.056   6.250
 2666SOL     OW20470   0.046   3.066   3.504
 2666SOL    HW120471   0.142   3.037   3.509
 2666SOL    HW220472   0.019   3.073   3.408
 2667SOL     OW20473   6.222   5.008   4.147
 2667SOL    HW120474   6.176   5.094   4.126
 2667SOL    HW220475   6.317   5.025   4.171
 2668SOL     OW20476   2.693   4.072   6.944
 2668SOL    HW120477   2.645   4.058   6.858
 2668SOL    HW220478   2.687   4.168   6.970
 2669SOL     OW20479   3.953   6.811   4.495
 2669SOL    HW120480   3.893   6.843   4.422
 2669SOL    HW220481   4.047   6.804   4.461
 2670SOL     OW20482   3.800   1.073   0.316
 2670SOL    HW120483   3.824   1.147   0.254
 2670SOL    HW220484   3.854   0.992   0.294
 2671SOL     OW20485   2.571   3.084   2.131
 2671SOL    HW120486   2.640   3.017   2.157
 2671SOL    HW220487   2.497   3.038   2.081
 2672SOL     OW20488   0.921   4.261   3.372
 2672SOL    HW120489   0.989   4.212   3.318
 2672SOL    HW220490   0.839   4.204   3.383
 2673SOL     OW20491   6.945   3.092   5.450
 2673SOL    HW120492   7.012   3.037   5.401
 2673SOL    HW220493   6.864   3.105   5.393
 2674SOL     OW20494   4.592   1.463   2.376
 2674SOL    HW120495   4.652   1.444   2.453
 2674SOL    HW220496   4.544   1.379   2.349
 2675SOL     OW20497   3.438   6.384   5.833
 2675SOL    HW120498   3.535   6.365   5.818
 2675SOL    HW220499   3.400   6.314   5.894
 2676SOL     OW20500   1.982   5.703   5.361
 2676SOL    HW120501   2.041   5.635   5.403
 2676SOL    HW220502   1.970   5.781   5.422
 2677SOL     OW20503   2.645   3.805   2.882
 2677SOL    HW120504   2.557   3.764   2.904
 2677SOL    HW220505   2.714   3.733   2.874
 2678SOL     OW20506   3.911   5.976   2.208
 2678SOL    HW120507   3.942   6.063   2.168
 2678SOL    HW220508   3.812   5.980   2.224
 2679SOL     OW20509   4.481   6.404   0.876
 2679SOL    HW120510   4.496   6.481   0.938
 2679SOL    HW220511   4.418   6.339   0.917
 2680SOL     OW20512   0.074   1.183   0.919
 2680SOL    HW120513   0.075   1.268   0.972
 2680SOL    HW220514   8.995   1.128   0.946
 2681SOL     OW20515   6.738   2.281   2.831
 2681SOL    HW120516   6.683   2.243   2.757
 2681SOL    HW220517   6.754   2.378   2.815
 2682SOL     OW20518   7.115   4.845   3.456
 2682SOL    HW120519   7.096   4.833   3.554
 2682SOL    HW220520   7.185   4.780   3.428
 2683SOL     OW20521   1.531   3.133   3.893
 2683SOL    HW120522   1.446   3.131   3.840
 2683SOL    HW220523   1.609   3.122   3.831
 2684SOL     OW20524   1.108   1.848   3.431
 2684SOL    HW120525   1.027   1.795   3.406
 2684SOL    HW220526   1.147   1.812   3.515
 2685SOL     OW20527   6.241   2.729   2.178
 2685SOL    HW120528   6.250   2.796   2.105
 2685SOL    HW220529   6.220   2.776   2.264
 2686SOL     OW20530   1.541   2.154   4.204
 2686SOL    HW120531   1.454   2.106   4.208
 2686SOL    HW220532   1.615   2.091   4.227
 2687SOL     OW20533   3.179   2.603   0.860
 2687SOL    HW120534   3.272   2.566   0.850
 2687SOL    HW220535   3.177   2.697   0.828
 2688SOL     OW20536   4.188   0.681   5.790
 2688SOL    HW120537   4.266   0.741   5.805
 2688SOL    HW220538   4.107   0.720   5.832
 2689SOL     OW20539   4.141   1.625   1.165
 2689SOL    HW120540   4.143   1.525   1.163
 2689SOL    HW220541   4.194   1.657   1.244
 2690SOL     OW20542   4.006   5.898   3.366
 2690SOL    HW120543   3.983   5.855   3.453
 2690SOL    HW220544   4.105   5.907   3.359
 2691SOL     OW20545   1.198   5.986   6.464
 2691SOL    HW120546   1.215   5.898   6.510
 2691SOL    HW220547   1.121   6.032   6.508
 2692SOL     OW20548   5.815   1.768   5.253
 2692SOL    HW120549   5.889   1.772   5.321
 2692SOL    HW220550   5.802   1.674   5.224
 2693SOL     OW20551   1.966   4.545   7.400
 2693SOL    HW120552   1.951   4.625   7.457
 2693SOL    HW220553   1.935   4.564   7.307
 2694SOL     OW20554   2.757   0.798   2.582
 2694SOL    HW120555   2.708   0.843   2.657
 2694SOL    HW220556   2.756   0.858   2.501
 2695SOL     OW20557   5.191   6.103   4.071
 2695SOL    HW120558   5.276   6.149   4.097
 2695SOL    HW220559   5.200   6.067   3.977
 2696SOL     OW20560   2.109   1.879   1.261
 2696SOL    HW120561   2.118   1.781   1.243
 2696SOL    HW220562   2.197   1.916   1.291
 2697SOL     OW20563   2.982   3.647   6.851
 2697SOL    HW120564   2.964   3.636   6.753
 2697SOL    HW220565   2.917   3.713   6.889
 2698SOL     OW20566   6.557   4.436   1.612
 2698SOL    HW120567   6.645   4.452   1.569
 2698SOL    HW220568   6.489   4.499   1.574
 2699SOL     OW20569   5.436   7.063   4.441
 2699SOL    HW120570   5.407   7.155   4.468
 2699SOL    HW220571   5.462   7.063   4.345
 2700SOL     OW20572   1.895   1.248   3.489
 2700SOL    HW120573   1.843   1.166   3.515
 2700SOL    HW220574   1.981   1.220   3.447
 2701SOL     OW20575   0.531   4.184   4.309
 2701SOL    HW120576   0.440   4.200   4.348
 2701SOL    HW220577   0.600   4.234   4.361
 2702SOL     OW20578   6.103   6.296   6.854
 2702SOL    HW120579   6.110   6.358   6.776
 2702SOL    HW220580   6.039   6.223   6.833
 2703SOL     OW20581   3.224   7.114   5.060
 2703SOL    HW120582   3.203   7.020   5.087
 2703SOL    HW220583   3.312   7.116   5.012
 2704SOL     OW20584   4.599   4.249   3.400
 2704SOL    HW120585   4.578   4.273   3.495
 2704SOL    HW220586   4.530   4.289   3.339
 2705SOL     OW20587   6.222   0.341   4.830
 2705SOL    HW120588   6.249   0.375   4.920
 2705SOL    HW220589   6.251   0.407   4.760
 2706SOL     OW20590   7.097   2.900   4.547
 2706SOL    HW120591   7.098   2.821   4.485
 2706SOL    HW220592   7.008   2.907   4.591
 2707SOL     OW20593   0.487   3.213   6.107
 2707SOL    HW120594   0.538   3.226   6.022
 2707SOL    HW220595   0.392   3.189   6.086
 2708SOL     OW20596   4.812   4.273   5.948
 2708SOL    HW120597   4.829   4.205   5.876
 2708SOL    HW220598   4.767   4.228   6.025
 2709SOL     OW20599   5.262   5.676   0.753
 2709SOL    HW120600   5.290   5.615   0.827
 2709SOL    HW220601   5.249   5.622   0.669
 2710SOL     OW20602   3.981   2.880   1.959
 2710SOL    HW120603   4.033   2.809   1.910
 2710SOL    HW220604   3.901   2.838   2.001
 2711SOL     OW20605   5.749   2.286   4.753
 2711SOL    HW120606   5.774   2.207   4.809
 2711SOL    HW220607   5.649   2.286   4.740
 2712SOL     OW20608   3.144   2.432   1.943
 2712SOL    HW120609   3.166   2.496   1.870
 2712SOL    HW220610   3.109   2.481   2.022
 2713SOL     OW20611   2.075   1.948   0.561
 2713SOL    HW120612   2.133   1.951   0.643
 2713SOL    HW220613   1.992   2.002   0.577
 2714SOL     OW20614   0.254   2.238   0.218
 2714SOL    HW120615   0.312   2.238   0.299
 2714SOL    HW220616   0.292   2.300   0.150
 2715SOL     OW20617   4.722   4.268   4.463
 2715SOL    HW120618   4.653   4.340   4.473
 2715SOL    HW220619   4.679   4.178   4.477
 2716SOL     OW20620   3.343   3.903   4.697
 2716SOL    HW120621   3.305   3.810   4.695
 2716SOL    HW220622   3.319   3.946   4.784
 2717SOL     OW20623   2.455   1.295   0.404
 2717SOL    HW120624   2.486   1.298   0.309
 2717SOL    HW220625   2.534   1.296   0.465
 2718SOL     OW20626   6.489   2.364   3.816
 2718SOL    HW120627   6.509   2.460   3.799
 2718SOL    HW220628   6.570   2.319   3.856
 2719SOL     OW20629   3.954   1.051   5.297
 2719SOL    HW120630   3.963   0.988   5.374
 2719SOL    HW220631   4.041   1.099   5.284
 2720SOL     OW20632   3.261   3.346   1.146
 2720SOL    HW120633   3.229   3.264   1.098
 2720SOL    HW220634   3.182   3.406   1.164
 2721SOL     OW20635   3.546   3.330   0.551
 2721SOL    HW120636   3.588   3.268   0.486
 2721SOL    HW220637   3.566   3.300   0.644
 2722SOL     OW20638   1.584   0.923   8.987
 2722SOL    HW120639   1.541   0.864   0.055
 2722SOL    HW220640   1.608   1.010   0.029
 2723SOL     OW20641   4.344   3.415   2.029
 2723SOL    HW120642   4.279   3.378   2.096
 2723SOL    HW220643   4.431   3.367   2.038
 2724SOL     OW20644   1.854   2.232   4.408
 2724SOL    HW120645   1.809   2.272   4.488
 2724SOL    HW220646   1.936   2.184   4.436
 2725SOL     OW20647   3.819   3.387   0.324
 2725SOL    HW120648   3.911   3.348   0.314
 2725SOL    HW220649   3.788   3.421   0.236
 2726SOL     OW20650   7.211   5.329   0.710
 2726SOL    HW120651   7.306   5.297   0.703
 2726SOL    HW220652   7.203   5.395   0.785
 2727SOL     OW20653   5.519   4.227   1.970
 2727SOL    HW120654   5.551   4.136   1.944
 2727SOL    HW220655   5.451   4.219   2.043
 2728SOL     OW20656   4.025   6.563   6.582
 2728SOL    HW120657   3.996   6.522   6.495
 2728SOL    HW220658   3.948   6.560   6.647
 2729SOL     OW20659   6.065   4.022   3.377
 2729SOL    HW120660   6.030   4.062   3.293
 2729SOL    HW220661   6.066   3.923   3.369
 2730SOL     OW20662   6.697   4.999   2.897
 2730SOL    HW120663   6.712   4.912   2.945
 2730SOL    HW220664   6.652   4.981   2.810
 2731SOL     OW20665   6.289   0.412   6.144
 2731SOL    HW120666   6.348   0.334   6.163
 2731SOL    HW220667   6.213   0.414   6.209
 2732SOL     OW20668   4.217   7.146   5.463
 2732SOL    HW120669   4.233   7.118   5.368
 2732SOL    HW220670   4.231   7.067   5.523
 2733SOL     OW20671   3.049   0.804   6.344
 2733SOL    HW120672   3.064   0.897   6.314
 2733SOL    HW220673   3.121   0.777   6.407
 2734SOL     OW20674   0.068   3.005   1.505
 2734SOL    HW120675   8.979   2.975   1.537
 2734SOL    HW220676   0.058   3.091   1.454
 2735SOL     OW20677   4.253   5.753   4.759
 2735SOL    HW120678   4.219   5.681   4.698
 2735SOL    HW220679   4.244   5.723   4.854
 2736SOL     OW20680   1.597   6.912   0.330
 2736SOL    HW120681   1.654   6.891   0.251
 2736SOL    HW220682   1.602   6.838   0.396
 2737SOL     OW20683   1.029   3.976   1.316
 2737SOL    HW120684   1.119   3.946   1.284
 2737SOL    HW220685   1.037   4.066   1.358
 2738SOL     OW20686   5.992   1.210   0.213
 2738SOL    HW120687   5.950   1.300   0.223
 2738SOL    HW220688   6.092   1.218   0.221
 2739SOL     OW20689   4.806   3.159   1.173
 2739SOL    HW120690   4.720   3.208   1.190
 2739SOL    HW220691   4.876   3.223   1.142
 2740SOL     OW20692   4.516   3.557   0.146
 2740SOL    HW120693   4.572   3.600   0.216
 2740SOL    HW220694   4.485   3.467   0.178
 2741SOL     OW20695   5.477   2.846   5.473
 2741SOL    HW120696   5.419   2.916   5.431
 2741SOL    HW220697   5.429   2.805   5.550
 2742SOL     OW20698   3.229   4.194   6.133
 2742SOL    HW120699   3.151   4.146   6.173
 2742SOL    HW220700   3.297   4.128   6.101
 2743SOL     OW20701   1.889   1.078   1.305
 2743SOL    HW120702   1.808   1.128   1.275
 2743SOL    HW220703   1.924   1.023   1.229
 2744SOL     OW20704   8.978   4.541   7.194
 2744SOL    HW120705   8.985   4.640   7.204
 2744SOL    HW220706   0.008   4.514   7.103
 2745SOL     OW20707   4.707   3.849   3.089
 2745SOL    HW120708   4.755   3.908   3.024
 2745SOL    HW220709   4.758   3.846   3.175
 2746SOL     OW20710   5.992   4.368   3.743
 2746SOL    HW120711   5.959   4.379   3.837
 2746SOL    HW220712   6.087   4.398   3.737
 2747SOL     OW20713   0.349   0.175   0.194
 2747SOL    HW120714   0.262   0.126   0.186
 2747SOL    HW220715   0.393   0.179   0.104
 2748SOL     OW20716   6.202   3.360   3.774
 2748SOL    HW120717   6.128   3.427   3.777
 2748SOL    HW220718   6.281   3.399   3.726
 2749SOL     OW20719   2.782   2.265   0.496
 2749SOL    HW120720   2.737   2.242   0.410
 2749SOL    HW220721   2.731   2.337   0.543
 2750SOL     OW20722   5.705   4.962   5.982
 2750SOL    HW120723   5.707   5.059   6.008
 2750SOL    HW220724   5.623   4.919   6.020
 2751SOL     OW20725   0.188   7.319   5.304
 2751SOL    HW120726   0.162   7.227   5.274
 2751SOL    HW220727   0.148   7.336   5.395
 2752SOL     OW20728   3.772   4.890   6.657
 2752SOL    HW120729   3.710   4.955   6.613
 2752SOL    HW220730   3.786   4.811   6.598
 2753SOL     OW20731   4.548   2.975   5.836
 2753SOL    HW120732   4.576   2.899   5.777
 2753SOL    HW220733   4.604   3.055   5.815
 2754SOL     OW20734   0.392   2.832   6.628
 2754SOL    HW120735   0.485   2.799   6.646
 2754SOL    HW220736   0.326   2.760   6.650
 2755SOL     OW20737   2.300   4.904   3.530
 2755SOL    HW120738   2.212   4.942   3.503
 2755SOL    HW220739   2.366   4.978   3.543
 2756SOL     OW20740   4.773   0.544   0.034
 2756SOL    HW120741   4.718   0.479   0.086
 2756SOL    HW220742   4.793   0.507   8.944
 2757SOL     OW20743   2.098   5.725   0.266
 2757SOL    HW120744   2.129   5.810   0.224
 2757SOL    HW220745   2.177   5.679   0.309
 2758SOL     OW20746   3.640   6.125   2.082
 2758SOL    HW120747   3.588   6.068   2.145
 2758SOL    HW220748   3.655   6.215   2.123
 2759SOL     OW20749   0.859   3.745   4.243
 2759SOL    HW120750   0.950   3.717   4.212
 2759SOL    HW220751   0.813   3.667   4.287
 2760SOL     OW20752   4.127   0.098   1.212
 2760SOL    HW120753   4.211   0.052   1.240
 2760SOL    HW220754   4.110   0.175   1.274
 2761SOL     OW20755   5.331   5.745   5.373
 2761SOL    HW120756   5.254   5.682   5.386
 2761SOL    HW220757   5.388   5.745   5.455
 2762SOL     OW20758   7.060   7.137   0.378
 2762SOL    HW120759   7.029   7.135   0.283
 2762SOL    HW220760   7.070   7.043   0.411
 2763SOL     OW20761   0.381   4.586   2.084
 2763SOL    HW120762   0.301   4.553   2.135
 2763SOL    HW220763   0.370   4.564   1.987
 2764SOL     OW20764   1.195   4.487   5.874
 2764SOL    HW120765   1.126   4.469   5.945
 2764SOL    HW220766   1.285   4.460   5.907
 2765SOL     OW20767   3.918   1.895   1.390
 2765SOL    HW120768   3.853   1.845   1.447
 2765SOL    HW220769   4.004   1.906   1.440
 2766SOL     OW20770   4.781   6.820   5.921
 2766SOL    HW120771   4.856   6.880   5.950
 2766SOL    HW220772   4.772   6.744   5.986
 2767SOL     OW20773   4.275   2.498   4.585
 2767SOL    HW120774   4.356   2.441   4.596
 2767SOL    HW220775   4.193   2.443   4.602
 2768SOL     OW20776   0.702   6.385   6.021
 2768SOL    HW120777   0.791   6.343   6.006
 2768SOL    HW220778   0.713   6.468   6.076
 2769SOL     OW20779   6.313   7.233   5.287
 2769SOL    HW120780   6.293   7.282   5.202
 2769SOL    HW220781   6.306   7.297   5.364
 2770SOL     OW20782   6.692   4.119   4.193
 2770SOL    HW120783   6.728   4.068   4.114
 2770SOL    HW220784   6.753   4.195   4.214
 2771SOL     OW20785   6.594   3.625   1.663
 2771SOL    HW120786   6.600   3.585   1.755
 2771SOL    HW220787   6.686   3.641   1.628
 2772SOL     OW20788   5.583   2.014   6.473
 2772SOL    HW120789   5.678   1.990   6.494
 2772SOL    HW220790   5.539   2.050   6.555
 2773SOL     OW20791   7.078   7.281   5.626
 2773SOL    HW120792   6.991   7.232   5.631
 2773SOL    HW220793   7.134   7.259   5.705
 2774SOL     OW20794   6.932   0.272   2.635
 2774SOL    HW120795   7.031   0.257   2.628
 2774SOL    HW220796   6.895   0.288   2.543
 2775SOL     OW20797   4.480   5.304   1.516
 2775SOL    HW120798   4.483   5.255   1.429
 2775SOL    HW220799   4.385   5.314   1.545
 2776SOL     OW20800   6.127   2.259   4.054
 2776SOL    HW120801   6.114   2.313   4.137
 2776SOL    HW220802   6.189   2.183   4.074
 2777SOL     OW20803   5.508   1.016   1.534
 2777SOL    HW120804   5.607   1.033   1.540
 2777SOL    HW220805   5.488   0.923   1.566
 2778SOL     OW20806   2.912   3.057   1.944
 2778SOL    HW120807   2.908   2.959   1.964
 2778SOL    HW220808   2.994   3.076   1.890
 2779SOL     OW20809   1.028   3.282   0.722
 2779SOL    HW120810   1.078   3.199   0.749
 2779SOL    HW220811   0.964   3.307   0.795
 2780SOL     OW20812   3.291   3.216   5.114
 2780SOL    HW120813   3.336   3.134   5.081
 2780SOL    HW220814   3.328   3.242   5.203
 2781SOL     OW20815   2.399   1.178   5.979
 2781SOL    HW120816   2.435   1.087   5.995
 2781SOL    HW220817   2.309   1.188   6.021
 2782SOL     OW20818   4.965   7.192   4.616
 2782SOL    HW120819   5.020   7.215   4.535
 2782SOL    HW220820   5.012   7.121   4.669
 2783SOL     OW20821   6.662   0.732   6.054
 2783SOL    HW120822   6.603   0.798   6.100
 2783SOL    HW220823   6.719   0.779   5.987
 2784SOL     OW20824   5.470   2.405   2.521
 2784SOL    HW120825   5.382   2.364   2.546
 2784SOL    HW220826   5.464   2.504   2.531
 2785SOL     OW20827   3.988   0.511   0.475
 2785SOL    HW120828   3.947   0.486   0.388
 2785SOL    HW220829   3.923   0.494   0.549
 2786SOL     OW20830   0.521   7.225   0.283
 2786SOL    HW120831   0.616   7.232   0.253
 2786SOL    HW220832   0.473   7.310   0.263
 2787SOL     OW20833   3.688   5.040   2.445
 2787SOL    HW120834   3.695   5.043   2.544
 2787SOL    HW220835   3.743   4.964   2.410
 2788SOL     OW20836   3.982   2.176   2.677
 2788SOL    HW120837   3.939   2.247   2.621
 2788SOL    HW220838   4.075   2.203   2.700
 2789SOL     OW20839   0.880   0.484   5.932
 2789SOL    HW120840   0.827   0.566   5.912
 2789SOL    HW220841   0.976   0.509   5.947
 2790SOL     OW20842   5.062   0.832   2.640
 2790SOL    HW120843   4.981   0.802   2.690
 2790SOL    HW220844   5.054   0.930   2.620
 2791SOL     OW20845   4.529   2.086   1.762
 2791SOL    HW120846   4.443   2.135   1.749
 2791SOL    HW220847   4.596   2.146   1.805
 2792SOL     OW20848   2.851   4.152   2.927
 2792SOL    HW120849   2.921   4.204   2.878
 2792SOL    HW220850   2.776   4.130   2.863
 2793SOL     OW20851   5.878   4.178   1.853
 2793SOL    HW120852   5.925   4.240   1.791
 2793SOL    HW220853   5.831   4.107   1.800
 2794SOL     OW20854   2.631   3.086   6.431
 2794SOL    HW120855   2.615   3.124   6.339
 2794SOL    HW220856   2.543   3.060   6.472
 2795SOL     OW20857   5.575   6.392   3.133
 2795SOL    HW120858   5.532   6.428   3.050
 2795SOL    HW220859   5.643   6.323   3.107
 2796SOL     OW20860   3.065   3.338   1.441
 2796SOL    HW120861   3.056   3.397   1.360
 2796SOL    HW220862   3.079   3.394   1.522
 2797SOL     OW20863   1.392   0.558   5.555
 2797SOL    HW120864   1.490   0.575   5.540
 2797SOL    HW220865   1.371   0.463   5.531
 2798SOL     OW20866   7.397   4.544   0.469
 2798SOL    HW120867   7.414   4.627   0.523
 2798SOL    HW220868   7.333   4.485   0.518
 2799SOL     OW20869   2.452   5.792   0.117
 2799SOL    HW120870   2.536   5.828   0.158
 2799SOL    HW220871   2.473   5.746   0.031
 2800SOL     OW20872   3.382   3.402   4.731
 2800SOL    HW120873   3.478   3.424   4.748
 2800SOL    HW220874   3.331   3.487   4.718
 2801SOL     OW20875   2.699   2.939   2.710
 2801SOL    HW120876   2.773   3.003   2.729
 2801SOL    HW220877   2.650   2.919   2.795
 2802SOL     OW20878   5.380   2.136   3.290
 2802SOL    HW120879   5.439   2.071   3.338
 2802SOL    HW220880   5.398   2.130   3.192
 2803SOL     OW20881   6.338   4.720   3.495
 2803SOL    HW120882   6.413   4.661   3.526
 2803SOL    HW220883   6.370   4.815   3.491
 2804SOL     OW20884   0.524   3.168   5.352
 2804SOL    HW120885   0.534   3.069   5.358
 2804SOL    HW220886   0.608   3.208   5.315
 2805SOL     OW20887   1.498   6.547   0.292
 2805SOL    HW120888   1.566   6.556   0.220
 2805SOL    HW220889   1.528   6.596   0.374
 2806SOL     OW20890   7.202   0.546   0.732
 2806SOL    HW120891   7.284   0.562   0.676
 2806SOL    HW220892   7.157   0.634   0.750
 2807SOL     OW20893   4.759   5.296   6.414
 2807SOL    HW120894   4.772   5.386   6.371
 2807SOL    HW220895   4.817   5.291   6.496
 2808SOL     OW20896   0.209   5.441   2.308
 2808SOL    HW120897   0.284   5.377   2.295
 2808SOL    HW220898   0.183   5.480   2.220
 2809SOL     OW20899   6.706   0.681   2.672
 2809SOL    HW120900   6.614   0.645   2.693
 2809SOL    HW220901   6.718   0.769   2.717
 2810SOL     OW20902   4.456   0.907   3.670
 2810SOL    HW120903   4.380   0.961   3.707
 2810SOL    HW220904   4.519   0.884   3.744
 2811SOL     OW20905   0.396   3.208   7.409
 2811SOL    HW120906   0.344   3.291   7.431
 2811SOL    HW220907   0.335   3.129   7.415
 2812SOL     OW20908   4.273   1.821   3.536
 2812SOL    HW120909   4.179   1.853   3.546
 2812SOL    HW220910   4.334   1.899   3.522
 2813SOL     OW20911   3.125   3.044   0.392
 2813SOL    HW120912   3.201   3.093   0.435
 2813SOL    HW220913   3.060   3.109   0.354
 2814SOL     OW20914   2.567   2.014   0.134
 2814SOL    HW120915   2.619   1.982   0.055
 2814SOL    HW220916   2.479   1.968   0.137
 2815SOL     OW20917   6.762   4.647   5.736
 2815SOL    HW120918   6.818   4.569   5.763
 2815SOL    HW220919   6.821   4.721   5.704
 2816SOL     OW20920   2.540   1.792   3.360
 2816SOL    HW120921   2.579   1.789   3.451
 2816SOL    HW220922   2.568   1.876   3.314
 2817SOL     OW20923   7.111   2.920   1.599
 2817SOL    HW120924   7.088   3.016   1.580
 2817SOL    HW220925   7.068   2.862   1.530
 2818SOL     OW20926   2.252   6.917   4.238
 2818SOL    HW120927   2.249   6.828   4.284
 2818SOL    HW220928   2.314   6.978   4.286
 2819SOL     OW20929   0.465   3.994   0.154
 2819SOL    HW120930   0.453   4.070   0.218
 2819SOL    HW220931   0.487   3.911   0.205
 2820SOL     OW20932   2.257   5.725   3.012
 2820SOL    HW120933   2.270   5.809   3.065
 2820SOL    HW220934   2.333   5.662   3.032
 2821SOL     OW20935   3.333   0.341   6.848
 2821SOL    HW120936   3.406   0.339   6.917
 2821SOL    HW220937   3.288   0.430   6.850
 2822SOL     OW20938   0.121   2.262   0.637
 2822SOL    HW120939   0.090   2.357   0.647
 2822SOL    HW220940   0.204   2.248   0.691
 2823SOL     OW20941   4.864   0.250   3.511
 2823SOL    HW120942   4.798   0.320   3.539
 2823SOL    HW220943   4.842   0.219   3.419
 2824SOL     OW20944   5.411   7.273   1.697
 2824SOL    HW120945   5.338   7.232   1.641
 2824SOL    HW220946   5.435   7.363   1.660
 2825SOL     OW20947   1.350   1.502   0.434
 2825SOL    HW120948   1.273   1.483   0.374
 2825SOL    HW220949   1.347   1.441   0.513
 2826SOL     OW20950   5.563   4.703   3.576
 2826SOL    HW120951   5.650   4.680   3.533
 2826SOL    HW220952   5.573   4.786   3.630
 2827SOL     OW20953   0.720   4.325   4.460
 2827SOL    HW120954   0.739   4.420   4.435
 2827SOL    HW220955   0.806   4.276   4.475
 2828SOL     OW20956   6.387   6.210   6.463
 2828SOL    HW120957   6.339   6.168   6.386
 2828SOL    HW220958   6.349   6.301   6.481
 2829SOL     OW20959   1.520   4.366   6.229
 2829SOL    HW120960   1.494   4.384   6.134
 2829SOL    HW220961   1.445   4.392   6.290
 2830SOL     OW20962   5.105   7.275   1.939
 2830SOL    HW120963   5.129   7.370   1.920
 2830SOL    HW220964   5.148   7.246   2.025
 2831SOL     OW20965   0.956   4.933   1.990
 2831SOL    HW120966   0.914   4.856   2.039
 2831SOL    HW220967   0.884   4.985   1.944
 2832SOL     OW20968   1.523   2.745   2.555
 2832SOL    HW120969   1.460   2.822   2.544
 2832SOL    HW220970   1.518   2.710   2.648
 2833SOL     OW20971   1.829   1.070   5.154
 2833SOL    HW120972   1.841   1.030   5.244
 2833SOL    HW220973   1.850   1.168   5.158
 2834SOL     OW20974   3.680   2.224   1.616
 2834SOL    HW120975   3.610   2.258   1.554
 2834SOL    HW220976   3.769   2.265   1.592
 2835SOL     OW20977   6.932   4.036   5.293
 2835SOL    HW120978   6.883   4.082   5.220
 2835SOL    HW220979   6.907   3.939   5.295
 2836SOL     OW20980   4.346   4.528   2.544
 2836SOL    HW120981   4.264   4.484   2.507
 2836SOL    HW220982   4.320   4.600   2.608
 2837SOL     OW20983   4.821   6.496   3.632
 2837SOL    HW120984   4.747   6.493   3.699
 2837SOL    HW220985   4.896   6.552   3.668
 2838SOL     OW20986   2.660   5.667   6.536
 2838SOL    HW120987   2.742   5.626   6.575
 2838SOL    HW220988   2.637   5.751   6.586
 2839SOL     OW20989   0.533   1.560   3.247
 2839SOL    HW120990   0.590   1.640   3.229
 2839SOL    HW220991   0.583   1.495   3.304
 2840SOL     OW20992   4.787   1.162   6.951
 2840SOL    HW120993   4.866   1.202   6.998
 2840SOL    HW220994   4.819   1.099   6.880
 2841SOL     OW20995   5.598   0.668   6.589
 2841SOL    HW120996   5.647   0.662   6.676
 2841SOL    HW220997   5.553   0.757   6.582
 2842SOL     OW20998   4.961   0.643   2.295
 2842SOL    HW120999   5.021   0.580   2.246
 2842SOL    HW221000   4.992   0.737   2.282
 2843SOL     OW21001   4.407   0.693   2.659
 2843SOL    HW121002   4.312   0.699   2.631
 2843SOL    HW221003   4.459   0.769   2.619
 2844SOL     OW21004   0.913   1.589   2.987
 2844SOL    HW121005   0.886   1.685   2.989
 2844SOL    HW221006   0.908   1.552   3.080
 2845SOL     OW21007   2.245   2.655   1.621
 2845SOL    HW121008   2.343   2.646   1.639
 2845SOL    HW221009   2.227   2.633   1.525
 2846SOL     OW21010   3.061   4.270   1.713
 2846SOL    HW121011   3.132   4.213   1.755
 2846SOL    HW221012   3.103   4.338   1.653
 2847SOL     OW21013   5.457   5.015   0.460
 2847SOL    HW121014   5.462   4.929   0.512
 2847SOL    HW221015   5.370   5.060   0.480
 2848SOL     OW21016   5.117   3.564   0.958
 2848SOL    HW121017   5.094   3.472   0.989
 2848SOL    HW221018   5.159   3.559   0.868
 2849SOL     OW21019   1.141   5.117   6.558
 2849SOL    HW121020   1.196   5.199   6.574
 2849SOL    HW221021   1.200   5.037   6.552
 2850SOL     OW21022   1.093   2.034   3.227
 2850SOL    HW121023   1.094   1.964   3.299
 2850SOL    HW221024   1.126   2.120   3.264
 2851SOL     OW21025   6.659   4.660   4.478
 2851SOL    HW121026   6.606   4.678   4.395
 2851SOL    HW221027   6.680   4.562   4.484
 2852SOL     OW21028   7.169   1.853   4.730
 2852SOL    HW121029   7.099   1.871   4.799
 2852SOL    HW221030   7.141   1.893   4.642
 2853SOL     OW21031   5.058   3.798   6.400
 2853SOL    HW121032   4.993   3.722   6.402
 2853SOL    HW221033   5.008   3.885   6.403
 2854SOL     OW21034   0.626   7.274   1.041
 2854SOL    HW121035   0.614   7.372   1.057
 2854SOL    HW221036   0.551   7.224   1.083
 2855SOL     OW21037   0.909   6.587   6.650
 2855SOL    HW121038   0.973   6.655   6.688
 2855SOL    HW221039   0.928   6.574   6.553
 2856SOL     OW21040   5.595   1.035   3.743
 2856SOL    HW121041   5.504   1.040   3.784
 2856SOL    HW221042   5.590   1.063   3.647
 2857SOL     OW21043   5.422   1.189   3.125
 2857SOL    HW121044   5.323   1.200   3.135
 2857SOL    HW221045   5.450   1.105   3.171
 2858SOL     OW21046   3.959   3.903   3.913
 2858SOL    HW121047   4.004   3.854   3.988
 2858SOL    HW221048   4.006   3.990   3.898
 2859SOL     OW21049   1.307   2.880   6.262
 2859SOL    HW121050   1.245   2.958   6.255
 2859SOL    HW221051   1.400   2.910   6.243
 2860SOL     OW21052   1.337   0.292   6.809
 2860SOL    HW121053   1.383   0.215   6.766
 2860SOL    HW221054   1.382   0.377   6.779
 2861SOL     OW21055   3.580   3.661   4.948
 2861SOL    HW121056   3.605   3.628   5.039
 2861SOL    HW221057   3.614   3.597   4.879
 2862SOL     OW21058   3.451   5.183   2.422
 2862SOL    HW121059   3.539   5.136   2.424
 2862SOL    HW221060   3.414   5.189   2.514
 2863SOL     OW21061   5.910   4.667   0.687
 2863SOL    HW121062   5.861   4.754   0.673
 2863SOL    HW221063   6.009   4.684   0.681
 2864SOL     OW21064   2.604   1.448   1.509
 2864SOL    HW121065   2.588   1.367   1.566
 2864SOL    HW221066   2.603   1.530   1.566
 2865SOL     OW21067   6.270   6.757   2.197
 2865SOL    HW121068   6.301   6.691   2.265
 2865SOL    HW221069   6.349   6.804   2.158
 2866SOL     OW21070   4.723   5.361   6.983
 2866SOL    HW121071   4.731   5.414   6.899
 2866SOL    HW221072   4.813   5.357   7.028
 2867SOL     OW21073   3.273   4.960   0.182
 2867SOL    HW121074   3.348   5.026   0.171
 2867SOL    HW221075   3.291   4.880   0.126
 2868SOL     OW21076   2.627   2.851   3.658
 2868SOL    HW121077   2.661   2.835   3.751
 2868SOL    HW221078   2.657   2.776   3.598
 2869SOL     OW21079   2.513   6.348   5.782
 2869SOL    HW121080   2.570   6.290   5.840
 2869SOL    HW221081   2.425   6.303   5.768
 2870SOL     OW21082   4.190   1.013   1.545
 2870SOL    HW121083   4.103   0.985   1.505
 2870SOL    HW221084   4.203   0.968   1.634
 2871SOL     OW21085   1.483   3.681   5.592
 2871SOL    HW121086   1.414   3.749   5.570
 2871SOL    HW221087   1.568   3.728   5.618
 2872SOL     OW21088   4.953   1.038   4.331
 2872SOL    HW121089   4.953   1.066   4.235
 2872SOL    HW221090   4.984   1.114   4.388
 2873SOL     OW21091   2.940   3.653   0.221
 2873SOL    HW121092   3.001   3.587   0.176
 2873SOL    HW221093   2.865   3.604   0.265
 2874SOL     OW21094   1.714   4.796   7.112
 2874SOL    HW121095   1.626   4.830   7.144
 2874SOL    HW221096   1.788   4.847   7.156
 2875SOL     OW21097   4.953   5.333   2.010
 2875SOL    HW121098   5.036   5.295   1.969
 2875SOL    HW221099   4.967   5.343   2.109
 2876SOL     OW21100   1.648   1.331   0.305
 2876SOL    HW121101   1.628   1.268   0.381
 2876SOL    HW221102   1.721   1.394   0.333
 2877SOL     OW21103   1.369   3.183   5.423
 2877SOL    HW121104   1.400   3.273   5.453
 2877SOL    HW221105   1.287   3.193   5.366
 2878SOL     OW21106   3.848   6.491   0.142
 2878SOL    HW121107   3.789   6.454   0.071
 2878SOL    HW221108   3.850   6.428   0.220
 2879SOL     OW21109   6.544   2.166   2.654
 2879SOL    HW121110   6.482   2.179   2.576
 2879SOL    HW221111   6.490   2.147   2.736
 2880SOL     OW21112   4.908   6.658   4.308
 2880SOL    HW121113   4.995   6.696   4.339
 2880SOL    HW221114   4.850   6.636   4.386
 2881SOL     OW21115   6.639   2.574   2.173
 2881SOL    HW121116   6.557   2.546   2.222
 2881SOL    HW221117   6.690   2.493   2.144
 2882SOL     OW21118   6.390   5.013   5.535
 2882SOL    HW121119   6.433   5.063   5.459
 2882SOL    HW221120   6.446   4.933   5.558
 2883SOL     OW21121   0.240   3.676   3.964
 2883SOL    HW121122   0.252   3.586   3.923
 2883SOL    HW221123   0.325   3.706   4.007
 2884SOL     OW21124   3.135   5.168   7.160
 2884SOL    HW121125   3.066   5.240   7.155
 2884SOL    HW221126   3.191   5.181   7.241
 2885SOL     OW21127   4.716   0.655   2.173
 2885SOL    HW121128   4.683   0.561   2.166
 2885SOL    HW221129   4.804   0.657   2.220
 2886SOL     OW21130   6.723   2.018   4.191
 2886SOL    HW121131   6.767   1.953   4.253
 2886SOL    HW221132   6.672   2.086   4.244
 2887SOL     OW21133   3.260   0.671   3.419
 2887SOL    HW121134   3.323   0.622   3.480
 2887SOL    HW221135   3.229   0.608   3.347
 2888SOL     OW21136   6.631   2.581   4.214
 2888SOL    HW121137   6.673   2.638   4.143
 2888SOL    HW221138   6.538   2.557   4.187
 2889SOL     OW21139   2.092   4.771   4.818
 2889SOL    HW121140   2.112   4.723   4.904
 2889SOL    HW221141   2.160   4.843   4.803
 2890SOL     OW21142   6.525   3.576   7.209
 2890SOL    HW121143   6.579   3.640   7.153
 2890SOL    HW221144   6.446   3.545   7.156
 2891SOL     OW21145   0.073   4.633   3.842
 2891SOL    HW121146   0.038   4.626   3.935
 2891SOL    HW221147   0.077   4.542   3.801
 2892SOL     OW21148   2.651   3.944   0.047
 2892SOL    HW121149   2.566   3.917   0.091
 2892SOL    HW221150   2.640   4.034   0.004
 2893SOL     OW21151   4.060   3.106   0.155
 2893SOL    HW121152   4.068   3.020   0.205
 2893SOL    HW221153   4.072   3.183   0.218
 2894SOL     OW21154   4.002   7.316   2.977
 2894SOL    HW121155   3.902   7.320   2.983
 2894SOL    HW221156   4.033   7.381   2.908
 2895SOL     OW21157   1.587   4.693   4.211
 2895SOL    HW121158   1.645   4.615   4.185
 2895SOL    HW221159   1.495   4.680   4.175
 2896SOL     OW21160   3.540   0.129   2.017
 2896SOL    HW121161   3.567   0.125   2.113
 2896SOL    HW221162   3.614   0.171   1.963
 2897SOL     OW21163   4.162   4.015   3.309
 2897SOL    HW121164   4.128   3.923   3.289
 2897SOL    HW221165   4.253   4.026   3.270
 2898SOL     OW21166   1.100   4.600   7.338
 2898SOL    HW121167   1.171   4.641   7.281
 2898SOL    HW221168   1.038   4.546   7.282
 2899SOL     OW21169   3.484   5.229   5.943
 2899SOL    HW121170   3.545   5.150   5.950
 2899SOL    HW221171   3.422   5.230   6.021
 2900SOL     OW21172   0.284   3.748   1.146
 2900SOL    HW121173   0.227   3.667   1.130
 2900SOL    HW221174   0.366   3.742   1.089
 2901SOL     OW21175   7.117   0.916   2.296
 2901SOL    HW121176   7.149   0.888   2.206
 2901SOL    HW221177   7.168   0.867   2.367
 2902SOL     OW21178   5.052   3.942   2.163
 2902SOL    HW121179   5.008   3.855   2.185
 2902SOL    HW221180   5.121   3.963   2.232
 2903SOL     OW21181   7.271   0.977   5.515
 2903SOL    HW121182   7.236   1.066   5.485
 2903SOL    HW221183   7.371   0.978   5.517
 2904SOL     OW21184   2.236   4.297   6.842
 2904SOL    HW121185   2.316   4.338   6.798
 2904SOL    HW221186   2.203   4.220   6.788
 2905SOL     OW21187   4.508   4.147   2.815
 2905SOL    HW121188   4.505   4.241   2.783
 2905SOL    HW221189   4.543   4.088   2.743
 2906SOL     OW21190   0.664   1.240   2.130
 2906SOL    HW121191   0.735   1.221   2.062
 2906SOL    HW221192   0.700   1.301   2.200
 2907SOL     OW21193   2.628   6.652   5.516
 2907SOL    HW121194   2.676   6.572   5.553
 2907SOL    HW221195   2.694   6.723   5.493
 2908SOL     OW21196   6.324   5.810   1.535
 2908SOL    HW121197   6.308   5.890   1.478
 2908SOL    HW221198   6.305   5.833   1.631
 2909SOL     OW21199   0.615   2.267   0.694
 2909SOL    HW121200   0.631   2.320   0.611
 2909SOL    HW221201   0.660   2.178   0.686
 2910SOL     OW21202   1.728   0.695   3.098
 2910SOL    HW121203   1.793   0.756   3.143
 2910SOL    HW221204   1.771   0.606   3.084
 2911SOL     OW21205   4.326   0.385   0.574
 2911SOL    HW121206   4.293   0.350   0.486
 2911SOL    HW221207   4.402   0.330   0.606
 2912SOL     OW21208   5.991   3.917   2.704
 2912SOL    HW121209   6.057   3.991   2.692
 2912SOL    HW221210   5.949   3.925   2.794
 2913SOL     OW21211   4.633   1.320   4.275
 2913SOL    HW121212   4.580   1.378   4.337
 2913SOL    HW221213   4.727   1.354   4.269
 2914SOL     OW21214   1.777   7.036   1.815
 2914SOL    HW121215   1.689   7.023   1.862
 2914SOL    HW221216   1.849   7.049   1.883
 2915SOL     OW21217   3.993   0.271   3.515
 2915SOL    HW121218   3.953   0.343   3.572
 2915SOL    HW221219   4.047   0.209   3.572
 2916SOL     OW21220   3.354   6.273   1.378
 2916SOL    HW121221   3.433   6.212   1.385
 2916SOL    HW221222   3.283   6.244   1.442
 2917SOL     OW21223   2.936   2.055   6.590
 2917SOL    HW121224   2.843   2.080   6.563
 2917SOL    HW221225   2.947   2.071   6.688
 2918SOL     OW21226   2.994   3.915   5.577
 2918SOL    HW121227   3.018   3.984   5.644
 2918SOL    HW221228   2.899   3.886   5.591
 2919SOL     OW21229   3.162   1.524   2.818
 2919SOL    HW121230   3.114   1.478   2.743
 2919SOL    HW221231   3.096   1.551   2.888
 2920SOL     OW21232   0.582   3.655   7.125
 2920SOL    HW121233   0.637   3.584   7.167
 2920SOL    HW221234   0.486   3.642   7.150
 2921SOL     OW21235   0.918   3.429   5.994
 2921SOL    HW121236   0.924   3.524   6.024
 2921SOL    HW221237   0.885   3.427   5.899
 2922SOL     OW21238   6.210   1.384   7.100
 2922SOL    HW121239   6.194   1.286   7.090
 2922SOL    HW221240   6.124   1.430   7.122
 2923SOL     OW21241   4.055   0.426   6.119
 2923SOL    HW121242   4.072   0.430   6.021
 2923SOL    HW221243   4.022   0.515   6.151
 2924SOL     OW21244   1.301   2.265   0.173
 2924SOL    HW121245   1.305   2.276   0.074
 2924SOL    HW221246   1.300   2.168   0.197
 2925SOL     OW21247   2.648   4.251   3.753
 2925SOL    HW121248   2.645   4.232   3.655
 2925SOL    HW221249   2.704   4.181   3.798
 2926SOL     OW21250   6.571   4.434   1.888
 2926SOL    HW121251   6.480   4.450   1.926
 2926SOL    HW221252   6.566   4.435   1.788
 2927SOL     OW21253   6.106   0.146   6.828
 2927SOL    HW121254   6.122   0.236   6.867
 2927SOL    HW221255   6.096   0.079   6.902
 2928SOL     OW21256   5.147   2.928   0.108
 2928SOL    HW121257   5.142   2.912   0.009
 2928SOL    HW221258   5.081   2.999   0.133
 2929SOL     OW21259   5.592   3.116   6.368
 2929SOL    HW121260   5.651   3.150   6.295
 2929SOL    HW221261   5.523   3.185   6.390
 2930SOL     OW21262   2.481   4.880   3.980
 2930SOL    HW121263   2.491   4.780   3.976
 2930SOL    HW221264   2.384   4.904   3.980
 2931SOL     OW21265   3.012   2.352   4.475
 2931SOL    HW121266   2.919   2.331   4.444
 2931SOL    HW221267   3.030   2.304   4.560
 2932SOL     OW21268   2.759   6.782   1.721
 2932SOL    HW121269   2.777   6.861   1.780
 2932SOL    HW221270   2.811   6.704   1.753
 2933SOL     OW21271   5.260   4.961   2.380
 2933SOL    HW121272   5.351   4.922   2.368
 2933SOL    HW221273   5.198   4.927   2.310
 2934SOL     OW21274   4.068   6.045   4.939
 2934SOL    HW121275   4.107   6.054   4.847
 2934SOL    HW221276   4.141   6.027   5.004
 2935SOL     OW21277   4.698   0.432   3.646
 2935SOL    HW121278   4.663   0.354   3.699
 2935SOL    HW221279   4.772   0.476   3.698
 2936SOL     OW21280   1.164   3.486   0.012
 2936SOL    HW121281   1.218   3.450   8.935
 2936SOL    HW221282   1.110   3.564   8.980
 2937SOL     OW21283   6.852   1.062   1.807
 2937SOL    HW121284   6.786   1.019   1.745
 2937SOL    HW221285   6.804   1.129   1.864
 2938SOL     OW21286   5.666   3.918   7.048
 2938SOL    HW121287   5.645   3.845   6.983
 2938SOL    HW221288   5.674   4.005   6.999
 2939SOL     OW21289   0.659   1.463   1.446
 2939SOL    HW121290   0.599   1.425   1.377
 2939SOL    HW221291   0.605   1.502   1.521
 2940SOL     OW21292   5.724   3.948   3.963
 2940SOL    HW121293   5.717   3.891   4.045
 2940SOL    HW221294   5.636   3.950   3.916
 2941SOL     OW21295   7.331   1.697   4.582
 2941SOL    HW121296   7.408   1.754   4.552
 2941SOL    HW221297   7.277   1.747   4.649
 2942SOL     OW21298   4.274   6.246   0.978
 2942SOL    HW121299   4.220   6.255   0.894
 2942SOL    HW221300   4.246   6.162   1.026
 2943SOL     OW21301   4.908   0.994   6.774
 2943SOL    HW121302   4.863   0.995   6.684
 2943SOL    HW221303   4.941   0.901   6.793
 2944SOL     OW21304   1.173   5.947   0.890
 2944SOL    HW121305   1.119   6.013   0.838
 2944SOL    HW221306   1.267   5.980   0.900
 2945SOL     OW21307   5.425   4.141   6.853
 2945SOL    HW121308   5.396   4.188   6.769
 2945SOL    HW221309   5.525   4.147   6.861
 2946SOL     OW21310   0.298   1.518   3.106
 2946SOL    HW121311   0.385   1.527   3.154
 2946SOL    HW221312   0.315   1.502   3.009
 2947SOL     OW21313   0.611   5.048   1.287
 2947SOL    HW121314   0.614   5.146   1.306
 2947SOL    HW221315   0.520   5.013   1.306
 2948SOL     OW21316   0.798   4.326   5.572
 2948SOL    HW121317   0.724   4.385   5.538
 2948SOL    HW221318   0.813   4.344   5.669
 2949SOL     OW21319   0.474   1.374   1.259
 2949SOL    HW121320   0.424   1.291   1.233
 2949SOL    HW221321   0.542   1.395   1.189
 2950SOL     OW21322   4.413   1.705   6.652
 2950SOL    HW121323   4.491   1.763   6.678
 2950SOL    HW221324   4.415   1.621   6.706
 2951SOL     OW21325   2.258   4.766   0.613
 2951SOL    HW121326   2.203   4.683   0.603
 2951SOL    HW221327   2.353   4.747   0.589
 2952SOL     OW21328   5.537   4.789   0.921
 2952SOL    HW121329   5.532   4.888   0.908
 2952SOL    HW221330   5.623   4.766   0.967
 2953SOL     OW21331   6.701   7.002   6.493
 2953SOL    HW121332   6.707   6.902   6.488
 2953SOL    HW221333   6.792   7.042   6.490
 2954SOL     OW21334   0.729   2.290   0.046
 2954SOL    HW121335   0.795   2.247   0.108
 2954SOL    HW221336   0.663   2.344   0.099
 2955SOL     OW21337   5.774   4.261   6.398
 2955SOL    HW121338   5.678   4.255   6.427
 2955SOL    HW221339   5.808   4.354   6.415
 2956SOL     OW21340   0.508   6.998   6.955
 2956SOL    HW121341   0.506   7.089   6.996
 2956SOL    HW221342   0.423   6.950   6.974
 2957SOL     OW21343   5.758   4.209   2.579
 2957SOL    HW121344   5.726   4.185   2.487
 2957SOL    HW221345   5.726   4.140   2.644
 2958SOL     OW21346   5.878   1.429   1.906
 2958SOL    HW121347   5.890   1.529   1.910
 2958SOL    HW221348   5.795   1.408   1.856
 2959SOL     OW21349   5.057   2.829   2.773
 2959SOL    HW121350   5.047   2.731   2.787
 2959SOL    HW221351   5.005   2.878   2.844
 2960SOL     OW21352   2.549   5.257   3.318
 2960SOL    HW121353   2.478   5.275   3.251
 2960SOL    HW221354   2.633   5.228   3.272
 2961SOL     OW21355   4.375   6.078   4.530
 2961SOL    HW121356   4.450   6.072   4.596
 2961SOL    HW221357   4.290   6.047   4.573
 2962SOL     OW21358   3.621   1.812   6.756
 2962SOL    HW121359   3.624   1.742   6.827
 2962SOL    HW221360   3.637   1.771   6.666
 2963SOL     OW21361   4.511   0.342   3.010
 2963SOL    HW121362   4.591   0.321   2.955
 2963SOL    HW221363   4.462   0.419   2.970
 2964SOL     OW21364   4.697   5.480   1.525
 2964SOL    HW121365   4.773   5.415   1.522
 2964SOL    HW221366   4.611   5.431   1.520
 2965SOL     OW21367   4.626   0.572   1.408
 2965SOL    HW121368   4.647   0.640   1.478
 2965SOL    HW221369   4.635   0.614   1.318
 2966SOL     OW21370   5.804   4.191   4.084
 2966SOL    HW121371   5.723   4.219   4.136
 2966SOL    HW221372   5.785   4.106   4.035
 2967SOL     OW21373   3.565   3.790   2.973
 2967SOL    HW121374   3.633   3.762   2.906
 2967SOL    HW221375   3.554   3.889   2.970
 2968SOL     OW21376   1.702   4.793   2.178
 2968SOL    HW121377   1.700   4.734   2.258
 2968SOL    HW221378   1.622   4.773   2.120
 2969SOL     OW21379   0.274   4.461   5.698
 2969SOL    HW121380   0.192   4.495   5.651
 2969SOL    HW221381   0.297   4.370   5.663
 2970SOL     OW21382   2.339   0.529   6.844
 2970SOL    HW121383   2.319   0.464   6.771
 2970SOL    HW221384   2.323   0.486   6.932
 2971SOL     OW21385   3.135   0.283   5.300
 2971SOL    HW121386   3.147   0.203   5.359
 2971SOL    HW221387   3.175   0.364   5.345
 2972SOL     OW21388   5.904   6.870   0.136
 2972SOL    HW121389   5.870   6.803   0.070
 2972SOL    HW221390   5.958   6.824   0.206
 2973SOL     OW21391   6.429   0.188   6.207
 2973SOL    HW121392   6.366   0.129   6.156
 2973SOL    HW221393   6.446   0.148   6.297
 2974SOL     OW21394   2.495   4.608   3.962
 2974SOL    HW121395   2.581   4.559   3.948
 2974SOL    HW221396   2.435   4.592   3.884
 2975SOL     OW21397   1.555   6.866   6.776
 2975SOL    HW121398   1.614   6.805   6.828
 2975SOL    HW221399   1.541   6.951   6.827
 2976SOL     OW21400   0.572   5.197   0.585
 2976SOL    HW121401   0.659   5.184   0.538
 2976SOL    HW221402   0.497   5.194   0.518
 2977SOL     OW21403   1.273   3.846   5.554
 2977SOL    HW121404   1.299   3.937   5.585
 2977SOL    HW221405   1.203   3.853   5.482
 2978SOL     OW21406   3.946   4.910   7.216
 2978SOL    HW121407   3.897   4.830   7.252
 2978SOL    HW221408   4.006   4.881   7.142
 2979SOL     OW21409   3.630   1.463   0.225
 2979SOL    HW121410   3.635   1.539   0.161
 2979SOL    HW221411   3.572   1.487   0.302
 2980SOL     OW21412   3.875   0.941   1.183
 2980SOL    HW121413   3.786   0.898   1.175
 2980SOL    HW221414   3.946   0.878   1.153
 2981SOL     OW21415   0.373   4.517   1.818
 2981SOL    HW121416   0.470   4.492   1.816
 2981SOL    HW221417   0.329   4.487   1.733
 2982SOL     OW21418   5.301   1.070   3.581
 2982SOL    HW121419   5.302   0.978   3.621
 2982SOL    HW221420   5.216   1.084   3.531
 2983SOL     OW21421   4.232   0.230   1.465
 2983SOL    HW121422   4.203   0.194   1.554
 2983SOL    HW221423   4.292   0.309   1.479
 2984SOL     OW21424   3.144   3.385   7.200
 2984SOL    HW121425   3.243   3.388   7.187
 2984SOL    HW221426   3.122   3.405   7.295
 2985SOL     OW21427   5.978   2.120   1.711
 2985SOL    HW121428   5.932   2.209   1.724
 2985SOL    HW221429   6.035   2.124   1.629
 2986SOL     OW21430   5.428   0.473   3.652
 2986SOL    HW121431   5.379   0.555   3.682
 2986SOL    HW221432   5.431   0.470   3.552
 2987SOL     OW21433   5.970   6.409   6.295
 2987SOL    HW121434   6.042   6.361   6.244
 2987SOL    HW221435   5.882   6.397   6.248
 2988SOL     OW21436   0.708   3.885   7.214
 2988SOL    HW121437   0.661   3.803   7.180
 2988SOL    HW221438   0.641   3.953   7.242
 2989SOL     OW21439   7.021   2.355   0.634
 2989SOL    HW121440   7.085   2.395   0.569
 2989SOL    HW221441   6.927   2.371   0.603
 2990SOL     OW21442   4.144   4.327   0.658
 2990SOL    HW121443   4.125   4.271   0.739
 2990SOL    HW221444   4.089   4.294   0.581
 2991SOL     OW21445   5.259   3.115   4.006
 2991SOL    HW121446   5.192   3.042   3.991
 2991SOL    HW221447   5.347   3.088   3.968
 2992SOL     OW21448   3.236   2.393   1.542
 2992SOL    HW121449   3.188   2.338   1.611
 2992SOL    HW221450   3.186   2.387   1.456
 2993SOL     OW21451   4.497   5.207   7.025
 2993SOL    HW121452   4.584   5.251   7.002
 2993SOL    HW221453   4.437   5.273   7.070
 2994SOL     OW21454   4.498   4.814   6.648
 2994SOL    HW121455   4.495   4.810   6.747
 2994SOL    HW221456   4.578   4.867   6.619
 2995SOL     OW21457   6.534   6.500   4.142
 2995SOL    HW121458   6.507   6.410   4.175
 2995SOL    HW221459   6.543   6.562   4.220
 2996SOL     OW21460   2.951   5.548   0.023
 2996SOL    HW121461   3.032   5.600   8.997
 2996SOL    HW221462   2.960   5.454   8.989
 2997SOL     OW21463   0.503   1.848   3.612
 2997SOL    HW121464   0.600   1.827   3.625
 2997SOL    HW221465   0.464   1.786   3.543
 2998SOL     OW21466   2.090   3.524   4.988
 2998SOL    HW121467   2.148   3.527   5.070
 2998SOL    HW221468   2.082   3.617   4.950
 2999SOL     OW21469   3.595   3.627   6.110
 2999SOL    HW121470   3.549   3.551   6.157
 2999SOL    HW221471   3.654   3.591   6.038
 3000SOL     OW21472   5.972   4.875   4.130
 3000SOL    HW121473   6.058   4.927   4.139
 3000SOL    HW221474   5.988   4.780   4.158
 3001SOL     OW21475   0.194   3.548   0.682
 3001SOL    HW121476   0.126   3.586   0.744
 3001SOL    HW221477   0.256   3.488   0.732
 3002SOL     OW21478   0.355   2.398   0.017
 3002SOL    HW121479   0.351   2.338   8.937
 3002SOL    HW221480   0.333   2.492   8.989
 3003SOL     OW21481   2.782   3.251   2.092
 3003SOL    HW121482   2.847   3.192   2.045
 3003SOL    HW221483   2.700   3.198   2.116
 3004SOL     OW21484   0.492   7.244   7.074
 3004SOL    HW121485   0.537   7.195   7.148
 3004SOL    HW221486   0.558   7.301   7.027
 3005SOL     OW21487   0.586   4.481   5.500
 3005SOL    HW121488   0.541   4.555   5.550
 3005SOL    HW221489   0.521   4.438   5.438
 3006SOL     OW21490   5.061   2.912   4.017
 3006SOL    HW121491   4.984   2.894   3.955
 3006SOL    HW221492   5.026   2.924   4.110
 3007SOL     OW21493   6.069   2.245   0.132
 3007SOL    HW121494   6.071   2.345   0.119
 3007SOL    HW221495   6.160   2.208   0.111
 3008SOL     OW21496   5.336   2.294   1.517
 3008SOL    HW121497   5.415   2.258   1.467
 3008SOL    HW221498   5.362   2.316   1.611
 3009SOL     OW21499   3.743   0.624   6.030
 3009SOL    HW121500   3.758   0.541   5.976
 3009SOL    HW221501   3.666   0.674   5.992
 3010SOL     OW21502   2.053   1.283   1.398
 3010SOL    HW121503   2.008   1.366   1.366
 3010SOL    HW221504   1.994   1.204   1.380
 3011SOL     OW21505   3.841   5.712   5.289
 3011SOL    HW121506   3.907   5.659   5.236
 3011SOL    HW221507   3.885   5.746   5.372
 3012SOL     OW21508   2.238   4.246   4.514
 3012SOL    HW121509   2.161   4.224   4.574
 3012SOL    HW221510   2.248   4.346   4.506
 3013SOL     OW21511   0.334   6.251   6.268
 3013SOL    HW121512   0.380   6.245   6.180
 3013SOL    HW221513   0.316   6.347   6.291
 3014SOL     OW21514   2.235   6.848   6.614
 3014SOL    HW121515   2.332   6.825   6.607
 3014SOL    HW221516   2.197   6.865   6.523
 3015SOL     OW21517   4.877   5.851   3.760
 3015SOL    HW121518   4.886   5.830   3.857
 3015SOL    HW221519   4.830   5.939   3.749
 3016SOL     OW21520   1.243   6.084   5.120
 3016SOL    HW121521   1.262   6.050   5.027
 3016SOL    HW221522   1.145   6.076   5.138
 3017SOL     OW21523   3.165   1.522   6.127
 3017SOL    HW121524   3.102   1.509   6.050
 3017SOL    HW221525   3.154   1.615   6.164
 3018SOL     OW21526   2.060   4.575   4.614
 3018SOL    HW121527   2.065   4.651   4.679
 3018SOL    HW221528   2.150   4.560   4.572
 3019SOL     OW21529   3.045   1.373   7.096
 3019SOL    HW121530   2.969   1.341   7.038
 3019SOL    HW221531   3.131   1.338   7.059
 3020SOL     OW21532   4.847   7.162   3.293
 3020SOL    HW121533   4.926   7.153   3.232
 3020SOL    HW221534   4.767   7.189   3.239
 3021SOL     OW21535   2.474   2.235   3.158
 3021SOL    HW121536   2.502   2.330   3.173
 3021SOL    HW221537   2.393   2.233   3.100
 3022SOL     OW21538   1.958   3.404   4.598
 3022SOL    HW121539   1.997   3.497   4.591
 3022SOL    HW221540   1.934   3.372   4.507
 3023SOL     OW21541   4.280   4.013   0.695
 3023SOL    HW121542   4.356   4.063   0.654
 3023SOL    HW221543   4.218   3.982   0.623
 3024SOL     OW21544   4.637   5.602   4.922
 3024SOL    HW121545   4.700   5.524   4.913
 3024SOL    HW221546   4.574   5.586   4.998
 3025SOL     OW21547   3.958   1.292   6.110
 3025SOL    HW121548   3.907   1.376   6.096
 3025SOL    HW221549   4.056   1.312   6.113
 3026SOL     OW21550   0.131   5.975   6.638
 3026SOL    HW121551   0.092   6.005   6.725
 3026SOL    HW221552   0.146   6.054   6.579
 3027SOL     OW21553   3.683   5.802   0.286
 3027SOL    HW121554   3.782   5.800   0.298
 3027SOL    HW221555   3.643   5.720   0.327
 3028SOL     OW21556   4.142   6.718   6.979
 3028SOL    HW121557   4.203   6.732   6.902
 3028SOL    HW221558   4.097   6.630   6.970
 3029SOL     OW21559   5.811   1.128   0.904
 3029SOL    HW121560   5.830   1.034   0.876
 3029SOL    HW221561   5.897   1.178   0.914
 3030SOL     OW21562   1.497   2.075   1.566
 3030SOL    HW121563   1.574   2.106   1.622
 3030SOL    HW221564   1.428   2.147   1.561
 3031SOL     OW21565   0.741   3.962   6.751
 3031SOL    HW121566   0.829   3.938   6.794
 3031SOL    HW221567   0.750   3.954   6.652
 3032SOL     OW21568   4.553   3.168   2.778
 3032SOL    HW121569   4.471   3.208   2.738
 3032SOL    HW221570   4.561   3.196   2.874
 3033SOL     OW21571   6.275   0.083   3.581
 3033SOL    HW121572   6.246   0.088   3.677
 3033SOL    HW221573   6.220   0.013   3.534
 3034SOL     OW21574   5.817   5.228   4.646
 3034SOL    HW121575   5.767   5.295   4.701
 3034SOL    HW221576   5.770   5.216   4.558
 3035SOL     OW21577   0.881   1.701   3.369
 3035SOL    HW121578   0.898   1.612   3.326
 3035SOL    HW221579   0.806   1.747   3.322
 3036SOL     OW21580   0.360   1.696   3.803
 3036SOL    HW121581   0.333   1.616   3.749
 3036SOL    HW221582   0.413   1.758   3.745
 3037SOL     OW21583   2.882   5.549   6.641
 3037SOL    HW121584   2.853   5.477   6.704
 3037SOL    HW221585   2.978   5.534   6.616
 3038SOL     OW21586   2.383   7.049   6.290
 3038SOL    HW121587   2.356   7.131   6.242
 3038SOL    HW221588   2.453   7.000   6.237
 3039SOL     OW21589   0.685   0.432   3.311
 3039SOL    HW121590   0.702   0.527   3.335
 3039SOL    HW221591   0.735   0.372   3.374
 3040SOL     OW21592   6.241   0.469   7.163
 3040SOL    HW121593   6.310   0.492   7.232
 3040SOL    HW221594   6.180   0.398   7.200
 3041SOL     OW21595   6.402   2.554   5.936
 3041SOL    HW121596   6.337   2.612   5.887
 3041SOL    HW221597   6.476   2.610   5.973
 3042SOL     OW21598   5.362   4.836   0.141
 3042SOL    HW121599   5.376   4.768   0.212
 3042SOL    HW221600   5.396   4.801   0.054
 3043SOL     OW21601   2.778   6.797   7.236
 3043SOL    HW121602   2.680   6.797   7.217
 3043SOL    HW221603   2.820   6.716   7.196
 3044SOL     OW21604   2.038   2.104   5.409
 3044SOL    HW121605   1.942   2.132   5.407
 3044SOL    HW221606   2.043   2.005   5.421
 3045SOL     OW21607   2.927   6.579   7.139
 3045SOL    HW121608   2.994   6.604   7.209
 3045SOL    HW221609   2.965   6.508   7.080
 3046SOL     OW21610   0.143   1.333   3.461
 3046SOL    HW121611   0.121   1.368   3.369
 3046SOL    HW221612   0.067   1.277   3.493
 3047SOL     OW21613   2.927   2.520   0.772
 3047SOL    HW121614   2.885   2.578   0.702
 3047SOL    HW221615   3.012   2.562   0.803
 3048SOL     OW21616   5.856   2.561   2.312
 3048SOL    HW121617   5.850   2.661   2.306
 3048SOL    HW221618   5.909   2.536   2.393
 3049SOL     OW21619   4.236   3.903   2.110
 3049SOL    HW121620   4.188   3.830   2.062
 3049SOL    HW221621   4.204   3.992   2.077
 3050SOL     OW21622   1.466   2.682   5.226
 3050SOL    HW121623   1.428   2.757   5.173
 3050SOL    HW221624   1.550   2.712   5.271
 3051SOL     OW21625   4.896   5.763   6.222
 3051SOL    HW121626   4.980   5.800   6.261
 3051SOL    HW221627   4.855   5.830   6.159
 3052SOL     OW21628   5.638   4.242   3.377
 3052SOL    HW121629   5.595   4.307   3.314
 3052SOL    HW221630   5.703   4.290   3.436
 3053SOL     OW21631   0.990   0.837   6.511
 3053SOL    HW121632   0.929   0.791   6.576
 3053SOL    HW221633   0.989   0.787   6.424
 3054SOL     OW21634   3.569   4.924   3.172
 3054SOL    HW121635   3.579   4.958   3.265
 3054SOL    HW221636   3.509   4.985   3.120
 3055SOL     OW21637   1.908   5.020   4.554
 3055SOL    HW121638   1.840   4.969   4.606
 3055SOL    HW221639   1.985   4.961   4.531
 3056SOL     OW21640   0.846   8.993   6.995
 3056SOL    HW121641   0.832   0.037   6.906
 3056SOL    HW221642   0.942   0.003   7.023
 3057SOL     OW21643   5.098   1.819   1.335
 3057SOL    HW121644   5.106   1.788   1.430
 3057SOL    HW221645   5.077   1.917   1.334
 3058SOL     OW21646   5.522   0.537   2.738
 3058SOL    HW121647   5.541   0.633   2.721
 3058SOL    HW221648   5.462   0.501   2.667
 3059SOL     OW21649   4.054   3.938   7.399
 3059SOL    HW121650   4.127   3.989   7.353
 3059SOL    HW221651   4.094   3.859   7.447
 3060SOL     OW21652   6.325   4.217   0.638
 3060SOL    HW121653   6.383   4.140   0.665
 3060SOL    HW221654   6.337   4.292   0.703
 3061SOL     OW21655   2.086   3.581   7.330
 3061SOL    HW121656   2.106   3.484   7.320
 3061SOL    HW221657   2.134   3.632   7.259
 3062SOL     OW21658   0.610   0.204   0.726
 3062SOL    HW121659   0.599   0.279   0.660
 3062SOL    HW221660   0.524   0.155   0.736
 3063SOL     OW21661   5.293   7.176   0.466
 3063SOL    HW121662   5.387   7.157   0.438
 3063SOL    HW221663   5.260   7.258   0.421
 3064SOL     OW21664   2.519   3.529   4.544
 3064SOL    HW121665   2.585   3.470   4.499
 3064SOL    HW221666   2.553   3.556   4.634
 3065SOL     OW21667   6.554   4.076   0.994
 3065SOL    HW121668   6.632   4.132   0.967
 3065SOL    HW221669   6.587   4.001   1.053
 3066SOL     OW21670   1.064   0.894   0.750
 3066SOL    HW121671   1.017   0.976   0.716
 3066SOL    HW221672   0.999   0.819   0.757
 3067SOL     OW21673   2.128   4.707   7.018
 3067SOL    HW121674   2.097   4.800   6.996
 3067SOL    HW221675   2.224   4.710   7.047
 3068SOL     OW21676   6.652   3.418   4.762
 3068SOL    HW121677   6.696   3.502   4.793
 3068SOL    HW221678   6.600   3.436   4.678
 3069SOL     OW21679   1.533   2.494   2.419
 3069SOL    HW121680   1.601   2.487   2.346
 3069SOL    HW221681   1.531   2.587   2.455
 3070SOL     OW21682   0.970   3.718   2.130
 3070SOL    HW121683   1.041   3.659   2.168
 3070SOL    HW221684   0.943   3.786   2.198
 3071SOL     OW21685   5.960   3.197   1.198
 3071SOL    HW121686   5.871   3.241   1.198
 3071SOL    HW221687   6.002   3.207   1.289
 3072SOL     OW21688   4.726   0.745   5.289
 3072SOL    HW121689   4.718   0.646   5.274
 3072SOL    HW221690   4.806   0.763   5.347
 3073SOL     OW21691   4.405   0.444   2.020
 3073SOL    HW121692   4.350   0.490   2.089
 3073SOL    HW221693   4.496   0.426   2.057
 3074SOL     OW21694   3.519   4.067   2.981
 3074SOL    HW121695   3.423   4.065   3.009
 3074SOL    HW221696   3.574   4.111   3.052
 3075SOL     OW21697   6.766   0.543   6.224
 3075SOL    HW121698   6.729   0.619   6.171
 3075SOL    HW221699   6.693   0.504   6.281
 3076SOL     OW21700   6.630   6.818   0.970
 3076SOL    HW121701   6.562   6.791   0.902
 3076SOL    HW221702   6.721   6.791   0.938
 3077SOL     OW21703   6.145   0.171   4.491
 3077SOL    HW121704   6.112   0.147   4.400
 3077SOL    HW221705   6.228   0.226   4.482
 3078SOL     OW21706   6.702   4.900   4.599
 3078SOL    HW121707   6.780   4.908   4.660
 3078SOL    HW221708   6.697   4.806   4.564
 3079SOL     OW21709   7.309   6.009   7.153
 3079SOL    HW121710   7.224   5.976   7.193
 3079SOL    HW221711   7.291   6.053   7.065
 3080SOL     OW21712   3.072   5.120   6.878
 3080SOL    HW121713   3.102   5.124   6.974
 3080SOL    HW221714   2.973   5.111   6.875
 3081SOL     OW21715   5.028   5.369   0.737
 3081SOL    HW121716   5.097   5.407   0.676
 3081SOL    HW221717   4.983   5.291   0.693
 3082SOL     OW21718   6.240   6.354   1.720
 3082SOL    HW121719   6.201   6.300   1.646
 3082SOL    HW221720   6.249   6.449   1.691
 3083SOL     OW21721   5.101   0.443   2.133
 3083SOL    HW121722   5.077   0.442   2.035
 3083SOL    HW221723   5.083   0.352   2.172
 3084SOL     OW21724   0.064   1.404   3.201
 3084SOL    HW121725   8.992   1.445   3.145
 3084SOL    HW221726   0.154   1.434   3.167
 3085SOL     OW21727   2.637   1.089   3.227
 3085SOL    HW121728   2.653   1.074   3.325
 3085SOL    HW221729   2.638   1.002   3.180
 3086SOL     OW21730   6.181   0.733   7.109
 3086SOL    HW121731   6.202   0.636   7.121
 3086SOL    HW221732   6.251   0.776   7.053
 3087SOL     OW21733   6.149   0.091   3.229
 3087SOL    HW121734   6.162   0.190   3.232
 3087SOL    HW221735   6.071   0.070   3.170
 3088SOL     OW21736   6.657   2.376   6.218
 3088SOL    HW121737   6.693   2.315   6.148
 3088SOL    HW221738   6.560   2.392   6.201
 3089SOL     OW21739   5.058   6.447   3.912
 3089SOL    HW121740   5.054   6.525   3.850
 3089SOL    HW221741   5.144   6.450   3.964
 3090SOL     OW21742   6.100   2.512   3.652
 3090SOL    HW121743   6.148   2.431   3.685
 3090SOL    HW221744   6.024   2.533   3.713
 3091SOL     OW21745   3.578   4.036   4.650
 3091SOL    HW121746   3.492   3.987   4.664
 3091SOL    HW221747   3.655   3.976   4.669
 3092SOL     OW21748   4.260   1.630   3.737
 3092SOL    HW121749   4.259   1.687   3.655
 3092SOL    HW221750   4.333   1.662   3.798
 3093SOL     OW21751   5.214   6.031   7.310
 3093SOL    HW121752   5.225   6.002   7.405
 3093SOL    HW221753   5.174   6.123   7.308
 3094SOL     OW21754   3.395   2.475   5.718
 3094SOL    HW121755   3.475   2.509   5.669
 3094SOL    HW221756   3.409   2.379   5.741
 3095SOL     OW21757   0.818   1.851   2.998
 3095SOL    HW121758   0.859   1.942   3.001
 3095SOL    HW221759   0.760   1.843   2.917
 3096SOL     OW21760   3.824   1.222   0.545
 3096SOL    HW121761   3.736   1.267   0.560
 3096SOL    HW221762   3.818   1.164   0.464
 3097SOL     OW21763   5.326   2.806   5.111
 3097SOL    HW121764   5.250   2.769   5.165
 3097SOL    HW221765   5.413   2.776   5.150
 3098SOL     OW21766   3.636   4.579   5.495
 3098SOL    HW121767   3.616   4.495   5.446
 3098SOL    HW221768   3.552   4.615   5.536
 3099SOL     OW21769   2.978   4.325   2.209
 3099SOL    HW121770   3.072   4.320   2.243
 3099SOL    HW221771   2.917   4.342   2.286
 3100SOL     OW21772   6.605   2.764   1.159
 3100SOL    HW121773   6.617   2.676   1.112
 3100SOL    HW221774   6.666   2.768   1.238
 3101SOL     OW21775   0.902   2.055   1.850
 3101SOL    HW121776   0.986   2.009   1.820
 3101SOL    HW221777   0.865   2.109   1.775
 3102SOL     OW21778   1.071   2.324   2.659
 3102SOL    HW121779   1.089   2.237   2.615
 3102SOL    HW221780   0.993   2.369   2.615
 3103SOL     OW21781   3.613   6.989   0.460
 3103SOL    HW121782   3.619   6.975   0.361
 3103SOL    HW221783   3.654   6.911   0.507
 3104SOL     OW21784   7.297   6.548   6.735
 3104SOL    HW121785   7.239   6.576   6.813
 3104SOL    HW221786   7.299   6.622   6.668
 3105SOL     OW21787   5.292   0.834   0.061
 3105SOL    HW121788   5.257   0.923   0.031
 3105SOL    HW221789   5.254   0.762   0.003
 3106SOL     OW21790   6.599   1.412   0.856
 3106SOL    HW121791   6.512   1.410   0.808
 3106SOL    HW221792   6.598   1.484   0.926
 3107SOL     OW21793   6.381   0.454   4.203
 3107SOL    HW121794   6.305   0.511   4.235
 3107SOL    HW221795   6.455   0.513   4.171
 3108SOL     OW21796   4.675   3.901   6.467
 3108SOL    HW121797   4.719   3.885   6.379
 3108SOL    HW221798   4.671   3.816   6.519
 3109SOL     OW21799   3.318   5.909   6.741
 3109SOL    HW121800   3.269   5.935   6.823
 3109SOL    HW221801   3.410   5.876   6.765
 3110SOL     OW21802   4.035   7.210   1.411
 3110SOL    HW121803   4.048   7.286   1.348
 3110SOL    HW221804   4.005   7.129   1.359
 3111SOL     OW21805   0.893   1.530   0.590
 3111SOL    HW121806   0.879   1.526   0.689
 3111SOL    HW221807   0.956   1.458   0.563
 3112SOL     OW21808   3.838   4.730   0.623
 3112SOL    HW121809   3.763   4.665   0.609
 3112SOL    HW221810   3.918   4.683   0.660
 3113SOL     OW21811   1.275   2.144   2.345
 3113SOL    HW121812   1.225   2.129   2.430
 3113SOL    HW221813   1.268   2.062   2.287
 3114SOL     OW21814   7.177   4.424   3.947
 3114SOL    HW121815   7.257   4.398   3.892
 3114SOL    HW221816   7.099   4.440   3.886
 3115SOL     OW21817   0.055   5.486   3.420
 3115SOL    HW121818   8.957   5.499   3.409
 3115SOL    HW221819   0.074   5.390   3.442
 3116SOL     OW21820   4.121   0.261   6.321
 3116SOL    HW121821   4.103   0.319   6.242
 3116SOL    HW221822   4.042   0.202   6.338
 3117SOL     OW21823   1.476   5.153   5.486
 3117SOL    HW121824   1.512   5.155   5.579
 3117SOL    HW221825   1.529   5.217   5.429
 3118SOL     OW21826   3.205   1.479   1.356
 3118SOL    HW121827   3.227   1.565   1.401
 3118SOL    HW221828   3.286   1.420   1.354
 3119SOL     OW21829   2.846   1.828   2.312
 3119SOL    HW121830   2.869   1.746   2.365
 3119SOL    HW221831   2.837   1.906   2.374
 3120SOL     OW21832   2.816   2.804   3.335
 3120SOL    HW121833   2.873   2.766   3.262
 3120SOL    HW221834   2.796   2.733   3.402
 3121SOL     OW21835   6.176   5.814   2.661
 3121SOL    HW121836   6.199   5.762   2.578
 3121SOL    HW221837   6.108   5.764   2.714
 3122SOL     OW21838   3.351   3.526   5.560
 3122SOL    HW121839   3.354   3.440   5.509
 3122SOL    HW221840   3.352   3.507   5.658
 3123SOL     OW21841   2.018   1.349   2.953
 3123SOL    HW121842   2.008   1.373   2.856
 3123SOL    HW221843   2.102   1.388   2.988
 3124SOL     OW21844   6.260   0.425   1.875
 3124SOL    HW121845   6.195   0.485   1.827
 3124SOL    HW221846   6.353   0.454   1.855
 3125SOL     OW21847   0.333   4.664   6.030
 3125SOL    HW121848   0.259   4.631   6.090
 3125SOL    HW221849   0.297   4.734   5.968
 3126SOL     OW21850   3.806   7.295   3.613
 3126SOL    HW121851   3.769   7.206   3.587
 3126SOL    HW221852   3.859   7.333   3.538
 3127SOL     OW21853   6.236   4.849   1.246
 3127SOL    HW121854   6.237   4.863   1.345
 3127SOL    HW221855   6.155   4.893   1.207
 3128SOL     OW21856   2.283   3.182   3.584
 3128SOL    HW121857   2.366   3.230   3.558
 3128SOL    HW221858   2.219   3.247   3.625
 3129SOL     OW21859   5.416   0.832   0.870
 3129SOL    HW121860   5.500   0.843   0.923
 3129SOL    HW221861   5.399   0.915   0.817
 3130SOL     OW21862   3.893   3.344   1.325
 3130SOL    HW121863   3.815   3.299   1.367
 3130SOL    HW221864   3.890   3.442   1.343
 3131SOL     OW21865   5.859   5.207   6.782
 3131SOL    HW121866   5.814   5.295   6.766
 3131SOL    HW221867   5.955   5.222   6.807
 3132SOL     OW21868   5.804   5.504   7.241
 3132SOL    HW121869   5.755   5.571   7.186
 3132SOL    HW221870   5.860   5.447   7.181
 3133SOL     OW21871   0.529   5.107   4.277
 3133SOL    HW121872   0.445   5.139   4.320
 3133SOL    HW221873   0.508   5.035   4.212
 3134SOL     OW21874   7.065   1.261   2.110
 3134SOL    HW121875   7.140   1.236   2.171
 3134SOL    HW221876   6.978   1.240   2.154
 3135SOL     OW21877   3.797   0.392   8.990
 3135SOL    HW121878   3.702   0.423   8.982
 3135SOL    HW221879   3.853   0.436   8.919
 3136SOL     OW21880   6.901   3.861   1.024
 3136SOL    HW121881   6.812   3.868   1.068
 3136SOL    HW221882   6.930   3.952   0.994
 3137SOL     OW21883   4.234   1.327   6.119
 3137SOL    HW121884   4.248   1.311   6.217
 3137SOL    HW221885   4.300   1.395   6.087
 3138SOL     OW21886   3.453   6.073   1.884
 3138SOL    HW121887   3.394   6.004   1.926
 3138SOL    HW221888   3.522   6.103   1.950
 3139SOL     OW21889   3.537   0.587   1.846
 3139SOL    HW121890   3.511   0.548   1.757
 3139SOL    HW221891   3.493   0.676   1.858
 3140SOL     OW21892   2.986   4.386   3.947
 3140SOL    HW121893   3.017   4.380   3.852
 3140SOL    HW221894   2.892   4.418   3.949
 3141SOL     OW21895   5.938   2.269   2.121
 3141SOL    HW121896   5.993   2.352   2.110
 3141SOL    HW221897   5.841   2.291   2.115
 3142SOL     OW21898   4.605   2.760   5.679
 3142SOL    HW121899   4.585   2.674   5.727
 3142SOL    HW221900   4.620   2.742   5.582
 3143SOL     OW21901   3.268   6.622   6.352
 3143SOL    HW121902   3.352   6.575   6.326
 3143SOL    HW221903   3.189   6.564   6.331
 3144SOL     OW21904   7.091   3.315   2.648
 3144SOL    HW121905   7.154   3.300   2.724
 3144SOL    HW221906   7.080   3.231   2.596
 3145SOL     OW21907   3.468   4.435   3.413
 3145SOL    HW121908   3.525   4.505   3.457
 3145SOL    HW221909   3.503   4.344   3.438
 3146SOL     OW21910   4.957   1.080   4.057
 3146SOL    HW121911   4.994   1.107   3.968
 3146SOL    HW221912   4.858   1.089   4.056
 3147SOL     OW21913   0.681   5.167   2.104
 3147SOL    HW121914   0.593   5.123   2.121
 3147SOL    HW221915   0.719   5.133   2.018
 3148SOL     OW21916   0.925   6.246   5.686
 3148SOL    HW121917   0.993   6.173   5.686
 3148SOL    HW221918   0.947   6.312   5.614
 3149SOL     OW21919   2.477   1.455   7.340
 3149SOL    HW121920   2.496   1.490   7.432
 3149SOL    HW221921   2.391   1.406   7.340
 3150SOL     OW21922   1.263   1.979   3.822
 3150SOL    HW121923   1.202   2.057   3.806
 3150SOL    HW221924   1.354   2.000   3.785
 3151SOL     OW21925   0.732   3.849   0.493
 3151SOL    HW121926   0.827   3.867   0.469
 3151SOL    HW221927   0.691   3.930   0.535
 3152SOL     OW21928   4.068   5.729   6.138
 3152SOL    HW121929   4.138   5.675   6.186
 3152SOL    HW221930   4.015   5.668   6.079
 3153SOL     OW21931   4.380   1.115   5.718
 3153SOL    HW121932   4.307   1.122   5.785
 3153SOL    HW221933   4.422   1.205   5.705
 3154SOL     OW21934   0.820   3.828   3.361
 3154SOL    HW121935   0.920   3.825   3.365
 3154SOL    HW221936   0.788   3.921   3.377
 3155SOL     OW21937   4.435   1.799   4.194
 3155SOL    HW121938   4.521   1.765   4.156
 3155SOL    HW221939   4.401   1.875   4.138
 3156SOL     OW21940   4.359   2.816   0.728
 3156SOL    HW121941   4.408   2.892   0.770
 3156SOL    HW221942   4.306   2.849   0.650
 3157SOL     OW21943   5.673   0.827   0.378
 3157SOL    HW121944   5.700   0.777   0.295
 3157SOL    HW221945   5.575   0.846   0.374
 3158SOL     OW21946   4.314   4.716   2.746
 3158SOL    HW121947   4.408   4.741   2.766
 3158SOL    HW221948   4.261   4.797   2.721
 3159SOL     OW21949   5.700   4.152   6.906
 3159SOL    HW121950   5.727   4.235   6.954
 3159SOL    HW221951   5.777   4.117   6.852
 3160SOL     OW21952   4.982   1.540   7.215
 3160SOL    HW121953   4.929   1.488   7.148
 3160SOL    HW221954   5.016   1.624   7.172
 3161SOL     OW21955   5.211   1.065   1.724
 3161SOL    HW121956   5.249   1.133   1.661
 3161SOL    HW221957   5.128   1.101   1.767
 3162SOL     OW21958   4.003   5.127   0.260
 3162SOL    HW121959   4.029   5.091   0.350
 3162SOL    HW221960   4.079   5.112   0.196
 3163SOL     OW21961   0.287   5.636   6.932
 3163SOL    HW121962   0.291   5.721   6.984
 3163SOL    HW221963   0.273   5.656   6.835
 3164SOL     OW21964   1.563   3.057   0.987
 3164SOL    HW121965   1.493   3.076   0.918
 3164SOL    HW221966   1.650   3.097   0.958
 3165SOL     OW21967   3.961   5.832   0.301
 3165SOL    HW121968   4.030   5.764   0.326
 3165SOL    HW221969   3.973   5.857   0.205
 3166SOL     OW21970   2.470   2.085   0.502
 3166SOL    HW121971   2.384   2.080   0.452
 3166SOL    HW221972   2.531   2.012   0.472
 3167SOL     OW21973   2.084   4.634   2.876
 3167SOL    HW121974   2.091   4.676   2.967
 3167SOL    HW221975   2.159   4.666   2.819
 3168SOL     OW21976   2.629   7.278   4.430
 3168SOL    HW121977   2.710   7.319   4.388
 3168SOL    HW221978   2.653   7.237   4.518
 3169SOL     OW21979   2.557   4.388   5.384
 3169SOL    HW121980   2.643   4.337   5.383
 3169SOL    HW221981   2.526   4.399   5.479
 3170SOL     OW21982   4.364   2.486   3.577
 3170SOL    HW121983   4.321   2.414   3.632
 3170SOL    HW221984   4.399   2.447   3.493
 3171SOL     OW21985   7.300   2.710   0.953
 3171SOL    HW121986   7.244   2.640   0.997
 3171SOL    HW221987   7.396   2.697   0.979
 3172SOL     OW21988   5.603   2.648   2.020
 3172SOL    HW121989   5.512   2.684   2.037
 3172SOL    HW221990   5.666   2.723   2.000
 3173SOL     OW21991   6.338   7.239   6.333
 3173SOL    HW121992   6.384   7.181   6.400
 3173SOL    HW221993   6.288   7.182   6.269
 3174SOL     OW21994   1.934   4.450   5.022
 3174SOL    HW121995   1.993   4.528   5.040
 3174SOL    HW221996   1.856   4.479   4.966
 3175SOL     OW21997   5.437   4.415   5.947
 3175SOL    HW121998   5.500   4.408   6.024
 3175SOL    HW221999   5.481   4.380   5.864
 3176SOL     OW22000   5.938   7.061   2.651
 3176SOL    HW122001   6.023   7.042   2.601
 3176SOL    HW222002   5.959   7.089   2.744
 3177SOL     OW22003   5.292   7.224   4.145
 3177SOL    HW122004   5.354   7.146   4.149
 3177SOL    HW222005   5.343   7.308   4.162
 3178SOL     OW22006   6.307   4.679   7.034
 3178SOL    HW122007   6.389   4.622   7.041
 3178SOL    HW222008   6.255   4.673   7.119
 3179SOL     OW22009   4.549   5.592   2.155
 3179SOL    HW122010   4.607   5.612   2.234
 3179SOL    HW222011   4.460   5.637   2.167
 3180SOL     OW22012   3.751   4.031   2.008
 3180SOL    HW122013   3.817   4.035   2.084
 3180SOL    HW222014   3.693   4.112   2.010
 3181SOL     OW22015   2.383   1.059   0.120
 3181SOL    HW122016   2.408   0.963   0.109
 3181SOL    HW222017   2.327   1.088   0.043
 3182SOL     OW22018   2.107   1.131   7.089
 3182SOL    HW122019   2.074   1.160   7.179
 3182SOL    HW222020   2.053   1.176   7.018
 3183SOL     OW22021   0.753   1.994   3.972
 3183SOL    HW122022   0.810   2.072   3.945
 3183SOL    HW222023   0.659   2.026   3.988
 3184SOL     OW22024   1.976   2.238   3.810
 3184SOL    HW122025   2.064   2.258   3.854
 3184SOL    HW222026   1.905   2.296   3.850
 3185SOL     OW22027   6.175   6.201   3.683
 3185SOL    HW122028   6.185   6.155   3.594
 3185SOL    HW222029   6.078   6.221   3.698
 3186SOL     OW22030   1.779   6.334   1.453
 3186SOL    HW122031   1.735   6.258   1.501
 3186SOL    HW222032   1.878   6.328   1.464
 3187SOL     OW22033   5.539   6.064   0.662
 3187SOL    HW122034   5.519   6.113   0.577
 3187SOL    HW222035   5.625   6.100   0.701
 3188SOL     OW22036   5.356   5.480   6.731
 3188SOL    HW122037   5.337   5.518   6.641
 3188SOL    HW222038   5.365   5.554   6.798
 3189SOL     OW22039   1.722   5.007   5.653
 3189SOL    HW122040   1.650   5.048   5.710
 3189SOL    HW222041   1.791   4.965   5.712
 3190SOL     OW22042   2.128   5.857   2.108
 3190SOL    HW122043   2.216   5.810   2.114
 3190SOL    HW222044   2.054   5.791   2.114
 3191SOL     OW22045   4.614   0.237   6.621
 3191SOL    HW122046   4.679   0.290   6.567
 3191SOL    HW222047   4.661   0.200   6.702
 3192SOL     OW22048   2.330   0.141   7.002
 3192SOL    HW122049   2.419   0.097   7.016
 3192SOL    HW222050   2.336   0.237   7.029
 3193SOL     OW22051   6.447   6.980   7.263
 3193SOL    HW122052   6.354   6.961   7.293
 3193SOL    HW222053   6.452   7.074   7.227
 3194SOL     OW22054   3.320   6.628   7.132
 3194SOL    HW122055   3.313   6.593   7.038
 3194SOL    HW222056   3.346   6.725   7.129
 3195SOL     OW22057   5.022   0.170   2.161
 3195SOL    HW122058   5.057   0.149   2.070
 3195SOL    HW222059   4.922   0.166   2.160
 3196SOL     OW22060   1.863   4.082   3.778
 3196SOL    HW122061   1.822   4.131   3.855
 3196SOL    HW222062   1.798   4.080   3.702
 3197SOL     OW22063   4.515   3.165   1.993
 3197SOL    HW122064   4.419   3.161   1.966
 3197SOL    HW222065   4.565   3.222   1.928
 3198SOL     OW22066   1.301   1.673   2.589
 3198SOL    HW122067   1.355   1.740   2.537
 3198SOL    HW222068   1.360   1.628   2.657
 3199SOL     OW22069   3.521   0.367   2.346
 3199SOL    HW122070   3.508   0.409   2.257
 3199SOL    HW222071   3.433   0.345   2.387
 3200SOL     OW22072   5.247   3.558   0.712
 3200SOL    HW122073   5.276   3.631   0.649
 3200SOL    HW222074   5.202   3.486   0.660
 3201SOL     OW22075   6.062   1.220   1.884
 3201SOL    HW122076   6.007   1.304   1.882
 3201SOL    HW222077   6.156   1.242   1.910
 3202SOL     OW22078   2.025   4.272   3.647
 3202SOL    HW122079   2.118   4.281   3.683
 3202SOL    HW222080   1.975   4.204   3.699
 3203SOL     OW22081   0.546   4.000   2.083
 3203SOL    HW122082   0.536   3.956   1.994
 3203SOL    HW222083   0.599   3.941   2.144
 3204SOL     OW22084   5.003   3.069   6.654
 3204SOL    HW122085   5.024   3.148   6.712
 3204SOL    HW222086   4.999   3.098   6.559
 3205SOL     OW22087   3.785   3.077   6.157
 3205SOL    HW122088   3.757   3.166   6.121
 3205SOL    HW222089   3.848   3.090   6.234
 3206SOL     OW22090   2.450   2.098   6.884
 3206SOL    HW122091   2.488   2.189   6.897
 3206SOL    HW222092   2.501   2.032   6.939
 3207SOL     OW22093   3.808   0.152   0.347
 3207SOL    HW122094   3.725   0.148   0.403
 3207SOL    HW222095   3.787   0.121   0.254
 3208SOL     OW22096   2.966   6.666   2.076
 3208SOL    HW122097   2.929   6.643   1.986
 3208SOL    HW222098   2.965   6.765   2.089
 3209SOL     OW22099   2.886   3.135   2.738
 3209SOL    HW122100   2.897   3.206   2.808
 3209SOL    HW222101   2.916   3.172   2.649
 3210SOL     OW22102   1.685   5.278   6.761
 3210SOL    HW122103   1.628   5.217   6.705
 3210SOL    HW222104   1.734   5.223   6.828
 3211SOL     OW22105   1.663   1.976   1.323
 3211SOL    HW122106   1.643   1.899   1.264
 3211SOL    HW222107   1.586   1.993   1.384
 3212SOL     OW22108   6.688   3.409   6.864
 3212SOL    HW122109   6.734   3.494   6.837
 3212SOL    HW222110   6.590   3.418   6.849
 3213SOL     OW22111   6.298   4.528   3.299
 3213SOL    HW122112   6.324   4.610   3.350
 3213SOL    HW222113   6.263   4.459   3.363
 3214SOL     OW22114   4.706   1.385   1.537
 3214SOL    HW122115   4.633   1.454   1.539
 3214SOL    HW222116   4.786   1.423   1.490
 3215SOL     OW22117   2.320   4.593   5.591
 3215SOL    HW122118   2.227   4.569   5.563
 3215SOL    HW222119   2.342   4.685   5.559
 3216SOL     OW22120   5.921   7.083   6.281
 3216SOL    HW122121   5.891   7.178   6.293
 3216SOL    HW222122   5.877   7.044   6.200
 3217SOL     OW22123   6.681   0.362   7.278
 3217SOL    HW122124   6.669   0.434   7.347
 3217SOL    HW222125   6.628   0.282   7.304
 3218SOL     OW22126   0.045   1.212   1.239
 3218SOL    HW122127   0.065   1.286   1.175
 3218SOL    HW222128   8.967   1.237   1.296
 3219SOL     OW22129   1.671   5.277   5.055
 3219SOL    HW122130   1.709   5.358   5.012
 3219SOL    HW222131   1.587   5.250   5.009
 3220SOL     OW22132   0.312   3.434   3.859
 3220SOL    HW122133   0.280   3.358   3.915
 3220SOL    HW222134   0.310   3.408   3.763
 3221SOL     OW22135   2.701   2.436   1.523
 3221SOL    HW122136   2.704   2.354   1.466
 3221SOL    HW222137   2.785   2.490   1.508
 3222SOL     OW22138   3.578   2.914   2.786
 3222SOL    HW122139   3.509   2.901   2.715
 3222SOL    HW222140   3.669   2.911   2.744
 3223SOL     OW22141   3.642   5.735   1.539
 3223SOL    HW122142   3.646   5.824   1.586
 3223SOL    HW222143   3.568   5.680   1.577
 3224SOL     OW22144   0.808   3.158   5.705
 3224SOL    HW122145   0.786   3.116   5.617
 3224SOL    HW222146   0.881   3.107   5.749
 3225SOL     OW22147   5.069   3.398   3.752
 3225SOL    HW122148   5.036   3.304   3.761
 3225SOL    HW222149   5.032   3.438   3.669
 3226SOL     OW22150   4.859   0.489   2.986
 3226SOL    HW122151   4.948   0.460   3.022
 3226SOL    HW222152   4.815   0.411   2.942
 3227SOL     OW22153   6.781   0.938   6.297
 3227SOL    HW122154   6.853   0.971   6.234
 3227SOL    HW222155   6.693   0.941   6.251
 3228SOL     OW22156   1.739   3.195   0.344
 3228SOL    HW122157   1.695   3.142   0.271
 3228SOL    HW222158   1.690   3.280   0.358
 3229SOL     OW22159   2.007   4.096   1.127
 3229SOL    HW122160   2.048   4.033   1.192
 3229SOL    HW222161   2.074   4.167   1.102
 3230SOL     OW22162   4.775   4.376   4.814
 3230SOL    HW122163   4.809   4.464   4.783
 3230SOL    HW222164   4.800   4.305   4.748
 3231SOL     OW22165   5.033   3.373   3.266
 3231SOL    HW122166   4.964   3.303   3.244
 3231SOL    HW222167   5.009   3.459   3.221
 3232SOL     OW22168   2.224   2.650   7.178
 3232SOL    HW122169   2.148   2.634   7.115
 3232SOL    HW222170   2.248   2.564   7.224
 3233SOL     OW22171   4.490   3.655   7.042
 3233SOL    HW122172   4.573   3.668   6.987
 3233SOL    HW222173   4.454   3.744   7.069
 3234SOL     OW22174   1.834   2.722   5.956
 3234SOL    HW122175   1.854   2.710   6.054
 3234SOL    HW222176   1.803   2.635   5.918
 3235SOL     OW22177   5.332   6.202   2.994
 3235SOL    HW122178   5.320   6.128   2.929
 3235SOL    HW222179   5.351   6.165   3.085
 3236SOL     OW22180   4.634   3.485   3.153
 3236SOL    HW122181   4.575   3.561   3.126
 3236SOL    HW222182   4.662   3.497   3.248
 3237SOL     OW22183   4.092   1.262   3.502
 3237SOL    HW122184   4.131   1.199   3.435
 3237SOL    HW222185   4.166   1.299   3.559
 3238SOL     OW22186   3.118   2.137   6.400
 3238SOL    HW122187   3.050   2.107   6.467
 3238SOL    HW222188   3.179   2.061   6.378
 3239SOL     OW22189   4.074   4.291   4.958
 3239SOL    HW122190   4.012   4.258   4.886
 3239SOL    HW222191   4.161   4.242   4.951
 3240SOL     OW22192   5.013   3.673   3.165
 3240SOL    HW122193   4.984   3.694   3.071
 3240SOL    HW222194   4.953   3.720   3.230
 3241SOL     OW22195   6.442   4.650   2.967
 3241SOL    HW122196   6.386   4.731   2.984
 3241SOL    HW222197   6.382   4.573   2.946
 3242SOL     OW22198   0.633   1.389   3.445
 3242SOL    HW122199   0.719   1.339   3.438
 3242SOL    HW222200   0.557   1.324   3.445
 3243SOL     OW22201   0.360   1.086   0.598
 3243SOL    HW122202   0.310   1.165   0.633
 3243SOL    HW222203   0.456   1.094   0.626
 3244SOL     OW22204   2.392   4.016   3.134
 3244SOL    HW122205   2.361   3.934   3.183
 3244SOL    HW222206   2.492   4.016   3.127
 3245SOL     OW22207   4.283   3.333   4.825
 3245SOL    HW122208   4.309   3.342   4.921
 3245SOL    HW222209   4.358   3.290   4.774
 3246SOL     OW22210   4.931   6.970   0.654
 3246SOL    HW122211   4.939   7.059   0.699
 3246SOL    HW222212   4.925   6.898   0.723
 3247SOL     OW22213   3.775   6.956   1.243
 3247SOL    HW122214   3.738   6.941   1.151
 3247SOL    HW222215   3.855   6.898   1.256
 3248SOL     OW22216   4.423   7.345   0.729
 3248SOL    HW122217   4.474   7.399   0.662
 3248SOL    HW222218   4.488   7.294   0.786
 3249SOL     OW22219   1.090   2.726   1.334
 3249SOL    HW122220   1.048   2.688   1.252
 3249SOL    HW222221   1.085   2.826   1.331
 3250SOL     OW22222   4.858   1.263   6.412
 3250SOL    HW122223   4.956   1.248   6.399
 3250SOL    HW222224   4.808   1.236   6.330
 3251SOL     OW22225   7.066   1.146   0.883
 3251SOL    HW122226   6.979   1.167   0.839
 3251SOL    HW222227   7.087   1.216   0.951
 3252SOL     OW22228   3.356   2.220   4.705
 3252SOL    HW122229   3.352   2.121   4.700
 3252SOL    HW222230   3.365   2.258   4.613
 3253SOL     OW22231   4.168   3.841   5.561
 3253SOL    HW122232   4.200   3.931   5.531
 3253SOL    HW222233   4.073   3.829   5.532
 3254SOL     OW22234   3.518   0.174   4.210
 3254SOL    HW122235   3.421   0.179   4.234
 3254SOL    HW222236   3.565   0.112   4.274
 3255SOL     OW22237   4.200   6.955   5.918
 3255SOL    HW122238   4.220   6.864   5.954
 3255SOL    HW222239   4.283   6.996   5.881
 3256SOL     OW22240   2.515   7.065   3.332
 3256SOL    HW122241   2.583   7.134   3.354
 3256SOL    HW222242   2.532   6.982   3.385
 3257SOL     OW22243   0.646   4.061   2.723
 3257SOL    HW122244   0.714   4.133   2.712
 3257SOL    HW222245   0.651   4.023   2.815
 3258SOL     OW22246   6.084   3.668   7.021
 3258SOL    HW122247   6.015   3.614   7.069
 3258SOL    HW222248   6.072   3.656   6.922
 3259SOL     OW22249   4.771   4.152   0.278
 3259SOL    HW122250   4.729   4.166   0.367
 3259SOL    HW222251   4.777   4.238   0.229
 3260SOL     OW22252   2.753   4.836   5.701
 3260SOL    HW122253   2.791   4.929   5.694
 3260SOL    HW222254   2.682   4.834   5.771
 3261SOL     OW22255   1.596   6.694   0.517
 3261SOL    HW122256   1.689   6.694   0.554
 3261SOL    HW222257   1.532   6.664   0.588
 3262SOL     OW22258   3.978   1.271   7.227
 3262SOL    HW122259   3.927   1.283   7.313
 3262SOL    HW222260   4.046   1.199   7.238
 3263SOL     OW22261   1.953   4.282   0.083
 3263SOL    HW122262   1.863   4.245   0.058
 3263SOL    HW222263   2.017   4.263   0.008
 3264SOL     OW22264   6.549   0.538   4.738
 3264SOL    HW122265   6.456   0.522   4.705
 3264SOL    HW222266   6.594   0.606   4.679
 3265SOL     OW22267   6.275   2.587   4.939
 3265SOL    HW122268   6.341   2.630   5.001
 3265SOL    HW222269   6.250   2.497   4.975
 3266SOL     OW22270   4.861   4.194   6.610
 3266SOL    HW122271   4.854   4.129   6.685
 3266SOL    HW222272   4.945   4.176   6.558
 3267SOL     OW22273   3.705   6.972   1.512
 3267SOL    HW122274   3.736   6.897   1.570
 3267SOL    HW222275   3.728   6.953   1.417
 3268SOL     OW22276   6.247   6.627   6.021
 3268SOL    HW122277   6.211   6.627   6.114
 3268SOL    HW222278   6.189   6.683   5.963
 3269SOL     OW22279   0.029   6.806   5.135
 3269SOL    HW122280   0.082   6.786   5.053
 3269SOL    HW222281   8.933   6.818   5.111
 3270SOL     OW22282   3.479   5.153   0.227
 3270SOL    HW122283   3.571   5.122   0.252
 3270SOL    HW222284   3.422   5.159   0.309
 3271SOL     OW22285   2.413   3.051   2.427
 3271SOL    HW122286   2.362   3.136   2.413
 3271SOL    HW222287   2.353   2.983   2.468
 3272SOL     OW22288   4.664   2.777   1.517
 3272SOL    HW122289   4.716   2.853   1.477
 3272SOL    HW222290   4.573   2.774   1.476
 3273SOL     OW22291   1.666   3.262   2.533
 3273SOL    HW122292   1.645   3.322   2.610
 3273SOL    HW222293   1.689   3.318   2.453
 3274SOL     OW22294   4.751   3.126   2.141
 3274SOL    HW122295   4.658   3.138   2.104
 3274SOL    HW222296   4.816   3.119   2.066
 3275SOL     OW22297   3.681   4.761   6.882
 3275SOL    HW122298   3.725   4.803   6.803
 3275SOL    HW222299   3.621   4.827   6.927
 3276SOL     OW22300   1.332   0.835   0.658
 3276SOL    HW122301   1.339   0.915   0.600
 3276SOL    HW222302   1.242   0.832   0.700
 3277SOL     OW22303   5.022   4.071   0.363
 3277SOL    HW122304   4.930   4.084   0.326
 3277SOL    HW222305   5.074   4.155   0.353
 3278SOL     OW22306   6.746   4.982   3.410
 3278SOL    HW122307   6.700   5.058   3.364
 3278SOL    HW222308   6.845   4.988   3.392
 3279SOL     OW22309   3.800   0.726   3.533
 3279SOL    HW122310   3.721   0.759   3.481
 3279SOL    HW222311   3.881   0.725   3.474
 3280SOL     OW22312   4.217   5.537   6.293
 3280SOL    HW122313   4.171   5.513   6.378
 3280SOL    HW222314   4.315   5.547   6.309
 3281SOL     OW22315   1.519   7.260   7.246
 3281SOL    HW122316   1.444   7.202   7.214
 3281SOL    HW222317   1.529   7.250   7.345
 3282SOL     OW22318   0.211   7.213   6.047
 3282SOL    HW122319   0.174   7.168   6.128
 3282SOL    HW222320   0.186   7.159   5.966
 3283SOL     OW22321   2.981   2.758   1.956
 3283SOL    HW122322   2.940   2.697   1.888
 3283SOL    HW222323   3.008   2.705   2.036
 3284SOL     OW22324   4.191   4.624   2.983
 3284SOL    HW122325   4.157   4.530   2.993
 3284SOL    HW222326   4.210   4.641   2.886
 3285SOL     OW22327   2.129   6.722   1.731
 3285SOL    HW122328   2.223   6.746   1.704
 3285SOL    HW222329   2.065   6.783   1.683
 3286SOL     OW22330   5.171   1.939   5.842
 3286SOL    HW122331   5.244   1.944   5.911
 3286SOL    HW222332   5.120   1.854   5.853
 3287SOL     OW22333   3.841   0.833   3.796
 3287SOL    HW122334   3.788   0.781   3.863
 3287SOL    HW222335   3.821   0.800   3.704
 3288SOL     OW22336   6.031   2.845   1.694
 3288SOL    HW122337   6.017   2.796   1.780
 3288SOL    HW222338   6.041   2.779   1.619
 3289SOL     OW22339   1.443   5.204   4.922
 3289SOL    HW122340   1.440   5.109   4.952
 3289SOL    HW222341   1.458   5.206   4.823
 3290SOL     OW22342   3.569   2.673   2.431
 3290SOL    HW122343   3.650   2.659   2.489
 3290SOL    HW222344   3.542   2.587   2.389
 3291SOL     OW22345   3.968   0.078   6.844
 3291SOL    HW122346   3.976   8.981   6.824
 3291SOL    HW222347   3.929   0.126   6.765
 3292SOL     OW22348   7.053   3.323   7.066
 3292SOL    HW122349   6.953   3.324   7.068
 3292SOL    HW222350   7.087   3.237   7.104
 3293SOL     OW22351   6.378   3.139   0.924
 3293SOL    HW122352   6.366   3.068   0.854
 3293SOL    HW222353   6.291   3.188   0.936
 3294SOL     OW22354   0.361   3.033   3.931
 3294SOL    HW122355   0.430   3.006   3.998
 3294SOL    HW222356   0.306   3.108   3.968
 3295SOL     OW22357   1.163   1.020   6.901
 3295SOL    HW122358   1.081   0.969   6.876
 3295SOL    HW222359   1.151   1.063   6.990
 3296SOL     OW22360   4.020   6.586   6.133
 3296SOL    HW122361   3.959   6.552   6.062
 3296SOL    HW222362   4.010   6.530   6.216
 3297SOL     OW22363   4.502   6.359   5.371
 3297SOL    HW122364   4.410   6.338   5.403
 3297SOL    HW222365   4.499   6.380   5.273
 3298SOL     OW22366   5.807   6.049   5.843
 3298SOL    HW122367   5.891   6.103   5.831
 3298SOL    HW222368   5.735   6.085   5.783
 3299SOL     OW22369   7.014   3.206   5.687
 3299SOL    HW122370   7.000   3.167   5.596
 3299SOL    HW222371   6.985   3.302   5.687
 3300SOL     OW22372   8.998   4.599   2.108
 3300SOL    HW122373   0.049   4.518   2.081
 3300SOL    HW222374   8.937   4.626   2.034
 3301SOL     OW22375   1.308   1.304   0.630
 3301SOL    HW122376   1.344   1.216   0.598
 3301SOL    HW222377   1.297   1.301   0.729
 3302SOL     OW22378   3.741   2.752   3.230
 3302SOL    HW122379   3.828   2.791   3.259
 3302SOL    HW222380   3.698   2.814   3.164
 3303SOL     OW22381   2.097   5.030   5.963
 3303SOL    HW122382   2.175   4.969   5.951
 3303SOL    HW222383   2.079   5.042   6.061
 3304SOL     OW22384   5.488   3.467   2.259
 3304SOL    HW122385   5.504   3.503   2.167
 3304SOL    HW222386   5.556   3.505   2.322
 3305SOL     OW22387   2.208   6.958   1.389
 3305SOL    HW122388   2.163   7.031   1.338
 3305SOL    HW222389   2.257   6.997   1.467
 3306SOL     OW22390   6.632   1.066   5.757
 3306SOL    HW122391   6.571   0.988   5.742
 3306SOL    HW222392   6.635   1.122   5.674
 3307SOL     OW22393   4.597   4.481   7.307
 3307SOL    HW122394   4.505   4.448   7.324
 3307SOL    HW222395   4.602   4.520   7.215
 3308SOL     OW22396   5.760   6.651   3.006
 3308SOL    HW122397   5.722   6.647   3.098
 3308SOL    HW222398   5.785   6.745   2.984
 3309SOL     OW22399   7.438   2.161   2.596
 3309SOL    HW122400   7.390   2.088   2.645
 3309SOL    HW222401   7.410   2.249   2.633
 3310SOL     OW22402   4.841   0.532   4.336
 3310SOL    HW122403   4.917   0.522   4.401
 3310SOL    HW222404   4.845   0.622   4.292
 3311SOL     OW22405   6.726   0.838   2.164
 3311SOL    HW122406   6.768   0.824   2.253
 3311SOL    HW222407   6.797   0.839   2.093
 3312SOL     OW22408   5.279   2.523   3.192
 3312SOL    HW122409   5.217   2.489   3.121
 3312SOL    HW222410   5.275   2.462   3.271
 3313SOL     OW22411   5.331   2.881   2.760
 3313SOL    HW122412   5.345   2.963   2.703
 3313SOL    HW222413   5.233   2.862   2.766
 3314SOL     OW22414   6.118   3.601   5.944
 3314SOL    HW122415   6.179   3.562   5.875
 3314SOL    HW222416   6.098   3.696   5.920
 3315SOL     OW22417   1.266   5.092   0.394
 3315SOL    HW122418   1.352   5.062   0.436
 3315SOL    HW222419   1.244   5.032   0.317
 3316SOL     OW22420   5.441   2.932   2.413
 3316SOL    HW122421   5.378   2.935   2.336
 3316SOL    HW222422   5.413   2.998   2.482
 3317SOL     OW22423   6.344   2.362   6.137
 3317SOL    HW122424   6.357   2.436   6.072
 3317SOL    HW222425   6.370   2.275   6.094
 3318SOL     OW22426   4.119   5.537   5.430
 3318SOL    HW122427   4.173   5.498   5.504
 3318SOL    HW222428   4.131   5.483   5.347
 3319SOL     OW22429   1.956   2.504   5.599
 3319SOL    HW122430   1.992   2.512   5.506
 3319SOL    HW222431   1.941   2.595   5.637
 3320SOL     OW22432   3.468   1.026   2.926
 3320SOL    HW122433   3.420   1.017   2.839
 3320SOL    HW222434   3.495   1.121   2.940
 3321SOL     OW22435   5.234   5.051   0.032
 3321SOL    HW122436   5.295   5.124   0.000
 3321SOL    HW222437   5.289   4.979   0.075
 3322SOL     OW22438   7.301   6.400   6.339
 3322SOL    HW122439   7.209   6.380   6.372
 3322SOL    HW222440   7.368   6.353   6.396
 3323SOL     OW22441   6.207   0.744   4.069
 3323SOL    HW122442   6.195   0.692   4.154
 3323SOL    HW222443   6.238   0.837   4.092
 3324SOL     OW22444   7.247   4.360   5.559
 3324SOL    HW122445   7.233   4.431   5.628
 3324SOL    HW222446   7.264   4.272   5.605
 3325SOL     OW22447   5.705   5.523   2.187
 3325SOL    HW122448   5.663   5.584   2.120
 3325SOL    HW222449   5.637   5.497   2.255
 3326SOL     OW22450   3.240   1.465   0.198
 3326SOL    HW122451   3.262   1.560   0.218
 3326SOL    HW222452   3.298   1.405   0.254
 3327SOL     OW22453   6.953   1.624   3.614
 3327SOL    HW122454   6.970   1.543   3.560
 3327SOL    HW222455   7.015   1.626   3.693
 3328SOL     OW22456   1.624   4.090   5.594
 3328SOL    HW122457   1.526   4.087   5.614
 3328SOL    HW222458   1.637   4.093   5.495
 3329SOL     OW22459   2.777   1.699   0.605
 3329SOL    HW122460   2.803   1.789   0.570
 3329SOL    HW222461   2.780   1.700   0.705
 3330SOL     OW22462   2.239   6.282   5.749
 3330SOL    HW122463   2.186   6.364   5.727
 3330SOL    HW222464   2.213   6.207   5.688
 3331SOL     OW22465   4.657   7.246   3.117
 3331SOL    HW122466   4.567   7.274   3.149
 3331SOL    HW222467   4.648   7.181   3.042
 3332SOL     OW22468   1.131   7.323   5.743
 3332SOL    HW122469   1.204   7.256   5.733
 3332SOL    HW222470   1.131   7.385   5.664
 3333SOL     OW22471   5.103   7.303   4.393
 3333SOL    HW122472   5.195   7.304   4.433
 3333SOL    HW222473   5.099   7.371   4.319
 3334SOL     OW22474   1.524   4.331   0.008
 3334SOL    HW122475   1.605   4.273   8.996
 3334SOL    HW222476   1.502   4.337   0.105
 3335SOL     OW22477   4.169   6.344   4.808
 3335SOL    HW122478   4.165   6.417   4.876
 3335SOL    HW222479   4.078   6.330   4.769
 3336SOL     OW22480   6.917   5.565   4.588
 3336SOL    HW122481   6.964   5.479   4.608
 3336SOL    HW222482   6.833   5.545   4.537
 3337SOL     OW22483   5.180   4.778   0.581
 3337SOL    HW122484   5.165   4.820   0.491
 3337SOL    HW222485   5.095   4.735   0.612
 3338SOL     OW22486   2.748   0.528   2.661
 3338SOL    HW122487   2.736   0.624   2.633
 3338SOL    HW222488   2.793   0.477   2.587
 3339SOL     OW22489   1.987   4.288   6.567
 3339SOL    HW122490   2.056   4.221   6.594
 3339SOL    HW222491   1.898   4.261   6.603
 3340SOL     OW22492   5.591   3.042   5.983
 3340SOL    HW122493   5.622   2.952   5.953
 3340SOL    HW222494   5.575   3.100   5.902
 3341SOL     OW22495   5.022   4.583   1.260
 3341SOL    HW122496   5.014   4.648   1.184
 3341SOL    HW222497   4.942   4.592   1.320
 3342SOL     OW22498   5.961   4.959   5.865
 3342SOL    HW122499   5.871   4.956   5.910
 3342SOL    HW222500   5.981   5.052   5.837
 3343SOL     OW22501   2.866   7.055   0.955
 3343SOL    HW122502   2.906   6.964   0.968
 3343SOL    HW222503   2.783   7.063   1.011
 3344SOL     OW22504   3.005   0.402   1.417
 3344SOL    HW122505   3.046   0.421   1.328
 3344SOL    HW222506   3.006   0.304   1.434
 3345SOL     OW22507   1.503   4.242   5.112
 3345SOL    HW122508   1.519   4.340   5.104
 3345SOL    HW222509   1.405   4.225   5.122
 3346SOL     OW22510   6.948   4.186   6.220
 3346SOL    HW122511   6.923   4.213   6.313
 3346SOL    HW222512   6.905   4.099   6.198
 3347SOL     OW22513   1.394   3.738   2.530
 3347SOL    HW122514   1.487   3.759   2.562
 3347SOL    HW222515   1.328   3.769   2.599
 3348SOL     OW22516   2.905   4.420   0.656
 3348SOL    HW122517   2.928   4.371   0.573
 3348SOL    HW222518   2.861   4.507   0.633
 3349SOL     OW22519   3.444   1.537   0.420
 3349SOL    HW122520   3.416   1.614   0.362
 3349SOL    HW222521   3.380   1.527   0.496
 3350SOL     OW22522   5.448   5.126   6.443
 3350SOL    HW122523   5.543   5.142   6.468
 3350SOL    HW222524   5.405   5.213   6.419
 3351SOL     OW22525   4.640   1.276   1.146
 3351SOL    HW122526   4.573   1.349   1.156
 3351SOL    HW222527   4.651   1.228   1.233
 3352SOL     OW22528   6.812   5.307   3.444
 3352SOL    HW122529   6.726   5.277   3.402
 3352SOL    HW222530   6.887   5.293   3.379
 3353SOL     OW22531   0.359   4.449   0.801
 3353SOL    HW122532   0.427   4.467   0.873
 3353SOL    HW222533   0.289   4.520   0.803
 3354SOL     OW22534   2.056   0.383   1.989
 3354SOL    HW122535   1.989   0.411   2.059
 3354SOL    HW222536   2.024   0.298   1.947
 3355SOL     OW22537   1.566   4.430   2.945
 3355SOL    HW122538   1.558   4.375   2.862
 3355SOL    HW222539   1.606   4.519   2.923
 3356SOL     OW22540   4.191   4.564   5.393
 3356SOL    HW122541   4.100   4.596   5.418
 3356SOL    HW222542   4.259   4.631   5.423
 3357SOL     OW22543   3.899   6.463   2.158
 3357SOL    HW122544   3.888   6.522   2.078
 3357SOL    HW222545   3.808   6.432   2.188
 3358SOL     OW22546   3.523   0.243   0.191
 3358SOL    HW122547   3.540   0.281   0.282
 3358SOL    HW222548   3.609   0.209   0.153
 3359SOL     OW22549   1.990   4.190   4.930
 3359SOL    HW122550   1.992   4.288   4.950
 3359SOL    HW222551   1.898   4.155   4.946
 3360SOL     OW22552   1.619   2.141   3.053
 3360SOL    HW122553   1.713   2.125   3.084
 3360SOL    HW222554   1.569   2.054   3.053
 3361SOL     OW22555   5.131   4.330   0.389
 3361SOL    HW122556   5.224   4.304   0.414
 3361SOL    HW222557   5.076   4.345   0.471
 3362SOL     OW22558   6.640   2.230   0.410
 3362SOL    HW122559   6.715   2.295   0.400
 3362SOL    HW222560   6.598   2.241   0.500
 3363SOL     OW22561   0.700   4.637   5.801
 3363SOL    HW122562   0.621   4.641   5.739
 3363SOL    HW222563   0.737   4.544   5.801
 3364SOL     OW22564   2.483   4.739   2.145
 3364SOL    HW122565   2.565   4.763   2.197
 3364SOL    HW222566   2.467   4.640   2.152
 3365SOL     OW22567   2.151   5.417   4.552
 3365SOL    HW122568   2.120   5.503   4.593
 3365SOL    HW222569   2.204   5.436   4.470
 3366SOL     OW22570   2.301   0.405   7.082
 3366SOL    HW122571   2.360   0.385   7.160
 3366SOL    HW222572   2.205   0.397   7.110
 3367SOL     OW22573   4.142   5.642   0.382
 3367SOL    HW122574   4.235   5.651   0.418
 3367SOL    HW222575   4.083   5.603   0.452
 3368SOL     OW22576   6.160   3.294   0.275
 3368SOL    HW122577   6.075   3.261   0.315
 3368SOL    HW222578   6.237   3.243   0.315
 3369SOL     OW22579   4.378   2.835   5.096
 3369SOL    HW122580   4.346   2.745   5.129
 3369SOL    HW222581   4.427   2.823   5.010
 3370SOL     OW22582   6.314   6.895   6.392
 3370SOL    HW122583   6.368   6.965   6.439
 3370SOL    HW222584   6.262   6.937   6.318
 3371SOL     OW22585   0.606   3.628   0.593
 3371SOL    HW122586   0.511   3.655   0.582
 3371SOL    HW222587   0.666   3.702   0.562
 3372SOL     OW22588   5.001   6.731   0.394
 3372SOL    HW122589   4.948   6.704   0.474
 3372SOL    HW222590   5.048   6.817   0.412
 3373SOL     OW22591   0.768   2.905   2.747
 3373SOL    HW122592   0.741   2.935   2.656
 3373SOL    HW222593   0.818   2.819   2.741
 3374SOL     OW22594   0.797   3.985   4.370
 3374SOL    HW122595   0.822   3.894   4.338
 3374SOL    HW222596   0.776   4.043   4.291
 3375SOL     OW22597   5.344   2.251   5.181
 3375SOL    HW122598   5.394   2.333   5.209
 3375SOL    HW222599   5.246   2.272   5.176
 3376SOL     OW22600   0.978   3.093   1.856
 3376SOL    HW122601   0.889   3.134   1.874
 3376SOL    HW222602   1.049   3.144   1.906
 3377SOL     OW22603   5.616   3.227   3.712
 3377SOL    HW122604   5.711   3.253   3.695
 3377SOL    HW222605   5.580   3.179   3.631
 3378SOL     OW22606   4.845   5.397   5.777
 3378SOL    HW122607   4.944   5.391   5.768
 3378SOL    HW222608   4.812   5.479   5.730
 3379SOL     OW22609   3.160   3.288   4.882
 3379SOL    HW122610   3.195   3.264   4.972
 3379SOL    HW222611   3.229   3.340   4.832
 3380SOL     OW22612   6.166   6.880   5.600
 3380SOL    HW122613   6.124   6.792   5.619
 3380SOL    HW222614   6.215   6.876   5.513
 3381SOL     OW22615   3.310   5.386   3.769
 3381SOL    HW122616   3.258   5.305   3.795
 3381SOL    HW222617   3.406   5.360   3.755
 3382SOL     OW22618   6.591   2.731   6.022
 3382SOL    HW122619   6.691   2.721   6.023
 3382SOL    HW222620   6.567   2.822   6.055
 3383SOL     OW22621   3.828   6.997   1.880
 3383SOL    HW122622   3.808   6.972   1.975
 3383SOL    HW222623   3.780   7.082   1.858
 3384SOL     OW22624   5.184   3.015   7.076
 3384SOL    HW122625   5.103   3.026   7.132
 3384SOL    HW222626   5.160   2.974   6.988
 3385SOL     OW22627   3.612   4.557   0.563
 3385SOL    HW122628   3.551   4.485   0.597
 3385SOL    HW222629   3.595   4.573   0.466
 3386SOL     OW22630   0.668   2.760   0.468
 3386SOL    HW122631   0.683   2.825   0.542
 3386SOL    HW222632   0.736   2.688   0.472
 3387SOL     OW22633   6.340   1.099   2.200
 3387SOL    HW122634   6.291   1.167   2.256
 3387SOL    HW222635   6.314   1.110   2.104
 3388SOL     OW22636   6.743   0.703   5.342
 3388SOL    HW122637   6.765   0.629   5.406
 3388SOL    HW222638   6.825   0.731   5.293
 3389SOL     OW22639   1.398   2.622   6.919
 3389SOL    HW122640   1.473   2.688   6.912
 3389SOL    HW222641   1.430   2.532   6.890
 3390SOL     OW22642   4.096   5.713   0.753
 3390SOL    HW122643   4.095   5.809   0.725
 3390SOL    HW222644   4.041   5.702   0.836
 3391SOL     OW22645   3.469   5.031   5.190
 3391SOL    HW122646   3.461   5.004   5.286
 3391SOL    HW222647   3.411   5.110   5.173
 3392SOL     OW22648   1.110   4.193   6.016
 3392SOL    HW122649   1.083   4.123   6.083
 3392SOL    HW222650   1.075   4.282   6.046
 3393SOL     OW22651   6.357   1.406   0.701
 3393SOL    HW122652   6.282   1.340   0.706
 3393SOL    HW222653   6.322   1.497   0.720
 3394SOL     OW22654   2.582   1.905   7.038
 3394SOL    HW122655   2.528   1.825   7.065
 3394SOL    HW222656   2.623   1.946   7.119
 3395SOL     OW22657   2.414   6.301   7.227
 3395SOL    HW122658   2.427   6.399   7.216
 3395SOL    HW222659   2.501   6.259   7.255
 3396SOL     OW22660   2.054   6.016   0.558
 3396SOL    HW122661   2.048   6.056   0.466
 3396SOL    HW222662   1.970   5.966   0.578
 3397SOL     OW22663   5.886   1.846   2.310
 3397SOL    HW122664   5.894   1.886   2.401
 3397SOL    HW222665   5.911   1.749   2.314
 3398SOL     OW22666   0.361   3.792   5.582
 3398SOL    HW122667   0.415   3.873   5.563
 3398SOL    HW222668   0.270   3.801   5.541
 3399SOL     OW22669   6.749   2.749   1.995
 3399SOL    HW122670   6.837   2.781   2.027
 3399SOL    HW222671   6.706   2.691   2.064
 3400SOL     OW22672   4.675   4.204   0.535
 3400SOL    HW122673   4.588   4.245   0.561
 3400SOL    HW222674   4.684   4.115   0.579
 3401SOL     OW22675   5.886   6.436   2.877
 3401SOL    HW122676   5.842   6.505   2.934
 3401SOL    HW222677   5.846   6.439   2.785
 3402SOL     OW22678   0.332   2.453   2.557
 3402SOL    HW122679   0.307   2.540   2.601
 3402SOL    HW222680   0.254   2.390   2.561
 3403SOL     OW22681   3.625   6.258   6.223
 3403SOL    HW122682   3.678   6.261   6.308
 3403SOL    HW222683   3.679   6.213   6.152
 3404SOL     OW22684   6.331   3.922   2.910
 3404SOL    HW122685   6.292   3.862   2.980
 3404SOL    HW222686   6.297   3.894   2.820
 3405SOL     OW22687   0.938   2.474   6.963
 3405SOL    HW122688   0.939   2.389   6.910
 3405SOL    HW222689   0.999   2.540   6.920
 3406SOL     OW22690   6.023   1.419   2.145
 3406SOL    HW122691   5.962   1.401   2.068
 3406SOL    HW222692   6.098   1.478   2.115
 3407SOL     OW22693   5.194   0.067   6.084
 3407SOL    HW122694   5.147   0.028   6.163
 3407SOL    HW222695   5.188   0.003   6.007
 3408SOL     OW22696   2.407   1.077   0.853
 3408SOL    HW122697   2.424   0.982   0.879
 3408SOL    HW222698   2.472   1.136   0.900
 3409SOL     OW22699   4.499   6.856   7.392
 3409SOL    HW122700   4.429   6.813   7.335
 3409SOL    HW222701   4.587   6.853   7.344
 3410SOL     OW22702   4.823   2.549   4.183
 3410SOL    HW122703   4.918   2.549   4.149
 3410SOL    HW222704   4.764   2.592   4.115
 3411SOL     OW22705   4.909   7.144   7.145
 3411SOL    HW122706   4.828   7.105   7.102
 3411SOL    HW222707   4.968   7.183   7.075
 3412SOL     OW22708   6.323   6.502   4.418
 3412SOL    HW122709   6.403   6.562   4.418
 3412SOL    HW222710   6.245   6.551   4.378
 3413SOL     OW22711   5.345   4.484   3.977
 3413SOL    HW122712   5.401   4.499   3.895
 3413SOL    HW222713   5.288   4.403   3.963
 3414SOL     OW22714   5.741   4.155   1.309
 3414SOL    HW122715   5.695   4.235   1.269
 3414SOL    HW222716   5.825   4.136   1.259
 3415SOL     OW22717   2.733   5.068   4.972
 3415SOL    HW122718   2.747   4.969   4.972
 3415SOL    HW222719   2.800   5.111   5.032
 3416SOL     OW22720   2.793   1.304   6.980
 3416SOL    HW122721   2.763   1.334   7.071
 3416SOL    HW222722   2.728   1.237   6.944
 3417SOL     OW22723   5.408   3.313   6.394
 3417SOL    HW122724   5.356   3.310   6.310
 3417SOL    HW222725   5.346   3.323   6.472
 3418SOL     OW22726   3.125   3.975   5.126
 3418SOL    HW122727   3.083   4.020   5.204
 3418SOL    HW222728   3.184   3.900   5.158
 3419SOL     OW22729   0.135   5.086   6.036
 3419SOL    HW122730   0.142   5.160   6.103
 3419SOL    HW222731   0.131   5.125   5.944
 3420SOL     OW22732   2.144   2.984   0.512
 3420SOL    HW122733   2.076   2.991   0.439
 3420SOL    HW222734   2.181   2.891   0.514
 3421SOL     OW22735   2.523   0.904   5.752
 3421SOL    HW122736   2.514   0.914   5.851
 3421SOL    HW222737   2.607   0.950   5.721
 3422SOL     OW22738   3.369   1.485   2.998
 3422SOL    HW122739   3.419   1.400   2.981
 3422SOL    HW222740   3.292   1.491   2.936
 3423SOL     OW22741   3.075   2.785   1.564
 3423SOL    HW122742   3.027   2.868   1.593
 3423SOL    HW222743   3.114   2.739   1.644
 3424SOL     OW22744   7.331   2.073   0.694
 3424SOL    HW122745   7.375   2.155   0.657
 3424SOL    HW222746   7.394   1.995   0.686
 3425SOL     OW22747   3.424   5.598   1.626
 3425SOL    HW122748   3.356   5.653   1.577
 3425SOL    HW222749   3.414   5.502   1.600
 3426SOL     OW22750   5.309   4.246   6.622
 3426SOL    HW122751   5.235   4.188   6.588
 3426SOL    HW222752   5.282   4.342   6.614
 3427SOL     OW22753   5.832   2.347   0.249
 3427SOL    HW122754   5.749   2.304   0.213
 3427SOL    HW222755   5.912   2.306   0.205
 3428SOL     OW22756   3.745   4.329   3.884
 3428SOL    HW122757   3.796   4.290   3.961
 3428SOL    HW222758   3.783   4.295   3.798
 3429SOL     OW22759   6.230   6.105   5.262
 3429SOL    HW122760   6.309   6.078   5.316
 3429SOL    HW222761   6.150   6.052   5.291
 3430SOL     OW22762   4.494   1.632   6.387
 3430SOL    HW122763   4.515   1.534   6.389
 3430SOL    HW222764   4.464   1.661   6.478
 3431SOL     OW22765   1.238   0.742   6.602
 3431SOL    HW122766   1.254   0.686   6.521
 3431SOL    HW222767   1.158   0.800   6.587
 3432SOL     OW22768   3.744   4.672   5.252
 3432SOL    HW122769   3.714   4.646   5.343
 3432SOL    HW222770   3.792   4.596   5.209
 3433SOL     OW22771   3.944   5.919   0.969
 3433SOL    HW122772   3.921   5.823   0.977
 3433SOL    HW222773   3.868   5.975   1.002
 3434SOL     OW22774   0.817   5.266   1.543
 3434SOL    HW122775   0.741   5.273   1.478
 3434SOL    HW222776   0.829   5.353   1.590
 3435SOL     OW22777   4.594   0.745   1.792
 3435SOL    HW122778   4.576   0.784   1.882
 3435SOL    HW222779   4.681   0.780   1.757
 3436SOL     OW22780   0.352   2.233   0.794
 3436SOL    HW122781   0.439   2.253   0.747
 3436SOL    HW222782   0.353   2.139   0.828
 3437SOL     OW22783   1.216   3.247   4.471
 3437SOL    HW122784   1.294   3.196   4.437
 3437SOL    HW222785   1.179   3.305   4.398
 3438SOL     OW22786   6.228   6.307   7.093
 3438SOL    HW122787   6.159   6.333   7.160
 3438SOL    HW222788   6.185   6.296   7.004
 3439SOL     OW22789   0.955   2.453   0.113
 3439SOL    HW122790   0.974   2.364   0.153
 3439SOL    HW222791   0.861   2.456   0.079
 3440SOL     OW22792   5.128   7.016   0.957
 3440SOL    HW122793   5.039   6.980   0.927
 3440SOL    HW222794   5.178   7.052   0.879
 3441SOL     OW22795   3.596   1.900   2.071
 3441SOL    HW122796   3.650   1.983   2.089
 3441SOL    HW222797   3.517   1.923   2.014
 3442SOL     OW22798   5.893   2.147   3.967
 3442SOL    HW122799   5.826   2.220   3.950
 3442SOL    HW222800   5.979   2.187   3.997
 3443SOL     OW22801   2.439   5.582   5.860
 3443SOL    HW122802   2.425   5.629   5.773
 3443SOL    HW222803   2.401   5.489   5.854
 3444SOL     OW22804   5.462   7.063   1.876
 3444SOL    HW122805   5.439   7.143   1.821
 3444SOL    HW222806   5.433   6.980   1.828
 3445SOL     OW22807   3.419   5.449   2.616
 3445SOL    HW122808   3.425   5.464   2.518
 3445SOL    HW222809   3.366   5.366   2.634
 3446SOL     OW22810   1.740   4.938   2.800
 3446SOL    HW122811   1.816   4.923   2.863
 3446SOL    HW222812   1.685   5.015   2.832
 3447SOL     OW22813   1.299   7.259   5.466
 3447SOL    HW122814   1.323   7.205   5.547
 3447SOL    HW222815   1.341   7.217   5.385
 3448SOL     OW22816   7.017   4.114   0.953
 3448SOL    HW122817   7.080   4.124   1.030
 3448SOL    HW222818   7.068   4.121   0.867
 3449SOL     OW22819   4.027   0.407   1.378
 3449SOL    HW122820   4.084   0.462   1.317
 3449SOL    HW222821   4.085   0.342   1.427
 3450SOL     OW22822   3.473   2.877   1.923
 3450SOL    HW122823   3.490   2.839   2.014
 3450SOL    HW222824   3.376   2.868   1.900
 3451SOL     OW22825   3.226   2.723   6.345
 3451SOL    HW122826   3.242   2.633   6.306
 3451SOL    HW222827   3.184   2.714   6.435
 3452SOL     OW22828   6.163   3.368   6.406
 3452SOL    HW122829   6.125   3.429   6.336
 3452SOL    HW222830   6.196   3.284   6.362
 3453SOL     OW22831   0.962   5.264   6.393
 3453SOL    HW122832   1.012   5.201   6.453
 3453SOL    HW222833   1.013   5.350   6.385
 3454SOL     OW22834   2.021   4.097   0.747
 3454SOL    HW122835   1.943   4.160   0.755
 3454SOL    HW222836   2.101   4.138   0.791
 3455SOL     OW22837   1.849   2.522   0.426
 3455SOL    HW122838   1.758   2.482   0.441
 3455SOL    HW222839   1.894   2.539   0.513
 3456SOL     OW22840   4.855   0.306   3.960
 3456SOL    HW122841   4.930   0.242   3.942
 3456SOL    HW222842   4.870   0.390   3.909
 3457SOL     OW22843   1.663   3.733   3.674
 3457SOL    HW122844   1.698   3.768   3.760
 3457SOL    HW222845   1.564   3.747   3.670
 3458SOL     OW22846   4.856   4.112   5.726
 3458SOL    HW122847   4.830   4.189   5.667
 3458SOL    HW222848   4.826   4.026   5.684
 3459SOL     OW22849   5.622   4.382   2.760
 3459SOL    HW122850   5.695   4.339   2.707
 3459SOL    HW222851   5.534   4.362   2.718
 3460SOL     OW22852   0.721   5.261   5.183
 3460SOL    HW122853   0.719   5.360   5.194
 3460SOL    HW222854   0.642   5.221   5.229
 3461SOL     OW22855   3.880   5.526   3.535
 3461SOL    HW122856   3.927   5.498   3.451
 3461SOL    HW222857   3.923   5.609   3.571
 3462SOL     OW22858   6.791   0.758   7.257
 3462SOL    HW122859   6.793   0.678   7.198
 3462SOL    HW222860   6.778   0.840   7.201
 3463SOL     OW22861   3.578   5.022   5.695
 3463SOL    HW122862   3.543   5.114   5.678
 3463SOL    HW222863   3.613   5.016   5.789
 3464SOL     OW22864   6.000   4.193   0.900
 3464SOL    HW122865   6.042   4.137   0.829
 3464SOL    HW222866   6.033   4.164   0.990
 3465SOL     OW22867   4.042   2.108   4.851
 3465SOL    HW122868   4.064   2.146   4.941
 3465SOL    HW222869   4.126   2.075   4.807
 3466SOL     OW22870   2.741   5.794   7.404
 3466SOL    HW122871   2.783   5.866   7.459
 3466SOL    HW222872   2.806   5.719   7.392
 3467SOL     OW22873   5.223   6.726   6.302
 3467SOL    HW122874   5.292   6.654   6.300
 3467SOL    HW222875   5.181   6.730   6.393
 3468SOL     OW22876   1.952   2.018   6.392
 3468SOL    HW122877   2.020   1.952   6.362
 3468SOL    HW222878   1.940   2.011   6.491
 3469SOL     OW22879   3.831   4.259   6.714
 3469SOL    HW122880   3.903   4.321   6.742
 3469SOL    HW222881   3.815   4.191   6.786
 3470SOL     OW22882   6.220   3.996   6.487
 3470SOL    HW122883   6.292   4.064   6.470
 3470SOL    HW222884   6.132   4.042   6.495
 3471SOL     OW22885   7.352   5.631   5.968
 3471SOL    HW122886   7.368   5.562   5.897
 3471SOL    HW222887   7.439   5.675   5.991
 3472SOL     OW22888   6.094   1.485   2.987
 3472SOL    HW122889   5.998   1.504   2.967
 3472SOL    HW222890   6.136   1.438   2.910
 3473SOL     OW22891   5.231   0.689   2.479
 3473SOL    HW122892   5.167   0.742   2.534
 3473SOL    HW222893   5.226   0.593   2.507
 3474SOL     OW22894   5.109   7.074   3.778
 3474SOL    HW122895   5.089   7.141   3.849
 3474SOL    HW222896   5.208   7.057   3.775
 3475SOL     OW22897   6.932   6.370   5.876
 3475SOL    HW122898   7.026   6.403   5.887
 3475SOL    HW222899   6.922   6.326   5.786
 3476SOL     OW22900   0.897   4.125   3.902
 3476SOL    HW122901   0.841   4.129   3.985
 3476SOL    HW222902   0.862   4.052   3.843
 3477SOL     OW22903   0.766   2.572   4.805
 3477SOL    HW122904   0.794   2.610   4.716
 3477SOL    HW222905   0.667   2.559   4.806
 3478SOL     OW22906   4.610   2.942   7.207
 3478SOL    HW122907   4.511   2.943   7.210
 3478SOL    HW222908   4.646   2.995   7.285
 3479SOL     OW22909   1.275   3.227   6.460
 3479SOL    HW122910   1.369   3.222   6.428
 3479SOL    HW222911   1.229   3.304   6.416
 3480SOL     OW22912   0.593   4.230   6.602
 3480SOL    HW122913   0.625   4.221   6.696
 3480SOL    HW222914   0.651   4.295   6.553
 3481SOL     OW22915   6.363   2.079   0.744
 3481SOL    HW122916   6.341   2.053   0.650
 3481SOL    HW222917   6.279   2.081   0.798
 3482SOL     OW22918   1.907   4.942   7.239
 3482SOL    HW122919   1.988   4.946   7.297
 3482SOL    HW222920   1.854   5.027   7.248
 3483SOL     OW22921   4.492   5.569   6.646
 3483SOL    HW122922   4.492   5.470   6.636
 3483SOL    HW222923   4.420   5.596   6.710
 3484SOL     OW22924   6.444   6.136   2.683
 3484SOL    HW122925   6.410   6.172   2.596
 3484SOL    HW222926   6.386   6.167   2.758
 3485SOL     OW22927   2.313   3.868   3.744
 3485SOL    HW122928   2.345   3.928   3.671
 3485SOL    HW222929   2.243   3.915   3.797
 3486SOL     OW22930   5.374   5.642   7.170
 3486SOL    HW122931   5.401   5.550   7.196
 3486SOL    HW222932   5.287   5.665   7.214
 3487SOL     OW22933   6.843   4.859   2.226
 3487SOL    HW122934   6.942   4.859   2.213
 3487SOL    HW222935   6.816   4.780   2.281
 3488SOL     OW22936   1.737   5.861   3.493
 3488SOL    HW122937   1.652   5.913   3.493
 3488SOL    HW222938   1.737   5.798   3.571
 3489SOL     OW22939   5.901   1.781   3.310
 3489SOL    HW122940   5.945   1.843   3.375
 3489SOL    HW222941   5.812   1.818   3.284
 3490SOL     OW22942   2.609   5.931   0.311
 3490SOL    HW122943   2.615   6.029   0.330
 3490SOL    HW222944   2.566   5.884   0.388
 3491SOL     OW22945   3.378   0.328   4.534
 3491SOL    HW122946   3.359   0.384   4.615
 3491SOL    HW222947   3.405   0.236   4.563
 3492SOL     OW22948   1.092   3.143   7.145
 3492SOL    HW122949   0.995   3.133   7.168
 3492SOL    HW222950   1.141   3.184   7.221
 3493SOL     OW22951   2.564   3.364   3.270
 3493SOL    HW122952   2.639   3.309   3.234
 3493SOL    HW222953   2.566   3.455   3.228
 3494SOL     OW22954   6.110   7.028   3.239
 3494SOL    HW122955   6.127   7.075   3.326
 3494SOL    HW222956   6.163   7.071   3.167
 3495SOL     OW22957   4.055   2.439   5.348
 3495SOL    HW122958   4.130   2.498   5.378
 3495SOL    HW222959   4.028   2.464   5.255
 3496SOL     OW22960   0.199   5.731   5.508
 3496SOL    HW122961   0.135   5.803   5.531
 3496SOL    HW222962   0.287   5.771   5.481
 3497SOL     OW22963   1.129   2.631   6.847
 3497SOL    HW122964   1.116   2.715   6.794
 3497SOL    HW222965   1.225   2.623   6.873
 3498SOL     OW22966   4.740   5.039   0.834
 3498SOL    HW122967   4.663   5.101   0.819
 3498SOL    HW222968   4.759   4.988   0.751
 3499SOL     OW22969   1.286   0.739   2.266
 3499SOL    HW122970   1.274   0.779   2.357
 3499SOL    HW222971   1.252   0.645   2.267
 3500SOL     OW22972   2.867   4.795   4.715
 3500SOL    HW122973   2.873   4.698   4.691
 3500SOL    HW222974   2.863   4.849   4.631
 3501SOL     OW22975   2.718   5.634   6.269
 3501SOL    HW122976   2.694   5.650   6.364
 3501SOL    HW222977   2.635   5.609   6.218
 3502SOL     OW22978   6.661   1.833   2.105
 3502SOL    HW122979   6.604   1.799   2.180
 3502SOL    HW222980   6.738   1.771   2.091
 3503SOL     OW22981   5.505   5.040   0.807
 3503SOL    HW122982   5.519   4.998   0.717
 3503SOL    HW222983   5.560   5.123   0.815
 3504SOL     OW22984   3.440   5.449   4.733
 3504SOL    HW122985   3.488   5.488   4.811
 3504SOL    HW222986   3.437   5.516   4.659
 3505SOL     OW22987   3.540   0.434   4.326
 3505SOL    HW122988   3.553   0.353   4.269
 3505SOL    HW222989   3.493   0.409   4.410
 3506SOL     OW22990   6.509   2.468   2.660
 3506SOL    HW122991   6.511   2.372   2.634
 3506SOL    HW222992   6.429   2.512   2.619
 3507SOL     OW22993   5.272   2.101   5.405
 3507SOL    HW122994   5.307   2.145   5.322
 3507SOL    HW222995   5.268   2.002   5.391
 3508SOL     OW22996   3.734   2.877   0.116
 3508SOL    HW122997   3.759   2.969   0.088
 3508SOL    HW222998   3.790   2.850   0.195
 3509SOL     OW22999   2.143   2.651   2.879
 3509SOL    HW123000   2.049   2.680   2.897
 3509SOL    HW223001   2.148   2.608   2.789
 3510SOL     OW23002   4.165   3.303   6.946
 3510SOL    HW123003   4.138   3.214   6.909
 3510SOL    HW223004   4.090   3.368   6.934
 3511SOL     OW23005   3.544   4.887   4.202
 3511SOL    HW123006   3.569   4.795   4.233
 3511SOL    HW223007   3.512   4.941   4.280
 3512SOL     OW23008   2.755   5.055   0.245
 3512SOL    HW123009   2.850   5.026   0.243
 3512SOL    HW223010   2.749   5.147   0.285
 3513SOL     OW23011   0.884   5.945   0.146
 3513SOL    HW123012   0.797   5.938   0.096
 3513SOL    HW223013   0.931   5.857   0.143
 3514SOL     OW23014   1.607   1.962   1.901
 3514SOL    HW123015   1.605   1.894   1.828
 3514SOL    HW223016   1.636   2.050   1.864
 3515SOL     OW23017   4.886   1.528   6.505
 3515SOL    HW123018   4.865   1.433   6.480
 3515SOL    HW223019   4.915   1.578   6.423
 3516SOL     OW23020   7.097   4.954   0.510
 3516SOL    HW123021   7.192   4.979   0.529
 3516SOL    HW223022   7.094   4.859   0.477
 3517SOL     OW23023   0.500   5.175   5.318
 3517SOL    HW123024   0.504   5.187   5.417
 3517SOL    HW223025   0.422   5.117   5.294
 3518SOL     OW23026   5.955   7.390   4.330
 3518SOL    HW123027   5.984   7.302   4.292
 3518SOL    HW223028   5.929   7.452   4.256
 3519SOL     OW23029   2.003   6.780   1.972
 3519SOL    HW123030   1.912   6.739   1.968
 3519SOL    HW223031   2.055   6.754   1.891
 3520SOL     OW23032   1.579   3.693   1.519
 3520SOL    HW123033   1.571   3.687   1.618
 3520SOL    HW223034   1.533   3.776   1.487
 3521SOL     OW23035   4.156   5.993   4.673
 3521SOL    HW123036   4.194   5.907   4.709
 3521SOL    HW223037   4.067   5.975   4.633
 3522SOL     OW23038   3.715   1.434   3.150
 3522SOL    HW123039   3.680   1.519   3.111
 3522SOL    HW223040   3.814   1.430   3.139
 3523SOL     OW23041   2.005   5.217   3.320
 3523SOL    HW123042   2.044   5.297   3.275
 3523SOL    HW223043   1.938   5.246   3.388
 3524SOL     OW23044   5.497   7.200   0.821
 3524SOL    HW123045   5.567   7.212   0.750
 3524SOL    HW223046   5.513   7.267   0.894
 3525SOL     OW23047   1.289   4.724   7.181
 3525SOL    HW123048   1.251   4.701   7.091
 3525SOL    HW223049   1.360   4.794   7.170
 3526SOL     OW23050   5.717   4.013   2.347
 3526SOL    HW123051   5.743   4.061   2.263
 3526SOL    HW223052   5.799   3.973   2.389
 3527SOL     OW23053   3.233   2.206   2.074
 3527SOL    HW123054   3.190   2.283   2.026
 3527SOL    HW223055   3.165   2.162   2.133
 3528SOL     OW23056   6.517   1.401   5.691
 3528SOL    HW123057   6.439   1.450   5.651
 3528SOL    HW223058   6.559   1.343   5.621
 3529SOL     OW23059   4.700   5.008   3.108
 3529SOL    HW123060   4.669   4.992   3.014
 3529SOL    HW223061   4.653   4.945   3.169
 3530SOL     OW23062   4.228   4.324   2.241
 3530SOL    HW123063   4.179   4.360   2.321
 3530SOL    HW223064   4.267   4.235   2.263
 3531SOL     OW23065   4.887   6.399   0.153
 3531SOL    HW123066   4.900   6.407   0.252
 3531SOL    HW223067   4.851   6.485   0.117
 3532SOL     OW23068   2.443   4.173   3.914
 3532SOL    HW123069   2.514   4.213   3.856
 3532SOL    HW223070   2.475   4.086   3.952
 3533SOL     OW23071   3.423   2.874   2.548
 3533SOL    HW123072   3.479   2.801   2.510
 3533SOL    HW223073   3.326   2.851   2.537
 3534SOL     OW23074   2.613   4.597   4.857
 3534SOL    HW123075   2.652   4.676   4.905
 3534SOL    HW223076   2.571   4.535   4.924
 3535SOL     OW23077   6.348   3.132   0.404
 3535SOL    HW123078   6.409   3.153   0.481
 3535SOL    HW223079   6.321   3.036   0.410
 3536SOL     OW23080   3.011   2.844   4.436
 3536SOL    HW123081   3.087   2.905   4.461
 3536SOL    HW223082   3.045   2.750   4.427
 3537SOL     OW23083   4.326   3.771   2.836
 3537SOL    HW123084   4.336   3.671   2.838
 3537SOL    HW223085   4.341   3.804   2.743
 3538SOL     OW23086   2.202   6.690   1.384
 3538SOL    HW123087   2.108   6.665   1.408
 3538SOL    HW223088   2.210   6.790   1.379
 3539SOL     OW23089   2.059   5.730   4.245
 3539SOL    HW123090   2.143   5.709   4.294
 3539SOL    HW223091   2.079   5.786   4.164
 3540SOL     OW23092   3.725   7.340   2.987
 3540SOL    HW123093   3.662   7.262   2.982
 3540SOL    HW223094   3.723   7.379   3.079
 3541SOL     OW23095   3.649   4.256   4.805
 3541SOL    HW123096   3.574   4.317   4.833
 3541SOL    HW223097   3.613   4.181   4.750
 3542SOL     OW23098   3.866   6.492   0.877
 3542SOL    HW123099   3.796   6.494   0.949
 3542SOL    HW223100   3.856   6.409   0.823
 3543SOL     OW23101   1.607   4.654   6.893
 3543SOL    HW123102   1.676   4.602   6.841
 3543SOL    HW223103   1.653   4.709   6.963
 3544SOL     OW23104   5.452   7.080   6.893
 3544SOL    HW123105   5.536   7.115   6.935
 3544SOL    HW223106   5.474   7.034   6.807
 3545SOL     OW23107   6.066   2.631   1.509
 3545SOL    HW123108   6.022   2.565   1.448
 3545SOL    HW223109   6.089   2.587   1.595
 3546SOL     OW23110   1.264   5.461   2.039
 3546SOL    HW123111   1.336   5.527   2.015
 3546SOL    HW223112   1.278   5.428   2.132
 3547SOL     OW23113   2.492   4.436   6.427
 3547SOL    HW123114   2.531   4.378   6.356
 3547SOL    HW223115   2.496   4.532   6.398
 3548SOL     OW23116   1.439   2.992   5.609
 3548SOL    HW123117   1.407   3.062   5.544
 3548SOL    HW223118   1.465   3.036   5.695
 3549SOL     OW23119   5.857   6.650   6.076
 3549SOL    HW123120   5.936   6.663   6.137
 3549SOL    HW223121   5.783   6.711   6.105
 3550SOL     OW23122   4.740   1.793   2.904
 3550SOL    HW123123   4.655   1.808   2.853
 3550SOL    HW223124   4.794   1.877   2.903
 3551SOL     OW23125   5.555   0.534   0.228
 3551SOL    HW123126   5.520   0.446   0.195
 3551SOL    HW223127   5.557   0.534   0.328
 3552SOL     OW23128   4.130   3.984   2.487
 3552SOL    HW123129   4.193   4.025   2.420
 3552SOL    HW223130   4.074   3.915   2.442
 3553SOL     OW23131   1.845   3.697   7.391
 3553SOL    HW123132   1.933   3.655   7.371
 3553SOL    HW223133   1.856   3.763   7.466
 3554SOL     OW23134   4.786   5.151   6.162
 3554SOL    HW123135   4.714   5.086   6.138
 3554SOL    HW223136   4.771   5.185   6.255
 3555SOL     OW23137   5.604   2.814   3.570
 3555SOL    HW123138   5.680   2.793   3.632
 3555SOL    HW223139   5.617   2.765   3.484
 3556SOL     OW23140   4.347   7.301   8.997
 3556SOL    HW123141   4.427   7.272   8.946
 3556SOL    HW223142   4.284   7.224   0.009
 3557SOL     OW23143   0.445   4.666   5.664
 3557SOL    HW123144   0.386   4.588   5.687
 3557SOL    HW223145   0.414   4.747   5.712
 3558SOL     OW23146   2.491   6.147   1.058
 3558SOL    HW123147   2.497   6.220   1.126
 3558SOL    HW223148   2.582   6.115   1.034
 3559SOL     OW23149   2.728   2.139   1.123
 3559SOL    HW123150   2.666   2.093   1.059
 3559SOL    HW223151   2.768   2.219   1.079
 3560SOL     OW23152   5.398   3.317   2.810
 3560SOL    HW123153   5.359   3.355   2.726
 3560SOL    HW223154   5.325   3.300   2.876
 3561SOL     OW23155   7.320   5.196   6.125
 3561SOL    HW123156   7.313   5.157   6.217
 3561SOL    HW223157   7.392   5.266   6.124
 3562SOL     OW23158   6.561   6.027   3.863
 3562SOL    HW123159   6.550   5.947   3.922
 3562SOL    HW223160   6.589   5.999   3.772
 3563SOL     OW23161   0.326   4.449   6.899
 3563SOL    HW123162   0.334   4.425   6.802
 3563SOL    HW223163   0.232   4.476   6.918
 3564SOL     OW23164   5.010   5.028   6.062
 3564SOL    HW123165   5.042   4.963   6.131
 3564SOL    HW223166   4.927   5.073   6.094
 3565SOL     OW23167   3.390   0.644   4.228
 3565SOL    HW123168   3.443   0.567   4.265
 3565SOL    HW223169   3.376   0.712   4.300
 3566SOL     OW23170   5.927   0.032   4.844
 3566SOL    HW123171   6.011   8.979   4.853
 3566SOL    HW223172   5.947   0.120   4.800
 3567SOL     OW23173   7.301   5.477   2.888
 3567SOL    HW123174   7.383   5.520   2.925
 3567SOL    HW223175   7.307   5.473   2.788
 3568SOL     OW23176   4.667   7.066   7.042
 3568SOL    HW123177   4.644   7.163   7.034
 3568SOL    HW223178   4.612   7.013   6.977
 3569SOL     OW23179   4.876   3.418   1.470
 3569SOL    HW123180   4.945   3.481   1.432
 3569SOL    HW223181   4.788   3.465   1.474
 3570SOL     OW23182   4.153   2.481   2.618
 3570SOL    HW123183   4.197   2.399   2.655
 3570SOL    HW223184   4.061   2.459   2.586
 3571SOL     OW23185   0.619   3.984   4.614
 3571SOL    HW123186   0.687   4.003   4.686
 3571SOL    HW223187   0.664   3.981   4.525
 3572SOL     OW23188   3.125   2.303   3.181
 3572SOL    HW123189   3.094   2.371   3.115
 3572SOL    HW223190   3.182   2.235   3.136
 3573SOL     OW23191   1.632   4.813   1.145
 3573SOL    HW123192   1.554   4.875   1.151
 3573SOL    HW223193   1.717   4.866   1.141
 3574SOL     OW23194   5.998   0.259   4.698
 3574SOL    HW123195   6.044   0.224   4.617
 3574SOL    HW223196   6.066   0.294   4.762
 3575SOL     OW23197   2.274   4.799   5.954
 3575SOL    HW123198   2.223   4.742   5.890
 3575SOL    HW223199   2.268   4.759   6.046
 3576SOL     OW23200   4.585   1.113   2.071
 3576SOL    HW123201   4.544   1.143   1.985
 3576SOL    HW223202   4.586   1.013   2.075
 3577SOL     OW23203   7.130   3.213   3.058
 3577SOL    HW123204   7.103   3.286   3.120
 3577SOL    HW223205   7.069   3.134   3.071
 3578SOL     OW23206   3.507   5.437   0.173
 3578SOL    HW123207   3.501   5.467   0.078
 3578SOL    HW223208   3.492   5.339   0.179
 3579SOL     OW23209   1.783   5.218   3.151
 3579SOL    HW123210   1.869   5.192   3.196
 3579SOL    HW223211   1.716   5.243   3.220
 3580SOL     OW23212   7.139   5.710   4.519
 3580SOL    HW123213   7.052   5.672   4.551
 3580SOL    HW223214   7.212   5.686   4.584
 3581SOL     OW23215   0.682   1.476   3.698
 3581SOL    HW123216   0.610   1.450   3.763
 3581SOL    HW223217   0.656   1.444   3.607
 3582SOL     OW23218   0.350   4.158   1.082
 3582SOL    HW123219   0.345   4.252   1.116
 3582SOL    HW223220   0.386   4.158   0.988
 3583SOL     OW23221   3.317   4.198   3.603
 3583SOL    HW123222   3.266   4.151   3.676
 3583SOL    HW223223   3.254   4.253   3.549
 3584SOL     OW23224   1.484   6.944   1.092
 3584SOL    HW123225   1.537   6.940   1.007
 3584SOL    HW223226   1.537   6.901   1.166
 3585SOL     OW23227   5.048   3.474   2.441
 3585SOL    HW123228   5.064   3.401   2.375
 3585SOL    HW223229   4.950   3.491   2.450
 3586SOL     OW23230   6.567   2.976   1.500
 3586SOL    HW123231   6.494   2.939   1.443
 3586SOL    HW223232   6.638   2.907   1.513
 3587SOL     OW23233   3.299   4.835   6.673
 3587SOL    HW123234   3.371   4.804   6.611
 3587SOL    HW223235   3.305   4.785   6.759
 3588SOL     OW23236   3.084   2.996   2.339
 3588SOL    HW123237   3.108   2.917   2.395
 3588SOL    HW223238   3.041   3.066   2.396
 3589SOL     OW23239   7.010   5.255   4.105
 3589SOL    HW123240   7.097   5.303   4.112
 3589SOL    HW223241   7.026   5.156   4.105
 3590SOL     OW23242   5.366   6.136   6.942
 3590SOL    HW123243   5.383   6.067   7.013
 3590SOL    HW223244   5.307   6.207   6.979
 3591SOL     OW23245   2.290   6.000   0.190
 3591SOL    HW123246   2.349   6.066   0.236
 3591SOL    HW223247   2.344   5.921   0.161
 3592SOL     OW23248   0.196   2.477   6.795
 3592SOL    HW123249   0.190   2.388   6.840
 3592SOL    HW223250   0.284   2.519   6.815
 3593SOL     OW23251   1.030   4.318   5.426
 3593SOL    HW123252   1.017   4.375   5.344
 3593SOL    HW223253   0.946   4.319   5.480
 3594SOL     OW23254   4.021   3.760   4.140
 3594SOL    HW123255   4.024   3.777   4.238
 3594SOL    HW223256   3.944   3.700   4.118
 3595SOL     OW23257   2.929   7.265   0.271
 3595SOL    HW123258   2.928   7.166   0.281
 3595SOL    HW223259   2.928   7.308   0.361
 3596SOL     OW23260   3.017   2.462   2.742
 3596SOL    HW123261   3.094   2.407   2.708
 3596SOL    HW223262   3.015   2.458   2.842
 3597SOL     OW23263   5.547   1.117   3.480
 3597SOL    HW123264   5.566   1.069   3.395
 3597SOL    HW223265   5.452   1.101   3.507
 3598SOL     OW23266   5.068   2.249   5.171
 3598SOL    HW123267   4.991   2.263   5.109
 3598SOL    HW223268   5.034   2.230   5.263
 3599SOL     OW23269   4.326   7.057   7.177
 3599SOL    HW123270   4.322   7.111   7.092
 3599SOL    HW223271   4.398   7.094   7.236
 3600SOL     OW23272   0.761   4.116   5.893
 3600SOL    HW123273   0.851   4.095   5.854
 3600SOL    HW223274   0.694   4.051   5.858
 3601SOL     OW23275   6.513   6.127   6.688
 3601SOL    HW123276   6.472   6.163   6.604
 3601SOL    HW223277   6.487   6.031   6.700
 3602SOL     OW23278   1.734   2.370   4.203
 3602SOL    HW123279   1.649   2.320   4.192
 3602SOL    HW223280   1.791   2.325   4.272
 3603SOL     OW23281   6.140   3.260   0.998
 3603SOL    HW123282   6.160   3.356   1.018
 3603SOL    HW223283   6.075   3.224   1.065
 3604SOL     OW23284   6.649   6.983   1.192
 3604SOL    HW123285   6.634   6.932   1.108
 3604SOL    HW223286   6.605   6.936   1.269
 3605SOL     OW23287   4.223   6.584   3.967
 3605SOL    HW123288   4.257   6.542   3.883
 3605SOL    HW223289   4.185   6.674   3.947
 3606SOL     OW23290   3.178   7.013   6.449
 3606SOL    HW123291   3.130   6.963   6.522
 3606SOL    HW223292   3.274   6.987   6.449
 3607SOL     OW23293   4.739   2.758   5.004
 3607SOL    HW123294   4.808   2.783   4.936
 3607SOL    HW223295   4.648   2.769   4.963
 3608SOL     OW23296   2.334   6.583   0.305
 3608SOL    HW123297   2.293   6.673   0.318
 3608SOL    HW223298   2.263   6.515   0.288
 3609SOL     OW23299   5.535   4.041   3.537
 3609SOL    HW123300   5.572   4.105   3.470
 3609SOL    HW223301   5.610   3.993   3.583
 3610SOL     OW23302   6.193   5.733   4.226
 3610SOL    HW123303   6.158   5.644   4.196
 3610SOL    HW223304   6.242   5.776   4.151
 3611SOL     OW23305   3.944   3.289   4.920
 3611SOL    HW123306   3.979   3.371   4.876
 3611SOL    HW223307   3.943   3.213   4.854
 3612SOL     OW23308   3.510   4.484   5.110
 3612SOL    HW123309   3.506   4.584   5.117
 3612SOL    HW223310   3.485   4.456   5.017
 3613SOL     OW23311   5.974   4.812   3.103
 3613SOL    HW123312   5.885   4.788   3.141
 3613SOL    HW223313   6.035   4.734   3.107
 3614SOL     OW23314   6.603   2.283   3.068
 3614SOL    HW123315   6.671   2.286   2.995
 3614SOL    HW223316   6.516   2.251   3.030
 3615SOL     OW23317   4.723   5.387   6.026
 3615SOL    HW123318   4.767   5.398   5.936
 3615SOL    HW223319   4.748   5.298   6.065
 3616SOL     OW23320   2.753   1.036   0.888
 3616SOL    HW123321   2.688   1.094   0.937
 3616SOL    HW223322   2.762   0.948   0.936
 3617SOL     OW23323   2.398   4.088   6.476
 3617SOL    HW123324   2.448   4.067   6.392
 3617SOL    HW223325   2.460   4.082   6.555
 3618SOL     OW23326   5.840   6.870   6.688
 3618SOL    HW123327   5.855   6.791   6.748
 3618SOL    HW223328   5.907   6.941   6.710
 3619SOL     OW23329   2.665   2.910   7.069
 3619SOL    HW123330   2.676   2.963   7.153
 3619SOL    HW223331   2.754   2.889   7.031
 3620SOL     OW23332   5.081   3.283   6.801
 3620SOL    HW123333   5.151   3.322   6.742
 3620SOL    HW223334   5.068   3.342   6.880
 3621SOL     OW23335   1.871   0.979   5.415
 3621SOL    HW123336   1.784   0.950   5.456
 3621SOL    HW223337   1.921   1.035   5.480
 3622SOL     OW23338   0.454   6.750   1.360
 3622SOL    HW123339   0.423   6.655   1.370
 3622SOL    HW223340   0.536   6.763   1.415
 3623SOL     OW23341   1.490   4.170   2.488
 3623SOL    HW123342   1.574   4.116   2.486
 3623SOL    HW223343   1.475   4.212   2.398
 3624SOL     OW23344   3.531   0.305   7.038
 3624SOL    HW123345   3.545   0.206   7.028
 3624SOL    HW223346   3.514   0.327   7.134
 3625SOL     OW23347   0.131   5.508   6.350
 3625SOL    HW123348   0.120   5.606   6.334
 3625SOL    HW223349   0.130   5.459   6.263
 3626SOL     OW23350   3.801   3.336   3.004
 3626SOL    HW123351   3.844   3.253   3.038
 3626SOL    HW223352   3.714   3.350   3.051
 3627SOL     OW23353   5.003   6.433   2.296
 3627SOL    HW123354   4.968   6.363   2.233
 3627SOL    HW223355   4.969   6.523   2.268
 3628SOL     OW23356   6.867   1.925   7.362
 3628SOL    HW123357   6.868   2.025   7.374
 3628SOL    HW223358   6.791   1.886   7.414
 3629SOL     OW23359   5.609   1.806   3.091
 3629SOL    HW123360   5.540   1.824   3.161
 3629SOL    HW223361   5.635   1.710   3.094
 3630SOL     OW23362   4.874   0.790   4.239
 3630SOL    HW123363   4.916   0.867   4.286
 3630SOL    HW223364   4.777   0.809   4.223
 3631SOL     OW23365   5.442   1.606   3.470
 3631SOL    HW123366   5.508   1.531   3.469
 3631SOL    HW223367   5.349   1.568   3.470
 3632SOL     OW23368   6.024   5.311   3.317
 3632SOL    HW123369   5.950   5.349   3.262
 3632SOL    HW223370   6.043   5.218   3.287
 3633SOL     OW23371   6.951   4.932   4.746
 3633SOL    HW123372   6.987   5.023   4.765
 3633SOL    HW223373   6.983   4.901   4.656
 3634SOL     OW23374   4.604   1.928   0.050
 3634SOL    HW123375   4.550   2.012   0.043
 3634SOL    HW223376   4.701   1.952   0.060
 3635SOL     OW23377   4.751   1.252   8.965
 3635SOL    HW123378   4.713   1.333   0.011
 3635SOL    HW223379   4.848   1.266   8.948
 3636SOL     OW23380   1.075   4.985   7.261
 3636SOL    HW123381   1.078   4.895   7.303
 3636SOL    HW223382   0.991   5.032   7.288
 3637SOL     OW23383   3.973   7.278   5.136
 3637SOL    HW123384   4.018   7.319   5.216
 3637SOL    HW223385   4.037   7.218   5.088
 3638SOL     OW23386   2.320   3.779   0.964
 3638SOL    HW123387   2.223   3.776   0.941
 3638SOL    HW223388   2.367   3.702   0.923
 3639SOL     OW23389   5.493   6.999   3.445
 3639SOL    HW123390   5.581   6.973   3.406
 3639SOL    HW223391   5.507   7.047   3.532
 3640SOL     OW23392   6.740   6.771   1.913
 3640SOL    HW123393   6.692   6.706   1.972
 3640SOL    HW223394   6.740   6.737   1.819
 3641SOL     OW23395   4.273   6.427   6.598
 3641SOL    HW123396   4.183   6.466   6.583
 3641SOL    HW223397   4.293   6.361   6.526
 3642SOL     OW23398   3.592   5.896   1.230
 3642SOL    HW123399   3.493   5.906   1.227
 3642SOL    HW223400   3.615   5.799   1.244
 3643SOL     OW23401   3.488   2.279   6.432
 3643SOL    HW123402   3.506   2.226   6.349
 3643SOL    HW223403   3.436   2.224   6.497
 3644SOL     OW23404   3.528   2.830   0.672
 3644SOL    HW123405   3.604   2.859   0.613
 3644SOL    HW223406   3.475   2.910   0.700
 3645SOL     OW23407   5.031   4.078   4.076
 3645SOL    HW123408   4.965   4.128   4.133
 3645SOL    HW223409   4.994   4.065   3.984
 3646SOL     OW23410   5.833   2.454   2.763
 3646SOL    HW123411   5.857   2.421   2.855
 3646SOL    HW223412   5.854   2.383   2.696
 3647SOL     OW23413   1.453   0.114   6.413
 3647SOL    HW123414   1.517   0.135   6.339
 3647SOL    HW223415   1.383   0.185   6.418
 3648SOL     OW23416   3.349   0.531   7.299
 3648SOL    HW123417   3.390   0.440   7.311
 3648SOL    HW223418   3.290   0.551   7.377
 3649SOL     OW23419   5.165   0.741   5.949
 3649SOL    HW123420   5.261   0.766   5.959
 3649SOL    HW223421   5.109   0.802   6.006
 3650SOL     OW23422   1.147   3.586   3.238
 3650SOL    HW123423   1.135   3.569   3.141
 3650SOL    HW223424   1.151   3.498   3.287
 3651SOL     OW23425   3.264   0.198   4.321
 3651SOL    HW123426   3.227   0.114   4.362
 3651SOL    HW223427   3.298   0.258   4.393
 3652SOL     OW23428   3.394   1.572   5.821
 3652SOL    HW123429   3.408   1.615   5.731
 3652SOL    HW223430   3.402   1.642   5.892
 3653SOL     OW23431   1.415   0.053   1.198
 3653SOL    HW123432   1.445   0.133   1.146
 3653SOL    HW223433   1.493   8.993   1.213
 3654SOL     OW23434   4.140   0.105   3.675
 3654SOL    HW123435   4.134   0.018   3.724
 3654SOL    HW223436   4.234   0.138   3.676
 3655SOL     OW23437   4.659   1.277   4.771
 3655SOL    HW123438   4.677   1.351   4.706
 3655SOL    HW223439   4.564   1.280   4.800
 3656SOL     OW23440   1.872   3.179   2.058
 3656SOL    HW123441   1.876   3.274   2.088
 3656SOL    HW223442   1.794   3.167   1.997
 3657SOL     OW23443   0.461   0.424   1.528
 3657SOL    HW123444   0.440   0.443   1.624
 3657SOL    HW223445   0.381   0.445   1.472
 3658SOL     OW23446   5.034   1.675   4.222
 3658SOL    HW123447   5.073   1.690   4.313
 3658SOL    HW223448   5.058   1.751   4.162
 3659SOL     OW23449   3.164   5.088   6.362
 3659SOL    HW123450   3.171   4.991   6.337
 3659SOL    HW223451   3.172   5.098   6.461
 3660SOL     OW23452   1.528   3.463   3.896
 3660SOL    HW123453   1.446   3.435   3.944
 3660SOL    HW223454   1.522   3.433   3.800
 3661SOL     OW23455   4.690   3.893   1.088
 3661SOL    HW123456   4.702   3.987   1.056
 3661SOL    HW223457   4.753   3.833   1.038
 3662SOL     OW23458   3.216   6.849   5.170
 3662SOL    HW123459   3.316   6.851   5.174
 3662SOL    HW223460   3.184   6.756   5.190
 3663SOL     OW23461   0.569   2.440   0.912
 3663SOL    HW123462   0.482   2.405   0.948
 3663SOL    HW223463   0.601   2.380   0.838
 3664SOL     OW23464   4.659   4.940   5.975
 3664SOL    HW123465   4.707   4.855   5.957
 3664SOL    HW223466   4.697   5.013   5.917
 3665SOL     OW23467   1.324   5.704   6.945
 3665SOL    HW123468   1.356   5.672   6.856
 3665SOL    HW223469   1.339   5.633   7.014
 3666SOL     OW23470   5.627   5.957   5.469
 3666SOL    HW123471   5.573   5.879   5.503
 3666SOL    HW223472   5.600   5.976   5.375
 3667SOL     OW23473   2.555   7.104   0.412
 3667SOL    HW123474   2.507   7.117   0.325
 3667SOL    HW223475   2.577   7.194   0.451
 3668SOL     OW23476   5.967   5.322   4.308
 3668SOL    HW123477   6.008   5.283   4.391
 3668SOL    HW223478   6.013   5.286   4.228
 3669SOL     OW23479   5.302   2.802   0.296
 3669SOL    HW123480   5.253   2.855   0.228
 3669SOL    HW223481   5.319   2.709   0.261
 3670SOL     OW23482   6.858   2.388   0.373
 3670SOL    HW123483   6.933   2.322   0.359
 3670SOL    HW223484   6.846   2.442   0.290
 3671SOL     OW23485   0.841   4.255   2.690
 3671SOL    HW123486   0.807   4.347   2.670
 3671SOL    HW223487   0.941   4.258   2.697
 3672SOL     OW23488   6.026   3.604   1.815
 3672SOL    HW123489   6.098   3.590   1.748
 3672SOL    HW223490   5.942   3.560   1.783
 3673SOL     OW23491   0.681   4.202   6.873
 3673SOL    HW123492   0.717   4.212   6.966
 3673SOL    HW223493   0.708   4.113   6.836
 3674SOL     OW23494   5.515   6.146   3.448
 3674SOL    HW123495   5.461   6.112   3.371
 3674SOL    HW223496   5.528   6.244   3.439
 3675SOL     OW23497   3.022   6.353   7.016
 3675SOL    HW123498   3.095   6.298   7.056
 3675SOL    HW223499   2.953   6.292   6.976
 3676SOL     OW23500   2.405   3.422   5.771
 3676SOL    HW123501   2.350   3.370   5.837
 3676SOL    HW223502   2.409   3.373   5.684
 3677SOL     OW23503   1.514   4.008   3.084
 3677SOL    HW123504   1.571   4.091   3.086
 3677SOL    HW223505   1.547   3.946   3.013
 3678SOL     OW23506   3.322   4.615   6.372
 3678SOL    HW123507   3.357   4.526   6.345
 3678SOL    HW223508   3.394   4.667   6.419
 3679SOL     OW23509   0.815   1.410   2.292
 3679SOL    HW123510   0.877   1.448   2.224
 3679SOL    HW223511   0.866   1.395   2.377
 3680SOL     OW23512   3.495   3.052   1.523
 3680SOL    HW123513   3.495   2.955   1.498
 3680SOL    HW223514   3.407   3.092   1.498
 3681SOL     OW23515   6.458   1.553   4.576
 3681SOL    HW123516   6.361   1.562   4.600
 3681SOL    HW223517   6.513   1.595   4.648
 3682SOL     OW23518   0.462   0.400   0.318
 3682SOL    HW123519   0.439   0.475   0.255
 3682SOL    HW223520   0.427   0.314   0.281
 3683SOL     OW23521   3.255   6.960   6.852
 3683SOL    HW123522   3.321   7.019   6.805
 3683SOL    HW223523   3.223   6.890   6.789
 3684SOL     OW23524   0.180   5.909   5.127
 3684SOL    HW123525   0.163   5.871   5.036
 3684SOL    HW223526   0.271   5.880   5.158
 3685SOL     OW23527   3.920   6.053   0.464
 3685SOL    HW123528   3.963   6.031   0.551
 3685SOL    HW223529   3.935   5.978   0.400
 3686SOL     OW23530   3.170   7.064   0.758
 3686SOL    HW123531   3.173   7.014   0.845
 3686SOL    HW223532   3.257   7.052   0.711
 3687SOL     OW23533   4.396   6.823   0.357
 3687SOL    HW123534   4.489   6.854   0.336
 3687SOL    HW223535   4.370   6.854   0.449
 3688SOL     OW23536   1.281   3.801   4.266
 3688SOL    HW123537   1.294   3.900   4.262
 3688SOL    HW223538   1.365   3.758   4.299
 3689SOL     OW23539   5.297   0.756   3.925
 3689SOL    HW123540   5.223   0.728   3.986
 3689SOL    HW223541   5.385   0.729   3.964
 3690SOL     OW23542   4.838   0.301   6.146
 3690SOL    HW123543   4.829   0.221   6.205
 3690SOL    HW223544   4.930   0.302   6.106
 3691SOL     OW23545   6.801   3.298   5.149
 3691SOL    HW123546   6.756   3.256   5.227
 3691SOL    HW223547   6.812   3.231   5.076
 3692SOL     OW23548   4.845   2.855   3.856
 3692SOL    HW123549   4.785   2.934   3.840
 3692SOL    HW223550   4.793   2.783   3.902
 3693SOL     OW23551   3.614   2.564   1.384
 3693SOL    HW123552   3.687   2.564   1.453
 3693SOL    HW223553   3.653   2.588   1.295
 3694SOL     OW23554   2.350   2.001   1.333
 3694SOL    HW123555   2.397   2.062   1.398
 3694SOL    HW223556   2.352   2.041   1.242
 3695SOL     OW23557   4.978   3.069   7.268
 3695SOL    HW123558   5.008   3.164   7.262
 3695SOL    HW223559   4.893   3.064   7.321
 3696SOL     OW23560   1.236   6.276   5.325
 3696SOL    HW123561   1.300   6.243   5.394
 3696SOL    HW223562   1.244   6.220   5.242
 3697SOL     OW23563   3.137   0.344   3.480
 3697SOL    HW123564   3.055   0.390   3.516
 3697SOL    HW223565   3.132   0.247   3.501
 3698SOL     OW23566   5.912   2.411   7.082
 3698SOL    HW123567   5.993   2.392   7.027
 3698SOL    HW223568   5.853   2.330   7.084
 3699SOL     OW23569   4.649   5.591   7.115
 3699SOL    HW123570   4.665   5.502   7.072
 3699SOL    HW223571   4.553   5.616   7.105
 3700SOL     OW23572   2.480   2.193   1.483
 3700SOL    HW123573   2.578   2.185   1.463
 3700SOL    HW223574   2.464   2.177   1.580
 3701SOL     OW23575   1.267   2.016   3.012
 3701SOL    HW123576   1.200   2.014   3.087
 3701SOL    HW223577   1.353   1.975   3.044
 3702SOL     OW23578   5.073   0.746   0.535
 3702SOL    HW123579   5.079   0.842   0.508
 3702SOL    HW223580   5.158   0.700   0.511
 3703SOL     OW23581   4.507   7.137   7.368
 3703SOL    HW123582   4.600   7.174   7.368
 3703SOL    HW223583   4.510   7.040   7.394
 3704SOL     OW23584   2.207   2.692   0.487
 3704SOL    HW123585   2.289   2.637   0.501
 3704SOL    HW223586   2.187   2.699   0.389
 3705SOL     OW23587   6.359   6.263   2.198
 3705SOL    HW123588   6.354   6.326   2.121
 3705SOL    HW223589   6.451   6.225   2.203
 3706SOL     OW23590   3.492   2.044   4.364
 3706SOL    HW123591   3.471   1.949   4.384
 3706SOL    HW223592   3.587   2.063   4.387
 3707SOL     OW23593   0.900   1.448   1.573
 3707SOL    HW123594   0.823   1.452   1.509
 3707SOL    HW223595   0.870   1.409   1.660
 3708SOL     OW23596   2.693   0.185   5.358
 3708SOL    HW123597   2.767   0.198   5.291
 3708SOL    HW223598   2.697   0.091   5.393
 3709SOL     OW23599   6.735   1.467   7.101
 3709SOL    HW123600   6.797   1.390   7.089
 3709SOL    HW223601   6.642   1.439   7.078
 3710SOL     OW23602   4.618   4.674   6.310
 3710SOL    HW123603   4.706   4.648   6.269
 3710SOL    HW223604   4.622   4.770   6.338
 3711SOL     OW23605   3.749   6.785   2.949
 3711SOL    HW123606   3.845   6.780   2.977
 3711SOL    HW223607   3.706   6.696   2.962
 3712SOL     OW23608   2.515   4.699   6.322
 3712SOL    HW123609   2.424   4.699   6.280
 3712SOL    HW223610   2.584   4.709   6.250
 3713SOL     OW23611   4.708   5.199   1.982
 3713SOL    HW123612   4.687   5.195   1.884
 3713SOL    HW223613   4.793   5.250   1.996
 3714SOL     OW23614   2.568   1.681   6.548
 3714SOL    HW123615   2.587   1.583   6.551
 3714SOL    HW223616   2.596   1.723   6.635
 3715SOL     OW23617   3.778   0.467   1.907
 3715SOL    HW123618   3.856   0.528   1.920
 3715SOL    HW223619   3.697   0.522   1.884
 3716SOL     OW23620   2.794   4.655   0.543
 3716SOL    HW123621   2.806   4.605   0.457
 3716SOL    HW223622   2.700   4.689   0.549
 3717SOL     OW23623   0.760   5.885   6.088
 3717SOL    HW123624   0.694   5.926   6.025
 3717SOL    HW223625   0.826   5.955   6.117
 3718SOL     OW23626   0.511   1.613   6.950
 3718SOL    HW123627   0.479   1.701   6.914
 3718SOL    HW223628   0.477   1.602   7.044
 3719SOL     OW23629   3.659   4.190   3.191
 3719SOL    HW123630   3.758   4.183   3.202
 3719SOL    HW223631   3.615   4.178   3.280
 3720SOL     OW23632   6.252   5.557   1.452
 3720SOL    HW123633   6.271   5.649   1.486
 3720SOL    HW223634   6.160   5.555   1.412
 3721SOL     OW23635   6.850   3.158   6.317
 3721SOL    HW123636   6.830   3.063   6.292
 3721SOL    HW223637   6.828   3.172   6.414
 3722SOL     OW23638   4.290   6.360   3.265
 3722SOL    HW123639   4.190   6.360   3.260
 3722SOL    HW223640   4.321   6.441   3.314
 3723SOL     OW23641   4.777   1.791   2.177
 3723SOL    HW123642   4.798   1.785   2.275
 3723SOL    HW223643   4.831   1.863   2.135
 3724SOL     OW23644   2.137   5.561   5.557
 3724SOL    HW123645   2.153   5.464   5.578
 3724SOL    HW223646   2.066   5.597   5.617
 3725SOL     OW23647   3.867   4.666   5.617
 3725SOL    HW123648   3.779   4.638   5.580
 3725SOL    HW223649   3.931   4.590   5.613
 3726SOL     OW23650   6.645   5.866   3.646
 3726SOL    HW123651   6.675   5.788   3.701
 3726SOL    HW223652   6.629   5.837   3.552
 3727SOL     OW23653   2.638   1.408   6.572
 3727SOL    HW123654   2.736   1.391   6.588
 3727SOL    HW223655   2.609   1.360   6.490
 3728SOL     OW23656   0.136   2.372   3.750
 3728SOL    HW123657   0.062   2.437   3.768
 3728SOL    HW223658   0.112   2.316   3.671
 3729SOL     OW23659   5.646   5.696   7.111
 3729SOL    HW123660   5.552   5.670   7.133
 3729SOL    HW223661   5.649   5.790   7.078
 3730SOL     OW23662   1.427   6.038   0.918
 3730SOL    HW123663   1.465   6.119   0.964
 3730SOL    HW223664   1.486   5.959   0.935
 3731SOL     OW23665   0.466   0.770   1.398
 3731SOL    HW123666   0.487   0.706   1.324
 3731SOL    HW223667   0.369   0.762   1.423
 3732SOL     OW23668   2.867   3.608   2.882
 3732SOL    HW123669   2.869   3.631   2.980
 3732SOL    HW223670   2.935   3.663   2.834
 3733SOL     OW23671   6.920   6.952   1.242
 3733SOL    HW123672   6.823   6.960   1.219
 3733SOL    HW223673   6.971   7.024   1.194
 3734SOL     OW23674   0.616   0.919   4.646
 3734SOL    HW123675   0.579   0.852   4.710
 3734SOL    HW223676   0.715   0.924   4.655
 3735SOL     OW23677   2.536   7.010   1.451
 3735SOL    HW123678   2.571   7.101   1.426
 3735SOL    HW223679   2.463   7.020   1.519
 3736SOL     OW23680   3.571   5.047   6.217
 3736SOL    HW123681   3.488   5.003   6.184
 3736SOL    HW223682   3.547   5.130   6.267
 3737SOL     OW23683   3.715   2.678   5.271
 3737SOL    HW123684   3.768   2.642   5.347
 3737SOL    HW223685   3.777   2.712   5.200
 3738SOL     OW23686   0.949   6.187   3.872
 3738SOL    HW123687   0.874   6.213   3.933
 3738SOL    HW223688   0.967   6.263   3.809
 3739SOL     OW23689   6.624   4.394   6.407
 3739SOL    HW123690   6.649   4.448   6.326
 3739SOL    HW223691   6.626   4.453   6.488
 3740SOL     OW23692   3.616   5.988   1.669
 3740SOL    HW123693   3.592   6.036   1.584
 3740SOL    HW223694   3.547   6.007   1.739
 3741SOL     OW23695   2.978   2.847   4.010
 3741SOL    HW123696   3.029   2.858   3.925
 3741SOL    HW223697   3.019   2.773   4.064
 3742SOL     OW23698   6.757   7.233   1.235
 3742SOL    HW123699   6.706   7.147   1.223
 3742SOL    HW223700   6.755   7.260   1.331
 3743SOL     OW23701   2.429   1.427   0.692
 3743SOL    HW123702   2.372   1.472   0.761
 3743SOL    HW223703   2.443   1.331   0.718
 3744SOL     OW23704   6.989   2.703   4.802
 3744SOL    HW123705   6.926   2.762   4.751
 3744SOL    HW223706   6.979   2.608   4.770
 3745SOL     OW23707   1.207   3.068   8.961
 3745SOL    HW123708   1.155   3.136   0.012
 3745SOL    HW223709   1.269   3.020   0.023
 3746SOL     OW23710   6.236   6.388   5.866
 3746SOL    HW123711   6.234   6.406   5.768
 3746SOL    HW223712   6.234   6.474   5.916
 3747SOL     OW23713   2.744   3.717   4.347
 3747SOL    HW123714   2.688   3.683   4.271
 3747SOL    HW223715   2.687   3.768   4.411
 3748SOL     OW23716   0.307   0.949   0.099
 3748SOL    HW123717   0.337   0.981   0.009
 3748SOL    HW223718   0.342   0.857   0.115
 3749SOL     OW23719   1.425   7.243   3.476
 3749SOL    HW123720   1.525   7.241   3.486
 3749SOL    HW223721   1.388   7.322   3.525
 3750SOL     OW23722   6.613   4.156   8.999
 3750SOL    HW123723   6.580   4.250   8.992
 3750SOL    HW223724   6.640   4.137   0.094
 3751SOL     OW23725   1.257   4.569   3.269
 3751SOL    HW123726   1.277   4.508   3.192
 3751SOL    HW223727   1.209   4.517   3.341
 3752SOL     OW23728   6.630   0.490   5.928
 3752SOL    HW123729   6.706   0.495   5.863
 3752SOL    HW223730   6.627   0.574   5.983
 3753SOL     OW23731   4.383   5.659   7.087
 3753SOL    HW123732   4.361   5.684   6.992
 3753SOL    HW223733   4.371   5.738   7.146
 3754SOL     OW23734   6.622   1.234   1.586
 3754SOL    HW123735   6.543   1.279   1.543
 3754SOL    HW223736   6.702   1.294   1.579
 3755SOL     OW23737   4.305   3.737   0.160
 3755SOL    HW123738   4.372   3.664   0.150
 3755SOL    HW223739   4.352   3.826   0.156
 3756SOL     OW23740   7.070   3.177   1.266
 3756SOL    HW123741   7.019   3.095   1.240
 3756SOL    HW223742   7.088   3.233   1.185
 3757SOL     OW23743   0.880   5.335   1.852
 3757SOL    HW123744   0.866   5.370   1.945
 3757SOL    HW223745   0.852   5.405   1.786
 3758SOL     OW23746   6.036   3.353   3.152
 3758SOL    HW123747   5.971   3.318   3.085
 3758SOL    HW223748   5.991   3.359   3.242
 3759SOL     OW23749   5.119   4.612   6.086
 3759SOL    HW123750   5.058   4.565   6.022
 3759SOL    HW223751   5.200   4.646   6.038
 3760SOL     OW23752   4.341   0.797   2.247
 3760SOL    HW123753   4.326   0.699   2.256
 3760SOL    HW223754   4.394   0.830   2.325
 3761SOL     OW23755   0.340   1.799   0.369
 3761SOL    HW123756   0.242   1.784   0.353
 3761SOL    HW223757   0.388   1.802   0.282
 3762SOL     OW23758   1.815   4.994   2.332
 3762SOL    HW123759   1.774   4.927   2.270
 3762SOL    HW223760   1.764   5.079   2.328
 3763SOL     OW23761   6.744   0.947   7.057
 3763SOL    HW123762   6.806   0.996   6.997
 3763SOL    HW223763   6.673   1.010   7.089
 3764SOL     OW23764   7.175   1.806   2.408
 3764SOL    HW123765   7.107   1.747   2.365
 3764SOL    HW223766   7.135   1.850   2.488
 3765SOL     OW23767   1.357   0.342   1.297
 3765SOL    HW123768   1.275   0.310   1.249
 3765SOL    HW223769   1.434   0.345   1.234
 3766SOL     OW23770   1.021   3.528   1.058
 3766SOL    HW123771   1.112   3.537   1.018
 3766SOL    HW223772   0.988   3.618   1.086
 3767SOL     OW23773   3.476   0.944   4.841
 3767SOL    HW123774   3.565   0.957   4.797
 3767SOL    HW223775   3.414   0.896   4.779
 3768SOL     OW23776   4.847   6.145   6.512
 3768SOL    HW123777   4.800   6.101   6.589
 3768SOL    HW223778   4.908   6.216   6.547
 3769SOL     OW23779   2.889   4.620   3.717
 3769SOL    HW123780   2.935   4.536   3.686
 3769SOL    HW223781   2.956   4.679   3.762
 3770SOL     OW23782   3.091   0.044   1.894
 3770SOL    HW123783   3.158   0.105   1.937
 3770SOL    HW223784   3.037   9.000   1.965
 3771SOL     OW23785   3.112   3.029   4.766
 3771SOL    HW123786   3.159   3.025   4.677
 3771SOL    HW223787   3.122   3.120   4.806
 3772SOL     OW23788   1.780   8.945   7.304
 3772SOL    HW123789   1.813   8.853   7.323
 3772SOL    HW223790   1.832   8.984   7.228
 3773SOL     OW23791   6.074   5.060   3.188
 3773SOL    HW123792   6.047   4.969   3.156
 3773SOL    HW223793   6.079   5.123   3.110
 3774SOL     OW23794   6.392   4.388   1.328
 3774SOL    HW123795   6.341   4.326   1.389
 3774SOL    HW223796   6.390   4.481   1.366
 3775SOL     OW23797   3.174   5.848   4.801
 3775SOL    HW123798   3.161   5.943   4.773
 3775SOL    HW223799   3.100   5.791   4.764
 3776SOL     OW23800   0.220   1.896   2.897
 3776SOL    HW123801   0.296   1.850   2.849
 3776SOL    HW223802   0.199   1.847   2.981
 3777SOL     OW23803   7.183   4.338   6.764
 3777SOL    HW123804   7.102   4.393   6.785
 3777SOL    HW223805   7.173   4.297   6.673
 3778SOL     OW23806   5.385   6.509   6.267
 3778SOL    HW123807   5.394   6.513   6.168
 3778SOL    HW223808   5.317   6.441   6.292
 3779SOL     OW23809   3.251   0.752   6.532
 3779SOL    HW123810   3.345   0.780   6.549
 3779SOL    HW223811   3.248   0.653   6.518
 3780SOL     OW23812   5.742   2.874   1.945
 3780SOL    HW123813   5.762   2.915   1.856
 3780SOL    HW223814   5.769   2.936   2.018
 3781SOL     OW23815   4.746   6.093   2.228
 3781SOL    HW123816   4.816   6.147   2.182
 3781SOL    HW223817   4.677   6.063   2.161
 3782SOL     OW23818   1.178   7.206   6.938
 3782SOL    HW123819   1.167   7.291   6.991
 3782SOL    HW223820   1.250   7.219   6.870
 3783SOL     OW23821   0.141   2.543   2.053
 3783SOL    HW123822   0.143   2.631   2.005
 3783SOL    HW223823   0.111   2.472   1.989
 3784SOL     OW23824   4.852   5.398   3.749
 3784SOL    HW123825   4.887   5.346   3.671
 3784SOL    HW223826   4.928   5.420   3.811
 3785SOL     OW23827   2.734   7.137   5.164
 3785SOL    HW123828   2.742   7.038   5.159
 3785SOL    HW223829   2.757   7.168   5.256
 3786SOL     OW23830   4.637   0.701   0.782
 3786SOL    HW123831   4.732   0.709   0.751
 3786SOL    HW223832   4.620   0.769   0.854
 3787SOL     OW23833   2.654   3.094   3.539
 3787SOL    HW123834   2.644   3.005   3.583
 3787SOL    HW223835   2.733   3.093   3.478
 3788SOL     OW23836   5.445   6.227   4.095
 3788SOL    HW123837   5.505   6.268   4.163
 3788SOL    HW223838   5.482   6.138   4.067
 3789SOL     OW23839   1.338   2.962   1.895
 3789SOL    HW123840   1.430   2.925   1.887
 3789SOL    HW223841   1.295   2.926   1.978
 3790SOL     OW23842   0.442   3.685   6.189
 3790SOL    HW123843   0.477   3.620   6.122
 3790SOL    HW223844   0.447   3.645   6.280
 3791SOL     OW23845   0.750   1.118   6.760
 3791SOL    HW123846   0.695   1.114   6.676
 3791SOL    HW223847   0.807   1.200   6.758
 3792SOL     OW23848   4.688   0.477   5.232
 3792SOL    HW123849   4.747   0.402   5.201
 3792SOL    HW223850   4.592   0.454   5.214
 3793SOL     OW23851   6.292   5.213   5.691
 3793SOL    HW123852   6.317   5.142   5.626
 3793SOL    HW223853   6.193   5.209   5.710
 3794SOL     OW23854   7.192   5.797   6.113
 3794SOL    HW123855   7.233   5.731   6.050
 3794SOL    HW223856   7.253   5.811   6.191
 3795SOL     OW23857   2.740   2.624   3.539
 3795SOL    HW123858   2.668   2.556   3.538
 3795SOL    HW223859   2.801   2.608   3.616
 3796SOL     OW23860   0.087   2.347   4.358
 3796SOL    HW123861   0.140   2.330   4.441
 3796SOL    HW223862   8.993   2.317   4.372
 3797SOL     OW23863   6.029   4.822   3.685
 3797SOL    HW123864   6.037   4.740   3.628
 3797SOL    HW223865   6.032   4.904   3.626
 3798SOL     OW23866   4.237   2.308   3.744
 3798SOL    HW123867   4.155   2.325   3.688
 3798SOL    HW223868   4.215   2.322   3.840
 3799SOL     OW23869   7.094   4.385   5.337
 3799SOL    HW123870   7.148   4.365   5.419
 3799SOL    HW223871   7.121   4.323   5.264
 3800SOL     OW23872   0.326   3.595   7.211
 3800SOL    HW123873   0.345   3.571   7.306
 3800SOL    HW223874   0.291   3.515   7.162
 3801SOL     OW23875   7.109   5.177   5.947
 3801SOL    HW123876   7.026   5.222   5.979
 3801SOL    HW223877   7.182   5.189   6.014
 3802SOL     OW23878   0.595   3.207   7.214
 3802SOL    HW123879   0.552   3.182   7.128
 3802SOL    HW223880   0.528   3.200   7.288
 3803SOL     OW23881   2.365   6.254   0.381
 3803SOL    HW123882   2.334   6.230   0.473
 3803SOL    HW223883   2.294   6.309   0.336
 3804SOL     OW23884   4.482   1.042   6.800
 3804SOL    HW123885   4.390   1.076   6.818
 3804SOL    HW223886   4.526   1.019   6.887
 3805SOL     OW23887   5.984   5.441   6.285
 3805SOL    HW123888   6.013   5.492   6.366
 3805SOL    HW223889   6.047   5.461   6.209
 3806SOL     OW23890   2.069   4.527   5.524
 3806SOL    HW123891   2.008   4.450   5.504
 3806SOL    HW223892   2.016   4.611   5.528
 3807SOL     OW23893   5.123   3.745   5.369
 3807SOL    HW123894   5.170   3.833   5.364
 3807SOL    HW223895   5.173   3.677   5.317
 3808SOL     OW23896   3.323   6.438   5.591
 3808SOL    HW123897   3.347   6.366   5.526
 3808SOL    HW223898   3.361   6.416   5.681
 3809SOL     OW23899   1.949   5.896   5.557
 3809SOL    HW123900   1.951   5.814   5.615
 3809SOL    HW223901   1.859   5.939   5.563
 3810SOL     OW23902   0.763   4.678   7.254
 3810SOL    HW123903   0.711   4.709   7.175
 3810SOL    HW223904   0.821   4.601   7.227
 3811SOL     OW23905   1.356   0.753   4.163
 3811SOL    HW123906   1.328   0.771   4.257
 3811SOL    HW223907   1.456   0.751   4.158
 3812SOL     OW23908   6.522   4.310   4.095
 3812SOL    HW123909   6.462   4.345   4.167
 3812SOL    HW223910   6.577   4.234   4.131
 3813SOL     OW23911   7.212   4.725   5.967
 3813SOL    HW123912   7.145   4.794   5.939
 3813SOL    HW223913   7.267   4.761   6.043
 3814SOL     OW23914   5.551   4.071   5.858
 3814SOL    HW123915   5.568   4.009   5.781
 3814SOL    HW223916   5.553   4.165   5.825
 3815SOL     OW23917   4.504   6.822   2.826
 3815SOL    HW123918   4.505   6.809   2.727
 3815SOL    HW223919   4.420   6.784   2.864
 3816SOL     OW23920   4.894   6.783   3.269
 3816SOL    HW123921   4.841   6.828   3.197
 3816SOL    HW223922   4.874   6.826   3.357
 3817SOL     OW23923   1.283   0.458   2.506
 3817SOL    HW123924   1.238   0.462   2.417
 3817SOL    HW223925   1.275   0.365   2.543
 3818SOL     OW23926   2.017   3.675   1.268
 3818SOL    HW123927   1.986   3.672   1.173
 3818SOL    HW223928   2.096   3.615   1.279
 3819SOL     OW23929   4.132   2.671   1.843
 3819SOL    HW123930   4.185   2.633   1.919
 3819SOL    HW223931   4.193   2.722   1.782
 3820SOL     OW23932   0.204   5.353   6.125
 3820SOL    HW123933   0.294   5.312   6.138
 3820SOL    HW223934   0.203   5.404   6.039
 3821SOL     OW23935   2.806   3.325   5.564
 3821SOL    HW123936   2.824   3.326   5.466
 3821SOL    HW223937   2.873   3.380   5.612
 3822SOL     OW23938   1.330   1.551   0.928
 3822SOL    HW123939   1.316   1.452   0.930
 3822SOL    HW223940   1.390   1.575   0.852
 3823SOL     OW23941   6.197   2.090   5.148
 3823SOL    HW123942   6.105   2.050   5.148
 3823SOL    HW223943   6.223   2.115   5.242
 3824SOL     OW23944   7.103   4.054   4.588
 3824SOL    HW123945   7.159   4.115   4.533
 3824SOL    HW223946   7.022   4.027   4.536
 3825SOL     OW23947   4.435   7.219   6.064
 3825SOL    HW123948   4.343   7.257   6.067
 3825SOL    HW223949   4.497   7.279   6.115
 3826SOL     OW23950   3.816   1.518   6.039
 3826SOL    HW123951   3.899   1.543   5.989
 3826SOL    HW223952   3.779   1.599   6.084
 3827SOL     OW23953   0.741   3.577   1.885
 3827SOL    HW123954   0.714   3.588   1.980
 3827SOL    HW223955   0.840   3.562   1.879
 3828SOL     OW23956   6.928   3.587   4.561
 3828SOL    HW123957   7.009   3.553   4.513
 3828SOL    HW223958   6.858   3.612   4.494
 3829SOL     OW23959   3.223   6.589   2.026
 3829SOL    HW123960   3.218   6.560   1.930
 3829SOL    HW223961   3.131   6.610   2.059
 3830SOL     OW23962   1.610   5.046   3.410
 3830SOL    HW123963   1.574   5.066   3.319
 3830SOL    HW223964   1.681   5.112   3.433
 3831SOL     OW23965   5.728   6.419   6.162
 3831SOL    HW123966   5.671   6.383   6.087
 3831SOL    HW223967   5.762   6.509   6.137
 3832SOL     OW23968   5.049   4.156   3.759
 3832SOL    HW123969   5.076   4.062   3.738
 3832SOL    HW223970   5.117   4.198   3.819
 3833SOL     OW23971   6.084   7.134   3.875
 3833SOL    HW123972   6.132   7.047   3.867
 3833SOL    HW223973   6.059   7.167   3.784
 3834SOL     OW23974   2.386   6.811   6.007
 3834SOL    HW123975   2.319   6.873   5.966
 3834SOL    HW223976   2.389   6.726   5.953
 3835SOL     OW23977   4.160   2.344   0.707
 3835SOL    HW123978   4.142   2.413   0.637
 3835SOL    HW223979   4.203   2.387   0.787
 3836SOL     OW23980   1.622   2.829   1.144
 3836SOL    HW123981   1.690   2.771   1.101
 3836SOL    HW223982   1.606   2.910   1.087
 3837SOL     OW23983   7.023   1.722   4.264
 3837SOL    HW123984   7.002   1.691   4.172
 3837SOL    HW223985   6.946   1.772   4.302
 3838SOL     OW23986   4.395   4.345   3.247
 3838SOL    HW123987   4.347   4.411   3.306
 3838SOL    HW223988   4.407   4.385   3.155
 3839SOL     OW23989   3.026   7.250   6.431
 3839SOL    HW123990   3.079   7.167   6.448
 3839SOL    HW223991   3.075   7.308   6.367
 3840SOL     OW23992   0.940   4.005   7.164
 3840SOL    HW123993   0.854   3.960   7.188
 3840SOL    HW223994   1.008   3.936   7.141
 3841SOL     OW23995   5.217   5.431   5.142
 3841SOL    HW123996   5.202   5.371   5.064
 3841SOL    HW223997   5.272   5.383   5.210
 3842SOL     OW23998   2.455   2.820   0.320
 3842SOL    HW123999   2.524   2.790   0.253
 3842SOL    HW224000   2.486   2.796   0.412
 3843SOL     OW24001   4.780   3.193   2.625
 3843SOL    HW124002   4.811   3.098   2.611
 3843SOL    HW224003   4.696   3.193   2.678
 3844SOL     OW24004   3.413   3.961   5.592
 3844SOL    HW124005   3.348   3.898   5.550
 3844SOL    HW224006   3.502   3.950   5.548
 3845SOL     OW24007   0.543   0.949   0.903
 3845SOL    HW124008   0.452   0.977   0.934
 3845SOL    HW224009   0.576   1.015   0.835
 3846SOL     OW24010   0.358   5.021   1.603
 3846SOL    HW124011   0.335   4.940   1.656
 3846SOL    HW224012   0.307   5.100   1.638
 3847SOL     OW24013   2.822   5.018   1.593
 3847SOL    HW124014   2.732   4.983   1.619
 3847SOL    HW224015   2.834   5.009   1.494
 3848SOL     OW24016   4.897   5.689   6.602
 3848SOL    HW124017   4.934   5.671   6.511
 3848SOL    HW224018   4.972   5.709   6.665
 3849SOL     OW24019   6.803   1.257   0.773
 3849SOL    HW124020   6.728   1.318   0.798
 3849SOL    HW224021   6.789   1.223   0.680
 3850SOL     OW24022   4.648   6.447   3.432
 3850SOL    HW124023   4.716   6.472   3.501
 3850SOL    HW224024   4.683   6.472   3.341
 3851SOL     OW24025   3.885   2.385   2.523
 3851SOL    HW124026   3.847   2.475   2.543
 3851SOL    HW224027   3.828   2.339   2.455
 3852SOL     OW24028   3.109   0.424   3.924
 3852SOL    HW124029   3.082   0.520   3.916
 3852SOL    HW224030   3.205   0.414   3.899
 3853SOL     OW24031   5.368   4.891   6.321
 3853SOL    HW124032   5.416   4.815   6.364
 3853SOL    HW224033   5.397   4.977   6.362
 3854SOL     OW24034   2.868   4.073   0.419
 3854SOL    HW124035   2.871   4.014   0.500
 3854SOL    HW224036   2.876   4.017   0.336
 3855SOL     OW24037   2.252   1.475   0.313
 3855SOL    HW124038   2.222   1.546   0.377
 3855SOL    HW224039   2.312   1.412   0.360
 3856SOL     OW24040   6.671   2.512   1.059
 3856SOL    HW124041   6.756   2.505   1.112
 3856SOL    HW224042   6.687   2.475   0.967
 3857SOL     OW24043   1.270   4.050   0.834
 3857SOL    HW124044   1.325   4.054   0.751
 3857SOL    HW224045   1.184   4.099   0.820
 3858SOL     OW24046   6.020   2.579   3.117
 3858SOL    HW124047   5.968   2.499   3.087
 3858SOL    HW224048   6.055   2.564   3.209
 3859SOL     OW24049   4.172   3.016   3.721
 3859SOL    HW124050   4.092   2.966   3.687
 3859SOL    HW224051   4.256   2.971   3.690
 3860SOL     OW24052   3.016   2.483   5.963
 3860SOL    HW124053   3.036   2.418   5.890
 3860SOL    HW224054   3.021   2.437   6.051
 3861SOL     OW24055   2.782   4.234   5.332
 3861SOL    HW124056   2.773   4.245   5.233
 3861SOL    HW224057   2.869   4.191   5.354
 3862SOL     OW24058   3.402   1.161   5.561
 3862SOL    HW124059   3.308   1.131   5.575
 3862SOL    HW224060   3.429   1.221   5.636
 3863SOL     OW24061   6.117   4.933   2.162
 3863SOL    HW124062   6.100   5.026   2.128
 3863SOL    HW224063   6.175   4.938   2.244
 3864SOL     OW24064   6.179   4.093   1.869
 3864SOL    HW124065   6.098   4.034   1.857
 3864SOL    HW224066   6.241   4.080   1.791
 3865SOL     OW24067   3.408   3.473   3.919
 3865SOL    HW124068   3.369   3.382   3.932
 3865SOL    HW224069   3.389   3.530   3.999
 3866SOL     OW24070   5.291   1.839   2.706
 3866SOL    HW124071   5.250   1.747   2.706
 3866SOL    HW224072   5.381   1.836   2.750
 3867SOL     OW24073   0.413   4.919   2.526
 3867SOL    HW124074   0.337   4.910   2.590
 3867SOL    HW224075   0.379   4.906   2.433
 3868SOL     OW24076   4.128   0.171   2.229
 3868SOL    HW124077   4.084   0.259   2.212
 3868SOL    HW224078   4.092   0.103   2.166
 3869SOL     OW24079   2.984   0.005   6.616
 3869SOL    HW124080   2.980   8.932   6.548
 3869SOL    HW224081   2.942   8.975   6.701
 3870SOL     OW24082   2.762   6.850   1.455
 3870SOL    HW124083   2.678   6.903   1.444
 3870SOL    HW224084   2.767   6.814   1.548
 3871SOL     OW24085   0.588   0.422   0.561
 3871SOL    HW124086   0.530   0.485   0.613
 3871SOL    HW224087   0.550   0.410   0.469
 3872SOL     OW24088   3.359   7.114   7.271
 3872SOL    HW124089   3.302   7.070   7.341
 3872SOL    HW224090   3.333   7.211   7.263
 3873SOL     OW24091   1.670   3.760   5.926
 3873SOL    HW124092   1.711   3.703   5.855
 3873SOL    HW224093   1.571   3.761   5.915
 3874SOL     OW24094   1.683   3.420   1.524
 3874SOL    HW124095   1.731   3.415   1.436
 3874SOL    HW224096   1.646   3.512   1.536
 3875SOL     OW24097   4.589   1.697   6.139
 3875SOL    HW124098   4.613   1.793   6.128
 3875SOL    HW224099   4.560   1.679   6.233
 3876SOL     OW24100   4.990   3.718   6.858
 3876SOL    HW124101   4.967   3.816   6.853
 3876SOL    HW224102   5.085   3.705   6.831
 3877SOL     OW24103   4.045   1.605   5.931
 3877SOL    HW124104   4.129   1.587   5.879
 3877SOL    HW224105   4.042   1.702   5.955
 3878SOL     OW24106   1.359   4.017   2.144
 3878SOL    HW124107   1.283   4.061   2.097
 3878SOL    HW224108   1.323   3.952   2.212
 3879SOL     OW24109   3.210   3.263   0.756
 3879SOL    HW124110   3.223   3.254   0.657
 3879SOL    HW224111   3.198   3.360   0.779
 3880SOL     OW24112   1.233   3.935   7.344
 3880SOL    HW124113   1.320   3.905   7.306
 3880SOL    HW224114   1.237   4.033   7.363
 3881SOL     OW24115   6.818   3.115   4.497
 3881SOL    HW124116   6.835   3.167   4.581
 3881SOL    HW224117   6.823   3.017   4.517
 3882SOL     OW24118   6.804   4.168   5.085
 3882SOL    HW124119   6.853   4.252   5.064
 3882SOL    HW224120   6.786   4.118   5.000
 3883SOL     OW24121   0.244   2.976   7.148
 3883SOL    HW124122   0.220   3.002   7.241
 3883SOL    HW224123   0.187   2.899   7.119
 3884SOL     OW24124   5.731   6.936   0.351
 3884SOL    HW124125   5.788   6.929   0.270
 3884SOL    HW224126   5.694   6.846   0.374
 3885SOL     OW24127   3.342   5.865   3.088
 3885SOL    HW124128   3.420   5.838   3.146
 3885SOL    HW224129   3.299   5.784   3.050
 3886SOL     OW24130   6.544   7.254   2.463
 3886SOL    HW124131   6.471   7.283   2.525
 3886SOL    HW224132   6.505   7.194   2.392
 3887SOL     OW24133   3.722   5.464   0.593
 3887SOL    HW124134   3.664   5.505   0.522
 3887SOL    HW224135   3.816   5.497   0.582
 3888SOL     OW24136   4.604   6.471   3.800
 3888SOL    HW124137   4.606   6.528   3.883
 3888SOL    HW224138   4.604   6.375   3.826
 3889SOL     OW24139   5.262   0.282   3.275
 3889SOL    HW124140   5.215   0.215   3.332
 3889SOL    HW224141   5.200   0.315   3.204
 3890SOL     OW24142   3.318   1.629   0.877
 3890SOL    HW124143   3.404   1.672   0.850
 3890SOL    HW224144   3.264   1.692   0.932
 3891SOL     OW24145   5.830   5.396   3.150
 3891SOL    HW124146   5.753   5.335   3.133
 3891SOL    HW224147   5.815   5.483   3.102
 3892SOL     OW24148   5.267   3.076   5.096
 3892SOL    HW124149   5.300   2.982   5.105
 3892SOL    HW224150   5.191   3.080   5.031
 3893SOL     OW24151   5.136   4.122   3.190
 3893SOL    HW124152   5.057   4.139   3.130
 3893SOL    HW224153   5.120   4.165   3.279
 3894SOL     OW24154   0.543   0.283   5.362
 3894SOL    HW124155   0.468   0.331   5.406
 3894SOL    HW224156   0.584   0.218   5.427
 3895SOL     OW24157   4.751   3.294   5.191
 3895SOL    HW124158   4.847   3.277   5.167
 3895SOL    HW224159   4.737   3.392   5.205
 3896SOL     OW24160   6.828   3.233   3.638
 3896SOL    HW124161   6.800   3.138   3.624
 3896SOL    HW224162   6.874   3.267   3.556
 3897SOL     OW24163   6.896   0.218   6.250
 3897SOL    HW124164   6.924   0.305   6.292
 3897SOL    HW224165   6.820   0.235   6.187
 3898SOL     OW24166   4.592   0.880   0.990
 3898SOL    HW124167   4.499   0.907   1.015
 3898SOL    HW224168   4.650   0.961   0.983
 3899SOL     OW24169   2.054   4.415   2.503
 3899SOL    HW124170   1.996   4.453   2.576
 3899SOL    HW224171   2.060   4.480   2.427
 3900SOL     OW24172   4.708   6.301   6.804
 3900SOL    HW124173   4.707   6.355   6.720
 3900SOL    HW224174   4.707   6.204   6.782
 3901SOL     OW24175   7.286   7.300   2.380
 3901SOL    HW124176   7.359   7.317   2.445
 3901SOL    HW224177   7.322   7.307   2.286
 3902SOL     OW24178   1.795   2.655   1.015
 3902SOL    HW124179   1.831   2.700   0.933
 3902SOL    HW224180   1.730   2.583   0.988
 3903SOL     OW24181   5.364   0.175   2.878
 3903SOL    HW124182   5.403   0.168   2.787
 3903SOL    HW224183   5.426   0.132   2.944
 3904SOL     OW24184   0.176   2.185   5.995
 3904SOL    HW124185   0.087   2.206   5.954
 3904SOL    HW224186   0.167   2.186   6.095
 3905SOL     OW24187   5.745   1.339   4.324
 3905SOL    HW124188   5.701   1.330   4.234
 3905SOL    HW224189   5.801   1.257   4.341
 3906SOL     OW24190   3.456   2.931   5.889
 3906SOL    HW124191   3.365   2.970   5.879
 3906SOL    HW224192   3.449   2.831   5.888
 3907SOL     OW24193   6.805   5.988   2.142
 3907SOL    HW124194   6.878   5.937   2.095
 3907SOL    HW224195   6.807   5.967   2.239
 3908SOL     OW24196   0.954   3.469   5.276
 3908SOL    HW124197   0.866   3.437   5.240
 3908SOL    HW224198   0.981   3.553   5.229
 3909SOL     OW24199   1.260   0.199   2.607
 3909SOL    HW124200   1.172   0.166   2.642
 3909SOL    HW224201   1.310   0.124   2.565
 3910SOL     OW24202   3.145   2.786   7.100
 3910SOL    HW124203   3.066   2.826   7.054
 3910SOL    HW224204   3.176   2.705   7.050
 3911SOL     OW24205   2.665   7.366   0.774
 3911SOL    HW124206   2.719   7.285   0.753
 3911SOL    HW224207   2.720   7.448   0.758
 3912SOL     OW24208   2.911   0.402   2.470
 3912SOL    HW124209   2.915   0.316   2.520
 3912SOL    HW224210   2.933   0.386   2.374
 3913SOL     OW24211   5.036   4.590   4.968
 3913SOL    HW124212   4.983   4.618   4.888
 3913SOL    HW224213   5.134   4.600   4.949
 3914SOL     OW24214   7.316   3.102   6.503
 3914SOL    HW124215   7.248   3.165   6.465
 3914SOL    HW224216   7.403   3.115   6.456
 3915SOL     OW24217   3.284   3.256   0.491
 3915SOL    HW124218   3.237   3.343   0.477
 3915SOL    HW224219   3.382   3.273   0.505
 3916SOL     OW24220   2.446   4.388   6.694
 3916SOL    HW124221   2.448   4.394   6.594
 3916SOL    HW224222   2.524   4.438   6.732
 3917SOL     OW24223   0.570   1.143   1.663
 3917SOL    HW124224   0.512   1.125   1.583
 3917SOL    HW224225   0.650   1.082   1.660
 3918SOL     OW24226   3.644   3.907   5.448
 3918SOL    HW124227   3.636   3.974   5.375
 3918SOL    HW224228   3.740   3.890   5.468
 3919SOL     OW24229   4.084   4.426   3.591
 3919SOL    HW124230   4.014   4.379   3.539
 3919SOL    HW224231   4.139   4.359   3.642
 3920SOL     OW24232   3.258   1.515   0.622
 3920SOL    HW124233   3.277   1.534   0.718
 3920SOL    HW224234   3.202   1.432   0.615
 3921SOL     OW24235   5.440   3.620   6.620
 3921SOL    HW124236   5.516   3.568   6.583
 3921SOL    HW224237   5.399   3.676   6.547
 3922SOL     OW24238   3.391   2.778   3.854
 3922SOL    HW124239   3.387   2.689   3.808
 3922SOL    HW224240   3.458   2.837   3.807
 3923SOL     OW24241   4.452   0.337   2.382
 3923SOL    HW124242   4.435   0.298   2.473
 3923SOL    HW224243   4.434   0.268   2.313
 3924SOL     OW24244   5.641   2.238   0.790
 3924SOL    HW124245   5.625   2.336   0.806
 3924SOL    HW224246   5.682   2.198   0.872
 3925SOL     OW24247   1.013   3.070   4.526
 3925SOL    HW124248   1.092   3.130   4.511
 3925SOL    HW224249   0.941   3.094   4.461
 3926SOL     OW24250   4.776   2.908   6.602
 3926SOL    HW124251   4.862   2.944   6.635
 3926SOL    HW224252   4.770   2.811   6.624
 3927SOL     OW24253   1.114   0.744   4.035
 3927SOL    HW124254   1.207   0.746   4.073
 3927SOL    HW224255   1.061   0.820   4.072
 3928SOL     OW24256   3.956   5.691   6.585
 3928SOL    HW124257   3.946   5.748   6.504
 3928SOL    HW224258   4.011   5.611   6.563
 3929SOL     OW24259   3.956   6.031   2.951
 3929SOL    HW124260   4.013   5.949   2.956
 3929SOL    HW224261   3.986   6.087   2.873
 3930SOL     OW24262   4.118   6.475   0.417
 3930SOL    HW124263   4.078   6.552   0.367
 3930SOL    HW224264   4.214   6.495   0.439
 3931SOL     OW24265   3.354   3.446   0.218
 3931SOL    HW124266   3.431   3.387   0.193
 3931SOL    HW224267   3.385   3.513   0.285
 3932SOL     OW24268   5.263   2.518   8.915
 3932SOL    HW124269   5.181   2.553   8.869
 3932SOL    HW224270   5.344   2.544   8.863
 3933SOL     OW24271   1.640   3.318   7.303
 3933SOL    HW124272   1.628   3.236   7.358
 3933SOL    HW224273   1.695   3.296   7.222
 3934SOL     OW24274   5.031   5.595   2.996
 3934SOL    HW124275   4.952   5.557   3.044
 3934SOL    HW224276   5.111   5.538   3.014
 3935SOL     OW24277   2.557   3.535   5.384
 3935SOL    HW124278   2.582   3.441   5.363
 3935SOL    HW224279   2.462   3.538   5.417
 3936SOL     OW24280   6.113   4.912   1.735
 3936SOL    HW124281   6.017   4.893   1.755
 3936SOL    HW224282   6.136   5.005   1.761
 3937SOL     OW24283   2.821   5.031   3.585
 3937SOL    HW124284   2.841   4.968   3.511
 3937SOL    HW224285   2.776   4.982   3.659
 3938SOL     OW24286   6.253   0.686   5.647
 3938SOL    HW124287   6.247   0.745   5.567
 3938SOL    HW224288   6.179   0.619   5.646
 3939SOL     OW24289   5.697   5.636   1.229
 3939SOL    HW124290   5.711   5.723   1.183
 3939SOL    HW224291   5.759   5.567   1.192
 3940SOL     OW24292   1.868   6.449   6.791
 3940SOL    HW124293   1.907   6.526   6.841
 3940SOL    HW224294   1.828   6.384   6.855
 3941SOL     OW24295   3.087   6.048   1.243
 3941SOL    HW124296   3.078   6.143   1.271
 3941SOL    HW224297   3.032   5.989   1.303
 3942SOL     OW24298   5.269   5.915   6.541
 3942SOL    HW124299   5.252   6.012   6.519
 3942SOL    HW224300   5.331   5.909   6.619
 3943SOL     OW24301   3.279   0.219   1.978
 3943SOL    HW124302   3.375   0.194   1.993
 3943SOL    HW224303   3.275   0.295   1.913
 3944SOL     OW24304   6.578   6.385   1.152
 3944SOL    HW124305   6.562   6.481   1.172
 3944SOL    HW224306   6.665   6.374   1.105
 3945SOL     OW24307   2.226   1.749   6.778
 3945SOL    HW124308   2.265   1.765   6.688
 3945SOL    HW224309   2.269   1.668   6.819
 3946SOL     OW24310   2.536   2.828   4.091
 3946SOL    HW124311   2.447   2.833   4.047
 3946SOL    HW224312   2.550   2.909   4.148
 3947SOL     OW24313   3.560   6.003   5.372
 3947SOL    HW124314   3.523   5.963   5.288
 3947SOL    HW224315   3.502   6.078   5.402
 3948SOL     OW24316   2.210   4.694   1.317
 3948SOL    HW124317   2.287   4.632   1.304
 3948SOL    HW224318   2.125   4.643   1.312
 3949SOL     OW24319   5.272   6.553   6.725
 3949SOL    HW124320   5.262   6.569   6.823
 3949SOL    HW224321   5.307   6.461   6.710
 3950SOL     OW24322   4.065   3.063   6.843
 3950SOL    HW124323   3.985   3.022   6.885
 3950SOL    HW224324   4.146   3.007   6.863
 3951SOL     OW24325   4.204   1.156   5.270
 3951SOL    HW124326   4.271   1.114   5.332
 3951SOL    HW224327   4.213   1.255   5.273
 3952SOL     OW24328   3.492   2.753   1.040
 3952SOL    HW124329   3.432   2.832   1.052
 3952SOL    HW224330   3.468   2.706   0.955
 3953SOL     OW24331   0.284   5.249   3.731
 3953SOL    HW124332   0.284   5.164   3.678
 3953SOL    HW224333   0.305   5.229   3.826
 3954SOL     OW24334   2.575   2.898   3.222
 3954SOL    HW124335   2.659   2.860   3.260
 3954SOL    HW224336   2.565   2.993   3.250
 3955SOL     OW24337   6.139   6.973   0.502
 3955SOL    HW124338   6.184   6.914   0.568
 3955SOL    HW224339   6.208   7.030   0.456
 3956SOL     OW24340   3.523   5.630   1.891
 3956SOL    HW124341   3.622   5.640   1.877
 3956SOL    HW224342   3.478   5.618   1.803
 3957SOL     OW24343   2.631   6.498   4.207
 3957SOL    HW124344   2.606   6.453   4.293
 3957SOL    HW224345   2.629   6.597   4.220
 3958SOL     OW24346   8.920   3.835   7.162
 3958SOL    HW124347   8.906   3.754   7.105
 3958SOL    HW224348   0.017   3.840   7.188
 3959SOL     OW24349   1.379   4.750   6.765
 3959SOL    HW124350   1.303   4.724   6.825
 3959SOL    HW224351   1.465   4.722   6.807
 3960SOL     OW24352   1.518   6.267   0.281
 3960SOL    HW124353   1.612   6.254   0.311
 3960SOL    HW224354   1.495   6.364   0.284
 3961SOL     OW24355   5.293   4.589   1.314
 3961SOL    HW124356   5.194   4.590   1.306
 3961SOL    HW224357   5.325   4.494   1.321
 3962SOL     OW24358   0.431   0.396   3.202
 3962SOL    HW124359   0.391   0.488   3.198
 3962SOL    HW224360   0.526   0.403   3.234
 3963SOL     OW24361   5.563   3.970   5.377
 3963SOL    HW124362   5.609   3.909   5.312
 3963SOL    HW224363   5.465   3.969   5.360
 3964SOL     OW24364   5.543   5.692   2.029
 3964SOL    HW124365   5.457   5.650   2.057
 3964SOL    HW224366   5.536   5.792   2.040
 3965SOL     OW24367   2.789   0.402   6.940
 3965SOL    HW124368   2.843   0.448   7.010
 3965SOL    HW224369   2.718   0.465   6.906
 3966SOL     OW24370   4.835   4.751   1.625
 3966SOL    HW124371   4.826   4.696   1.542
 3966SOL    HW224372   4.776   4.831   1.618
 3967SOL     OW24373   5.563   6.604   2.568
 3967SOL    HW124374   5.559   6.697   2.605
 3967SOL    HW224375   5.482   6.554   2.597
 3968SOL     OW24376   2.375   3.537   0.489
 3968SOL    HW124377   2.311   3.571   0.421
 3968SOL    HW224378   2.387   3.438   0.478
 3969SOL     OW24379   3.059   3.776   0.772
 3969SOL    HW124380   3.140   3.830   0.748
 3969SOL    HW224381   2.978   3.816   0.729
 3970SOL     OW24382   1.488   6.580   6.717
 3970SOL    HW124383   1.532   6.528   6.644
 3970SOL    HW224384   1.521   6.674   6.716
 3971SOL     OW24385   2.716   5.315   0.340
 3971SOL    HW124386   2.633   5.357   0.303
 3971SOL    HW224387   2.793   5.376   0.326
 3972SOL     OW24388   1.771   1.763   0.423
 3972SOL    HW124389   1.683   1.740   0.383
 3972SOL    HW224390   1.828   1.681   0.429
 3973SOL     OW24391   0.296   4.475   6.385
 3973SOL    HW124392   0.232   4.521   6.323
 3973SOL    HW224393   0.390   4.498   6.358
 3974SOL     OW24394   6.507   6.856   2.115
 3974SOL    HW124395   6.577   6.924   2.093
 3974SOL    HW224396   6.543   6.764   2.094
 3975SOL     OW24397   5.377   3.881   1.499
 3975SOL    HW124398   5.310   3.935   1.449
 3975SOL    HW224399   5.469   3.916   1.481
 3976SOL     OW24400   7.200   0.241   2.568
 3976SOL    HW124401   7.170   0.159   2.519
 3976SOL    HW224402   7.296   0.232   2.593
 3977SOL     OW24403   5.048   5.225   6.919
 3977SOL    HW124404   5.020   5.288   6.991
 3977SOL    HW224405   5.146   5.236   6.900
 3978SOL     OW24406   3.143   3.521   2.140
 3978SOL    HW124407   3.062   3.489   2.188
 3978SOL    HW224408   3.140   3.620   2.130
 3979SOL     OW24409   7.127   1.184   7.198
 3979SOL    HW124410   7.130   1.223   7.290
 3979SOL    HW224411   7.220   1.166   7.166
 3980SOL     OW24412   3.031   2.276   5.771
 3980SOL    HW124413   3.091   2.235   5.840
 3980SOL    HW224414   3.071   2.264   5.680
 3981SOL     OW24415   7.050   1.866   2.644
 3981SOL    HW124416   7.028   1.946   2.699
 3981SOL    HW224417   6.971   1.805   2.640
 3982SOL     OW24418   5.234   5.956   1.932
 3982SOL    HW124419   5.168   5.892   1.970
 3982SOL    HW224420   5.322   5.946   1.980
 3983SOL     OW24421   0.595   3.023   4.407
 3983SOL    HW124422   0.566   2.986   4.320
 3983SOL    HW224423   0.525   3.084   4.443
 3984SOL     OW24424   5.810   5.273   2.099
 3984SOL    HW124425   5.777   5.362   2.131
 3984SOL    HW224426   5.769   5.200   2.153
 3985SOL     OW24427   5.916   4.736   1.243
 3985SOL    HW124428   5.989   4.672   1.218
 3985SOL    HW224429   5.936   4.826   1.205
 3986SOL     OW24430   5.786   1.317   7.336
 3986SOL    HW124431   5.723   1.394   7.337
 3986SOL    HW224432   5.764   1.255   7.411
 3987SOL     OW24433   3.143   3.307   5.747
 3987SOL    HW124434   3.072   3.377   5.740
 3987SOL    HW224435   3.143   3.251   5.664
 3988SOL     OW24436   4.390   1.240   4.155
 3988SOL    HW124437   4.472   1.272   4.202
 3988SOL    HW224438   4.391   1.273   4.061
 3989SOL     OW24439   2.833   5.110   1.058
 3989SOL    HW124440   2.766   5.176   1.026
 3989SOL    HW224441   2.924   5.136   1.026
 3990SOL     OW24442   7.201   0.247   0.405
 3990SOL    HW124443   7.269   0.186   0.444
 3990SOL    HW224444   7.241   0.337   0.390
 3991SOL     OW24445   4.223   6.815   0.123
 3991SOL    HW124446   4.284   6.822   0.202
 3991SOL    HW224447   4.218   6.903   0.077
 3992SOL     OW24448   7.350   2.604   1.823
 3992SOL    HW124449   7.327   2.590   1.727
 3992SOL    HW224450   7.378   2.518   1.864
 3993SOL     OW24451   2.693   6.643   2.377
 3993SOL    HW124452   2.773   6.593   2.344
 3993SOL    HW224453   2.629   6.579   2.419
 3994SOL     OW24454   6.244   3.776   3.129
 3994SOL    HW124455   6.167   3.779   3.193
 3994SOL    HW224456   6.330   3.783   3.179
 3995SOL     OW24457   0.018   1.747   2.780
 3995SOL    HW124458   0.070   1.682   2.725
 3995SOL    HW224459   0.080   1.815   2.820
 3996SOL     OW24460   4.116   0.912   4.144
 3996SOL    HW124461   4.116   0.891   4.046
 3996SOL    HW224462   4.074   0.837   4.195
 3997SOL     OW24463   5.558   0.766   0.085
 3997SOL    HW124464   5.462   0.792   0.075
 3997SOL    HW224465   5.564   0.676   0.128
 3998SOL     OW24466   6.701   2.658   4.471
 3998SOL    HW124467   6.787   2.607   4.473
 3998SOL    HW224468   6.659   2.647   4.381
 3999SOL     OW24469   0.226   1.949   1.810
 3999SOL    HW124470   0.228   1.949   1.910
 3999SOL    HW224471   0.230   1.855   1.777
 4000SOL     OW24472   7.050   3.074   0.103
 4000SOL    HW124473   7.021   2.981   0.127
 4000SOL    HW224474   7.011   3.139   0.168
 4001SOL     OW24475   1.330   2.750   7.157
 4001SOL    HW124476   1.388   2.709   7.227
 4001SOL    HW224477   1.330   2.693   7.075
 4002SOL     OW24478   1.261   3.532   0.268
 4002SOL    HW124479   1.282   3.444   0.311
 4002SOL    HW224480   1.219   3.516   0.179
 4003SOL     OW24481   3.755   6.788   1.723
 4003SOL    HW124482   3.783   6.867   1.779
 4003SOL    HW224483   3.662   6.761   1.749
 4004SOL     OW24484   6.669   1.656   4.419
 4004SOL    HW124485   6.580   1.633   4.460
 4004SOL    HW224486   6.730   1.577   4.425
 4005SOL     OW24487   0.950   7.014   0.594
 4005SOL    HW124488   0.963   7.058   0.506
 4005SOL    HW224489   1.032   7.024   0.649
 4006SOL     OW24490   4.053   3.481   1.667
 4006SOL    HW124491   3.972   3.424   1.672
 4006SOL    HW224492   4.027   3.573   1.638
 4007SOL     OW24493   0.950   5.369   2.878
 4007SOL    HW124494   0.965   5.277   2.915
 4007SOL    HW224495   0.995   5.436   2.936
 4008SOL     OW24496   2.060   7.185   6.033
 4008SOL    HW124497   1.995   7.207   5.961
 4008SOL    HW224498   2.011   7.152   6.113
 4009SOL     OW24499   3.399   4.673   5.594
 4009SOL    HW124500   3.344   4.730   5.532
 4009SOL    HW224501   3.339   4.635   5.665
 4010SOL     OW24502   4.783   0.161   6.849
 4010SOL    HW124503   4.736   0.245   6.875
 4010SOL    HW224504   4.867   0.151   6.901
 4011SOL     OW24505   2.220   0.824   0.447
 4011SOL    HW124506   2.318   0.816   0.465
 4011SOL    HW224507   2.169   0.775   0.517
 4012SOL     OW24508   2.795   1.449   1.011
 4012SOL    HW124509   2.885   1.412   0.986
 4012SOL    HW224510   2.783   1.444   1.110
 4013SOL     OW24511   2.716   7.150   7.064
 4013SOL    HW124512   2.788   7.110   7.122
 4013SOL    HW224513   2.757   7.187   6.981
 4014SOL     OW24514   5.727   0.846   3.892
 4014SOL    HW124515   5.785   0.912   3.939
 4014SOL    HW224516   5.670   0.893   3.824
 4015SOL     OW24517   3.551   1.225   0.970
 4015SOL    HW124518   3.573   1.144   0.916
 4015SOL    HW224519   3.632   1.283   0.978
 4016SOL     OW24520   5.524   4.084   2.972
 4016SOL    HW124521   5.575   4.076   2.886
 4016SOL    HW224522   5.585   4.067   3.049
 4017SOL     OW24523   6.692   4.384   4.447
 4017SOL    HW124524   6.596   4.373   4.419
 4017SOL    HW224525   6.751   4.376   4.366
 4018SOL     OW24526   3.859   1.776   2.792
 4018SOL    HW124527   3.899   1.692   2.830
 4018SOL    HW224528   3.762   1.760   2.774
 4019SOL     OW24529   2.112   5.255   0.162
 4019SOL    HW124530   2.073   5.342   0.131
 4019SOL    HW224531   2.212   5.261   0.162
 4020SOL     OW24532   3.675   5.034   5.955
 4020SOL    HW124533   3.658   5.021   6.053
 4020SOL    HW224534   3.771   5.059   5.941
 4021SOL     OW24535   2.854   5.706   2.462
 4021SOL    HW124536   2.814   5.638   2.523
 4021SOL    HW224537   2.858   5.795   2.508
 4022SOL     OW24538   7.366   2.012   4.021
 4022SOL    HW124539   7.293   2.066   3.979
 4022SOL    HW224540   7.331   1.968   4.104
 4023SOL     OW24541   2.972   4.269   7.269
 4023SOL    HW124542   2.971   4.170   7.279
 4023SOL    HW224543   3.062   4.304   7.297
 4024SOL     OW24544   4.608   4.539   2.161
 4024SOL    HW124545   4.666   4.463   2.130
 4024SOL    HW224546   4.618   4.550   2.260
 4025SOL     OW24547   0.259   6.911   7.038
 4025SOL    HW124548   0.207   6.967   7.103
 4025SOL    HW224549   0.226   6.930   6.945
 4026SOL     OW24550   3.800   5.005   0.567
 4026SOL    HW124551   3.797   4.907   0.590
 4026SOL    HW224552   3.758   5.019   0.477
 4027SOL     OW24553   3.226   0.683   0.896
 4027SOL    HW124554   3.170   0.702   0.815
 4027SOL    HW224555   3.282   0.762   0.917
 4028SOL     OW24556   1.556   4.264   2.737
 4028SOL    HW124557   1.514   4.242   2.649
 4028SOL    HW224558   1.637   4.207   2.750
 4029SOL     OW24559   0.341   0.402   5.519
 4029SOL    HW124560   0.251   0.361   5.535
 4029SOL    HW224561   0.329   0.496   5.486
 4030SOL     OW24562   0.138   4.403   5.937
 4030SOL    HW124563   0.182   4.395   6.026
 4030SOL    HW224564   0.208   4.422   5.868
 4031SOL     OW24565   3.791   4.954   1.265
 4031SOL    HW124566   3.868   4.977   1.205
 4031SOL    HW224567   3.806   4.863   1.305
 4032SOL     OW24568   1.317   5.332   6.572
 4032SOL    HW124569   1.324   5.426   6.606
 4032SOL    HW224570   1.336   5.331   6.473
 4033SOL     OW24571   3.423   4.181   4.162
 4033SOL    HW124572   3.493   4.164   4.232
 4033SOL    HW224573   3.333   4.184   4.205
 4034SOL     OW24574   5.205   3.975   6.829
 4034SOL    HW124575   5.232   3.879   6.822
 4034SOL    HW224576   5.286   4.032   6.841
 4035SOL     OW24577   6.140   7.256   6.536
 4035SOL    HW124578   6.210   7.252   6.608
 4035SOL    HW224579   6.184   7.258   6.447
 4036SOL     OW24580   5.728   3.307   6.679
 4036SOL    HW124581   5.643   3.264   6.706
 4036SOL    HW224582   5.710   3.373   6.606
 4037SOL     OW24583   0.516   4.048   1.283
 4037SOL    HW124584   0.611   4.044   1.250
 4037SOL    HW224585   0.455   4.068   1.207
 4038SOL     OW24586   3.465   2.601   0.802
 4038SOL    HW124587   3.481   2.522   0.743
 4038SOL    HW224588   3.486   2.685   0.752
 4039SOL     OW24589   5.857   3.765   1.003
 4039SOL    HW124590   5.784   3.709   0.964
 4039SOL    HW224591   5.944   3.740   0.961
 4040SOL     OW24592   5.363   0.383   2.569
 4040SOL    HW124593   5.388   0.289   2.590
 4040SOL    HW224594   5.269   0.400   2.601
 4041SOL     OW24595   0.844   0.465   1.888
 4041SOL    HW124596   0.883   0.505   1.971
 4041SOL    HW224597   0.781   0.530   1.846
 4042SOL     OW24598   2.134   4.468   6.298
 4042SOL    HW124599   2.163   4.373   6.306
 4042SOL    HW224600   2.102   4.500   6.387
 4043SOL     OW24601   3.463   3.323   2.409
 4043SOL    HW124602   3.438   3.390   2.479
 4043SOL    HW224603   3.448   3.362   2.318
 4044SOL     OW24604   6.395   5.312   4.276
 4044SOL    HW124605   6.411   5.340   4.371
 4044SOL    HW224606   6.426   5.218   4.263
 4045SOL     OW24607   4.336   7.010   4.321
 4045SOL    HW124608   4.277   7.087   4.297
 4045SOL    HW224609   4.282   6.927   4.327
 4046SOL     OW24610   5.772   6.768   4.353
 4046SOL    HW124611   5.679   6.779   4.317
 4046SOL    HW224612   5.806   6.677   4.330
 4047SOL     OW24613   1.824   4.429   2.238
 4047SOL    HW124614   1.877   4.350   2.205
 4047SOL    HW224615   1.742   4.440   2.183
 4048SOL     OW24616   3.520   6.206   2.401
 4048SOL    HW124617   3.515   6.196   2.501
 4048SOL    HW224618   3.497   6.119   2.358
 4049SOL     OW24619   2.751   2.284   4.403
 4049SOL    HW124620   2.672   2.344   4.393
 4049SOL    HW224621   2.723   2.199   4.448
 4050SOL     OW24622   1.174   2.911   7.316
 4050SOL    HW124623   1.223   2.842   7.262
 4050SOL    HW224624   1.138   2.981   7.256
 4051SOL     OW24625   4.428   1.505   6.019
 4051SOL    HW124626   4.499   1.446   5.982
 4051SOL    HW224627   4.470   1.580   6.070
 4052SOL     OW24628   2.766   6.397   5.361
 4052SOL    HW124629   2.670   6.386   5.334
 4052SOL    HW224630   2.773   6.400   5.461
 4053SOL     OW24631   5.622   3.468   6.480
 4053SOL    HW124632   5.699   3.471   6.415
 4053SOL    HW224633   5.549   3.411   6.442
 4054SOL     OW24634   6.478   6.541   5.595
 4054SOL    HW124635   6.488   6.583   5.686
 4054SOL    HW224636   6.499   6.609   5.525
 4055SOL     OW24637   1.541   3.014   4.909
 4055SOL    HW124638   1.535   3.073   4.828
 4055SOL    HW224639   1.579   2.926   4.883
 4056SOL     OW24640   3.467   4.107   0.739
 4056SOL    HW124641   3.438   4.197   0.707
 4056SOL    HW224642   3.559   4.113   0.778
 4057SOL     OW24643   6.835   1.403   1.582
 4057SOL    HW124644   6.933   1.384   1.586
 4057SOL    HW224645   6.816   1.490   1.627
 4058SOL     OW24646   3.905   6.103   3.210
 4058SOL    HW124647   3.940   6.032   3.271
 4058SOL    HW224648   3.924   6.077   3.115
 4059SOL     OW24649   5.051   0.322   6.599
 4059SOL    HW124650   5.139   0.333   6.554
 4059SOL    HW224651   5.059   0.349   6.695
 4060SOL     OW24652   5.603   0.762   7.017
 4060SOL    HW124653   5.558   0.699   7.080
 4060SOL    HW224654   5.537   0.829   6.984
 4061SOL     OW24655   6.624   6.191   2.203
 4061SOL    HW124656   6.686   6.119   2.172
 4061SOL    HW224657   6.677   6.268   2.239
 4062SOL     OW24658   5.876   6.900   2.924
 4062SOL    HW124659   5.918   6.990   2.940
 4062SOL    HW224660   5.948   6.833   2.907
 4063SOL     OW24661   0.074   6.605   2.897
 4063SOL    HW124662   0.132   6.677   2.935
 4063SOL    HW224663   0.099   6.517   2.938
 4064SOL     OW24664   0.339   3.358   4.276
 4064SOL    HW124665   0.333   3.448   4.320
 4064SOL    HW224666   0.376   3.292   4.340
 4065SOL     OW24667   5.028   2.553   3.626
 4065SOL    HW124668   5.089   2.631   3.608
 4065SOL    HW224669   5.078   2.484   3.678
 4066SOL     OW24670   6.760   5.754   0.747
 4066SOL    HW124671   6.724   5.700   0.823
 4066SOL    HW224672   6.701   5.744   0.668
 4067SOL     OW24673   5.640   0.305   1.348
 4067SOL    HW124674   5.566   0.255   1.394
 4067SOL    HW224675   5.626   0.300   1.249
 4068SOL     OW24676   0.553   4.564   6.318
 4068SOL    HW124677   0.569   4.582   6.221
 4068SOL    HW224678   0.578   4.645   6.372
 4069SOL     OW24679   3.812   1.069   2.486
 4069SOL    HW124680   3.865   1.142   2.443
 4069SOL    HW224681   3.826   1.072   2.585
 4070SOL     OW24682   5.654   3.030   1.115
 4070SOL    HW124683   5.597   3.035   1.197
 4070SOL    HW224684   5.743   2.991   1.139
 4071SOL     OW24685   6.447   7.102   2.251
 4071SOL    HW124686   6.431   7.003   2.251
 4071SOL    HW224687   6.528   7.122   2.197
 4072SOL     OW24688   5.909   1.181   0.585
 4072SOL    HW124689   5.891   1.083   0.576
 4072SOL    HW224690   6.003   1.195   0.615
 4073SOL     OW24691   7.248   5.737   2.558
 4073SOL    HW124692   7.279   5.757   2.465
 4073SOL    HW224693   7.173   5.798   2.582
 4074SOL     OW24694   3.374   2.069   6.578
 4074SOL    HW124695   3.310   2.063   6.655
 4074SOL    HW224696   3.342   2.009   6.504
 4075SOL     OW24697   0.633   4.968   1.645
 4075SOL    HW124698   0.540   4.993   1.618
 4075SOL    HW224699   0.688   4.950   1.563
 4076SOL     OW24700   4.974   1.313   5.429
 4076SOL    HW124701   4.918   1.382   5.383
 4076SOL    HW224702   5.032   1.267   5.362
 4077SOL     OW24703   1.343   3.824   0.974
 4077SOL    HW124704   1.304   3.898   0.920
 4077SOL    HW224705   1.442   3.823   0.964
 4078SOL     OW24706   1.661   3.655   7.174
 4078SOL    HW124707   1.718   3.657   7.257
 4078SOL    HW224708   1.585   3.591   7.188
 4079SOL     OW24709   2.533   1.571   3.632
 4079SOL    HW124710   2.597   1.647   3.615
 4079SOL    HW224711   2.447   1.608   3.668
 4080SOL     OW24712   1.410   5.049   3.596
 4080SOL    HW124713   1.453   5.003   3.674
 4080SOL    HW224714   1.475   5.056   3.521
 4081SOL     OW24715   4.191   5.218   3.636
 4081SOL    HW124716   4.245   5.186   3.558
 4081SOL    HW224717   4.108   5.162   3.644
 4082SOL     OW24718   4.240   5.461   3.513
 4082SOL    HW124719   4.174   5.470   3.439
 4082SOL    HW224720   4.217   5.382   3.570
 4083SOL     OW24721   0.301   4.803   1.746
 4083SOL    HW124722   0.375   4.746   1.783
 4083SOL    HW224723   0.220   4.747   1.731
 4084SOL     OW24724   7.002   3.691   6.843
 4084SOL    HW124725   6.910   3.684   6.805
 4084SOL    HW224726   7.049   3.604   6.832
 4085SOL     OW24727   5.040   4.938   1.339
 4085SOL    HW124728   5.130   4.938   1.296
 4085SOL    HW224729   5.050   4.917   1.436
 4086SOL     OW24730   1.331   3.585   6.256
 4086SOL    HW124731   1.400   3.519   6.228
 4086SOL    HW224732   1.375   3.668   6.289
 4087SOL     OW24733   5.773   6.034   4.747
 4087SOL    HW124734   5.695   6.012   4.689
 4087SOL    HW224735   5.841   5.961   4.742
 4088SOL     OW24736   3.759   2.764   2.074
 4088SOL    HW124737   3.666   2.771   2.110
 4088SOL    HW224738   3.775   2.671   2.042
 4089SOL     OW24739   5.349   3.237   7.080
 4089SOL    HW124740   5.284   3.161   7.071
 4089SOL    HW224741   5.322   3.295   7.157
 4090SOL     OW24742   3.664   6.535   7.197
 4090SOL    HW124743   3.752   6.579   7.212
 4090SOL    HW224744   3.622   6.571   7.114
 4091SOL     OW24745   1.556   4.605   3.311
 4091SOL    HW124746   1.619   4.527   3.314
 4091SOL    HW224747   1.463   4.572   3.298
 4092SOL     OW24748   0.510   3.731   0.979
 4092SOL    HW124749   0.583   3.681   0.933
 4092SOL    HW224750   0.466   3.792   0.913
 4093SOL     OW24751   1.488   4.672   0.359
 4093SOL    HW124752   1.548   4.727   0.417
 4093SOL    HW224753   1.525   4.668   0.267
 4094SOL     OW24754   2.644   0.886   1.245
 4094SOL    HW124755   2.710   0.888   1.321
 4094SOL    HW224756   2.687   0.845   1.165
 4095SOL     OW24757   3.952   2.429   7.087
 4095SOL    HW124758   3.942   2.417   7.186
 4095SOL    HW224759   4.000   2.350   7.049
 4096SOL     OW24760   3.216   0.743   2.362
 4096SOL    HW124761   3.220   0.673   2.290
 4096SOL    HW224762   3.139   0.725   2.422
 4097SOL     OW24763   0.664   5.616   1.290
 4097SOL    HW124764   0.587   5.635   1.229
 4097SOL    HW224765   0.747   5.660   1.254
 4098SOL     OW24766   0.183   1.918   5.416
 4098SOL    HW124767   0.210   1.827   5.384
 4098SOL    HW224768   0.238   1.943   5.495
 4099SOL     OW24769   1.234   2.093   3.492
 4099SOL    HW124770   1.331   2.105   3.472
 4099SOL    HW224771   1.206   2.001   3.464
 4100SOL     OW24772   3.106   2.949   7.321
 4100SOL    HW124773   3.130   2.883   7.250
 4100SOL    HW224774   3.057   3.026   7.280
 4101SOL     OW24775   5.925   4.989   2.408
 4101SOL    HW124776   6.019   4.977   2.376
 4101SOL    HW224777   5.911   4.932   2.490
 4102SOL     OW24778   1.420   5.962   5.293
 4102SOL    HW124779   1.506   5.937   5.249
 4102SOL    HW224780   1.360   6.007   5.227
 4103SOL     OW24781   2.230   3.762   0.626
 4103SOL    HW124782   2.266   3.830   0.563
 4103SOL    HW224783   2.268   3.672   0.606
 4104SOL     OW24784   0.828   2.022   1.259
 4104SOL    HW124785   0.858   2.113   1.232
 4104SOL    HW224786   0.807   1.968   1.178
 4105SOL     OW24787   1.787   5.663   4.252
 4105SOL    HW124788   1.886   5.675   4.251
 4105SOL    HW224789   1.765   5.574   4.291
 4106SOL     OW24790   0.215   3.137   0.775
 4106SOL    HW124791   0.215   3.042   0.806
 4106SOL    HW224792   0.127   3.158   0.732
 4107SOL     OW24793   2.843   2.680   0.543
 4107SOL    HW124794   2.936   2.715   0.534
 4107SOL    HW224795   2.821   2.624   0.462
 4108SOL     OW24796   5.844   2.491   0.477
 4108SOL    HW124797   5.829   2.454   0.385
 4108SOL    HW224798   5.806   2.583   0.483
 4109SOL     OW24799   4.200   2.704   7.254
 4109SOL    HW124800   4.120   2.695   7.194
 4109SOL    HW224801   4.207   2.623   7.312
 4110SOL     OW24802   5.344   4.567   0.579
 4110SOL    HW124803   5.282   4.646   0.585
 4110SOL    HW224804   5.302   4.488   0.623
 4111SOL     OW24805   0.618   3.552   1.646
 4111SOL    HW124806   0.653   3.623   1.585
 4111SOL    HW224807   0.656   3.564   1.737
 4112SOL     OW24808   1.911   0.869   3.214
 4112SOL    HW124809   1.939   0.875   3.309
 4112SOL    HW224810   1.991   0.876   3.154
 4113SOL     OW24811   4.972   3.828   1.238
 4113SOL    HW124812   4.945   3.790   1.149
 4113SOL    HW224813   4.910   3.901   1.263
 4114SOL     OW24814   1.224   2.572   5.641
 4114SOL    HW124815   1.135   2.591   5.684
 4114SOL    HW224816   1.245   2.645   5.576
 4115SOL     OW24817   3.459   4.359   0.261
 4115SOL    HW124818   3.364   4.330   0.277
 4115SOL    HW224819   3.510   4.285   0.218
 4116SOL     OW24820   3.408   5.077   3.011
 4116SOL    HW124821   3.384   5.174   3.012
 4116SOL    HW224822   3.381   5.037   2.923
 4117SOL     OW24823   1.271   5.358   0.338
 4117SOL    HW124824   1.268   5.259   0.353
 4117SOL    HW224825   1.349   5.397   0.385
 4118SOL     OW24826   3.786   1.724   4.868
 4118SOL    HW124827   3.700   1.773   4.851
 4118SOL    HW224828   3.768   1.626   4.878
 4119SOL     OW24829   2.679   3.988   3.093
 4119SOL    HW124830   2.669   3.915   3.025
 4119SOL    HW224831   2.737   4.061   3.055
 4120SOL     OW24832   2.275   3.297   2.395
 4120SOL    HW124833   2.177   3.299   2.416
 4120SOL    HW224834   2.316   3.383   2.422
 4121SOL     OW24835   3.196   5.982   6.978
 4121SOL    HW124836   3.112   6.005   6.930
 4121SOL    HW224837   3.216   6.051   7.047
 4122SOL     OW24838   3.239   4.320   2.306
 4122SOL    HW124839   3.272   4.265   2.229
 4122SOL    HW224840   3.312   4.382   2.335
 4123SOL     OW24841   0.932   5.959   3.719
 4123SOL    HW124842   0.993   5.888   3.755
 4123SOL    HW224843   0.939   6.041   3.776
 4124SOL     OW24844   3.484   2.336   1.456
 4124SOL    HW124845   3.395   2.358   1.495
 4124SOL    HW224846   3.528   2.420   1.423
 4125SOL     OW24847   3.319   1.353   0.893
 4125SOL    HW124848   3.401   1.312   0.932
 4125SOL    HW224849   3.324   1.452   0.901
 4126SOL     OW24850   4.786   2.845   6.175
 4126SOL    HW124851   4.796   2.745   6.175
 4126SOL    HW224852   4.690   2.868   6.156
 4127SOL     OW24853   2.548   2.010   0.961
 4127SOL    HW124854   2.528   2.061   0.877
 4127SOL    HW224855   2.503   1.921   0.958
 4128SOL     OW24856   2.602   6.259   2.127
 4128SOL    HW124857   2.527   6.221   2.182
 4128SOL    HW224858   2.565   6.324   2.062
 4129SOL     OW24859   6.287   3.588   5.454
 4129SOL    HW124860   6.208   3.592   5.393
 4129SOL    HW224861   6.352   3.659   5.428
 4130SOL     OW24862   5.637   3.023   4.917
 4130SOL    HW124863   5.589   2.992   4.835
 4130SOL    HW224864   5.666   2.945   4.971
 4131SOL     OW24865   3.275   7.079   4.197
 4131SOL    HW124866   3.251   7.007   4.132
 4131SOL    HW224867   3.192   7.123   4.230
 4132SOL     OW24868   3.562   4.451   3.157
 4132SOL    HW124869   3.508   4.455   3.240
 4132SOL    HW224870   3.592   4.357   3.140
 4133SOL     OW24871   1.423   4.038   3.518
 4133SOL    HW124872   1.518   4.064   3.535
 4133SOL    HW224873   1.362   4.110   3.552
 4134SOL     OW24874   3.981   3.329   3.453
 4134SOL    HW124875   3.931   3.243   3.440
 4134SOL    HW224876   4.022   3.356   3.366
 4135SOL     OW24877   5.158   1.402   3.749
 4135SOL    HW124878   5.153   1.473   3.819
 4135SOL    HW224879   5.253   1.378   3.732
 4136SOL     OW24880   2.931   6.361   0.842
 4136SOL    HW124881   2.994   6.423   0.889
 4136SOL    HW224882   2.977   6.322   0.762
 4137SOL     OW24883   2.167   3.682   6.837
 4137SOL    HW124884   2.203   3.712   6.926
 4137SOL    HW224885   2.091   3.618   6.852
 4138SOL     OW24886   4.968   2.652   2.346
 4138SOL    HW124887   4.949   2.749   2.358
 4138SOL    HW224888   5.038   2.623   2.412
 4139SOL     OW24889   5.134   0.695   1.896
 4139SOL    HW124890   5.203   0.739   1.952
 4139SOL    HW224891   5.135   0.735   1.804
 4140SOL     OW24892   2.326   0.003   0.632
 4140SOL    HW124893   2.304   8.966   0.723
 4140SOL    HW224894   2.242   0.011   0.578
 4141SOL     OW24895   3.238   1.502   1.746
 4141SOL    HW124896   3.171   1.490   1.819
 4141SOL    HW224897   3.330   1.492   1.784
 4142SOL     OW24898   4.026   3.292   0.743
 4142SOL    HW124899   3.950   3.350   0.772
 4142SOL    HW224900   3.992   3.198   0.730
 4143SOL     OW24901   2.244   3.268   6.585
 4143SOL    HW124902   2.277   3.355   6.620
 4143SOL    HW224903   2.150   3.253   6.616
 4144SOL     OW24904   6.585   2.526   5.247
 4144SOL    HW124905   6.525   2.594   5.204
 4144SOL    HW224906   6.532   2.473   5.314
 4145SOL     OW24907   7.286   6.200   0.379
 4145SOL    HW124908   7.239   6.287   0.365
 4145SOL    HW224909   7.241   6.150   0.453
 4146SOL     OW24910   4.231   1.527   2.161
 4146SOL    HW124911   4.268   1.559   2.248
 4146SOL    HW224912   4.306   1.513   2.096
 4147SOL     OW24913   3.975   2.222   1.605
 4147SOL    HW124914   4.062   2.212   1.557
 4147SOL    HW224915   3.938   2.132   1.626
 4148SOL     OW24916   1.393   7.242   6.761
 4148SOL    HW124917   1.444   7.327   6.745
 4148SOL    HW224918   1.379   7.194   6.675
 4149SOL     OW24919   7.081   5.700   6.547
 4149SOL    HW124920   7.109   5.796   6.537
 4149SOL    HW224921   7.162   5.643   6.560
 4150SOL     OW24922   1.488   0.791   1.917
 4150SOL    HW124923   1.392   0.770   1.935
 4150SOL    HW224924   1.538   0.706   1.900
 4151SOL     OW24925   0.851   5.488   0.678
 4151SOL    HW124926   0.859   5.540   0.763
 4151SOL    HW224927   0.937   5.439   0.660
 4152SOL     OW24928   4.147   0.133   1.709
 4152SOL    HW124929   4.207   0.161   1.783
 4152SOL    HW224930   4.062   0.097   1.747
 4153SOL     OW24931   6.998   0.890   2.871
 4153SOL    HW124932   7.049   0.934   2.945
 4153SOL    HW224933   7.033   0.797   2.858
 4154SOL     OW24934   2.502   6.795   6.555
 4154SOL    HW124935   2.530   6.726   6.488
 4154SOL    HW224936   2.544   6.882   6.532
 4155SOL     OW24937   6.478   1.280   0.486
 4155SOL    HW124938   6.443   1.341   0.558
 4155SOL    HW224939   6.477   1.328   0.399
 4156SOL     OW24940   5.581   3.559   7.060
 4156SOL    HW124941   5.603   3.612   6.979
 4156SOL    HW224942   5.630   3.596   7.139
 4157SOL     OW24943   4.836   5.074   3.363
 4157SOL    HW124944   4.812   5.054   3.268
 4157SOL    HW224945   4.754   5.098   3.414
 4158SOL     OW24946   4.140   2.198   5.087
 4158SOL    HW124947   4.179   2.284   5.054
 4158SOL    HW224948   4.159   2.187   5.184
 4159SOL     OW24949   4.595   7.068   2.916
 4159SOL    HW124950   4.638   7.119   2.842
 4159SOL    HW224951   4.556   6.983   2.880
 4160SOL     OW24952   2.441   2.066   6.609
 4160SOL    HW124953   2.531   2.087   6.570
 4160SOL    HW224954   2.443   2.079   6.708
 4161SOL     OW24955   4.823   6.926   4.289
 4161SOL    HW124956   4.909   6.970   4.315
 4161SOL    HW224957   4.839   6.829   4.271
 4162SOL     OW24958   1.329   7.091   7.145
 4162SOL    HW124959   1.256   7.123   7.084
 4162SOL    HW224960   1.297   7.011   7.196
 4163SOL     OW24961   7.197   2.292   4.752
 4163SOL    HW124962   7.261   2.344   4.696
 4163SOL    HW224963   7.239   2.269   4.840
 4164SOL     OW24964   4.703   3.260   0.171
 4164SOL    HW124965   4.693   3.220   0.079
 4164SOL    HW224966   4.612   3.279   0.208
 4165SOL     OW24967   7.153   1.757   2.033
 4165SOL    HW124968   7.243   1.714   2.036
 4165SOL    HW224969   7.157   1.846   2.079
 4166SOL     OW24970   0.807   0.541   7.129
 4166SOL    HW124971   0.879   0.520   7.063
 4166SOL    HW224972   0.752   0.459   7.146
 4167SOL     OW24973   6.534   0.468   1.810
 4167SOL    HW124974   6.557   0.563   1.790
 4167SOL    HW224975   6.604   0.429   1.871
 4168SOL     OW24976   3.360   3.277   5.425
 4168SOL    HW124977   3.429   3.207   5.443
 4168SOL    HW224978   3.270   3.242   5.451
 4169SOL     OW24979   6.551   3.237   0.235
 4169SOL    HW124980   6.471   3.208   0.288
 4169SOL    HW224981   6.577   3.164   0.172
 4170SOL     OW24982   7.401   2.124   2.080
 4170SOL    HW124983   7.320   2.078   2.117
 4170SOL    HW224984   7.480   2.064   2.088
 4171SOL     OW24985   2.256   2.157   5.583
 4171SOL    HW124986   2.173   2.132   5.534
 4171SOL    HW224987   2.276   2.254   5.570
 4172SOL     OW24988   6.078   0.751   6.437
 4172SOL    HW124989   6.142   0.685   6.476
 4172SOL    HW224990   6.127   0.811   6.374
 4173SOL     OW24991   3.525   2.613   6.682
 4173SOL    HW124992   3.579   2.572   6.608
 4173SOL    HW224993   3.568   2.699   6.711
 4174SOL     OW24994   2.819   6.422   0.406
 4174SOL    HW124995   2.730   6.456   0.436
 4174SOL    HW224996   2.891   6.459   0.464
 4175SOL     OW24997   5.832   5.952   5.133
 4175SOL    HW124998   5.877   6.032   5.093
 4175SOL    HW224999   5.824   5.880   5.064
 4176SOL     OW25000   3.268   0.836   1.604
 4176SOL    HW125001   3.201   0.763   1.588
 4176SOL    HW225002   3.223   0.925   1.593
 4177SOL     OW25003   1.861   5.170   0.844
 4177SOL    HW125004   1.898   5.194   0.935
 4177SOL    HW225005   1.930   5.191   0.774
 4178SOL     OW25006   5.905   6.722   4.003
 4178SOL    HW125007   5.830   6.666   4.038
 4178SOL    HW225008   5.952   6.672   3.931
 4179SOL     OW25009   5.657   7.303   2.695
 4179SOL    HW125010   5.698   7.370   2.758
 4179SOL    HW225011   5.672   7.211   2.731
 4180SOL     OW25012   5.011   0.320   1.473
 4180SOL    HW125013   4.921   0.331   1.431
 4180SOL    HW225014   5.009   0.245   1.539
 4181SOL     OW25015   4.809   3.484   2.938
 4181SOL    HW125016   4.749   3.487   3.018
 4181SOL    HW225017   4.856   3.571   2.928
 4182SOL     OW25018   3.893   3.992   5.294
 4182SOL    HW125019   3.934   4.046   5.368
 4182SOL    HW225020   3.941   4.011   5.208
 4183SOL     OW25021   1.988   2.851   1.804
 4183SOL    HW125022   1.906   2.874   1.752
 4183SOL    HW225023   2.049   2.796   1.747
 4184SOL     OW25024   3.631   2.383   4.468
 4184SOL    HW125025   3.637   2.469   4.519
 4184SOL    HW225026   3.535   2.357   4.458
 4185SOL     OW25027   6.211   5.102   7.111
 4185SOL    HW125028   6.119   5.080   7.143
 4185SOL    HW225029   6.256   5.162   7.177
 4186SOL     OW25030   6.743   0.504   5.542
 4186SOL    HW125031   6.644   0.520   5.546
 4186SOL    HW225032   6.784   0.526   5.631
 4187SOL     OW25033   3.062   0.063   2.248
 4187SOL    HW125034   3.018   0.009   2.320
 4187SOL    HW225035   3.155   0.031   2.235
 4188SOL     OW25036   1.345   2.794   6.524
 4188SOL    HW125037   1.328   2.829   6.432
 4188SOL    HW225038   1.324   2.696   6.526
 4189SOL     OW25039   4.491   1.375   5.697
 4189SOL    HW125040   4.559   1.381   5.770
 4189SOL    HW225041   4.534   1.393   5.609
 4190SOL     OW25042   0.279   5.910   1.345
 4190SOL    HW125043   0.193   5.896   1.394
 4190SOL    HW225044   0.273   5.866   1.255
 4191SOL     OW25045   3.660   5.330   5.405
 4191SOL    HW125046   3.689   5.249   5.355
 4191SOL    HW225047   3.589   5.378   5.353
 4192SOL     OW25048   0.727   3.195   1.875
 4192SOL    HW125049   0.662   3.215   1.949
 4192SOL    HW225050   0.687   3.223   1.788
 4193SOL     OW25051   6.594   6.589   2.068
 4193SOL    HW125052   6.642   6.539   2.140
 4193SOL    HW225053   6.520   6.533   2.031
 4194SOL     OW25054   2.142   6.085   4.413
 4194SOL    HW125055   2.083   6.007   4.437
 4194SOL    HW225056   2.227   6.051   4.374
 4195SOL     OW25057   2.543   2.809   1.837
 4195SOL    HW125058   2.537   2.727   1.781
 4195SOL    HW225059   2.588   2.788   1.924
 4196SOL     OW25060   1.696   1.153   0.103
 4196SOL    HW125061   1.774   1.102   0.140
 4196SOL    HW225062   1.668   1.223   0.169
 4197SOL     OW25063   6.489   5.889   6.378
 4197SOL    HW125064   6.584   5.919   6.376
 4197SOL    HW225065   6.430   5.962   6.346
 4198SOL     OW25066   4.962   2.980   4.273
 4198SOL    HW125067   4.870   3.020   4.272
 4198SOL    HW225068   5.029   3.054   4.274
 4199SOL     OW25069   0.875   6.950   7.130
 4199SOL    HW125070   0.927   6.975   7.048
 4199SOL    HW225071   0.929   6.886   7.186
 4200SOL     OW25072   1.603   4.451   2.074
 4200SOL    HW125073   1.627   4.423   1.981
 4200SOL    HW225074   1.564   4.543   2.073
 4201SOL     OW25075   4.564   6.108   5.486
 4201SOL    HW125076   4.618   6.102   5.570
 4201SOL    HW225077   4.542   6.204   5.467
 4202SOL     OW25078   2.132   5.335   2.152
 4202SOL    HW125079   2.216   5.290   2.120
 4202SOL    HW225080   2.154   5.429   2.180
 4203SOL     OW25081   3.450   1.464   6.846
 4203SOL    HW125082   3.379   1.509   6.792
 4203SOL    HW225083   3.492   1.391   6.792
 4204SOL     OW25084   3.698   4.468   4.601
 4204SOL    HW125085   3.754   4.437   4.523
 4204SOL    HW225086   3.706   4.401   4.675
 4205SOL     OW25087   5.760   7.050   5.795
 4205SOL    HW125088   5.745   7.149   5.802
 4205SOL    HW225089   5.822   7.032   5.719
 4206SOL     OW25090   4.847   5.773   4.969
 4206SOL    HW125091   4.772   5.713   4.944
 4206SOL    HW225092   4.931   5.720   4.981
 4207SOL     OW25093   2.144   2.322   4.580
 4207SOL    HW125094   2.124   2.239   4.528
 4207SOL    HW225095   2.194   2.299   4.663
 4208SOL     OW25096   2.982   4.319   0.405
 4208SOL    HW125097   2.920   4.385   0.364
 4208SOL    HW225098   2.941   4.228   0.403
 4209SOL     OW25099   3.860   7.381   4.907
 4209SOL    HW125100   3.908   7.346   4.987
 4209SOL    HW225101   3.791   7.447   4.935
 4210SOL     OW25102   0.141   4.617   3.100
 4210SOL    HW125103   0.173   4.522   3.108
 4210SOL    HW225104   0.068   4.621   3.031
 4211SOL     OW25105   6.302   0.570   2.818
 4211SOL    HW125106   6.348   0.647   2.776
 4211SOL    HW225107   6.256   0.515   2.747
 4212SOL     OW25108   0.244   1.668   1.763
 4212SOL    HW125109   0.162   1.642   1.712
 4212SOL    HW225110   0.325   1.639   1.712
 4213SOL     OW25111   1.186   3.776   6.477
 4213SOL    HW125112   1.211   3.756   6.571
 4213SOL    HW225113   1.268   3.799   6.424
 4214SOL     OW25114   5.214   6.642   1.276
 4214SOL    HW125115   5.263   6.728   1.291
 4214SOL    HW225116   5.280   6.569   1.255
 4215SOL     OW25117   4.529   0.806   6.679
 4215SOL    HW125118   4.561   0.820   6.585
 4215SOL    HW225119   4.515   0.895   6.723
 4216SOL     OW25120   6.809   6.796   0.310
 4216SOL    HW125121   6.730   6.735   0.302
 4216SOL    HW225122   6.782   6.879   0.359
 4217SOL     OW25123   3.805   3.154   2.503
 4217SOL    HW125124   3.722   3.141   2.449
 4217SOL    HW225125   3.824   3.251   2.513
 4218SOL     OW25126   5.400   5.844   4.357
 4218SOL    HW125127   5.437   5.773   4.417
 4218SOL    HW225128   5.471   5.912   4.339
 4219SOL     OW25129   0.674   3.860   2.292
 4219SOL    HW125130   0.626   3.897   2.371
 4219SOL    HW225131   0.772   3.877   2.302
 4220SOL     OW25132   1.964   3.958   2.903
 4220SOL    HW125133   1.948   4.023   2.978
 4220SOL    HW225134   1.930   3.868   2.929
 4221SOL     OW25135   3.988   2.415   1.819
 4221SOL    HW125136   3.977   2.367   1.732
 4221SOL    HW225137   4.027   2.506   1.802
 4222SOL     OW25138   0.721   3.057   6.566
 4222SOL    HW125139   0.708   3.092   6.473
 4222SOL    HW225140   0.662   3.107   6.629
 4223SOL     OW25141   1.406   0.657   6.144
 4223SOL    HW125142   1.395   0.746   6.099
 4223SOL    HW225143   1.412   0.586   6.074
 4224SOL     OW25144   3.914   6.308   1.186
 4224SOL    HW125145   3.916   6.223   1.134
 4224SOL    HW225146   4.004   6.352   1.181
 4225SOL     OW25147   3.580   3.632   5.450
 4225SOL    HW125148   3.491   3.605   5.486
 4225SOL    HW225149   3.588   3.732   5.452
 4226SOL     OW25150   8.968   1.681   0.581
 4226SOL    HW125151   8.981   1.582   0.574
 4226SOL    HW225152   0.039   1.719   0.641
 4227SOL     OW25153   0.552   5.523   5.461
 4227SOL    HW125154   0.581   5.504   5.368
 4227SOL    HW225155   0.632   5.533   5.520
 4228SOL     OW25156   7.073   0.788   5.460
 4228SOL    HW125157   7.146   0.856   5.465
 4228SOL    HW225158   7.039   0.783   5.366
 4229SOL     OW25159   6.562   1.925   7.181
 4229SOL    HW125160   6.610   1.934   7.093
 4229SOL    HW225161   6.576   1.833   7.217
 4230SOL     OW25162   7.015   3.298   6.608
 4230SOL    HW125163   7.070   3.304   6.525
 4230SOL    HW225164   7.054   3.356   6.679
 4231SOL     OW25165   0.648   0.135   5.572
 4231SOL    HW125166   0.606   0.200   5.635
 4231SOL    HW225167   0.664   0.048   5.620
 4232SOL     OW25168   0.344   1.096   5.312
 4232SOL    HW125169   0.296   1.154   5.246
 4232SOL    HW225170   0.424   1.145   5.346
 4233SOL     OW25171   6.139   6.953   7.067
 4233SOL    HW125172   6.063   7.015   7.047
 4233SOL    HW225173   6.148   6.942   7.165
 4234SOL     OW25174   2.233   1.216   8.942
 4234SOL    HW125175   2.251   1.291   0.005
 4234SOL    HW225176   2.144   1.229   8.899
 4235SOL     OW25177   5.772   0.675   3.006
 4235SOL    HW125178   5.825   0.595   3.035
 4235SOL    HW225179   5.804   0.705   2.916
 4236SOL     OW25180   5.892   0.438   4.104
 4236SOL    HW125181   5.900   0.341   4.078
 4236SOL    HW225182   5.881   0.493   4.021
 4237SOL     OW25183   5.874   1.168   3.413
 4237SOL    HW125184   5.945   1.207   3.472
 4237SOL    HW225185   5.885   1.069   3.408
 4238SOL     OW25186   7.032   0.554   5.051
 4238SOL    HW125187   7.073   0.528   4.963
 4238SOL    HW225188   6.949   0.500   5.065
 4239SOL     OW25189   3.246   1.439   6.457
 4239SOL    HW125190   3.281   1.352   6.421
 4239SOL    HW225191   3.150   1.449   6.431
 4240SOL     OW25192   7.087   7.174   1.525
 4240SOL    HW125193   6.992   7.177   1.495
 4240SOL    HW225194   7.112   7.263   1.564
 4241SOL     OW25195   1.912   3.115   6.137
 4241SOL    HW125196   1.961   3.043   6.187
 4241SOL    HW225197   1.833   3.075   6.091
 4242SOL     OW25198   2.557   7.284   3.646
 4242SOL    HW125199   2.470   7.240   3.622
 4242SOL    HW225200   2.617   7.285   3.565
 4243SOL     OW25201   4.465   5.492   5.971
 4243SOL    HW125202   4.404   5.424   5.929
 4243SOL    HW225203   4.556   5.451   5.983
 4244SOL     OW25204   0.249   0.232   2.728
 4244SOL    HW125205   0.258   0.223   2.828
 4244SOL    HW225206   0.323   0.289   2.693
 4245SOL     OW25207   2.483   0.074   2.953
 4245SOL    HW125208   2.467   8.976   2.964
 4245SOL    HW225209   2.559   0.088   2.889
 4246SOL     OW25210   6.488   2.702   7.286
 4246SOL    HW125211   6.434   2.784   7.303
 4246SOL    HW225212   6.495   2.648   7.369
 4247SOL     OW25213   4.349   3.297   7.153
 4247SOL    HW125214   4.282   3.294   7.079
 4247SOL    HW225215   4.317   3.240   7.229
 4248SOL     OW25216   7.148   4.660   4.088
 4248SOL    HW125217   7.187   4.731   4.030
 4248SOL    HW225218   7.165   4.570   4.046
 4249SOL     OW25219   0.898   1.354   6.793
 4249SOL    HW125220   0.983   1.357   6.846
 4249SOL    HW225221   0.823   1.390   6.848
 4250SOL     OW25222   2.652   2.767   2.095
 4250SOL    HW125223   2.726   2.826   2.127
 4250SOL    HW225224   2.580   2.763   2.166
 4251SOL     OW25225   0.489   2.071   4.007
 4251SOL    HW125226   0.419   2.137   3.981
 4251SOL    HW225227   0.447   1.982   4.024
 4252SOL     OW25228   4.880   6.582   0.649
 4252SOL    HW125229   4.825   6.511   0.693
 4252SOL    HW225230   4.899   6.655   0.716
 4253SOL     OW25231   3.882   3.964   2.731
 4253SOL    HW125232   3.790   4.001   2.721
 4253SOL    HW225233   3.938   3.989   2.652
 4254SOL     OW25234   0.577   6.014   5.932
 4254SOL    HW125235   0.539   6.094   5.980
 4254SOL    HW225236   0.503   5.959   5.895
 4255SOL     OW25237   4.623   3.128   1.602
 4255SOL    HW125238   4.574   3.202   1.556
 4255SOL    HW225239   4.683   3.082   1.536
 4256SOL     OW25240   0.661   7.234   0.774
 4256SOL    HW125241   0.639   7.323   0.733
 4256SOL    HW225242   0.654   7.240   0.873
 4257SOL     OW25243   5.001   1.093   1.299
 4257SOL    HW125244   5.004   1.048   1.210
 4257SOL    HW225245   4.937   1.046   1.359
 4258SOL     OW25246   3.972   2.128   3.496
 4258SOL    HW125247   3.894   2.125   3.433
 4258SOL    HW225248   3.989   2.037   3.533
 4259SOL     OW25249   1.582   4.314   3.560
 4259SOL    HW125250   1.555   4.275   3.648
 4259SOL    HW225251   1.661   4.263   3.524
 4260SOL     OW25252   0.301   2.967   3.539
 4260SOL    HW125253   0.292   2.887   3.599
 4260SOL    HW225254   0.362   3.034   3.582
 4261SOL     OW25255   3.861   6.403   2.907
 4261SOL    HW125256   3.894   6.312   2.881
 4261SOL    HW225257   3.851   6.459   2.825
 4262SOL     OW25258   3.367   3.099   6.799
 4262SOL    HW125259   3.360   3.029   6.728
 4262SOL    HW225260   3.306   3.175   6.776
 4263SOL     OW25261   1.387   2.056   1.018
 4263SOL    HW125262   1.369   1.961   1.041
 4263SOL    HW225263   1.355   2.115   1.091
 4264SOL     OW25264   4.746   5.532   6.263
 4264SOL    HW125265   4.738   5.486   6.174
 4264SOL    HW225266   4.797   5.617   6.252
 4265SOL     OW25267   3.627   0.722   0.609
 4265SOL    HW125268   3.593   0.816   0.604
 4265SOL    HW225269   3.660   0.693   0.519
 4266SOL     OW25270   1.991   0.203   0.455
 4266SOL    HW125271   1.913   0.148   0.485
 4266SOL    HW225272   1.994   0.206   0.355
 4267SOL     OW25273   6.817   2.859   4.621
 4267SOL    HW125274   6.744   2.902   4.674
 4267SOL    HW225275   6.778   2.789   4.561
 4268SOL     OW25276   4.391   2.534   3.892
 4268SOL    HW125277   4.367   2.516   3.796
 4268SOL    HW225278   4.405   2.632   3.905
 4269SOL     OW25279   0.377   4.048   2.301
 4269SOL    HW125280   0.427   4.016   2.381
 4269SOL    HW225281   0.440   4.056   2.224
 4270SOL     OW25282   3.701   6.756   0.586
 4270SOL    HW125283   3.779   6.699   0.562
 4270SOL    HW225284   3.616   6.711   0.556
 4271SOL     OW25285   2.043   6.069   1.950
 4271SOL    HW125286   2.082   5.988   1.994
 4271SOL    HW225287   1.961   6.097   2.000
 4272SOL     OW25288   1.981   4.144   2.450
 4272SOL    HW125289   1.997   4.243   2.452
 4272SOL    HW225290   2.037   4.099   2.520
 4273SOL     OW25291   4.450   1.466   1.198
 4273SOL    HW125292   4.495   1.555   1.210
 4273SOL    HW225293   4.393   1.448   1.278
 4274SOL     OW25294   7.253   1.637   2.610
 4274SOL    HW125295   7.306   1.676   2.685
 4274SOL    HW225296   7.253   1.700   2.533
 4275SOL     OW25297   7.330   0.222   2.228
 4275SOL    HW125298   7.376   0.155   2.286
 4275SOL    HW225299   7.232   0.202   2.224
 4276SOL     OW25300   3.050   1.330   0.968
 4276SOL    HW125301   3.047   1.310   1.066
 4276SOL    HW225302   3.145   1.334   0.937
 4277SOL     OW25303   5.711   4.598   3.958
 4277SOL    HW125304   5.643   4.572   3.888
 4277SOL    HW225305   5.755   4.684   3.932
 4278SOL     OW25306   1.383   7.259   6.314
 4278SOL    HW125307   1.367   7.196   6.390
 4278SOL    HW225308   1.312   7.246   6.244
 4279SOL     OW25309   3.585   1.646   3.027
 4279SOL    HW125310   3.502   1.591   3.030
 4279SOL    HW225311   3.596   1.685   2.936
 4280SOL     OW25312   2.204   0.697   0.205
 4280SOL    HW125313   2.138   0.623   0.217
 4280SOL    HW225314   2.205   0.754   0.287
 4281SOL     OW25315   3.534   2.122   5.783
 4281SOL    HW125316   3.444   2.101   5.743
 4281SOL    HW225317   3.522   2.149   5.878
 4282SOL     OW25318   5.907   5.977   3.678
 4282SOL    HW125319   5.920   6.013   3.771
 4282SOL    HW225320   5.826   5.920   3.675
 4283SOL     OW25321   1.440   3.825   6.352
 4283SOL    HW125322   1.513   3.873   6.303
 4283SOL    HW225323   1.466   3.816   6.448
 4284SOL     OW25324   4.370   0.977   4.229
 4284SOL    HW125325   4.279   0.946   4.202
 4284SOL    HW225326   4.380   1.074   4.205
 4285SOL     OW25327   2.402   5.340   6.254
 4285SOL    HW125328   2.417   5.241   6.255
 4285SOL    HW225329   2.427   5.378   6.343
 4286SOL     OW25330   2.309   6.232   2.199
 4286SOL    HW125331   2.245   6.167   2.240
 4286SOL    HW225332   2.281   6.251   2.105
 4287SOL     OW25333   7.357   7.248   1.091
 4287SOL    HW125334   7.407   7.326   1.129
 4287SOL    HW225335   7.325   7.189   1.164
 4288SOL     OW25336   7.336   3.464   3.353
 4288SOL    HW125337   7.338   3.455   3.452
 4288SOL    HW225338   7.365   3.378   3.311
 4289SOL     OW25339   0.931   5.636   4.815
 4289SOL    HW125340   0.926   5.540   4.787
 4289SOL    HW225341   0.900   5.694   4.739
 4290SOL     OW25342   0.097   4.001   4.356
 4290SOL    HW125343   0.125   4.005   4.260
 4290SOL    HW225344   0.080   3.906   4.381
 4291SOL     OW25345   1.200   2.303   3.193
 4291SOL    HW125346   1.177   2.291   3.096
 4291SOL    HW225347   1.300   2.302   3.203
 4292SOL     OW25348   6.000   0.148   6.580
 4292SOL    HW125349   6.041   0.141   6.671
 4292SOL    HW225350   6.058   0.100   6.514
 4293SOL     OW25351   4.889   6.199   2.872
 4293SOL    HW125352   4.957   6.271   2.882
 4293SOL    HW225353   4.798   6.236   2.892
 4294SOL     OW25354   5.509   1.439   0.272
 4294SOL    HW125355   5.422   1.480   0.246
 4294SOL    HW225356   5.541   1.480   0.357
 4295SOL     OW25357   4.435   5.995   4.261
 4295SOL    HW125358   4.442   6.079   4.208
 4295SOL    HW225359   4.408   6.017   4.355
 4296SOL     OW25360   5.160   2.006   2.271
 4296SOL    HW125361   5.149   1.907   2.263
 4296SOL    HW225362   5.172   2.030   2.367
 4297SOL     OW25363   3.350   4.811   4.511
 4297SOL    HW125364   3.308   4.771   4.430
 4297SOL    HW225365   3.278   4.846   4.572
 4298SOL     OW25366   4.725   6.430   7.038
 4298SOL    HW125367   4.648   6.493   7.052
 4298SOL    HW225368   4.712   6.382   6.952
 4299SOL     OW25369   5.296   4.954   1.233
 4299SOL    HW125370   5.281   4.890   1.158
 4299SOL    HW225371   5.383   4.935   1.277
 4300SOL     OW25372   0.756   1.740   1.900
 4300SOL    HW125373   0.751   1.822   1.957
 4300SOL    HW225374   0.851   1.716   1.884
 4301SOL     OW25375   7.341   2.024   5.850
 4301SOL    HW125376   7.400   1.955   5.891
 4301SOL    HW225377   7.348   2.020   5.751
 4302SOL     OW25378   5.483   3.519   1.977
 4302SOL    HW125379   5.507   3.554   1.887
 4302SOL    HW225380   5.395   3.558   2.006
 4303SOL     OW25381   2.194   6.979   5.905
 4303SOL    HW125382   2.162   7.062   5.951
 4303SOL    HW225383   2.197   6.995   5.806
 4304SOL     OW25384   5.053   3.689   2.637
 4304SOL    HW125385   5.043   3.606   2.582
 4304SOL    HW225386   5.148   3.719   2.635
 4305SOL     OW25387   3.931   5.152   6.471
 4305SOL    HW125388   3.998   5.175   6.400
 4305SOL    HW225389   3.875   5.075   6.441
 4306SOL     OW25390   6.877   5.747   0.046
 4306SOL    HW125391   6.819   5.768   8.968
 4306SOL    HW225392   6.838   5.671   0.098
 4307SOL     OW25393   5.255   0.995   4.844
 4307SOL    HW125394   5.340   0.948   4.865
 4307SOL    HW225395   5.183   0.962   4.904
 4308SOL     OW25396   5.019   1.713   5.856
 4308SOL    HW125397   4.953   1.688   5.927
 4308SOL    HW225398   5.013   1.647   5.781
 4309SOL     OW25399   1.254   1.572   0.053
 4309SOL    HW125400   1.348   1.552   0.079
 4309SOL    HW225401   1.248   1.585   8.954
 4310SOL     OW25402   3.860   2.911   6.961
 4310SOL    HW125403   3.784   2.880   6.903
 4310SOL    HW225404   3.906   2.832   7.000
 4311SOL     OW25405   6.880   5.890   6.860
 4311SOL    HW125406   6.978   5.900   6.847
 4311SOL    HW225407   6.854   5.931   6.948
 4312SOL     OW25408   4.198   1.122   3.267
 4312SOL    HW125409   4.104   1.108   3.237
 4312SOL    HW225410   4.226   1.216   3.246
 4313SOL     OW25411   1.655   2.439   5.425
 4313SOL    HW125412   1.618   2.431   5.333
 4313SOL    HW225413   1.624   2.362   5.481
 4314SOL     OW25414   2.383   3.818   1.729
 4314SOL    HW125415   2.287   3.789   1.724
 4314SOL    HW225416   2.422   3.821   1.637
 4315SOL     OW25417   1.927   5.640   6.255
 4315SOL    HW125418   2.013   5.671   6.214
 4315SOL    HW225419   1.868   5.603   6.183
 4316SOL     OW25420   2.051   2.136   2.258
 4316SOL    HW125421   2.005   2.223   2.239
 4316SOL    HW225422   2.134   2.130   2.202
 4317SOL     OW25423   1.463   4.017   7.042
 4317SOL    HW125424   1.463   4.107   7.085
 4317SOL    HW225425   1.470   3.946   7.112
 4318SOL     OW25426   0.964   4.728   4.026
 4318SOL    HW125427   0.903   4.741   3.948
 4318SOL    HW225428   1.035   4.799   4.026
 4319SOL     OW25429   4.719   4.967   2.149
 4319SOL    HW125430   4.701   5.051   2.098
 4319SOL    HW225431   4.816   4.963   2.172
 4320SOL     OW25432   6.222   2.263   4.623
 4320SOL    HW125433   6.252   2.357   4.639
 4320SOL    HW225434   6.156   2.236   4.693
 4321SOL     OW25435   3.649   6.366   2.217
 4321SOL    HW125436   3.584   6.422   2.165
 4321SOL    HW225437   3.601   6.321   2.293
 4322SOL     OW25438   5.541   5.015   5.187
 4322SOL    HW125439   5.560   5.113   5.182
 4322SOL    HW225440   5.618   4.969   5.231
 4323SOL     OW25441   1.894   5.425   2.030
 4323SOL    HW125442   1.974   5.375   2.063
 4323SOL    HW225443   1.862   5.384   1.945
 4324SOL     OW25444   0.886   2.400   6.388
 4324SOL    HW125445   0.899   2.368   6.294
 4324SOL    HW225446   0.943   2.345   6.450
 4325SOL     OW25447   2.347   7.003   0.894
 4325SOL    HW125448   2.309   7.092   0.916
 4325SOL    HW225449   2.408   7.011   0.815
 4326SOL     OW25450   3.288   1.682   1.534
 4326SOL    HW125451   3.276   1.617   1.609
 4326SOL    HW225452   3.250   1.771   1.559
 4327SOL     OW25453   1.477   3.815   0.605
 4327SOL    HW125454   1.449   3.911   0.599
 4327SOL    HW225455   1.571   3.810   0.639
 4328SOL     OW25456   5.672   5.227   6.060
 4328SOL    HW125457   5.697   5.255   6.152
 4328SOL    HW225458   5.699   5.298   5.995
 4329SOL     OW25459   1.931   0.783   6.815
 4329SOL    HW125460   1.874   0.779   6.733
 4329SOL    HW225461   2.027   0.772   6.790
 4330SOL     OW25462   0.546   4.802   2.047
 4330SOL    HW125463   0.478   4.734   2.078
 4330SOL    HW225464   0.564   4.788   1.950
 4331SOL     OW25465   3.824   6.557   6.785
 4331SOL    HW125466   3.802   6.629   6.851
 4331SOL    HW225467   3.740   6.522   6.744
 4332SOL     OW25468   3.002   0.662   2.523
 4332SOL    HW125469   2.972   0.570   2.497
 4332SOL    HW225470   2.923   0.716   2.551
 4333SOL     OW25471   7.035   4.681   0.445
 4333SOL    HW125472   6.961   4.649   0.386
 4333SOL    HW225473   7.011   4.665   0.541
 4334SOL     OW25474   0.227   6.122   7.041
 4334SOL    HW125475   0.227   6.182   7.121
 4334SOL    HW225476   0.138   6.125   6.997
 4335SOL     OW25477   6.316   5.972   3.228
 4335SOL    HW125478   6.271   5.913   3.162
 4335SOL    HW225479   6.413   5.947   3.235
 4336SOL     OW25480   5.375   5.189   4.773
 4336SOL    HW125481   5.327   5.136   4.703
 4336SOL    HW225482   5.451   5.135   4.809
 4337SOL     OW25483   5.192   1.279   0.448
 4337SOL    HW125484   5.194   1.325   0.537
 4337SOL    HW225485   5.142   1.336   0.382
 4338SOL     OW25486   1.980   6.768   0.444
 4338SOL    HW125487   1.972   6.818   0.530
 4338SOL    HW225488   2.066   6.792   0.399
 4339SOL     OW25489   1.142   3.838   0.206
 4339SOL    HW125490   1.066   3.784   0.171
 4339SOL    HW225491   1.228   3.799   0.174
 4340SOL     OW25492   5.092   4.120   2.876
 4340SOL    HW125493   5.165   4.051   2.874
 4340SOL    HW225494   5.130   4.210   2.854
 4341SOL     OW25495   6.534   4.521   7.075
 4341SOL    HW125496   6.553   4.456   7.001
 4341SOL    HW225497   6.615   4.578   7.091
 4342SOL     OW25498   4.358   3.990   0.390
 4342SOL    HW125499   4.262   3.983   0.418
 4342SOL    HW225500   4.412   3.923   0.442
 4343SOL     OW25501   1.390   1.078   2.918
 4343SOL    HW125502   1.450   1.000   2.934
 4343SOL    HW225503   1.327   1.088   2.995
 4344SOL     OW25504   1.213   3.061   6.903
 4344SOL    HW125505   1.303   3.035   6.937
 4344SOL    HW225506   1.154   3.086   6.979
 4345SOL     OW25507   7.269   2.000   1.737
 4345SOL    HW125508   7.244   2.095   1.752
 4345SOL    HW225509   7.363   1.985   1.767
 4346SOL     OW25510   5.794   5.020   6.971
 4346SOL    HW125511   5.820   4.931   6.934
 4346SOL    HW225512   5.814   5.092   6.904
 4347SOL     OW25513   1.708   2.738   2.347
 4347SOL    HW125514   1.732   2.825   2.303
 4347SOL    HW225515   1.649   2.756   2.426
 4348SOL     OW25516   6.130   5.064   0.636
 4348SOL    HW125517   6.227   5.042   0.627
 4348SOL    HW225518   6.093   5.085   0.545
 4349SOL     OW25519   3.862   0.815   2.387
 4349SOL    HW125520   3.846   0.910   2.414
 4349SOL    HW225521   3.817   0.797   2.300
 4350SOL     OW25522   2.658   2.006   5.867
 4350SOL    HW125523   2.711   1.929   5.830
 4350SOL    HW225524   2.567   2.006   5.826
 4351SOL     OW25525   5.565   0.268   6.544
 4351SOL    HW125526   5.626   0.190   6.531
 4351SOL    HW225527   5.606   0.350   6.507
 4352SOL     OW25528   2.513   1.928   4.257
 4352SOL    HW125529   2.470   1.929   4.347
 4352SOL    HW225530   2.549   1.836   4.239
 4353SOL     OW25531   0.317   3.891   4.964
 4353SOL    HW125532   0.392   3.905   5.029
 4353SOL    HW225533   0.235   3.939   4.997
 4354SOL     OW25534   1.475   4.352   4.462
 4354SOL    HW125535   1.426   4.269   4.487
 4354SOL    HW225536   1.429   4.397   4.385
 4355SOL     OW25537   2.194   7.334   0.247
 4355SOL    HW125538   2.097   7.310   0.242
 4355SOL    HW225539   2.218   7.390   0.167
 4356SOL     OW25540   0.379   3.983   7.072
 4356SOL    HW125541   0.330   4.066   7.046
 4356SOL    HW225542   0.424   3.944   6.992
 4357SOL     OW25543   4.232   1.434   5.294
 4357SOL    HW125544   4.168   1.509   5.307
 4357SOL    HW225545   4.307   1.463   5.235
 4358SOL     OW25546   2.411   3.700   4.349
 4358SOL    HW125547   2.441   3.653   4.432
 4358SOL    HW225548   2.459   3.662   4.270
 4359SOL     OW25549   5.221   2.722   3.906
 4359SOL    HW125550   5.279   2.771   3.841
 4359SOL    HW225551   5.162   2.787   3.954
 4360SOL     OW25552   3.517   3.055   5.497
 4360SOL    HW125553   3.565   3.076   5.583
 4360SOL    HW225554   3.466   2.969   5.507
 4361SOL     OW25555   5.727   3.183   0.156
 4361SOL    HW125556   5.787   3.199   0.077
 4361SOL    HW225557   5.675   3.266   0.175
 4362SOL     OW25558   3.968   4.178   3.202
 4362SOL    HW125559   3.965   4.139   3.110
 4362SOL    HW225560   4.037   4.131   3.257
 4363SOL     OW25561   5.190   0.957   4.138
 4363SOL    HW125562   5.106   1.005   4.113
 4363SOL    HW225563   5.173   0.858   4.141
 4364SOL     OW25564   6.178   5.372   0.851
 4364SOL    HW125565   6.187   5.446   0.784
 4364SOL    HW225566   6.196   5.407   0.943
 4365SOL     OW25567   7.095   3.770   7.096
 4365SOL    HW125568   7.068   3.747   7.003
 4365SOL    HW225569   7.038   3.719   7.161
 4366SOL     OW25570   6.097   1.245   3.565
 4366SOL    HW125571   6.123   1.329   3.517
 4366SOL    HW225572   6.162   1.172   3.544
 4367SOL     OW25573   1.817   3.777   4.572
 4367SOL    HW125574   1.810   3.768   4.473
 4367SOL    HW225575   1.906   3.743   4.602
 4368SOL     OW25576   3.652   2.489   6.470
 4368SOL    HW125577   3.590   2.412   6.452
 4368SOL    HW225578   3.636   2.561   6.403
 4369SOL     OW25579   7.246   0.793   2.499
 4369SOL    HW125580   7.237   0.695   2.517
 4369SOL    HW225581   7.343   0.817   2.497
 4370SOL     OW25582   5.926   5.655   2.296
 4370SOL    HW125583   6.009   5.626   2.247
 4370SOL    HW225584   5.846   5.609   2.256
 4371SOL     OW25585   6.895   3.527   5.035
 4371SOL    HW125586   6.853   3.447   5.078
 4371SOL    HW225587   6.993   3.529   5.058
 4372SOL     OW25588   0.743   3.743   3.111
 4372SOL    HW125589   0.679   3.667   3.119
 4372SOL    HW225590   0.772   3.772   3.202
 4373SOL     OW25591   7.077   3.051   5.051
 4373SOL    HW125592   7.090   3.000   5.136
 4373SOL    HW225593   7.153   3.030   4.989
 4374SOL     OW25594   2.872   5.434   1.292
 4374SOL    HW125595   2.935   5.360   1.315
 4374SOL    HW225596   2.782   5.395   1.271
 4375SOL     OW25597   5.594   6.252   6.342
 4375SOL    HW125598   5.520   6.205   6.295
 4375SOL    HW225599   5.641   6.313   6.277
 4376SOL     OW25600   3.028   2.479   3.377
 4376SOL    HW125601   2.935   2.477   3.341
 4376SOL    HW225602   3.086   2.416   3.326
 4377SOL     OW25603   1.664   0.612   5.541
 4377SOL    HW125604   1.718   0.584   5.462
 4377SOL    HW225605   1.713   0.589   5.625
 4378SOL     OW25606   1.730   3.414   2.304
 4378SOL    HW125607   1.670   3.358   2.247
 4378SOL    HW225608   1.725   3.509   2.274
 4379SOL     OW25609   1.913   1.652   7.329
 4379SOL    HW125610   1.999   1.670   7.279
 4379SOL    HW225611   1.934   1.615   7.419
 4380SOL     OW25612   3.658   0.138   3.726
 4380SOL    HW125613   3.723   0.071   3.688
 4380SOL    HW225614   3.650   0.215   3.663
 4381SOL     OW25615   0.578   3.457   3.950
 4381SOL    HW125616   0.489   3.442   3.906
 4381SOL    HW225617   0.648   3.470   3.880
 4382SOL     OW25618   4.274   4.520   3.416
 4382SOL    HW125619   4.201   4.479   3.470
 4382SOL    HW225620   4.312   4.599   3.464
 4383SOL     OW25621   5.333   0.450   6.970
 4383SOL    HW125622   5.296   0.457   7.062
 4383SOL    HW225623   5.426   0.415   6.974
 4384SOL     OW25624   3.130   5.206   4.691
 4384SOL    HW125625   3.120   5.107   4.701
 4384SOL    HW225626   3.201   5.225   4.623
 4385SOL     OW25627   3.580   6.281   0.677
 4385SOL    HW125628   3.509   6.217   0.647
 4385SOL    HW225629   3.606   6.341   0.601
 4386SOL     OW25630   3.744   2.136   4.455
 4386SOL    HW125631   3.761   2.106   4.549
 4386SOL    HW225632   3.710   2.230   4.455
 4387SOL     OW25633   1.208   1.641   2.206
 4387SOL    HW125634   1.233   1.585   2.285
 4387SOL    HW225635   1.218   1.738   2.229
 4388SOL     OW25636   2.957   3.669   4.732
 4388SOL    HW125637   2.930   3.577   4.761
 4388SOL    HW225638   2.928   3.736   4.801
 4389SOL     OW25639   6.293   2.580   2.536
 4389SOL    HW125640   6.332   2.569   2.444
 4389SOL    HW225641   6.195   2.561   2.532
 4390SOL     OW25642   0.617   3.500   3.135
 4390SOL    HW125643   0.559   3.429   3.095
 4390SOL    HW225644   0.713   3.476   3.123
 4391SOL     OW25645   1.434   1.065   1.881
 4391SOL    HW125646   1.442   0.967   1.898
 4391SOL    HW225647   1.367   1.082   1.809
 4392SOL     OW25648   2.254   0.624   2.043
 4392SOL    HW125649   2.213   0.714   2.029
 4392SOL    HW225650   2.188   0.553   2.018
 4393SOL     OW25651   1.743   4.204   3.993
 4393SOL    HW125652   1.668   4.255   4.036
 4393SOL    HW225653   1.814   4.186   4.062
 4394SOL     OW25654   7.291   3.288   2.859
 4394SOL    HW125655   7.232   3.256   2.933
 4394SOL    HW225656   7.382   3.309   2.896
 4395SOL     OW25657   6.278   6.059   6.252
 4395SOL    HW125658   6.313   6.022   6.166
 4395SOL    HW225659   6.193   6.012   6.276
 4396SOL     OW25660   3.343   5.270   4.520
 4396SOL    HW125661   3.382   5.332   4.589
 4396SOL    HW225662   3.331   5.319   4.434
 4397SOL     OW25663   2.988   6.481   2.848
 4397SOL    HW125664   3.027   6.458   2.759
 4397SOL    HW225665   2.989   6.580   2.860
 4398SOL     OW25666   6.930   0.851   1.984
 4398SOL    HW125667   7.027   0.858   2.007
 4398SOL    HW225668   6.907   0.919   1.914
 4399SOL     OW25669   4.928   3.093   0.166
 4399SOL    HW125670   4.892   3.004   0.194
 4399SOL    HW225671   4.857   3.163   0.180
 4400SOL     OW25672   2.414   4.692   7.105
 4400SOL    HW125673   2.412   4.597   7.139
 4400SOL    HW225674   2.505   4.711   7.067
 4401SOL     OW25675   2.768   1.257   4.609
 4401SOL    HW125676   2.842   1.215   4.557
 4401SOL    HW225677   2.803   1.336   4.660
 4402SOL     OW25678   5.142   4.605   2.232
 4402SOL    HW125679   5.087   4.567   2.157
 4402SOL    HW225680   5.109   4.569   2.319
 4403SOL     OW25681   0.698   5.259   4.568
 4403SOL    HW125682   0.735   5.210   4.489
 4403SOL    HW225683   0.615   5.308   4.540
 4404SOL     OW25684   2.349   4.554   4.195
 4404SOL    HW125685   2.405   4.591   4.121
 4404SOL    HW225686   2.340   4.455   4.185
 4405SOL     OW25687   6.520   1.332   3.038
 4405SOL    HW125688   6.440   1.359   3.092
 4405SOL    HW225689   6.564   1.253   3.081
 4406SOL     OW25690   2.810   7.141   0.704
 4406SOL    HW125691   2.835   7.120   0.799
 4406SOL    HW225692   2.852   7.074   0.643
 4407SOL     OW25693   4.276   5.619   2.582
 4407SOL    HW125694   4.332   5.690   2.623
 4407SOL    HW225695   4.222   5.573   2.653
 4408SOL     OW25696   4.874   1.918   4.705
 4408SOL    HW125697   4.930   1.860   4.764
 4408SOL    HW225698   4.933   1.982   4.655
 4409SOL     OW25699   1.501   5.044   6.911
 4409SOL    HW125700   1.415   5.085   6.940
 4409SOL    HW225701   1.505   5.041   6.811
 4410SOL     OW25702   3.900   0.509   2.998
 4410SOL    HW125703   3.940   0.482   3.085
 4410SOL    HW225704   3.942   0.595   2.967
 4411SOL     OW25705   1.916   4.616   0.421
 4411SOL    HW125706   1.828   4.636   0.462
 4411SOL    HW225707   1.920   4.655   0.328
 4412SOL     OW25708   6.427   5.491   4.082
 4412SOL    HW125709   6.413   5.419   4.151
 4412SOL    HW225710   6.502   5.550   4.111
 4413SOL     OW25711   4.592   1.698   4.786
 4413SOL    HW125712   4.595   1.740   4.695
 4413SOL    HW225713   4.625   1.763   4.854
 4414SOL     OW25714   4.364   6.047   2.831
 4414SOL    HW125715   4.357   6.033   2.930
 4414SOL    HW225716   4.376   6.144   2.811
 4415SOL     OW25717   5.534   1.877   4.001
 4415SOL    HW125718   5.564   1.923   4.085
 4415SOL    HW225719   5.613   1.834   3.957
 4416SOL     OW25720   4.736   2.733   0.957
 4416SOL    HW125721   4.752   2.666   1.028
 4416SOL    HW225722   4.789   2.816   0.976
 4417SOL     OW25723   6.855   1.625   1.746
 4417SOL    HW125724   6.878   1.556   1.814
 4417SOL    HW225725   6.925   1.696   1.746
 4418SOL     OW25726   1.399   2.444   1.375
 4418SOL    HW125727   1.375   2.538   1.402
 4418SOL    HW225728   1.486   2.446   1.325
 4419SOL     OW25729   6.494   4.431   0.238
 4419SOL    HW125730   6.502   4.430   0.138
 4419SOL    HW225731   6.513   4.523   0.272
 4420SOL     OW25732   4.349   1.598   2.396
 4420SOL    HW125733   4.339   1.656   2.476
 4420SOL    HW225734   4.442   1.560   2.393
 4421SOL     OW25735   6.421   7.083   3.416
 4421SOL    HW125736   6.449   7.024   3.340
 4421SOL    HW225737   6.502   7.118   3.463
 4422SOL     OW25738   5.935   2.382   4.557
 4422SOL    HW125739   6.024   2.393   4.601
 4422SOL    HW225740   5.871   2.340   4.622
 4423SOL     OW25741   0.716   3.595   0.847
 4423SOL    HW125742   0.679   3.594   0.754
 4423SOL    HW225743   0.749   3.503   0.870
 4424SOL     OW25744   6.090   2.399   4.292
 4424SOL    HW125745   6.087   2.499   4.286
 4424SOL    HW225746   6.044   2.369   4.375
 4425SOL     OW25747   3.555   6.643   1.213
 4425SOL    HW125748   3.606   6.575   1.159
 4425SOL    HW225749   3.522   6.601   1.297
 4426SOL     OW25750   5.349   4.183   2.201
 4426SOL    HW125751   5.410   4.238   2.259
 4426SOL    HW225752   5.331   4.095   2.244
 4427SOL     OW25753   6.113   3.866   0.472
 4427SOL    HW125754   6.034   3.890   0.416
 4427SOL    HW225755   6.195   3.863   0.415
 4428SOL     OW25756   3.026   6.124   7.375
 4428SOL    HW125757   3.011   6.222   7.384
 4428SOL    HW225758   2.960   6.074   7.430
 4429SOL     OW25759   0.724   4.108   4.123
 4429SOL    HW125760   0.706   4.016   4.087
 4429SOL    HW225761   0.642   4.141   4.170
 4430SOL     OW25762   6.635   5.598   0.964
 4430SOL    HW125763   6.664   5.639   1.050
 4430SOL    HW225764   6.627   5.499   0.975
 4431SOL     OW25765   4.156   5.174   6.773
 4431SOL    HW125766   4.186   5.194   6.680
 4431SOL    HW225767   4.069   5.125   6.771
 4432SOL     OW25768   3.185   2.191   5.977
 4432SOL    HW125769   3.136   2.224   6.058
 4432SOL    HW225770   3.205   2.093   5.988
 4433SOL     OW25771   6.319   1.981   1.219
 4433SOL    HW125772   6.227   2.000   1.186
 4433SOL    HW225773   6.385   1.991   1.144
 4434SOL     OW25774   4.682   2.317   0.171
 4434SOL    HW125775   4.617   2.247   0.140
 4434SOL    HW225776   4.633   2.402   0.188
 4435SOL     OW25777   2.109   0.348   0.033
 4435SOL    HW125778   2.051   0.428   0.042
 4435SOL    HW225779   2.201   0.369   0.066
 4436SOL     OW25780   2.021   6.629   0.934
 4436SOL    HW125781   2.042   6.726   0.935
 4436SOL    HW225782   2.106   6.576   0.941
 4437SOL     OW25783   5.042   2.089   1.347
 4437SOL    HW125784   5.105   2.115   1.273
 4437SOL    HW225785   5.024   2.168   1.405
 4438SOL     OW25786   3.280   3.917   0.671
 4438SOL    HW125787   3.320   3.858   0.601
 4438SOL    HW225788   3.349   3.983   0.702
 4439SOL     OW25789   3.557   6.238   0.951
 4439SOL    HW125790   3.563   6.260   0.853
 4439SOL    HW225791   3.462   6.216   0.974
 4440SOL     OW25792   0.356   4.409   1.210
 4440SOL    HW125793   0.307   4.493   1.232
 4440SOL    HW225794   0.389   4.366   1.294
 4441SOL     OW25795   4.162   1.907   1.520
 4441SOL    HW125796   4.198   1.999   1.506
 4441SOL    HW225797   4.217   1.842   1.467
 4442SOL     OW25798   3.931   3.943   0.936
 4442SOL    HW125799   3.972   3.854   0.956
 4442SOL    HW225800   3.837   3.946   0.972
 4443SOL     OW25801   2.001   0.923   1.503
 4443SOL    HW125802   1.948   0.839   1.514
 4443SOL    HW225803   1.952   0.986   1.444
 4444SOL     OW25804   1.782   5.575   6.031
 4444SOL    HW125805   1.683   5.579   6.045
 4444SOL    HW225806   1.814   5.660   5.989
 4445SOL     OW25807   2.307   0.321   1.913
 4445SOL    HW125808   2.212   0.342   1.940
 4445SOL    HW225809   2.368   0.338   1.990
 4446SOL     OW25810   1.877   3.337   4.342
 4446SOL    HW125811   1.871   3.244   4.306
 4446SOL    HW225812   1.802   3.392   4.306
 4447SOL     OW25813   4.662   1.713   4.065
 4447SOL    HW125814   4.696   1.620   4.048
 4447SOL    HW225815   4.716   1.779   4.013
 4448SOL     OW25816   2.224   2.696   0.211
 4448SOL    HW125817   2.303   2.746   0.246
 4448SOL    HW225818   2.229   2.691   0.111
 4449SOL     OW25819   4.868   6.973   1.378
 4449SOL    HW125820   4.945   6.910   1.390
 4449SOL    HW225821   4.792   6.944   1.435
 4450SOL     OW25822   6.012   4.975   1.123
 4450SOL    HW125823   6.047   5.064   1.150
 4450SOL    HW225824   5.999   4.973   1.024
 4451SOL     OW25825   5.366   6.117   6.249
 4451SOL    HW125826   5.283   6.121   6.194
 4451SOL    HW225827   5.343   6.135   6.344
 4452SOL     OW25828   3.791   7.124   6.400
 4452SOL    HW125829   3.710   7.170   6.437
 4452SOL    HW225830   3.779   7.025   6.405
 4453SOL     OW25831   3.639   4.418   6.600
 4453SOL    HW125832   3.590   4.370   6.527
 4453SOL    HW225833   3.706   4.356   6.641
 4454SOL     OW25834   3.121   4.299   0.016
 4454SOL    HW125835   3.142   4.205   0.045
 4454SOL    HW225836   3.186   4.328   8.946
 4455SOL     OW25837   6.844   4.399   7.128
 4455SOL    HW125838   6.863   4.323   7.066
 4455SOL    HW225839   6.907   4.395   7.205
 4456SOL     OW25840   5.887   3.426   0.501
 4456SOL    HW125841   5.910   3.338   0.458
 4456SOL    HW225842   5.824   3.410   0.577
 4457SOL     OW25843   6.442   6.651   6.391
 4457SOL    HW125844   6.389   6.736   6.382
 4457SOL    HW225845   6.460   6.613   6.300
 4458SOL     OW25846   6.967   0.821   6.481
 4458SOL    HW125847   6.923   0.761   6.547
 4458SOL    HW225848   6.898   0.860   6.420
 4459SOL     OW25849   6.443   0.280   5.635
 4459SOL    HW125850   6.410   0.301   5.727
 4459SOL    HW225851   6.450   0.365   5.583
 4460SOL     OW25852   3.131   4.892   7.262
 4460SOL    HW125853   3.209   4.892   7.325
 4460SOL    HW225854   3.122   4.982   7.220
 4461SOL     OW25855   4.961   5.652   2.269
 4461SOL    HW125856   4.967   5.553   2.259
 4461SOL    HW225857   5.043   5.686   2.316
 4462SOL     OW25858   5.431   0.363   1.886
 4462SOL    HW125859   5.413   0.393   1.792
 4462SOL    HW225860   5.409   0.437   1.949
 4463SOL     OW25861   0.490   6.553   4.160
 4463SOL    HW125862   0.553   6.555   4.083
 4463SOL    HW225863   0.400   6.522   4.128
 4464SOL     OW25864   5.748   4.938   3.468
 4464SOL    HW125865   5.684   4.961   3.395
 4464SOL    HW225866   5.703   4.951   3.556
 4465SOL     OW25867   6.593   4.686   3.804
 4465SOL    HW125868   6.585   4.642   3.714
 4465SOL    HW225869   6.537   4.769   3.806
 4466SOL     OW25870   5.581   5.282   5.178
 4466SOL    HW125871   5.611   5.362   5.126
 4466SOL    HW225872   5.510   5.308   5.243
 4467SOL     OW25873   0.370   5.884   5.802
 4467SOL    HW125874   0.428   5.806   5.779
 4467SOL    HW225875   0.373   5.951   5.728
 4468SOL     OW25876   2.682   6.400   1.764
 4468SOL    HW125877   2.627   6.400   1.847
 4468SOL    HW225878   2.622   6.409   1.684
 4469SOL     OW25879   6.052   2.030   2.184
 4469SOL    HW125880   5.985   1.967   2.224
 4469SOL    HW225881   6.008   2.117   2.166
 4470SOL     OW25882   3.377   2.282   4.433
 4470SOL    HW125883   3.295   2.305   4.381
 4470SOL    HW225884   3.413   2.194   4.402
 4471SOL     OW25885   4.620   1.166   5.350
 4471SOL    HW125886   4.689   1.126   5.411
 4471SOL    HW225887   4.531   1.124   5.368
 4472SOL     OW25888   6.605   0.744   1.775
 4472SOL    HW125889   6.607   0.829   1.722
 4472SOL    HW225890   6.560   0.761   1.863
 4473SOL     OW25891   2.900   5.907   6.634
 4473SOL    HW125892   2.935   5.860   6.552
 4473SOL    HW225893   2.802   5.892   6.642
 4474SOL     OW25894   2.774   6.378   3.322
 4474SOL    HW125895   2.762   6.470   3.361
 4474SOL    HW225896   2.837   6.383   3.245
 4475SOL     OW25897   5.531   2.442   5.272
 4475SOL    HW125898   5.524   2.422   5.369
 4475SOL    HW225899   5.610   2.394   5.234
 4476SOL     OW25900   0.585   1.525   1.898
 4476SOL    HW125901   0.522   1.524   1.976
 4476SOL    HW225902   0.645   1.605   1.905
 4477SOL     OW25903   0.900   1.635   1.160
 4477SOL    HW125904   0.930   1.645   1.255
 4477SOL    HW225905   0.980   1.642   1.099
 4478SOL     OW25906   7.247   1.160   2.285
 4478SOL    HW125907   7.195   1.074   2.294
 4478SOL    HW225908   7.302   1.174   2.367
 4479SOL     OW25909   6.104   7.053   5.247
 4479SOL    HW125910   6.039   7.092   5.181
 4479SOL    HW225911   6.176   7.119   5.267
 4480SOL     OW25912   1.790   1.703   6.962
 4480SOL    HW125913   1.806   1.646   6.882
 4480SOL    HW225914   1.773   1.645   7.042
 4481SOL     OW25915   3.706   2.244   2.352
 4481SOL    HW125916   3.732   2.213   2.260
 4481SOL    HW225917   3.650   2.174   2.395
 4482SOL     OW25918   4.432   4.467   3.004
 4482SOL    HW125919   4.353   4.528   3.001
 4482SOL    HW225920   4.457   4.439   2.912
 4483SOL     OW25921   5.729   4.364   4.427
 4483SOL    HW125922   5.688   4.410   4.505
 4483SOL    HW225923   5.659   4.347   4.357
 4484SOL     OW25924   5.338   1.839   5.639
 4484SOL    HW125925   5.282   1.882   5.710
 4484SOL    HW225926   5.283   1.824   5.557
 4485SOL     OW25927   3.287   4.047   4.922
 4485SOL    HW125928   3.264   4.139   4.889
 4485SOL    HW225929   3.222   4.019   4.991
 4486SOL     OW25930   3.778   6.142   7.006
 4486SOL    HW125931   3.796   6.203   7.084
 4486SOL    HW225932   3.837   6.062   7.012
 4487SOL     OW25933   4.058   0.486   2.592
 4487SOL    HW125934   3.989   0.488   2.519
 4487SOL    HW225935   4.096   0.578   2.604
 4488SOL     OW25936   0.596   5.440   6.185
 4488SOL    HW125937   0.529   5.474   6.250
 4488SOL    HW225938   0.560   5.359   6.139
 4489SOL     OW25939   1.211   7.203   6.108
 4489SOL    HW125940   1.265   7.122   6.088
 4489SOL    HW225941   1.116   7.186   6.081
 4490SOL     OW25942   2.626   4.816   0.295
 4490SOL    HW125943   2.673   4.903   0.281
 4490SOL    HW225944   2.583   4.787   0.209
 4491SOL     OW25945   1.142   8.982   4.032
 4491SOL    HW125946   1.087   0.024   4.104
 4491SOL    HW225947   1.226   8.945   4.073
 4492SOL     OW25948   7.106   0.944   6.703
 4492SOL    HW125949   7.045   0.910   6.631
 4492SOL    HW225950   7.198   0.908   6.689
 4493SOL     OW25951   2.845   4.039   0.909
 4493SOL    HW125952   2.822   4.137   0.906
 4493SOL    HW225953   2.825   4.003   1.000
 4494SOL     OW25954   2.782   0.053   1.243
 4494SOL    HW125955   2.696   0.011   1.215
 4494SOL    HW225956   2.766   0.149   1.266
 4495SOL     OW25957   0.703   3.660   5.787
 4495SOL    HW125958   0.744   3.570   5.769
 4495SOL    HW225959   0.775   3.726   5.806
 4496SOL     OW25960   3.473   7.170   6.789
 4496SOL    HW125961   3.401   7.219   6.839
 4496SOL    HW225962   3.556   7.225   6.789
 4497SOL     OW25963   0.027   7.300   6.404
 4497SOL    HW125964   8.929   7.302   6.381
 4497SOL    HW225965   0.068   7.388   6.383
 4498SOL     OW25966   0.804   4.026   4.808
 4498SOL    HW125967   0.856   4.106   4.836
 4498SOL    HW225968   0.834   3.947   4.861
 4499SOL     OW25969   3.689   7.203   4.787
 4499SOL    HW125970   3.735   7.129   4.739
 4499SOL    HW225971   3.756   7.261   4.833
 4500SOL     OW25972   0.949   7.214   3.744
 4500SOL    HW125973   0.957   7.164   3.658
 4500SOL    HW225974   0.888   7.164   3.806
 4501SOL     OW25975   6.462   1.652   1.493
 4501SOL    HW125976   6.364   1.643   1.474
 4501SOL    HW225977   6.495   1.739   1.457
 4502SOL     OW25978   3.908   4.183   4.767
 4502SOL    HW125979   3.814   4.213   4.785
 4502SOL    HW225980   3.920   4.164   4.670
 4503SOL     OW25981   4.901   7.148   6.707
 4503SOL    HW125982   4.805   7.126   6.695
 4503SOL    HW225983   4.919   7.240   6.670
 4504SOL     OW25984   4.996   2.625   2.074
 4504SOL    HW125985   4.981   2.617   2.173
 4504SOL    HW225986   5.023   2.718   2.052
 4505SOL     OW25987   6.679   7.063   0.837
 4505SOL    HW125988   6.644   6.984   0.887
 4505SOL    HW225989   6.749   7.033   0.772
 4506SOL     OW25990   2.347   1.379   1.094
 4506SOL    HW125991   2.358   1.428   1.181
 4506SOL    HW225992   2.271   1.315   1.101
 4507SOL     OW25993   6.477   4.646   0.937
 4507SOL    HW125994   6.449   4.727   0.885
 4507SOL    HW225995   6.428   4.566   0.904
 4508SOL     OW25996   1.728   0.291   5.749
 4508SOL    HW125997   1.632   0.277   5.772
 4508SOL    HW225998   1.753   0.231   5.673
 4509SOL     OW25999   0.933   1.136   0.676
 4509SOL    HW126000   0.947   1.184   0.762
 4509SOL    HW226001   0.964   1.193   0.600
 4510SOL     OW26002   1.659   4.765   5.102
 4510SOL    HW126003   1.679   4.776   5.199
 4510SOL    HW226004   1.738   4.793   5.048
 4511SOL     OW26005   6.906   0.085   6.653
 4511SOL    HW126006   6.920   0.048   6.745
 4511SOL    HW226007   6.995   0.093   6.607
 4512SOL     OW26008   4.229   6.437   2.997
 4512SOL    HW126009   4.262   6.404   3.085
 4512SOL    HW226010   4.131   6.419   2.989
 4513SOL     OW26011   3.935   4.849   6.128
 4513SOL    HW126012   3.934   4.834   6.030
 4513SOL    HW226013   3.971   4.768   6.174
 4514SOL     OW26014   6.067   6.606   3.796
 4514SOL    HW126015   6.026   6.579   3.709
 4514SOL    HW226016   6.086   6.525   3.850
 4515SOL     OW26017   4.111   5.372   6.099
 4515SOL    HW126018   4.156   5.427   6.170
 4515SOL    HW226019   4.092   5.281   6.136
 4516SOL     OW26020   0.413   0.894   5.917
 4516SOL    HW126021   0.506   0.925   5.939
 4516SOL    HW226022   0.374   0.846   5.996
 4517SOL     OW26023   0.399   2.274   0.446
 4517SOL    HW126024   0.495   2.303   0.450
 4517SOL    HW226025   0.340   2.352   0.464
 4518SOL     OW26026   6.348   3.733   3.559
 4518SOL    HW126027   6.387   3.717   3.650
 4518SOL    HW226028   6.317   3.647   3.520
 4519SOL     OW26029   6.296   6.491   3.453
 4519SOL    HW126030   6.217   6.431   3.465
 4519SOL    HW226031   6.319   6.534   3.540
 4520SOL     OW26032   5.578   1.901   5.304
 4520SOL    HW126033   5.662   1.851   5.284
 4520SOL    HW226034   5.573   1.923   5.401
 4521SOL     OW26035   5.178   5.236   6.001
 4521SOL    HW126036   5.270   5.198   6.000
 4521SOL    HW226037   5.112   5.164   6.024
 4522SOL     OW26038   5.676   4.633   1.344
 4522SOL    HW126039   5.764   4.672   1.317
 4522SOL    HW226040   5.682   4.602   1.439
 4523SOL     OW26041   2.336   1.325   6.400
 4523SOL    HW126042   2.299   1.374   6.321
 4523SOL    HW226043   2.275   1.251   6.426
 4524SOL     OW26044   1.480   0.769   6.736
 4524SOL    HW126045   1.398   0.772   6.680
 4524SOL    HW226046   1.472   0.833   6.812
 4525SOL     OW26047   4.112   0.757   0.468
 4525SOL    HW126048   4.126   0.790   0.561
 4525SOL    HW226049   4.071   0.666   0.471
 4526SOL     OW26050   1.684   4.789   5.377
 4526SOL    HW126051   1.749   4.865   5.378
 4526SOL    HW226052   1.717   4.717   5.438
 4527SOL     OW26053   0.208   6.453   6.772
 4527SOL    HW126054   0.161   6.532   6.733
 4527SOL    HW226055   0.229   6.471   6.868
 4528SOL     OW26056   6.354   6.345   4.650
 4528SOL    HW126057   6.338   6.396   4.565
 4528SOL    HW226058   6.285   6.273   4.659
 4529SOL     OW26059   2.138   6.321   3.129
 4529SOL    HW126060   2.076   6.318   3.052
 4529SOL    HW226061   2.190   6.407   3.127
 4530SOL     OW26062   7.274   4.586   0.026
 4530SOL    HW126063   7.263   4.616   0.120
 4530SOL    HW226064   7.301   4.664   8.969
 4531SOL     OW26065   0.298   2.663   8.952
 4531SOL    HW126066   0.309   2.693   0.047
 4531SOL    HW226067   0.201   2.648   8.933
 4532SOL     OW26068   1.748   6.972   5.825
 4532SOL    HW126069   1.822   6.924   5.871
 4532SOL    HW226070   1.680   6.906   5.793
 4533SOL     OW26071   5.684   1.990   2.660
 4533SOL    HW126072   5.645   2.071   2.615
 4533SOL    HW226073   5.776   1.973   2.625
 4534SOL     OW26074   7.177   4.009   3.801
 4534SOL    HW126075   7.127   4.027   3.885
 4534SOL    HW226076   7.136   3.931   3.753
 4535SOL     OW26077   4.850   6.918   4.938
 4535SOL    HW126078   4.761   6.962   4.926
 4535SOL    HW226079   4.886   6.940   5.029
 4536SOL     OW26080   2.703   4.914   3.801
 4536SOL    HW126081   2.764   4.841   3.834
 4536SOL    HW226082   2.620   4.915   3.856
 4537SOL     OW26083   1.278   4.581   0.996
 4537SOL    HW126084   1.281   4.593   1.095
 4537SOL    HW226085   1.357   4.526   0.967
 4538SOL     OW26086   3.799   6.374   1.798
 4538SOL    HW126087   3.727   6.388   1.729
 4538SOL    HW226088   3.807   6.276   1.818
 4539SOL     OW26089   3.747   0.226   5.356
 4539SOL    HW126090   3.813   0.197   5.425
 4539SOL    HW226091   3.698   0.147   5.321
 4540SOL     OW26092   6.140   2.113   2.456
 4540SOL    HW126093   6.121   2.088   2.361
 4540SOL    HW226094   6.220   2.173   2.460
 4541SOL     OW26095   5.512   4.421   3.204
 4541SOL    HW126096   5.476   4.503   3.249
 4541SOL    HW226097   5.438   4.376   3.155
 4542SOL     OW26098   5.401   1.989   6.002
 4542SOL    HW126099   5.450   1.953   6.082
 4542SOL    HW226100   5.467   2.016   5.932
 4543SOL     OW26101   2.455   0.785   0.143
 4543SOL    HW126102   2.488   0.794   0.237
 4543SOL    HW226103   2.364   0.744   0.142
 4544SOL     OW26104   2.616   3.864   4.538
 4544SOL    HW126105   2.541   3.930   4.526
 4544SOL    HW226106   2.631   3.847   4.635
 4545SOL     OW26107   0.244   5.649   3.569
 4545SOL    HW126108   0.266   5.736   3.526
 4545SOL    HW226109   0.176   5.600   3.514
 4546SOL     OW26110   2.733   7.015   5.616
 4546SOL    HW126111   2.814   7.033   5.672
 4546SOL    HW226112   2.756   6.953   5.541
 4547SOL     OW26113   2.413   1.031   1.789
 4547SOL    HW126114   2.434   1.042   1.886
 4547SOL    HW226115   2.315   1.019   1.777
 4548SOL     OW26116   6.872   5.290   6.034
 4548SOL    HW126117   6.905   5.281   6.128
 4548SOL    HW226118   6.782   5.247   6.026
 4549SOL     OW26119   7.278   0.431   5.129
 4549SOL    HW126120   7.240   0.339   5.137
 4549SOL    HW226121   7.205   0.496   5.108
 4550SOL     OW26122   5.903   1.678   6.523
 4550SOL    HW126123   5.945   1.705   6.437
 4550SOL    HW226124   5.933   1.586   6.547
 4551SOL     OW26125   2.813   0.133   7.293
 4551SOL    HW126126   2.736   0.083   7.331
 4551SOL    HW226127   2.791   0.230   7.287
 4552SOL     OW26128   1.848   4.871   4.915
 4552SOL    HW126129   1.939   4.838   4.888
 4552SOL    HW226130   1.789   4.876   4.835
 4553SOL     OW26131   4.775   1.743   4.317
 4553SOL    HW126132   4.870   1.718   4.300
 4553SOL    HW226133   4.721   1.731   4.233
 4554SOL     OW26134   6.069   5.569   6.510
 4554SOL    HW126135   6.093   5.665   6.523
 4554SOL    HW226136   6.112   5.514   6.581
 4555SOL     OW26137   6.447   2.976   6.363
 4555SOL    HW126138   6.409   2.892   6.403
 4555SOL    HW226139   6.507   3.020   6.430
 4556SOL     OW26140   2.755   1.018   5.648
 4556SOL    HW126141   2.821   0.951   5.681
 4556SOL    HW226142   2.753   1.017   5.548
 4557SOL     OW26143   2.675   2.171   6.091
 4557SOL    HW126144   2.581   2.206   6.098
 4557SOL    HW226145   2.682   2.110   6.012
 4558SOL     OW26146   7.153   0.423   5.575
 4558SOL    HW126147   7.093   0.503   5.583
 4558SOL    HW226148   7.227   0.444   5.511
 4559SOL     OW26149   4.759   1.096   0.975
 4559SOL    HW126150   4.723   1.166   1.036
 4559SOL    HW226151   4.780   1.136   0.886
 4560SOL     OW26152   1.809   0.571   3.711
 4560SOL    HW126153   1.818   0.472   3.720
 4560SOL    HW226154   1.896   0.610   3.680
 4561SOL     OW26155   2.375   4.159   2.723
 4561SOL    HW126156   2.323   4.126   2.801
 4561SOL    HW226157   2.471   4.136   2.734
 4562SOL     OW26158   4.456   5.695   5.156
 4562SOL    HW126159   4.527   5.764   5.146
 4562SOL    HW226160   4.408   5.709   5.242
 4563SOL     OW26161   5.961   5.004   0.846
 4563SOL    HW126162   5.886   4.960   0.796
 4563SOL    HW226163   6.036   5.025   0.783
 4564SOL     OW26164   6.879   3.772   3.846
 4564SOL    HW126165   6.945   3.787   3.772
 4564SOL    HW226166   6.886   3.677   3.878
 4565SOL     OW26167   5.762   1.310   3.207
 4565SOL    HW126168   5.744   1.249   3.129
 4565SOL    HW226169   5.798   1.256   3.283
 4566SOL     OW26170   3.254   1.221   2.602
 4566SOL    HW126171   3.341   1.260   2.571
 4566SOL    HW226172   3.268   1.127   2.633
 4567SOL     OW26173   1.680   4.535   5.883
 4567SOL    HW126174   1.754   4.589   5.924
 4567SOL    HW226175   1.644   4.583   5.803
 4568SOL     OW26176   7.191   5.053   3.059
 4568SOL    HW126177   7.283   5.044   3.098
 4568SOL    HW226178   7.124   5.011   3.121
 4569SOL     OW26179   7.039   2.300   5.030
 4569SOL    HW126180   7.031   2.398   5.045
 4569SOL    HW226181   7.135   2.274   5.029
 4570SOL     OW26182   2.933   3.361   0.506
 4570SOL    HW126183   2.893   3.329   0.592
 4570SOL    HW226184   3.014   3.415   0.525
 4571SOL     OW26185   5.443   0.750   3.445
 4571SOL    HW126186   5.388   0.768   3.526
 4571SOL    HW226187   5.438   0.653   3.422
 4572SOL     OW26188   0.026   3.128   5.561
 4572SOL    HW126189   8.947   3.072   5.584
 4572SOL    HW226190   0.037   3.133   5.461
 4573SOL     OW26191   3.711   2.637   1.144
 4573SOL    HW126192   3.739   2.571   1.074
 4573SOL    HW226193   3.634   2.691   1.111
 4574SOL     OW26194   1.275   5.001   1.413
 4574SOL    HW126195   1.332   5.007   1.496
 4574SOL    HW226196   1.186   5.042   1.431
 4575SOL     OW26197   4.035   1.403   0.573
 4575SOL    HW126198   4.012   1.475   0.507
 4575SOL    HW226199   3.968   1.330   0.569
 4576SOL     OW26200   6.136   1.393   1.585
 4576SOL    HW126201   6.050   1.343   1.587
 4576SOL    HW226202   6.149   1.442   1.671
 4577SOL     OW26203   2.421   1.485   2.814
 4577SOL    HW126204   2.446   1.582   2.815
 4577SOL    HW226205   2.456   1.443   2.731
 4578SOL     OW26206   2.215   6.701   2.400
 4578SOL    HW126207   2.258   6.615   2.376
 4578SOL    HW226208   2.161   6.690   2.483
 4579SOL     OW26209   0.027   4.996   0.595
 4579SOL    HW126210   0.090   5.011   0.671
 4579SOL    HW226211   8.992   5.084   0.564
 4580SOL     OW26212   5.116   5.161   1.615
 4580SOL    HW126213   5.100   5.063   1.619
 4580SOL    HW226214   5.177   5.182   1.538
 4581SOL     OW26215   6.845   4.783   3.865
 4581SOL    HW126216   6.834   4.830   3.952
 4581SOL    HW226217   6.758   4.743   3.837
 4582SOL     OW26218   0.097   1.169   7.088
 4582SOL    HW126219   0.171   1.124   7.039
 4582SOL    HW226220   0.083   1.261   7.052
 4583SOL     OW26221   1.234   1.223   3.205
 4583SOL    HW126222   1.236   1.322   3.220
 4583SOL    HW226223   1.321   1.182   3.233
 4584SOL     OW26224   6.855   1.780   5.128
 4584SOL    HW126225   6.764   1.761   5.090
 4584SOL    HW226226   6.851   1.779   5.228
 4585SOL     OW26227   1.473   2.299   3.234
 4585SOL    HW126228   1.528   2.252   3.165
 4585SOL    HW226229   1.481   2.250   3.321
 4586SOL     OW26230   3.375   5.490   7.351
 4586SOL    HW126231   3.408   5.477   7.258
 4586SOL    HW226232   3.355   5.587   7.366
 4587SOL     OW26233   4.921   5.154   0.572
 4587SOL    HW126234   4.913   5.056   0.592
 4587SOL    HW226235   4.834   5.190   0.540
 4588SOL     OW26236   3.350   2.545   3.716
 4588SOL    HW126237   3.265   2.572   3.671
 4588SOL    HW226238   3.337   2.457   3.762
 4589SOL     OW26239   5.667   1.708   4.675
 4589SOL    HW126240   5.743   1.734   4.734
 4589SOL    HW226241   5.703   1.670   4.590
 4590SOL     OW26242   5.942   7.036   5.580
 4590SOL    HW126243   5.900   6.995   5.499
 4590SOL    HW226244   6.027   6.988   5.603
 4591SOL     OW26245   3.868   4.716   1.386
 4591SOL    HW126246   3.922   4.765   1.454
 4591SOL    HW226247   3.903   4.622   1.378
 4592SOL     OW26248   1.485   2.638   7.344
 4592SOL    HW126249   1.538   2.554   7.333
 4592SOL    HW226250   1.452   2.645   7.438
 4593SOL     OW26251   2.427   4.247   5.191
 4593SOL    HW126252   2.341   4.213   5.228
 4593SOL    HW226253   2.471   4.307   5.258
 4594SOL     OW26254   0.382   4.789   3.478
 4594SOL    HW126255   0.472   4.746   3.467
 4594SOL    HW226256   0.340   4.801   3.389
 4595SOL     OW26257   7.233   6.156   6.925
 4595SOL    HW126258   7.218   6.205   6.839
 4595SOL    HW226259   7.208   6.215   7.002
 4596SOL     OW26260   5.384   6.595   2.105
 4596SOL    HW126261   5.436   6.593   2.020
 4596SOL    HW226262   5.447   6.600   2.183
 4597SOL     OW26263   2.401   2.018   5.777
 4597SOL    HW126264   2.359   2.068   5.701
 4597SOL    HW226265   2.330   1.990   5.842
 4598SOL     OW26266   1.750   2.766   4.576
 4598SOL    HW126267   1.833   2.769   4.632
 4598SOL    HW226268   1.767   2.715   4.492
 4599SOL     OW26269   5.132   7.054   1.765
 4599SOL    HW126270   5.125   7.128   1.832
 4599SOL    HW226271   5.166   7.090   1.678
 4600SOL     OW26272   4.777   5.637   5.660
 4600SOL    HW126273   4.813   5.714   5.713
 4600SOL    HW226274   4.727   5.671   5.581
 4601SOL     OW26275   3.634   5.433   6.756
 4601SOL    HW126276   3.650   5.460   6.851
 4601SOL    HW226277   3.635   5.514   6.698
 4602SOL     OW26278   1.388   2.577   6.091
 4602SOL    HW126279   1.310   2.630   6.124
 4602SOL    HW226280   1.403   2.596   5.994
 4603SOL     OW26281   0.268   4.660   5.385
 4603SOL    HW126282   0.334   4.679   5.458
 4603SOL    HW226283   0.303   4.694   5.298
 4604SOL     OW26284   5.897   6.829   4.982
 4604SOL    HW126285   5.961   6.899   4.949
 4604SOL    HW226286   5.891   6.755   4.915
 4605SOL     OW26287   5.055   7.235   6.933
 4605SOL    HW126288   5.016   7.196   6.850
 4605SOL    HW226289   5.150   7.206   6.943
 4606SOL     OW26290   4.230   2.350   5.798
 4606SOL    HW126291   4.230   2.448   5.777
 4606SOL    HW226292   4.135   2.317   5.799
 4607SOL     OW26293   5.066   5.602   4.979
 4607SOL    HW126294   5.116   5.550   5.049
 4607SOL    HW226295   5.127   5.622   4.902
 4608SOL     OW26296   0.671   5.250   2.367
 4608SOL    HW126297   0.728   5.331   2.381
 4608SOL    HW226298   0.689   5.212   2.277
 4609SOL     OW26299   1.445   5.366   6.889
 4609SOL    HW126300   1.531   5.330   6.853
 4609SOL    HW226301   1.384   5.291   6.911
 4610SOL     OW26302   2.622   0.604   8.999
 4610SOL    HW126303   2.570   0.673   0.048
 4610SOL    HW226304   2.679   0.553   0.063
 4611SOL     OW26305   5.098   4.591   5.440
 4611SOL    HW126306   5.155   4.515   5.408
 4611SOL    HW226307   5.050   4.632   5.363
 4612SOL     OW26308   5.524   2.370   5.535
 4612SOL    HW126309   5.550   2.444   5.599
 4612SOL    HW226310   5.431   2.340   5.556
 4613SOL     OW26311   3.982   6.844   6.222
 4613SOL    HW126312   3.963   6.903   6.144
 4613SOL    HW226313   3.993   6.750   6.191
 4614SOL     OW26314   2.875   2.933   4.659
 4614SOL    HW126315   2.951   2.966   4.714
 4614SOL    HW226316   2.910   2.889   4.576
 4615SOL     OW26317   4.823   0.950   3.433
 4615SOL    HW126318   4.854   0.945   3.528
 4615SOL    HW226319   4.730   0.913   3.426
 4616SOL     OW26320   4.626   1.856   6.732
 4616SOL    HW126321   4.710   1.880   6.685
 4616SOL    HW226322   4.641   1.859   6.831
 4617SOL     OW26323   3.781   3.133   3.759
 4617SOL    HW126324   3.767   3.218   3.707
 4617SOL    HW226325   3.799   3.155   3.855
 4618SOL     OW26326   5.640   0.929   1.263
 4618SOL    HW126327   5.689   0.948   1.348
 4618SOL    HW226328   5.576   0.854   1.278
 4619SOL     OW26329   5.874   1.512   3.384
 4619SOL    HW126330   5.845   1.455   3.307
 4619SOL    HW226331   5.879   1.608   3.354
 4620SOL     OW26332   4.777   4.334   2.059
 4620SOL    HW126333   4.802   4.238   2.049
 4620SOL    HW226334   4.859   4.391   2.049
 4621SOL     OW26335   1.512   1.495   0.117
 4621SOL    HW126336   1.539   1.437   0.193
 4621SOL    HW226337   1.562   1.468   0.035
 4622SOL     OW26338   4.913   5.173   1.272
 4622SOL    HW126339   4.963   5.089   1.295
 4622SOL    HW226340   4.977   5.246   1.252
 4623SOL     OW26341   5.260   0.088   0.176
 4623SOL    HW126342   5.208   0.105   0.260
 4623SOL    HW226343   5.260   8.991   0.156
 4624SOL     OW26344   1.622   3.938   2.234
 4624SOL    HW126345   1.529   3.962   2.207
 4624SOL    HW226346   1.687   3.970   2.165
 4625SOL     OW26347   1.571   1.711   3.652
 4625SOL    HW126348   1.616   1.628   3.619
 4625SOL    HW226349   1.480   1.718   3.612
 4626SOL     OW26350   7.021   6.078   6.347
 4626SOL    HW126351   6.941   6.022   6.366
 4626SOL    HW226352   7.015   6.114   6.254
 4627SOL     OW26353   6.090   3.916   7.360
 4627SOL    HW126354   6.073   3.830   7.407
 4627SOL    HW226355   6.138   3.980   7.421
 4628SOL     OW26356   4.398   0.210   2.617
 4628SOL    HW126357   4.356   0.267   2.688
 4628SOL    HW226358   4.328   0.152   2.574
 4629SOL     OW26359   3.218   3.013   4.505
 4629SOL    HW126360   3.232   3.110   4.487
 4629SOL    HW226361   3.293   2.960   4.463
 4630SOL     OW26362   6.171   6.873   3.837
 4630SOL    HW126363   6.240   6.890   3.766
 4630SOL    HW226364   6.112   6.798   3.810
 4631SOL     OW26365   7.051   6.868   0.466
 4631SOL    HW126366   7.005   6.895   0.550
 4631SOL    HW226367   6.986   6.825   0.404
 4632SOL     OW26368   4.581   4.127   2.387
 4632SOL    HW126369   4.590   4.077   2.473
 4632SOL    HW226370   4.620   4.218   2.398
 4633SOL     OW26371   3.352   5.755   7.031
 4633SOL    HW126372   3.426   5.774   6.967
 4633SOL    HW226373   3.281   5.824   7.021
 4634SOL     OW26374   1.859   6.064   0.121
 4634SOL    HW126375   1.761   6.046   0.122
 4634SOL    HW226376   1.896   6.047   0.030
 4635SOL     OW26377   3.484   3.194   1.038
 4635SOL    HW126378   3.432   3.265   1.086
 4635SOL    HW226379   3.448   3.104   1.062
 4636SOL     OW26380   3.122   6.603   5.273
 4636SOL    HW126381   3.111   6.604   5.372
 4636SOL    HW226382   3.167   6.519   5.244
 4637SOL     OW26383   1.758   2.155   3.380
 4637SOL    HW126384   1.828   2.141   3.450
 4637SOL    HW226385   1.792   2.123   3.291
 4638SOL     OW26386   3.264   6.369   5.194
 4638SOL    HW126387   3.313   6.430   5.132
 4638SOL    HW226388   3.220   6.296   5.142
 4639SOL     OW26389   0.400   1.741   2.764
 4639SOL    HW126390   0.393   1.645   2.794
 4639SOL    HW226391   0.365   1.750   2.671
 4640SOL     OW26392   1.768   4.129   4.618
 4640SOL    HW126393   1.791   4.226   4.630
 4640SOL    HW226394   1.748   4.088   4.707
 4641SOL     OW26395   4.505   3.351   1.486
 4641SOL    HW126396   4.538   3.441   1.514
 4641SOL    HW226397   4.409   3.342   1.511
 4642SOL     OW26398   0.979   4.705   5.348
 4642SOL    HW126399   0.941   4.768   5.415
 4642SOL    HW226400   1.066   4.669   5.382
 4643SOL     OW26401   6.247   6.064   1.353
 4643SOL    HW126402   6.195   5.986   1.318
 4643SOL    HW226403   6.286   6.115   1.277
 4644SOL     OW26404   0.056   1.407   6.969
 4644SOL    HW126405   8.976   1.391   6.911
 4644SOL    HW226406   0.121   1.465   6.921
 4645SOL     OW26407   5.669   4.014   2.751
 4645SOL    HW126408   5.632   3.942   2.693
 4645SOL    HW226409   5.740   3.976   2.811
 4646SOL     OW26410   5.971   5.348   3.594
 4646SOL    HW126411   5.954   5.446   3.605
 4646SOL    HW226412   5.997   5.329   3.499
 4647SOL     OW26413   2.611   5.669   3.291
 4647SOL    HW126414   2.596   5.611   3.371
 4647SOL    HW226415   2.566   5.757   3.304
 4648SOL     OW26416   0.981   2.991   1.607
 4648SOL    HW126417   0.890   2.968   1.571
 4648SOL    HW226418   0.972   3.025   1.701
 4649SOL     OW26419   0.163   2.169   6.282
 4649SOL    HW126420   0.247   2.195   6.328
 4649SOL    HW226421   0.085   2.183   6.344
 4650SOL     OW26422   7.446   5.503   0.024
 4650SOL    HW126423   7.490   5.534   0.109
 4650SOL    HW226424   7.516   5.488   8.954
 4651SOL     OW26425   6.074   5.529   1.753
 4651SOL    HW126426   6.140   5.465   1.713
 4651SOL    HW226427   5.981   5.499   1.730
 4652SOL     OW26428   3.756   1.458   5.688
 4652SOL    HW126429   3.723   1.424   5.776
 4652SOL    HW226430   3.789   1.381   5.633
 4653SOL     OW26431   7.218   7.343   0.700
 4653SOL    HW126432   7.284   7.281   0.742
 4653SOL    HW226433   7.125   7.310   0.718
 4654SOL     OW26434   1.471   3.835   7.255
 4654SOL    HW126435   1.537   3.781   7.203
 4654SOL    HW226436   1.463   3.798   7.348
 4655SOL     OW26437   5.022   5.883   7.171
 4655SOL    HW126438   5.096   5.939   7.209
 4655SOL    HW226439   4.934   5.926   7.190
 4656SOL     OW26440   3.896   3.959   0.658
 4656SOL    HW126441   3.817   4.012   0.626
 4656SOL    HW226442   3.897   3.958   0.758
 4657SOL     OW26443   3.444   5.494   7.084
 4657SOL    HW126444   3.400   5.581   7.062
 4657SOL    HW226445   3.541   5.499   7.061
 4658SOL     OW26446   6.308   2.005   0.487
 4658SOL    HW126447   6.362   2.029   0.406
 4658SOL    HW226448   6.213   2.034   0.473
 4659SOL     OW26449   4.675   5.870   4.215
 4659SOL    HW126450   4.682   5.857   4.116
 4659SOL    HW226451   4.585   5.908   4.237
 4660SOL     OW26452   1.776   1.265   7.128
 4660SOL    HW126453   1.823   1.261   7.040
 4660SOL    HW226454   1.696   1.205   7.126
 4661SOL     OW26455   1.545   4.172   3.794
 4661SOL    HW126456   1.619   4.182   3.861
 4661SOL    HW226457   1.461   4.146   3.841
 4662SOL     OW26458   6.622   5.171   6.042
 4662SOL    HW126459   6.591   5.213   6.128
 4662SOL    HW226460   6.543   5.141   5.989
 4663SOL     OW26461   1.802   1.854   5.507
 4663SOL    HW126462   1.730   1.808   5.455
 4663SOL    HW226463   1.888   1.803   5.497
 4664SOL     OW26464   1.888   0.627   7.047
 4664SOL    HW126465   1.969   0.634   7.105
 4664SOL    HW226466   1.906   0.672   6.959
 4665SOL     OW26467   2.786   1.704   0.885
 4665SOL    HW126468   2.794   1.612   0.921
 4665SOL    HW226469   2.712   1.752   0.932
 4666SOL     OW26470   0.416   6.342   2.538
 4666SOL    HW126471   0.495   6.306   2.586
 4666SOL    HW226472   0.352   6.383   2.604
 4667SOL     OW26473   1.927   0.201   6.699
 4667SOL    HW126474   1.848   0.181   6.758
 4667SOL    HW226475   2.008   0.154   6.734
 4668SOL     OW26476   2.297   4.523   4.475
 4668SOL    HW126477   2.376   4.562   4.522
 4668SOL    HW226478   2.306   4.536   4.376
 4669SOL     OW26479   4.892   3.886   0.773
 4669SOL    HW126480   4.908   3.861   0.677
 4669SOL    HW226481   4.963   3.949   0.803
 4670SOL     OW26482   1.003   4.620   1.931
 4670SOL    HW126483   0.935   4.654   1.996
 4670SOL    HW226484   0.960   4.555   1.869
 4671SOL     OW26485   6.282   5.304   4.707
 4671SOL    HW126486   6.259   5.352   4.792
 4671SOL    HW226487   6.281   5.205   4.723
 4672SOL     OW26488   0.683   3.141   6.297
 4672SOL    HW126489   0.767   3.191   6.277
 4672SOL    HW226490   0.612   3.169   6.232
 4673SOL     OW26491   6.476   0.709   5.304
 4673SOL    HW126492   6.458   0.718   5.206
 4673SOL    HW226493   6.575   0.712   5.320
 4674SOL     OW26494   1.060   4.903   0.749
 4674SOL    HW126495   1.122   4.825   0.742
 4674SOL    HW226496   0.967   4.875   0.726
 4675SOL     OW26497   3.096   5.839   7.320
 4675SOL    HW126498   3.079   5.938   7.324
 4675SOL    HW226499   3.195   5.822   7.322
 4676SOL     OW26500   0.357   4.371   6.639
 4676SOL    HW126501   0.439   4.314   6.626
 4676SOL    HW226502   0.334   4.417   6.554
 4677SOL     OW26503   0.682   1.463   0.429
 4677SOL    HW126504   0.601   1.513   0.460
 4677SOL    HW226505   0.760   1.488   0.485
 4678SOL     OW26506   3.550   6.546   6.716
 4678SOL    HW126507   3.547   6.644   6.696
 4678SOL    HW226508   3.479   6.524   6.782
 4679SOL     OW26509   3.670   2.909   4.293
 4679SOL    HW126510   3.663   3.003   4.259
 4679SOL    HW226511   3.722   2.907   4.378
 4680SOL     OW26512   0.740   6.622   6.157
 4680SOL    HW126513   0.696   6.709   6.134
 4680SOL    HW226514   0.690   6.578   6.232
 4681SOL     OW26515   5.100   1.136   3.822
 4681SOL    HW126516   5.111   1.231   3.794
 4681SOL    HW226517   5.190   1.094   3.835
 4682SOL     OW26518   2.410   6.268   6.182
 4682SOL    HW126519   2.492   6.211   6.176
 4682SOL    HW226520   2.338   6.228   6.125
 4683SOL     OW26521   3.505   6.510   6.248
 4683SOL    HW126522   3.545   6.419   6.233
 4683SOL    HW226523   3.534   6.571   6.174
 4684SOL     OW26524   6.077   5.189   2.078
 4684SOL    HW126525   6.100   5.190   1.980
 4684SOL    HW226526   5.986   5.229   2.090
 4685SOL     OW26527   0.776   3.340   2.859
 4685SOL    HW126528   0.824   3.406   2.917
 4685SOL    HW226529   0.831   3.257   2.852
 4686SOL     OW26530   0.302   3.210   5.196
 4686SOL    HW126531   0.316   3.166   5.108
 4686SOL    HW226532   0.379   3.191   5.256
 4687SOL     OW26533   0.876   5.601   0.934
 4687SOL    HW126534   0.792   5.548   0.942
 4687SOL    HW226535   0.880   5.668   1.009
 4688SOL     OW26536   5.433   0.195   1.493
 4688SOL    HW126537   5.417   0.268   1.559
 4688SOL    HW226538   5.353   0.185   1.433
 4689SOL     OW26539   5.609   0.225   3.974
 4689SOL    HW126540   5.626   0.296   3.906
 4689SOL    HW226541   5.563   0.266   4.053
 4690SOL     OW26542   0.269   5.819   1.083
 4690SOL    HW126543   0.355   5.770   1.077
 4690SOL    HW226544   0.278   5.908   1.037
 4691SOL     OW26545   5.471   0.102   3.241
 4691SOL    HW126546   5.443   0.022   3.294
 4691SOL    HW226547   5.400   0.172   3.246
 4692SOL     OW26548   4.615   5.714   3.089
 4692SOL    HW126549   4.650   5.807   3.102
 4692SOL    HW226550   4.591   5.675   3.178
 4693SOL     OW26551   5.293   0.900   2.326
 4693SOL    HW126552   5.317   0.977   2.385
 4693SOL    HW226553   5.284   0.817   2.381
 4694SOL     OW26554   1.952   2.978   0.964
 4694SOL    HW126555   1.927   2.903   0.903
 4694SOL    HW226556   2.021   2.946   1.029
 4695SOL     OW26557   3.983   4.197   0.468
 4695SOL    HW126558   3.885   4.178   0.474
 4695SOL    HW226559   4.034   4.111   0.467
 4696SOL     OW26560   0.837   3.139   5.209
 4696SOL    HW126561   0.795   3.229   5.195
 4696SOL    HW226562   0.894   3.117   5.130
 4697SOL     OW26563   2.079   7.328   3.212
 4697SOL    HW126564   2.124   7.328   3.301
 4697SOL    HW226565   1.980   7.330   3.224
 4698SOL     OW26566   6.336   5.415   3.833
 4698SOL    HW126567   6.264   5.481   3.815
 4698SOL    HW226568   6.384   5.439   3.918
 4699SOL     OW26569   7.317   1.932   2.702
 4699SOL    HW126570   7.360   1.865   2.763
 4699SOL    HW226571   7.224   1.903   2.682
 4700SOL     OW26572   4.722   4.306   5.206
 4700SOL    HW126573   4.733   4.259   5.118
 4700SOL    HW226574   4.778   4.389   5.205
 4701SOL     OW26575   1.211   4.287   0.563
 4701SOL    HW126576   1.151   4.279   0.483
 4701SOL    HW226577   1.263   4.372   0.558
 4702SOL     OW26578   1.895   1.003   0.227
 4702SOL    HW126579   1.897   0.939   0.151
 4702SOL    HW226580   1.988   1.028   0.253
 4703SOL     OW26581   1.134   0.248   1.168
 4703SOL    HW126582   1.125   0.179   1.097
 4703SOL    HW226583   1.043   0.275   1.201
 4704SOL     OW26584   4.354   3.499   6.856
 4704SOL    HW126585   4.292   3.428   6.891
 4704SOL    HW226586   4.396   3.547   6.932
 4705SOL     OW26587   6.501   2.392   3.295
 4705SOL    HW126588   6.548   2.348   3.219
 4705SOL    HW226589   6.536   2.485   3.306
 4706SOL     OW26590   5.875   0.625   2.161
 4706SOL    HW126591   5.789   0.645   2.207
 4706SOL    HW226592   5.901   0.530   2.178
 4707SOL     OW26593   5.855   6.392   5.868
 4707SOL    HW126594   5.878   6.453   5.943
 4707SOL    HW226595   5.922   6.318   5.863
 4708SOL     OW26596   2.951   3.497   5.722
 4708SOL    HW126597   3.008   3.575   5.747
 4708SOL    HW226598   2.859   3.509   5.762
 4709SOL     OW26599   3.031   5.741   4.436
 4709SOL    HW126600   3.013   5.728   4.534
 4709SOL    HW226601   2.958   5.698   4.383
 4710SOL     OW26602   1.840   1.489   6.770
 4710SOL    HW126603   1.865   1.408   6.822
 4710SOL    HW226604   1.801   1.463   6.682
 4711SOL     OW26605   1.588   5.800   0.288
 4711SOL    HW126606   1.678   5.772   0.319
 4711SOL    HW226607   1.596   5.885   0.236
 4712SOL     OW26608   2.808   2.948   2.234
 4712SOL    HW126609   2.768   2.981   2.320
 4712SOL    HW226610   2.907   2.956   2.238
 4713SOL     OW26611   4.342   7.292   2.696
 4713SOL    HW126612   4.341   7.328   2.789
 4713SOL    HW226613   4.283   7.211   2.690
 4714SOL     OW26614   1.732   0.786   6.609
 4714SOL    HW126615   1.649   0.774   6.664
 4714SOL    HW226616   1.711   0.842   6.529
 4715SOL     OW26617   6.256   5.147   3.811
 4715SOL    HW126618   6.158   5.148   3.828
 4715SOL    HW226619   6.295   5.236   3.834
 4716SOL     OW26620   6.440   3.562   2.634
 4716SOL    HW126621   6.449   3.470   2.674
 4716SOL    HW226622   6.344   3.579   2.611
 4717SOL     OW26623   5.716   5.049   2.237
 4717SOL    HW126624   5.640   5.001   2.281
 4717SOL    HW226625   5.799   5.035   2.290
 4718SOL     OW26626   4.925   3.596   0.393
 4718SOL    HW126627   4.912   3.555   0.303
 4718SOL    HW226628   4.990   3.542   0.446
 4719SOL     OW26629   3.874   1.026   0.738
 4719SOL    HW126630   3.853   1.092   0.665
 4719SOL    HW226631   3.970   1.034   0.763
 4720SOL     OW26632   5.862   2.789   3.192
 4720SOL    HW126633   5.827   2.837   3.112
 4720SOL    HW226634   5.919   2.712   3.163
 4721SOL     OW26635   2.254   2.766   6.194
 4721SOL    HW126636   2.251   2.747   6.096
 4721SOL    HW226637   2.308   2.848   6.211
 4722SOL     OW26638   6.894   2.280   0.041
 4722SOL    HW126639   6.863   2.200   0.091
 4722SOL    HW226640   6.851   2.362   0.078
 4723SOL     OW26641   5.985   6.652   2.564
 4723SOL    HW126642   5.994   6.714   2.642
 4723SOL    HW226643   5.996   6.704   2.479
 4724SOL     OW26644   5.730   7.098   1.910
 4724SOL    HW126645   5.631   7.091   1.903
 4724SOL    HW226646   5.767   7.010   1.941
 4725SOL     OW26647   2.651   5.243   3.714
 4725SOL    HW126648   2.647   5.242   3.813
 4725SOL    HW226649   2.720   5.178   3.682
 4726SOL     OW26650   7.308   1.302   1.735
 4726SOL    HW126651   7.252   1.238   1.789
 4726SOL    HW226652   7.391   1.256   1.704
 4727SOL     OW26653   0.975   5.319   4.417
 4727SOL    HW126654   0.927   5.406   4.431
 4727SOL    HW226655   0.912   5.251   4.380
 4728SOL     OW26656   1.844   2.115   0.608
 4728SOL    HW126657   1.752   2.139   0.578
 4728SOL    HW226658   1.840   2.077   0.700
 4729SOL     OW26659   3.833   5.631   4.912
 4729SOL    HW126660   3.849   5.730   4.901
 4729SOL    HW226661   3.735   5.614   4.919
 4730SOL     OW26662   7.099   2.700   4.361
 4730SOL    HW126663   7.056   2.752   4.287
 4730SOL    HW226664   7.036   2.628   4.392
 4731SOL     OW26665   6.063   6.770   0.328
 4731SOL    HW126666   6.085   6.844   0.392
 4731SOL    HW226667   6.120   6.690   0.347
 4732SOL     OW26668   3.403   7.102   1.287
 4732SOL    HW126669   3.490   7.144   1.261
 4732SOL    HW226670   3.333   7.123   1.219
 4733SOL     OW26671   2.368   0.199   3.373
 4733SOL    HW126672   2.425   0.266   3.421
 4733SOL    HW226673   2.425   0.142   3.314
 4734SOL     OW26674   3.978   1.598   0.396
 4734SOL    HW126675   3.907   1.644   0.449
 4734SOL    HW226676   3.954   1.600   0.299
 4735SOL     OW26677   1.237   4.733   1.478
 4735SOL    HW126678   1.202   4.741   1.571
 4735SOL    HW226679   1.259   4.824   1.443
 4736SOL     OW26680   6.065   5.096   0.359
 4736SOL    HW126681   5.998   5.034   0.319
 4736SOL    HW226682   6.157   5.066   0.336
 4737SOL     OW26683   0.151   1.111   2.648
 4737SOL    HW126684   0.239   1.115   2.601
 4737SOL    HW226685   0.108   1.022   2.631
 4738SOL     OW26686   0.242   4.870   5.875
 4738SOL    HW126687   0.218   4.937   5.945
 4738SOL    HW226688   0.180   4.879   5.797
 4739SOL     OW26689   3.613   6.382   1.595
 4739SOL    HW126690   3.561   6.448   1.541
 4739SOL    HW226691   3.680   6.337   1.536
 4740SOL     OW26692   6.336   6.470   6.566
 4740SOL    HW126693   6.404   6.448   6.636
 4740SOL    HW226694   6.374   6.535   6.500
 4741SOL     OW26695   0.170   3.747   2.999
 4741SOL    HW126696   0.092   3.704   2.953
 4741SOL    HW226697   0.225   3.797   2.932
 4742SOL     OW26698   0.152   2.425   7.150
 4742SOL    HW126699   0.178   2.370   7.071
 4742SOL    HW226700   0.168   2.522   7.129
 4743SOL     OW26701   5.695   6.641   3.290
 4743SOL    HW126702   5.638   6.566   3.324
 4743SOL    HW226703   5.790   6.612   3.289
 4744SOL     OW26704   1.078   1.858   0.758
 4744SOL    HW126705   1.008   1.846   0.687
 4744SOL    HW226706   1.168   1.853   0.716
 4745SOL     OW26707   1.811   7.333   3.286
 4745SOL    HW126708   1.764   7.299   3.367
 4745SOL    HW226709   1.753   7.321   3.205
 4746SOL     OW26710   1.189   1.518   3.530
 4746SOL    HW126711   1.212   1.607   3.567
 4746SOL    HW226712   1.102   1.487   3.570
 4747SOL     OW26713   5.441   0.299   0.144
 4747SOL    HW126714   5.379   0.221   0.153
 4747SOL    HW226715   5.426   0.343   0.056
 4748SOL     OW26716   2.778   6.540   0.151
 4748SOL    HW126717   2.684   6.572   0.143
 4748SOL    HW226718   2.791   6.494   0.238
 4749SOL     OW26719   2.255   3.261   5.933
 4749SOL    HW126720   2.168   3.226   5.899
 4749SOL    HW226721   2.240   3.309   6.020
 4750SOL     OW26722   4.578   0.622   4.381
 4750SOL    HW126723   4.499   0.573   4.345
 4750SOL    HW226724   4.660   0.565   4.369
 4751SOL     OW26725   6.732   2.426   1.613
 4751SOL    HW126726   6.752   2.493   1.684
 4751SOL    HW226727   6.659   2.365   1.644
 4752SOL     OW26728   1.951   2.813   2.091
 4752SOL    HW126729   1.958   2.827   1.993
 4752SOL    HW226730   1.872   2.862   2.127
 4753SOL     OW26731   2.183   5.418   6.115
 4753SOL    HW126732   2.259   5.391   6.175
 4753SOL    HW226733   2.098   5.377   6.149
 4754SOL     OW26734   6.077   4.623   3.501
 4754SOL    HW126735   6.091   4.524   3.492
 4754SOL    HW226736   6.165   4.670   3.494
 4755SOL     OW26737   2.013   2.580   0.645
 4755SOL    HW126738   2.030   2.481   0.650
 4755SOL    HW226739   2.086   2.624   0.591
 4756SOL     OW26740   4.837   4.238   3.606
 4756SOL    HW126741   4.913   4.215   3.667
 4756SOL    HW226742   4.850   4.191   3.519
 4757SOL     OW26743   4.729   6.438   2.557
 4757SOL    HW126744   4.740   6.341   2.535
 4757SOL    HW226745   4.635   6.455   2.587
 4758SOL     OW26746   4.410   1.880   4.456
 4758SOL    HW126747   4.502   1.873   4.496
 4758SOL    HW226748   4.413   1.851   4.360
 4759SOL     OW26749   3.930   0.128   5.543
 4759SOL    HW126750   3.900   0.057   5.607
 4759SOL    HW226751   4.014   0.099   5.499
 4760SOL     OW26752   6.650   3.878   1.157
 4760SOL    HW126753   6.627   3.790   1.199
 4760SOL    HW226754   6.648   3.949   1.228
 4761SOL     OW26755   1.525   2.207   6.122
 4761SOL    HW126756   1.476   2.268   6.184
 4761SOL    HW226757   1.617   2.191   6.157
 4762SOL     OW26758   1.823   4.295   5.964
 4762SOL    HW126759   1.769   4.211   5.974
 4762SOL    HW226760   1.764   4.368   5.929
 4763SOL     OW26761   5.914   4.390   3.116
 4763SOL    HW126762   5.834   4.427   3.068
 4763SOL    HW226763   5.987   4.457   3.117
 4764SOL     OW26764   1.327   1.838   0.647
 4764SOL    HW126765   1.351   1.863   0.554
 4764SOL    HW226766   1.372   1.752   0.672
 4765SOL     OW26767   7.288   3.052   6.769
 4765SOL    HW126768   7.323   3.129   6.822
 4765SOL    HW226769   7.306   3.067   6.672
 4766SOL     OW26770   6.271   1.670   3.558
 4766SOL    HW126771   6.327   1.664   3.641
 4766SOL    HW226772   6.284   1.760   3.516
 4767SOL     OW26773   2.386   4.661   0.128
 4767SOL    HW126774   2.306   4.601   0.130
 4767SOL    HW226775   2.450   4.628   0.058
 4768SOL     OW26776   1.487   5.235   4.653
 4768SOL    HW126777   1.508   5.203   4.560
 4768SOL    HW226778   1.421   5.310   4.648
 4769SOL     OW26779   1.488   2.461   0.207
 4769SOL    HW126780   1.423   2.385   0.198
 4769SOL    HW226781   1.545   2.465   0.125
 4770SOL     OW26782   5.301   5.625   6.497
 4770SOL    HW126783   5.274   5.713   6.536
 4770SOL    HW226784   5.333   5.638   6.404
 4771SOL     OW26785   1.565   2.232   5.587
 4771SOL    HW126786   1.474   2.243   5.548
 4771SOL    HW226787   1.558   2.228   5.687
 4772SOL     OW26788   5.813   7.046   2.398
 4772SOL    HW126789   5.851   7.025   2.488
 4772SOL    HW226790   5.786   7.142   2.394
 4773SOL     OW26791   4.356   0.425   6.893
 4773SOL    HW126792   4.301   0.342   6.889
 4773SOL    HW226793   4.358   0.459   6.986
 4774SOL     OW26794   4.050   0.179   7.255
 4774SOL    HW126795   3.980   0.143   7.193
 4774SOL    HW226796   4.054   0.122   7.337
 4775SOL     OW26797   4.929   1.817   6.875
 4775SOL    HW126798   4.846   1.840   6.925
 4775SOL    HW226799   4.934   1.872   6.791
 4776SOL     OW26800   4.108   0.844   3.868
 4776SOL    HW126801   4.161   0.923   3.838
 4776SOL    HW226802   4.013   0.853   3.836
 4777SOL     OW26803   2.486   6.182   2.537
 4777SOL    HW126804   2.559   6.154   2.475
 4777SOL    HW226805   2.410   6.118   2.530
 4778SOL     OW26806   5.913   2.550   3.864
 4778SOL    HW126807   5.871   2.633   3.826
 4778SOL    HW226808   5.845   2.477   3.866
 4779SOL     OW26809   4.029   2.878   4.872
 4779SOL    HW126810   4.089   2.951   4.902
 4779SOL    HW226811   4.078   2.820   4.807
 4780SOL     OW26812   6.804   4.122   2.220
 4780SOL    HW126813   6.758   4.148   2.135
 4780SOL    HW226814   6.900   4.100   2.200
 4781SOL     OW26815   2.213   5.768   3.443
 4781SOL    HW126816   2.137   5.828   3.468
 4781SOL    HW226817   2.297   5.801   3.486
 4782SOL     OW26818   2.369   2.465   6.751
 4782SOL    HW126819   2.440   2.421   6.807
 4782SOL    HW226820   2.293   2.402   6.738
 4783SOL     OW26821   0.122   5.581   2.085
 4783SOL    HW126822   0.034   5.598   2.129
 4783SOL    HW226823   0.181   5.660   2.099
 4784SOL     OW26824   4.626   7.387   5.529
 4784SOL    HW126825   4.691   7.366   5.456
 4784SOL    HW226826   4.648   7.476   5.569
 4785SOL     OW26827   5.577   3.846   2.526
 4785SOL    HW126828   5.609   3.912   2.457
 4785SOL    HW226829   5.656   3.797   2.563
 4786SOL     OW26830   0.187   2.470   5.073
 4786SOL    HW126831   0.280   2.434   5.069
 4786SOL    HW226832   0.178   2.528   5.155
 4787SOL     OW26833   7.188   2.352   4.375
 4787SOL    HW126834   7.126   2.293   4.426
 4787SOL    HW226835   7.252   2.397   4.438
 4788SOL     OW26836   3.367   0.777   1.271
 4788SOL    HW126837   3.355   0.680   1.250
 4788SOL    HW226838   3.314   0.800   1.353
 4789SOL     OW26839   2.835   4.307   3.341
 4789SOL    HW126840   2.845   4.406   3.336
 4789SOL    HW226841   2.897   4.263   3.276
 4790SOL     OW26842   1.218   8.967   3.766
 4790SOL    HW126843   1.175   8.881   3.742
 4790SOL    HW226844   1.194   8.992   3.860
 4791SOL     OW26845   4.793   2.583   1.174
 4791SOL    HW126846   4.799   2.494   1.218
 4791SOL    HW226847   4.870   2.640   1.203
 4792SOL     OW26848   0.417   1.045   1.452
 4792SOL    HW126849   0.446   0.950   1.439
 4792SOL    HW226850   0.389   1.083   1.364
 4793SOL     OW26851   5.492   0.791   4.940
 4793SOL    HW126852   5.545   0.807   5.024
 4793SOL    HW226853   5.426   0.719   4.956
 4794SOL     OW26854   1.967   6.912   0.677
 4794SOL    HW126855   2.020   6.906   0.761
 4794SOL    HW226856   1.970   7.006   0.642
 4795SOL     OW26857   2.001   2.599   1.190
 4795SOL    HW126858   1.976   2.518   1.243
 4795SOL    HW226859   1.925   2.626   1.132
 4796SOL     OW26860   7.285   1.844   3.798
 4796SOL    HW126861   7.237   1.923   3.762
 4796SOL    HW226862   7.344   1.872   3.874
 4797SOL     OW26863   2.665   4.545   6.771
 4797SOL    HW126864   2.759   4.539   6.740
 4797SOL    HW226865   2.614   4.606   6.711
 4798SOL     OW26866   1.246   5.022   0.932
 4798SOL    HW126867   1.171   4.985   0.877
 4798SOL    HW226868   1.268   5.114   0.902
 4799SOL     OW26869   7.258   4.696   0.282
 4799SOL    HW126870   7.326   4.644   0.333
 4799SOL    HW226871   7.171   4.694   0.331
 4800SOL     OW26872   3.192   6.132   4.788
 4800SOL    HW126873   3.163   6.208   4.731
 4800SOL    HW226874   3.172   6.152   4.884
 4801SOL     OW26875   3.545   2.051   2.462
 4801SOL    HW126876   3.540   1.965   2.412
 4801SOL    HW226877   3.544   2.032   2.561
 4802SOL     OW26878   0.215   4.289   0.227
 4802SOL    HW126879   0.245   4.321   0.137
 4802SOL    HW226880   0.292   4.245   0.273
 4803SOL     OW26881   5.871   0.907   0.553
 4803SOL    HW126882   5.957   0.888   0.504
 4803SOL    HW226883   5.794   0.880   0.495
 4804SOL     OW26884   0.176   3.634   0.197
 4804SOL    HW126885   0.167   3.733   0.193
 4804SOL    HW226886   0.086   3.592   0.209
 4805SOL     OW26887   4.408   0.234   6.056
 4805SOL    HW126888   4.402   0.219   6.155
 4805SOL    HW226889   4.479   0.301   6.036
 4806SOL     OW26890   3.720   0.415   2.818
 4806SOL    HW126891   3.785   0.458   2.880
 4806SOL    HW226892   3.735   0.316   2.819
 4807SOL     OW26893   2.231   2.515   3.100
 4807SOL    HW126894   2.278   2.579   3.160
 4807SOL    HW226895   2.198   2.562   3.019
 4808SOL     OW26896   1.457   4.275   2.232
 4808SOL    HW126897   1.442   4.187   2.188
 4808SOL    HW226898   1.510   4.334   2.171
 4809SOL     OW26899   5.415   2.690   2.561
 4809SOL    HW126900   5.403   2.737   2.649
 4809SOL    HW226901   5.443   2.757   2.492
 4810SOL     OW26902   1.734   4.025   2.470
 4810SOL    HW126903   1.699   3.988   2.383
 4810SOL    HW226904   1.820   4.073   2.454
 4811SOL     OW26905   7.043   2.734   7.314
 4811SOL    HW126906   7.030   2.780   7.226
 4811SOL    HW226907   7.109   2.659   7.302
 4812SOL     OW26908   3.487   5.972   2.245
 4812SOL    HW126909   3.536   5.891   2.277
 4812SOL    HW226910   3.411   5.944   2.186
 4813SOL     OW26911   6.175   1.836   4.564
 4813SOL    HW126912   6.216   1.863   4.477
 4813SOL    HW226913   6.247   1.811   4.629
 4814SOL     OW26914   6.380   2.516   2.283
 4814SOL    HW126915   6.337   2.596   2.241
 4814SOL    HW226916   6.376   2.439   2.219
 4815SOL     OW26917   4.497   0.578   0.268
 4815SOL    HW126918   4.466   0.579   0.363
 4815SOL    HW226919   4.577   0.638   0.259
 4816SOL     OW26920   6.000   6.051   3.928
 4816SOL    HW126921   6.090   6.035   3.888
 4816SOL    HW226922   5.995   6.008   4.018
 4817SOL     OW26923   0.199   2.242   6.951
 4817SOL    HW126924   0.128   2.177   6.980
 4817SOL    HW226925   0.288   2.196   6.952
 4818SOL     OW26926   1.091   5.751   0.412
 4818SOL    HW126927   1.054   5.745   0.320
 4818SOL    HW226928   1.087   5.661   0.456
 4819SOL     OW26929   0.260   4.820   3.237
 4819SOL    HW126930   0.217   4.741   3.193
 4819SOL    HW226931   0.217   4.904   3.205
 4820SOL     OW26932   1.712   3.671   2.184
 4820SOL    HW126933   1.669   3.754   2.221
 4820SOL    HW226934   1.798   3.696   2.140
 4821SOL     OW26935   5.562   6.328   4.609
 4821SOL    HW126936   5.492   6.384   4.565
 4821SOL    HW226937   5.652   6.368   4.591
 4822SOL     OW26938   6.095   2.679   4.261
 4822SOL    HW126939   6.129   2.656   4.170
 4822SOL    HW226940   6.020   2.745   4.252
 4823SOL     OW26941   0.516   5.705   1.063
 4823SOL    HW126942   0.558   5.623   1.024
 4823SOL    HW226943   0.572   5.785   1.042
 4824SOL     OW26944   1.980   1.223   7.316
 4824SOL    HW126945   1.951   1.161   7.389
 4824SOL    HW226946   1.901   1.246   7.259
 4825SOL     OW26947   2.938   3.746   7.237
 4825SOL    HW126948   3.000   3.685   7.186
 4825SOL    HW226949   2.918   3.706   7.326
 4826SOL     OW26950   0.737   1.773   6.850
 4826SOL    HW126951   0.688   1.705   6.905
 4826SOL    HW226952   0.715   1.760   6.754
 4827SOL     OW26953   3.027   1.307   1.241
 4827SOL    HW126954   3.093   1.374   1.274
 4827SOL    HW226955   2.935   1.334   1.269
 4828SOL     OW26956   6.951   3.991   0.593
 4828SOL    HW126957   6.865   4.031   0.625
 4828SOL    HW226958   6.932   3.918   0.528
 4829SOL     OW26959   2.707   5.999   1.307
 4829SOL    HW126960   2.620   5.953   1.327
 4829SOL    HW226961   2.712   6.020   1.210
 4830SOL     OW26962   5.072   3.027   4.881
 4830SOL    HW126963   5.068   3.098   4.810
 4830SOL    HW226964   5.000   2.960   4.864
 4831SOL     OW26965   2.409   1.626   1.882
 4831SOL    HW126966   2.332   1.683   1.910
 4831SOL    HW226967   2.374   1.542   1.840
 4832SOL     OW26968   6.182   3.123   4.538
 4832SOL    HW126969   6.118   3.047   4.552
 4832SOL    HW226970   6.275   3.086   4.530
 4833SOL     OW26971   7.176   0.991   3.053
 4833SOL    HW126972   7.183   0.963   3.149
 4833SOL    HW226973   7.166   1.090   3.048
 4834SOL     OW26974   4.758   0.865   2.977
 4834SOL    HW126975   4.824   0.893   3.048
 4834SOL    HW226976   4.804   0.807   2.910
 4835SOL     OW26977   6.353   5.100   3.307
 4835SOL    HW126978   6.300   5.133   3.385
 4835SOL    HW226979   6.291   5.065   3.237
 4836SOL     OW26980   6.964   5.389   1.889
 4836SOL    HW126981   6.868   5.366   1.874
 4836SOL    HW226982   7.022   5.311   1.864
 4837SOL     OW26983   0.250   6.323   7.233
 4837SOL    HW126984   0.203   6.368   7.308
 4837SOL    HW226985   0.257   6.386   7.155
 4838SOL     OW26986   6.161   5.482   6.068
 4838SOL    HW126987   6.166   5.384   6.052
 4838SOL    HW226988   6.248   5.525   6.042
 4839SOL     OW26989   5.188   6.214   2.025
 4839SOL    HW126990   5.198   6.127   1.977
 4839SOL    HW226991   5.257   6.220   2.098
 4840SOL     OW26992   2.090   2.494   6.107
 4840SOL    HW126993   2.091   2.493   6.007
 4840SOL    HW226994   2.170   2.543   6.141
 4841SOL     OW26995   5.513   5.980   3.968
 4841SOL    HW126996   5.505   6.021   3.877
 4841SOL    HW226997   5.579   5.904   3.964
 4842SOL     OW26998   4.693   7.309   3.690
 4842SOL    HW126999   4.689   7.209   3.694
 4842SOL    HW227000   4.760   7.337   3.621
 4843SOL     OW27001   5.968   0.464   0.093
 4843SOL    HW127002   5.891   0.524   0.071
 4843SOL    HW227003   5.998   0.416   0.011
 4844SOL     OW27004   2.378   6.564   5.885
 4844SOL    HW127005   2.436   6.487   5.858
 4844SOL    HW227006   2.301   6.530   5.940
 4845SOL     OW27007   1.677   4.678   2.897
 4845SOL    HW127008   1.686   4.763   2.844
 4845SOL    HW227009   1.702   4.696   2.992
 4846SOL     OW27010   0.295   6.701   7.211
 4846SOL    HW127011   0.300   6.724   7.309
 4846SOL    HW227012   0.295   6.785   7.157
 4847SOL     OW27013   3.251   4.441   4.464
 4847SOL    HW127014   3.308   4.483   4.534
 4847SOL    HW227015   3.159   4.426   4.500
 4848SOL     OW27016   6.657   1.151   2.669
 4848SOL    HW127017   6.721   1.228   2.662
 4848SOL    HW227018   6.655   1.102   2.582
 4849SOL     OW27019   2.541   1.289   0.127
 4849SOL    HW127020   2.496   1.200   0.125
 4849SOL    HW227021   2.641   1.276   0.128
 4850SOL     OW27022   3.046   4.799   0.475
 4850SOL    HW127023   3.086   4.862   0.541
 4850SOL    HW227024   2.965   4.756   0.515
 4851SOL     OW27025   6.602   1.685   4.769
 4851SOL    HW127026   6.695   1.689   4.731
 4851SOL    HW227027   6.606   1.697   4.868
 4852SOL     OW27028   4.336   2.577   5.186
 4852SOL    HW127029   4.435   2.568   5.180
 4852SOL    HW227030   4.308   2.579   5.282
 4853SOL     OW27031   4.009   0.688   4.266
 4853SOL    HW127032   4.047   0.651   4.351
 4853SOL    HW227033   3.911   0.667   4.261
 4854SOL     OW27034   4.164   7.081   0.002
 4854SOL    HW127035   4.150   7.104   8.905
 4854SOL    HW227036   4.078   7.094   0.051
 4855SOL     OW27037   0.758   5.555   0.150
 4855SOL    HW127038   0.666   5.587   0.127
 4855SOL    HW227039   0.758   5.515   0.242
 4856SOL     OW27040   0.239   3.457   5.293
 4856SOL    HW127041   0.190   3.447   5.379
 4856SOL    HW227042   0.263   3.366   5.258
 4857SOL     OW27043   5.919   6.824   3.540
 4857SOL    HW127044   5.948   6.729   3.538
 4857SOL    HW227045   5.883   6.850   3.450
 4858SOL     OW27046   2.112   1.553   2.118
 4858SOL    HW127047   2.145   1.625   2.057
 4858SOL    HW227048   2.015   1.568   2.137
 4859SOL     OW27049   1.414   0.369   7.299
 4859SOL    HW127050   1.387   0.311   7.222
 4859SOL    HW227051   1.376   0.331   7.383
 4860SOL     OW27052   0.388   6.354   0.281
 4860SOL    HW127053   0.459   6.289   0.308
 4860SOL    HW227054   0.428   6.426   0.225
 4861SOL     OW27055   2.389   5.255   0.175
 4861SOL    HW127056   2.446   5.190   0.123
 4861SOL    HW227057   2.385   5.227   0.270
 4862SOL     OW27058   5.498   4.031   4.259
 4862SOL    HW127059   5.519   4.128   4.246
 4862SOL    HW227060   5.401   4.020   4.279
 4863SOL     OW27061   6.290   0.875   6.281
 4863SOL    HW127062   6.327   0.786   6.254
 4863SOL    HW227063   6.319   0.897   6.374
 4864SOL     OW27064   3.460   2.793   1.440
 4864SOL    HW127065   3.506   2.708   1.413
 4864SOL    HW227066   3.376   2.803   1.387
 4865SOL     OW27067   2.286   4.969   4.823
 4865SOL    HW127068   2.286   5.047   4.761
 4865SOL    HW227069   2.351   4.984   4.897
 4866SOL     OW27070   1.969   1.124   5.893
 4866SOL    HW127071   1.978   1.029   5.864
 4866SOL    HW227072   1.873   1.144   5.912
 4867SOL     OW27073   7.301   3.451   2.162
 4867SOL    HW127074   7.284   3.359   2.129
 4867SOL    HW227075   7.225   3.511   2.137
 4868SOL     OW27076   0.903   1.752   6.339
 4868SOL    HW127077   0.867   1.826   6.397
 4868SOL    HW227078   0.878   1.770   6.244
 4869SOL     OW27079   3.149   4.097   3.798
 4869SOL    HW127080   3.069   4.095   3.737
 4869SOL    HW227081   3.119   4.094   3.893
 4870SOL     OW27082   4.556   3.331   5.572
 4870SOL    HW127083   4.460   3.358   5.577
 4870SOL    HW227084   4.569   3.267   5.496
 4871SOL     OW27085   4.900   0.782   1.262
 4871SOL    HW127086   4.821   0.732   1.226
 4871SOL    HW227087   4.871   0.840   1.338
 4872SOL     OW27088   0.064   1.533   1.535
 4872SOL    HW127089   0.155   1.498   1.514
 4872SOL    HW227090   0.022   1.475   1.605
 4873SOL     OW27091   2.651   1.567   1.994
 4873SOL    HW127092   2.665   1.472   1.968
 4873SOL    HW227093   2.563   1.599   1.958
 4874SOL     OW27094   6.974   4.502   6.830
 4874SOL    HW127095   7.033   4.532   6.904
 4874SOL    HW227096   6.909   4.575   6.808
 4875SOL     OW27097   3.956   2.540   3.391
 4875SOL    HW127098   3.859   2.520   3.378
 4875SOL    HW227099   3.972   2.639   3.383
 4876SOL     OW27100   0.272   0.657   5.440
 4876SOL    HW127101   0.286   0.711   5.523
 4876SOL    HW227102   0.306   0.709   5.361
 4877SOL     OW27103   1.216   6.450   0.760
 4877SOL    HW127104   1.155   6.418   0.687
 4877SOL    HW227105   1.194   6.402   0.845
 4878SOL     OW27106   3.052   6.035   2.251
 4878SOL    HW127107   2.977   6.101   2.259
 4878SOL    HW227108   3.118   6.067   2.182
 4879SOL     OW27109   4.279   5.901   3.367
 4879SOL    HW127110   4.294   5.833   3.440
 4879SOL    HW227111   4.303   5.992   3.401
 4880SOL     OW27112   1.338   2.393   2.254
 4880SOL    HW127113   1.311   2.301   2.283
 4880SOL    HW227114   1.403   2.431   2.320
 4881SOL     OW27115   6.137   4.722   0.288
 4881SOL    HW127116   6.122   4.628   0.256
 4881SOL    HW227117   6.052   4.774   0.282
 4882SOL     OW27118   0.734   7.308   1.929
 4882SOL    HW127119   0.700   7.390   1.974
 4882SOL    HW227120   0.755   7.328   1.833
 4883SOL     OW27121   5.935   2.348   5.018
 4883SOL    HW127122   5.875   2.313   5.089
 4883SOL    HW227123   5.893   2.427   4.975
 4884SOL     OW27124   0.421   6.668   4.966
 4884SOL    HW127125   0.503   6.612   4.954
 4884SOL    HW227126   0.409   6.689   5.063
 4885SOL     OW27127   0.878   1.586   7.140
 4885SOL    HW127128   0.824   1.517   7.092
 4885SOL    HW227129   0.968   1.550   7.161
 4886SOL     OW27130   3.068   1.776   6.216
 4886SOL    HW127131   3.019   1.786   6.302
 4886SOL    HW227132   3.005   1.746   6.144
 4887SOL     OW27133   5.790   4.134   6.159
 4887SOL    HW127134   5.708   4.077   6.144
 4887SOL    HW227135   5.784   4.177   6.249
 4888SOL     OW27136   1.589   2.424   0.463
 4888SOL    HW127137   1.561   2.439   0.368
 4888SOL    HW227138   1.520   2.463   0.524
 4889SOL     OW27139   2.257   4.735   6.539
 4889SOL    HW127140   2.190   4.662   6.547
 4889SOL    HW227141   2.344   4.705   6.580
 4890SOL     OW27142   6.850   0.550   0.990
 4890SOL    HW127143   6.919   0.604   1.038
 4890SOL    HW227144   6.792   0.611   0.936
 4891SOL     OW27145   6.447   7.179   0.650
 4891SOL    HW127146   6.450   7.175   0.750
 4891SOL    HW227147   6.373   7.240   0.621
 4892SOL     OW27148   7.379   2.957   2.005
 4892SOL    HW127149   7.305   2.913   1.955
 4892SOL    HW227150   7.466   2.942   1.957
 4893SOL     OW27151   3.497   6.650   5.531
 4893SOL    HW127152   3.435   6.573   5.538
 4893SOL    HW227153   3.471   6.720   5.598
 4894SOL     OW27154   4.495   1.818   1.800
 4894SOL    HW127155   4.513   1.914   1.780
 4894SOL    HW227156   4.400   1.796   1.776
 4895SOL     OW27157   2.972   3.154   7.191
 4895SOL    HW127158   2.957   3.141   7.093
 4895SOL    HW227159   3.029   3.235   7.205
 4896SOL     OW27160   0.793   4.277   0.666
 4896SOL    HW127161   0.767   4.335   0.743
 4896SOL    HW227162   0.885   4.241   0.680
 4897SOL     OW27163   6.221   3.539   0.130
 4897SOL    HW127164   6.218   3.457   0.187
 4897SOL    HW227165   6.147   3.601   0.156
 4898SOL     OW27166   0.236   0.830   0.618
 4898SOL    HW127167   0.284   0.918   0.617
 4898SOL    HW227168   0.148   0.841   0.663
 4899SOL     OW27169   6.891   1.667   2.071
 4899SOL    HW127170   6.889   1.581   2.020
 4899SOL    HW227171   6.978   1.713   2.054
 4900SOL     OW27172   3.519   2.738   0.027
 4900SOL    HW127173   3.437   2.794   0.039
 4900SOL    HW227174   3.600   2.790   0.054
 4901SOL     OW27175   1.631   4.404   1.798
 4901SOL    HW127176   1.653   4.472   1.729
 4901SOL    HW227177   1.531   4.400   1.810
 4902SOL     OW27178   6.297   0.443   5.072
 4902SOL    HW127179   6.252   0.531   5.090
 4902SOL    HW227180   6.257   0.373   5.130
 4903SOL     OW27181   1.407   2.078   7.053
 4903SOL    HW127182   1.324   2.030   7.082
 4903SOL    HW227183   1.482   2.013   7.047
 4904SOL     OW27184   6.687   2.233   1.378
 4904SOL    HW127185   6.769   2.278   1.413
 4904SOL    HW227186   6.694   2.225   1.278
 4905SOL     OW27187   5.441   6.103   5.903
 4905SOL    HW127188   5.452   6.023   5.962
 4905SOL    HW227189   5.495   6.091   5.819
 4906SOL     OW27190   6.019   3.942   4.428
 4906SOL    HW127191   5.924   3.913   4.425
 4906SOL    HW227192   6.052   3.939   4.522
 4907SOL     OW27193   4.307   4.856   3.084
 4907SOL    HW127194   4.266   4.774   3.046
 4907SOL    HW227195   4.317   4.925   3.012
 4908SOL     OW27196   3.931   1.123   3.182
 4908SOL    HW127197   3.860   1.118   3.253
 4908SOL    HW227198   3.908   1.060   3.108
 4909SOL     OW27199   1.072   2.021   0.038
 4909SOL    HW127200   1.078   2.080   8.957
 4909SOL    HW227201   1.160   2.018   0.084
 4910SOL     OW27202   3.324   6.057   5.597
 4910SOL    HW127203   3.342   6.129   5.530
 4910SOL    HW227204   3.253   6.088   5.661
 4911SOL     OW27205   3.046   2.298   6.191
 4911SOL    HW127206   3.087   2.240   6.261
 4911SOL    HW227207   2.949   2.311   6.209
 4912SOL     OW27208   0.903   3.800   0.839
 4912SOL    HW127209   0.833   3.729   0.842
 4912SOL    HW227210   0.962   3.785   0.759
 4913SOL     OW27211   3.749   3.366   3.616
 4913SOL    HW127212   3.835   3.377   3.567
 4913SOL    HW227213   3.675   3.352   3.551
 4914SOL     OW27214   1.111   4.768   1.724
 4914SOL    HW127215   1.128   4.863   1.750
 4914SOL    HW227216   1.081   4.716   1.804
 4915SOL     OW27217   4.812   1.207   0.729
 4915SOL    HW127218   4.805   1.306   0.740
 4915SOL    HW227219   4.742   1.176   0.664
 4916SOL     OW27220   5.266   6.188   6.493
 4916SOL    HW127221   5.207   6.257   6.450
 4916SOL    HW227222   5.309   6.228   6.574
 4917SOL     OW27223   0.550   2.288   6.646
 4917SOL    HW127224   0.528   2.328   6.735
 4917SOL    HW227225   0.632   2.231   6.653
 4918SOL     OW27226   5.075   4.488   2.476
 4918SOL    HW127227   5.127   4.546   2.538
 4918SOL    HW227228   5.008   4.436   2.528
 4919SOL     OW27229   0.766   4.221   7.140
 4919SOL    HW127230   0.837   4.151   7.145
 4919SOL    HW227231   0.686   4.191   7.193
 4920SOL     OW27232   2.131   4.872   1.119
 4920SOL    HW127233   2.136   4.822   1.032
 4920SOL    HW227234   2.164   4.814   1.193
 4921SOL     OW27235   6.183   1.945   4.300
 4921SOL    HW127236   6.088   1.915   4.312
 4921SOL    HW227237   6.204   1.950   4.202
 4922SOL     OW27238   0.977   3.705   6.095
 4922SOL    HW127239   0.962   3.691   6.193
 4922SOL    HW227240   1.066   3.667   6.070
 4923SOL     OW27241   2.255   4.740   1.588
 4923SOL    HW127242   2.233   4.741   1.491
 4923SOL    HW227243   2.224   4.825   1.631
 4924SOL     OW27244   0.101   4.179   5.285
 4924SOL    HW127245   0.119   4.277   5.276
 4924SOL    HW227246   0.184   4.132   5.315
 4925SOL     OW27247   5.501   3.600   0.048
 4925SOL    HW127248   5.455   3.687   0.062
 4925SOL    HW227249   5.530   3.592   8.952
 4926SOL     OW27250   4.985   1.687   3.491
 4926SOL    HW127251   4.989   1.734   3.580
 4926SOL    HW227252   4.943   1.748   3.424
 4927SOL     OW27253   6.307   3.022   3.553
 4927SOL    HW127254   6.349   3.098   3.503
 4927SOL    HW227255   6.370   2.945   3.555
 4928SOL     OW27256   6.369   5.169   1.314
 4928SOL    HW127257   6.377   5.143   1.410
 4928SOL    HW227258   6.446   5.131   1.263
 4929SOL     OW27259   4.290   1.626   3.346
 4929SOL    HW127260   4.298   1.695   3.417
 4929SOL    HW227261   4.381   1.590   3.324
 4930SOL     OW27262   4.121   6.275   0.752
 4930SOL    HW127263   4.168   6.358   0.722
 4930SOL    HW227264   4.023   6.288   0.743
 4931SOL     OW27265   2.852   4.516   4.732
 4931SOL    HW127266   2.898   4.470   4.808
 4931SOL    HW227267   2.758   4.537   4.757
 4932SOL     OW27268   4.344   4.421   1.208
 4932SOL    HW127269   4.316   4.481   1.133
 4932SOL    HW227270   4.353   4.327   1.175
 4933SOL     OW27271   3.454   6.423   2.784
 4933SOL    HW127272   3.470   6.334   2.741
 4933SOL    HW227273   3.418   6.487   2.715
 4934SOL     OW27274   0.146   5.234   5.807
 4934SOL    HW127275   0.162   5.223   5.709
 4934SOL    HW227276   0.167   5.328   5.834
 4935SOL     OW27277   6.032   6.603   7.091
 4935SOL    HW127278   6.043   6.528   7.157
 4935SOL    HW227279   6.122   6.634   7.060
 4936SOL     OW27280   3.325   7.076   3.817
 4936SOL    HW127281   3.389   7.033   3.753
 4936SOL    HW227282   3.289   7.006   3.880
 4937SOL     OW27283   6.255   6.223   3.131
 4937SOL    HW127284   6.321   6.290   3.165
 4937SOL    HW227285   6.272   6.134   3.173
 4938SOL     OW27286   3.789   4.015   4.270
 4938SOL    HW127287   3.708   4.055   4.313
 4938SOL    HW227288   3.760   3.955   4.195
 4939SOL     OW27289   6.805   3.468   4.184
 4939SOL    HW127290   6.772   3.538   4.247
 4939SOL    HW227291   6.862   3.403   4.235
 4940SOL     OW27292   6.126   1.599   5.792
 4940SOL    HW127293   6.097   1.504   5.790
 4940SOL    HW227294   6.120   1.633   5.886
 4941SOL     OW27295   1.983   0.882   5.774
 4941SOL    HW127296   2.012   0.787   5.775
 4941SOL    HW227297   2.002   0.922   5.685
 4942SOL     OW27298   4.145   7.112   4.970
 4942SOL    HW127299   4.195   7.149   4.892
 4942SOL    HW227300   4.084   7.039   4.940
 4943SOL     OW27301   6.657   6.441   5.944
 4943SOL    HW127302   6.752   6.420   5.922
 4943SOL    HW227303   6.626   6.517   5.887
 4944SOL     OW27304   6.063   0.294   7.259
 4944SOL    HW127305   6.040   0.199   7.282
 4944SOL    HW227306   6.008   0.356   7.315
 4945SOL     OW27307   6.278   5.111   0.935
 4945SOL    HW127308   6.302   5.138   1.028
 4945SOL    HW227309   6.239   5.189   0.886
 4946SOL     OW27310   5.339   5.701   6.895
 4946SOL    HW127311   5.244   5.713   6.868
 4946SOL    HW227312   5.344   5.674   6.991
 4947SOL     OW27313   0.702   3.653   4.934
 4947SOL    HW127314   0.631   3.698   4.880
 4947SOL    HW227315   0.707   3.556   4.907
 4948SOL     OW27316   6.737   3.752   7.085
 4948SOL    HW127317   6.681   3.725   7.007
 4948SOL    HW227318   6.738   3.851   7.094
 4949SOL     OW27319   0.792   1.862   1.037
 4949SOL    HW127320   0.833   1.782   1.081
 4949SOL    HW227321   0.864   1.921   1.001
 4950SOL     OW27322   1.181   4.562   2.301
 4950SOL    HW127323   1.151   4.467   2.295
 4950SOL    HW227324   1.272   4.566   2.343
 4951SOL     OW27325   3.746   6.734   6.979
 4951SOL    HW127326   3.693   6.810   6.942
 4951SOL    HW227327   3.814   6.768   7.043
 4952SOL     OW27328   5.469   5.499   1.643
 4952SOL    HW127329   5.528   5.564   1.596
 4952SOL    HW227330   5.379   5.540   1.658
 4953SOL     OW27331   6.448   3.453   1.510
 4953SOL    HW127332   6.505   3.372   1.497
 4953SOL    HW227333   6.496   3.519   1.568
 4954SOL     OW27334   3.248   2.172   0.310
 4954SOL    HW127335   3.181   2.225   0.362
 4954SOL    HW227336   3.267   2.086   0.359
 4955SOL     OW27337   2.760   7.236   6.344
 4955SOL    HW127338   2.731   7.330   6.360
 4955SOL    HW227339   2.855   7.225   6.373
 4956SOL     OW27340   7.012   0.775   5.722
 4956SOL    HW127341   7.103   0.791   5.760
 4956SOL    HW227342   7.017   0.780   5.622
 4957SOL     OW27343   2.242   2.213   7.330
 4957SOL    HW127344   2.159   2.230   7.384
 4957SOL    HW227345   2.313   2.277   7.357
 4958SOL     OW27346   2.659   4.250   0.504
 4958SOL    HW127347   2.624   4.206   0.587
 4958SOL    HW227348   2.724   4.188   0.459
 4959SOL     OW27349   5.972   0.030   1.970
 4959SOL    HW127350   5.933   0.003   2.058
 4959SOL    HW227351   6.019   0.118   1.980
 4960SOL     OW27352   5.960   0.799   6.694
 4960SOL    HW127353   5.993   0.787   6.600
 4960SOL    HW227354   5.929   0.894   6.706
 4961SOL     OW27355   3.693   0.172   2.257
 4961SOL    HW127356   3.634   0.244   2.294
 4961SOL    HW227357   3.732   0.118   2.332
 4962SOL     OW27358   5.626   0.851   5.175
 4962SOL    HW127359   5.552   0.820   5.234
 4962SOL    HW227360   5.713   0.850   5.225
 4963SOL     OW27361   6.704   5.455   4.435
 4963SOL    HW127362   6.697   5.510   4.352
 4963SOL    HW227363   6.613   5.443   4.476
 4964SOL     OW27364   5.600   2.681   0.135
 4964SOL    HW127365   5.519   2.637   0.174
 4964SOL    HW227366   5.628   2.756   0.194
 4965SOL     OW27367   4.762   1.650   0.302
 4965SOL    HW127368   4.836   1.671   0.238
 4965SOL    HW227369   4.720   1.735   0.333
 4966SOL     OW27370   4.303   6.409   4.160
 4966SOL    HW127371   4.269   6.468   4.087
 4966SOL    HW227372   4.301   6.457   4.247
 4967SOL     OW27373   7.222   7.146   5.425
 4967SOL    HW127374   7.175   7.207   5.489
 4967SOL    HW227375   7.265   7.199   5.353
 4968SOL     OW27376   0.323   1.473   2.823
 4968SOL    HW127377   0.250   1.508   2.764
 4968SOL    HW227378   0.394   1.431   2.767
 4969SOL     OW27379   0.707   6.963   0.705
 4969SOL    HW127380   0.683   7.054   0.739
 4969SOL    HW227381   0.798   6.966   0.663
 4970SOL     OW27382   3.532   4.868   0.867
 4970SOL    HW127383   3.524   4.852   0.769
 4970SOL    HW227384   3.570   4.787   0.912
 4971SOL     OW27385   3.159   0.031   0.635
 4971SOL    HW127386   3.087   8.967   0.609
 4971SOL    HW227387   3.201   0.002   0.721
 4972SOL     OW27388   5.392   4.900   7.090
 4972SOL    HW127389   5.346   4.813   7.108
 4972SOL    HW227390   5.406   4.911   6.992
 4973SOL     OW27391   5.515   0.548   1.069
 4973SOL    HW127392   5.540   0.451   1.063
 4973SOL    HW227393   5.514   0.588   0.978
 4974SOL     OW27394   2.912   5.797   1.940
 4974SOL    HW127395   2.957   5.718   1.900
 4974SOL    HW227396   2.910   5.789   2.040
 4975SOL     OW27397   6.014   4.501   5.824
 4975SOL    HW127398   6.053   4.591   5.842
 4975SOL    HW227399   6.083   4.443   5.780
 4976SOL     OW27400   6.838   3.429   2.553
 4976SOL    HW127401   6.812   3.500   2.619
 4976SOL    HW227402   6.923   3.386   2.583
 4977SOL     OW27403   7.059   0.175   2.237
 4977SOL    HW127404   7.067   0.104   2.307
 4977SOL    HW227405   6.990   0.147   2.169
 4978SOL     OW27406   2.447   1.287   5.728
 4978SOL    HW127407   2.374   1.258   5.666
 4978SOL    HW227408   2.428   1.252   5.820
 4979SOL     OW27409   5.347   1.233   1.543
 4979SOL    HW127410   5.399   1.149   1.532
 4979SOL    HW227411   5.408   1.312   1.536
 4980SOL     OW27412   4.628   5.992   7.003
 4980SOL    HW127413   4.532   6.013   7.022
 4980SOL    HW227414   4.676   5.977   7.089
 4981SOL     OW27415   5.402   6.818   1.760
 4981SOL    HW127416   5.303   6.801   1.752
 4981SOL    HW227417   5.445   6.738   1.801
 4982SOL     OW27418   2.451   3.014   1.131
 4982SOL    HW127419   2.542   3.047   1.157
 4982SOL    HW227420   2.411   2.963   1.208
 4983SOL     OW27421   6.176   2.858   2.409
 4983SOL    HW127422   6.197   2.843   2.505
 4983SOL    HW227423   6.164   2.956   2.393
 4984SOL     OW27424   3.479   6.100   3.040
 4984SOL    HW127425   3.422   6.018   3.049
 4984SOL    HW227426   3.429   6.169   2.988
 4985SOL     OW27427   1.673   0.930   2.419
 4985SOL    HW127428   1.757   0.977   2.394
 4985SOL    HW227429   1.621   0.907   2.337
 4986SOL     OW27430   5.955   4.088   6.508
 4986SOL    HW127431   5.898   4.006   6.501
 4986SOL    HW227432   5.906   4.166   6.470
 4987SOL     OW27433   5.318   3.671   4.315
 4987SOL    HW127434   5.390   3.681   4.384
 4987SOL    HW227435   5.281   3.761   4.293
 4988SOL     OW27436   4.262   4.044   2.880
 4988SOL    HW127437   4.351   4.087   2.869
 4988SOL    HW227438   4.272   3.944   2.878
 4989SOL     OW27439   3.884   5.348   6.657
 4989SOL    HW127440   3.787   5.364   6.679
 4989SOL    HW227441   3.892   5.269   6.596
 4990SOL     OW27442   7.038   2.580   5.055
 4990SOL    HW127443   7.027   2.634   4.972
 4990SOL    HW227444   7.118   2.612   5.106
 4991SOL     OW27445   5.928   2.004   5.144
 4991SOL    HW127446   5.881   2.037   5.063
 4991SOL    HW227447   5.888   1.918   5.174
 4992SOL     OW27448   1.458   1.821   7.389
 4992SOL    HW127449   1.556   1.835   7.375
 4992SOL    HW227450   1.420   1.774   7.309
 4993SOL     OW27451   5.735   5.877   1.098
 4993SOL    HW127452   5.797   5.934   1.152
 4993SOL    HW227453   5.641   5.910   1.109
 4994SOL     OW27454   1.749   6.284   6.969
 4994SOL    HW127455   1.804   6.293   7.052
 4994SOL    HW227456   1.741   6.187   6.945
 4995SOL     OW27457   3.558   5.581   0.398
 4995SOL    HW127458   3.549   5.524   0.316
 4995SOL    HW227459   3.468   5.605   0.432
 4996SOL     OW27460   3.562   1.286   2.960
 4996SOL    HW127461   3.608   1.317   3.044
 4996SOL    HW227462   3.618   1.310   2.881
 4997SOL     OW27463   3.370   0.830   4.425
 4997SOL    HW127464   3.446   0.894   4.412
 4997SOL    HW227465   3.341   0.830   4.520
 4998SOL     OW27466   6.117   0.171   1.104
 4998SOL    HW127467   6.130   0.126   1.193
 4998SOL    HW227468   6.202   0.168   1.052
 4999SOL     OW27469   0.150   7.192   2.735
 4999SOL    HW127470   0.120   7.205   2.829
 4999SOL    HW227471   0.168   7.095   2.718
 5000SOL     OW27472   1.823   7.248   1.646
 5000SOL    HW127473   1.799   7.168   1.701
 5000SOL    HW227474   1.784   7.330   1.688
 5001SOL     OW27475   4.263   0.514   0.100
 5001SOL    HW127476   4.195   0.586   0.088
 5001SOL    HW227477   4.338   0.548   0.156
 5002SOL     OW27478   5.028   6.296   4.402
 5002SOL    HW127479   5.003   6.249   4.317
 5002SOL    HW227480   5.025   6.230   4.477
 5003SOL     OW27481   5.244   3.624   2.062
 5003SOL    HW127482   5.211   3.703   2.011
 5003SOL    HW227483   5.243   3.644   2.160
 5004SOL     OW27484   5.477   5.005   4.466
 5004SOL    HW127485   5.469   4.947   4.385
 5004SOL    HW227486   5.386   5.027   4.500
 5005SOL     OW27487   4.863   1.555   6.779
 5005SOL    HW127488   4.871   1.551   6.679
 5005SOL    HW227489   4.893   1.644   6.811
 5006SOL     OW27490   2.131   4.735   3.674
 5006SOL    HW127491   2.070   4.689   3.609
 5006SOL    HW227492   2.192   4.797   3.624
 5007SOL     OW27493   4.101   4.875   6.992
 5007SOL    HW127494   4.035   4.919   6.932
 5007SOL    HW227495   4.191   4.918   6.980
 5008SOL     OW27496   3.567   5.052   6.558
 5008SOL    HW127497   3.564   5.122   6.487
 5008SOL    HW227498   3.540   5.092   6.646
 5009SOL     OW27499   5.123   5.566   5.373
 5009SOL    HW127500   5.135   5.506   5.294
 5009SOL    HW227501   5.046   5.627   5.357
 5010SOL     OW27502   2.409   1.566   3.236
 5010SOL    HW127503   2.442   1.478   3.269
 5010SOL    HW227504   2.454   1.640   3.287
 5011SOL     OW27505   4.104   5.289   7.017
 5011SOL    HW127506   4.136   5.249   6.931
 5011SOL    HW227507   4.030   5.234   7.054
 5012SOL     OW27508   2.181   3.652   0.335
 5012SOL    HW127509   2.114   3.601   0.389
 5012SOL    HW227510   2.136   3.694   0.257
 5013SOL     OW27511   5.182   2.221   5.837
 5013SOL    HW127512   5.177   2.228   5.937
 5013SOL    HW227513   5.177   2.125   5.811
 5014SOL     OW27514   1.605   3.607   4.599
 5014SOL    HW127515   1.629   3.523   4.648
 5014SOL    HW227516   1.683   3.670   4.601
 5015SOL     OW27517   5.017   7.161   5.427
 5015SOL    HW127518   5.017   7.117   5.517
 5015SOL    HW227519   5.110   7.185   5.402
 5016SOL     OW27520   3.658   7.210   1.217
 5016SOL    HW127521   3.699   7.120   1.232
 5016SOL    HW227522   3.711   7.260   1.148
 5017SOL     OW27523   2.127   4.518   0.128
 5017SOL    HW127524   2.059   4.445   0.122
 5017SOL    HW227525   2.100   4.594   0.070
 5018SOL     OW27526   3.406   6.252   5.402
 5018SOL    HW127527   3.499   6.285   5.384
 5018SOL    HW227528   3.345   6.285   5.331
 5019SOL     OW27529   1.132   3.293   3.880
 5019SOL    HW127530   1.197   3.320   3.952
 5019SOL    HW227531   1.098   3.375   3.834
 5020SOL     OW27532   6.181   0.612   4.311
 5020SOL    HW127533   6.105   0.551   4.333
 5020SOL    HW227534   6.192   0.678   4.385
 5021SOL     OW27535   5.046   3.340   7.250
 5021SOL    HW127536   5.138   3.359   7.284
 5021SOL    HW227537   5.035   3.381   7.160
 5022SOL     OW27538   3.554   5.225   4.219
 5022SOL    HW127539   3.470   5.279   4.221
 5022SOL    HW227540   3.545   5.148   4.282
 5023SOL     OW27541   5.021   1.244   7.060
 5023SOL    HW127542   5.018   1.178   7.135
 5023SOL    HW227543   5.116   1.256   7.030
 5024SOL     OW27544   1.366   4.202   1.045
 5024SOL    HW127545   1.337   4.139   0.973
 5024SOL    HW227546   1.427   4.154   1.108
 5025SOL     OW27547   0.247   4.675   1.245
 5025SOL    HW127548   0.294   4.700   1.161
 5025SOL    HW227549   0.148   4.686   1.233
 5026SOL     OW27550   1.321   4.154   8.947
 5026SOL    HW127551   1.392   4.225   8.954
 5026SOL    HW227552   1.302   4.116   0.037
 5027SOL     OW27553   1.112   5.746   7.238
 5027SOL    HW127554   1.094   5.659   7.191
 5027SOL    HW227555   1.124   5.819   7.171
 5028SOL     OW27556   2.206   1.466   1.548
 5028SOL    HW127557   2.249   1.429   1.631
 5028SOL    HW227558   2.152   1.394   1.505
 5029SOL     OW27559   2.035   4.365   3.392
 5029SOL    HW127560   2.027   4.328   3.484
 5029SOL    HW227561   2.088   4.302   3.335
 5030SOL     OW27562   3.703   5.541   7.000
 5030SOL    HW127563   3.705   5.632   7.042
 5030SOL    HW227564   3.796   5.513   6.978
 5031SOL     OW27565   6.447   7.091   6.530
 5031SOL    HW127566   6.544   7.065   6.526
 5031SOL    HW227567   6.430   7.144   6.612
 5032SOL     OW27568   6.515   4.689   4.248
 5032SOL    HW127569   6.426   4.705   4.204
 5032SOL    HW227570   6.578   4.650   4.181
 5033SOL     OW27571   7.300   0.383   0.929
 5033SOL    HW127572   7.296   0.293   0.887
 5033SOL    HW227573   7.261   0.451   0.867
 5034SOL     OW27574   2.744   5.183   0.581
 5034SOL    HW127575   2.738   5.239   0.499
 5034SOL    HW227576   2.668   5.118   0.582
 5035SOL     OW27577   7.283   0.161   0.764
 5035SOL    HW127578   7.342   0.143   0.685
 5035SOL    HW227579   7.188   0.167   0.733
 5036SOL     OW27580   6.408   3.419   1.082
 5036SOL    HW127581   6.382   3.388   1.173
 5036SOL    HW227582   6.488   3.367   1.050
 5037SOL     OW27583   7.332   4.940   0.149
 5037SOL    HW127584   7.334   5.020   0.209
 5037SOL    HW227585   7.313   4.858   0.203
 5038SOL     OW27586   4.809   0.956   1.453
 5038SOL    HW127587   4.738   1.024   1.438
 5038SOL    HW227588   4.812   0.931   1.550
 5039SOL     OW27589   4.419   2.913   3.640
 5039SOL    HW127590   4.490   2.958   3.587
 5039SOL    HW227591   4.373   2.844   3.583
 5040SOL     OW27592   3.993   1.382   3.110
 5040SOL    HW127593   4.087   1.396   3.141
 5040SOL    HW227594   3.964   1.289   3.131
 5041SOL     OW27595   2.916   4.117   3.652
 5041SOL    HW127596   2.867   4.103   3.566
 5041SOL    HW227597   2.864   4.078   3.727
 5042SOL     OW27598   4.737   6.603   4.523
 5042SOL    HW127599   4.707   6.699   4.530
 5042SOL    HW227600   4.691   6.549   4.594
 5043SOL     OW27601   0.442   4.355   7.298
 5043SOL    HW127602   0.480   4.263   7.286
 5043SOL    HW227603   0.507   4.410   7.352
 5044SOL     OW27604   2.979   6.471   2.556
 5044SOL    HW127605   2.970   6.481   2.457
 5044SOL    HW227606   2.889   6.463   2.597
 5045SOL     OW27607   5.716   3.652   7.282
 5045SOL    HW127608   5.746   3.746   7.298
 5045SOL    HW227609   5.794   3.598   7.250
 5046SOL     OW27610   2.657   0.201   3.675
 5046SOL    HW127611   2.672   0.114   3.628
 5046SOL    HW227612   2.740   0.229   3.722
 5047SOL     OW27613   1.398   2.397   6.302
 5047SOL    HW127614   1.391   2.456   6.221
 5047SOL    HW227615   1.350   2.441   6.378
 5048SOL     OW27616   3.663   5.018   3.477
 5048SOL    HW127617   3.697   5.110   3.496
 5048SOL    HW227618   3.706   4.953   3.539
 5049SOL     OW27619   2.953   1.614   0.413
 5049SOL    HW127620   3.031   1.664   0.449
 5049SOL    HW227621   2.874   1.628   0.473
 5050SOL     OW27622   2.717   1.891   1.270
 5050SOL    HW127623   2.641   1.833   1.242
 5050SOL    HW227624   2.718   1.975   1.215
 5051SOL     OW27625   5.924   2.929   1.158
 5051SOL    HW127626   5.940   3.027   1.167
 5051SOL    HW227627   5.994   2.879   1.210
 5052SOL     OW27628   1.003   5.314   4.885
 5052SOL    HW127629   1.046   5.286   4.799
 5052SOL    HW227630   0.963   5.233   4.929
 5053SOL     OW27631   0.866   6.323   6.729
 5053SOL    HW127632   0.896   6.416   6.709
 5053SOL    HW227633   0.854   6.312   6.827
 5054SOL     OW27634   1.661   4.192   7.414
 5054SOL    HW127635   1.641   4.106   7.460
 5054SOL    HW227636   1.756   4.217   7.430
 5055SOL     OW27637   5.715   2.784   5.036
 5055SOL    HW127638   5.659   2.765   5.116
 5055SOL    HW227639   5.748   2.698   4.996
 5056SOL     OW27640   6.172   6.064   3.447
 5056SOL    HW127641   6.231   6.030   3.374
 5056SOL    HW227642   6.076   6.055   3.421
 5057SOL     OW27643   0.969   5.376   7.357
 5057SOL    HW127644   1.060   5.372   7.398
 5057SOL    HW227645   0.911   5.436   7.412
 5058SOL     OW27646   3.238   5.243   5.463
 5058SOL    HW127647   3.321   5.246   5.518
 5058SOL    HW227648   3.262   5.244   5.366
 5059SOL     OW27649   1.738   3.509   0.586
 5059SOL    HW127650   1.677   3.479   0.513
 5059SOL    HW227651   1.709   3.469   0.673
 5060SOL     OW27652   0.090   4.852   4.729
 5060SOL    HW127653   0.038   4.839   4.645
 5060SOL    HW227654   0.103   4.764   4.775
 5061SOL     OW27655   5.065   0.909   5.019
 5061SOL    HW127656   5.094   0.899   5.114
 5061SOL    HW227657   4.965   0.900   5.014
 5062SOL     OW27658   5.737   2.202   0.542
 5062SOL    HW127659   5.689   2.217   0.628
 5062SOL    HW227660   5.768   2.289   0.505
 5063SOL     OW27661   5.471   2.988   0.732
 5063SOL    HW127662   5.375   2.967   0.751
 5063SOL    HW227663   5.490   2.970   0.636
 5064SOL     OW27664   1.927   2.541   6.762
 5064SOL    HW127665   1.974   2.525   6.675
 5064SOL    HW227666   1.932   2.459   6.819
 5065SOL     OW27667   1.402   0.647   2.662
 5065SOL    HW127668   1.366   0.581   2.597
 5065SOL    HW227669   1.404   0.606   2.754
 5066SOL     OW27670   8.913   3.607   2.289
 5066SOL    HW127671   8.862   3.589   2.373
 5066SOL    HW227672   8.983   3.536   2.277
 5067SOL     OW27673   2.086   0.626   5.770
 5067SOL    HW127674   2.178   0.645   5.736
 5067SOL    HW227675   2.091   0.575   5.855
 5068SOL     OW27676   4.738   5.539   6.777
 5068SOL    HW127677   4.647   5.551   6.737
 5068SOL    HW227678   4.805   5.586   6.720
 5069SOL     OW27679   3.591   4.246   2.055
 5069SOL    HW127680   3.616   4.322   2.115
 5069SOL    HW227681   3.493   4.228   2.064
 5070SOL     OW27682   2.269   2.139   2.083
 5070SOL    HW127683   2.331   2.202   2.130
 5070SOL    HW227684   2.212   2.189   2.018
 5071SOL     OW27685   6.197   0.129   0.718
 5071SOL    HW127686   6.207   0.067   0.640
 5071SOL    HW227687   6.112   0.109   0.767
 5072SOL     OW27688   1.022   1.300   6.548
 5072SOL    HW127689   1.029   1.377   6.485
 5072SOL    HW227690   0.968   1.326   6.628
 5073SOL     OW27691   3.591   2.631   3.602
 5073SOL    HW127692   3.660   2.654   3.671
 5073SOL    HW227693   3.510   2.593   3.648
 5074SOL     OW27694   1.368   2.096   0.736
 5074SOL    HW127695   1.374   2.098   0.835
 5074SOL    HW227696   1.353   2.002   0.705
 5075SOL     OW27697   3.093   4.698   0.862
 5075SOL    HW127698   3.009   4.739   0.826
 5075SOL    HW227699   3.161   4.769   0.877
 5076SOL     OW27700   0.699   6.578   6.835
 5076SOL    HW127701   0.773   6.588   6.769
 5076SOL    HW227702   0.704   6.653   6.902
 5077SOL     OW27703   2.827   6.984   1.900
 5077SOL    HW127704   2.836   7.076   1.861
 5077SOL    HW227705   2.899   6.971   1.968
 5078SOL     OW27706   6.091   5.242   4.077
 5078SOL    HW127707   6.120   5.338   4.080
 5078SOL    HW227708   6.049   5.224   3.988
 5079SOL     OW27709   0.695   4.979   6.837
 5079SOL    HW127710   0.697   4.884   6.867
 5079SOL    HW227711   0.778   4.999   6.785
 5080SOL     OW27712   6.117   2.580   3.381
 5080SOL    HW127713   6.101   2.558   3.477
 5080SOL    HW227714   6.145   2.676   3.373
 5081SOL     OW27715   1.284   6.890   6.688
 5081SOL    HW127716   1.373   6.865   6.727
 5081SOL    HW227717   1.212   6.836   6.732
 5082SOL     OW27718   6.561   5.771   3.963
 5082SOL    HW127719   6.610   5.720   3.892
 5082SOL    HW227720   6.586   5.734   4.053
 5083SOL     OW27721   4.001   2.579   5.733
 5083SOL    HW127722   4.097   2.605   5.724
 5083SOL    HW227723   3.967   2.607   5.823
 5084SOL     OW27724   5.520   4.520   3.773
 5084SOL    HW127725   5.526   4.584   3.696
 5084SOL    HW227726   5.539   4.427   3.741
 5085SOL     OW27727   2.960   7.291   1.067
 5085SOL    HW127728   2.917   7.206   1.036
 5085SOL    HW227729   2.896   7.340   1.127
 5086SOL     OW27730   3.310   3.675   4.969
 5086SOL    HW127731   3.287   3.708   5.061
 5086SOL    HW227732   3.409   3.664   4.961
 5087SOL     OW27733   7.146   2.731   3.827
 5087SOL    HW127734   7.091   2.659   3.871
 5087SOL    HW227735   7.168   2.802   3.894
 5088SOL     OW27736   4.982   6.230   5.470
 5088SOL    HW127737   4.991   6.152   5.408
 5088SOL    HW227738   4.910   6.291   5.437
 5089SOL     OW27739   5.764   1.506   5.161
 5089SOL    HW127740   5.721   1.428   5.207
 5089SOL    HW227741   5.713   1.527   5.077
 5090SOL     OW27742   5.291   7.260   3.148
 5090SOL    HW127743   5.282   7.203   3.229
 5090SOL    HW227744   5.345   7.211   3.079
 5091SOL     OW27745   5.057   1.276   4.455
 5091SOL    HW127746   5.148   1.292   4.417
 5091SOL    HW227747   5.065   1.234   4.545
 5092SOL     OW27748   5.184   1.504   3.480
 5092SOL    HW127749   5.174   1.454   3.567
 5092SOL    HW227750   5.114   1.574   3.474
 5093SOL     OW27751   2.559   2.879   2.941
 5093SOL    HW127752   2.462   2.885   2.915
 5093SOL    HW227753   2.568   2.891   3.040
 5094SOL     OW27754   7.303   5.653   2.208
 5094SOL    HW127755   7.272   5.741   2.244
 5094SOL    HW227756   7.235   5.618   2.143
 5095SOL     OW27757   1.733   4.115   5.000
 5095SOL    HW127758   1.644   4.153   5.026
 5095SOL    HW227759   1.719   4.040   4.935
 5096SOL     OW27760   0.848   4.121   2.443
 5096SOL    HW127761   0.843   4.146   2.540
 5096SOL    HW227762   0.831   4.203   2.388
 5097SOL     OW27763   1.604   2.825   6.618
 5097SOL    HW127764   1.663   2.873   6.552
 5097SOL    HW227765   1.511   2.821   6.582
 5098SOL     OW27766   0.992   1.672   1.420
 5098SOL    HW127767   0.969   1.593   1.478
 5098SOL    HW227768   0.953   1.755   1.461
 5099SOL     OW27769   7.225   7.095   1.283
 5099SOL    HW127770   7.214   7.114   1.380
 5099SOL    HW227771   7.148   7.134   1.232
 5100SOL     OW27772   5.161   0.915   5.281
 5100SOL    HW127773   5.254   0.880   5.285
 5100SOL    HW227774   5.162   1.014   5.271
 5101SOL     OW27775   0.712   2.884   6.182
 5101SOL    HW127776   0.713   2.972   6.229
 5101SOL    HW227777   0.677   2.814   6.244
 5102SOL     OW27778   5.991   0.761   7.304
 5102SOL    HW127779   6.051   0.755   7.224
 5102SOL    HW227780   5.902   0.799   7.276
 5103SOL     OW27781   5.489   2.885   2.996
 5103SOL    HW127782   5.495   2.791   3.028
 5103SOL    HW227783   5.432   2.888   2.914
 5104SOL     OW27784   1.984   0.140   1.871
 5104SOL    HW127785   1.888   0.113   1.862
 5104SOL    HW227786   2.034   0.110   1.789
 5105SOL     OW27787   2.636   1.165   4.834
 5105SOL    HW127788   2.680   1.206   4.753
 5105SOL    HW227789   2.626   1.067   4.820
 5106SOL     OW27790   2.851   4.959   5.333
 5106SOL    HW127791   2.916   5.008   5.390
 5106SOL    HW227792   2.781   5.023   5.299
 5107SOL     OW27793   5.481   0.118   6.768
 5107SOL    HW127794   5.500   0.188   6.700
 5107SOL    HW227795   5.476   0.029   6.723
 5108SOL     OW27796   1.531   3.388   3.625
 5108SOL    HW127797   1.525   3.291   3.601
 5108SOL    HW227798   1.612   3.428   3.582
 5109SOL     OW27799   4.297   4.998   6.229
 5109SOL    HW127800   4.300   4.962   6.322
 5109SOL    HW227801   4.338   4.932   6.166
 5110SOL     OW27802   6.454   0.737   5.027
 5110SOL    HW127803   6.506   0.653   5.013
 5110SOL    HW227804   6.502   0.814   4.986
 5111SOL     OW27805   0.772   2.955   1.398
 5111SOL    HW127806   0.731   3.046   1.393
 5111SOL    HW227807   0.851   2.951   1.336
 5112SOL     OW27808   3.763   3.721   2.791
 5112SOL    HW127809   3.819   3.803   2.773
 5112SOL    HW227810   3.823   3.642   2.799
 5113SOL     OW27811   0.879   2.831   6.602
 5113SOL    HW127812   0.827   2.915   6.586
 5113SOL    HW227813   0.967   2.854   6.645
 5114SOL     OW27814   1.612   5.323   5.325
 5114SOL    HW127815   1.632   5.295   5.231
 5114SOL    HW227816   1.657   5.411   5.344
 5115SOL     OW27817   1.072   2.565   2.940
 5115SOL    HW127818   1.124   2.603   3.016
 5115SOL    HW227819   1.041   2.473   2.963
 5116SOL     OW27820   3.889   4.154   4.496
 5116SOL    HW127821   3.878   4.080   4.430
 5116SOL    HW227822   3.867   4.241   4.452
 5117SOL     OW27823   3.337   3.550   3.659
 5117SOL    HW127824   3.363   3.527   3.752
 5117SOL    HW227825   3.398   3.503   3.595
 5118SOL     OW27826   6.334   5.995   4.391
 5118SOL    HW127827   6.290   6.033   4.309
 5118SOL    HW227828   6.431   6.017   4.391
 5119SOL     OW27829   6.441   0.575   1.452
 5119SOL    HW127830   6.402   0.658   1.492
 5119SOL    HW227831   6.369   0.524   1.404
 5120SOL     OW27832   2.612   6.894   2.053
 5120SOL    HW127833   2.637   6.897   2.150
 5120SOL    HW227834   2.688   6.929   1.998
 5121SOL     OW27835   1.829   5.875   6.632
 5121SOL    HW127836   1.789   5.937   6.565
 5121SOL    HW227837   1.799   5.900   6.723
 5122SOL     OW27838   5.786   1.539   1.189
 5122SOL    HW127839   5.719   1.466   1.205
 5122SOL    HW227840   5.786   1.562   1.092
 5123SOL     OW27841   0.205   5.156   5.540
 5123SOL    HW127842   0.214   5.113   5.450
 5123SOL    HW227843   0.295   5.188   5.571
 5124SOL     OW27844   2.521   0.652   1.966
 5124SOL    HW127845   2.563   0.562   1.957
 5124SOL    HW227846   2.426   0.643   1.995
 5125SOL     OW27847   2.667   6.194   2.743
 5125SOL    HW127848   2.659   6.117   2.806
 5125SOL    HW227849   2.600   6.183   2.669
 5126SOL     OW27850   6.550   4.684   0.322
 5126SOL    HW127851   6.482   4.691   0.396
 5126SOL    HW227852   6.542   4.763   0.261
 5127SOL     OW27853   5.220   5.604   1.684
 5127SOL    HW127854   5.224   5.703   1.677
 5127SOL    HW227855   5.149   5.577   1.748
 5128SOL     OW27856   0.600   1.884   2.264
 5128SOL    HW127857   0.630   1.932   2.347
 5128SOL    HW227858   0.654   1.915   2.186
 5129SOL     OW27859   4.985   0.968   0.203
 5129SOL    HW127860   4.995   0.869   0.188
 5129SOL    HW227861   4.897   0.998   0.166
 5130SOL     OW27862   1.164   3.280   5.262
 5130SOL    HW127863   1.085   3.338   5.282
 5130SOL    HW227864   1.182   3.280   5.163
 5131SOL     OW27865   5.663   3.821   2.140
 5131SOL    HW127866   5.642   3.894   2.205
 5131SOL    HW227867   5.727   3.757   2.181
 5132SOL     OW27868   3.631   0.795   1.155
 5132SOL    HW127869   3.534   0.816   1.168
 5132SOL    HW227870   3.649   0.773   1.059
 5133SOL     OW27871   0.145   4.203   2.295
 5133SOL    HW127872   0.063   4.147   2.305
 5133SOL    HW227873   0.226   4.144   2.299
 5134SOL     OW27874   4.925   2.803   3.151
 5134SOL    HW127875   4.932   2.863   3.071
 5134SOL    HW227876   4.831   2.803   3.184
 5135SOL     OW27877   1.042   5.659   1.725
 5135SOL    HW127878   1.037   5.644   1.824
 5135SOL    HW227879   1.113   5.600   1.686
 5136SOL     OW27880   3.748   6.728   5.826
 5136SOL    HW127881   3.802   6.692   5.750
 5136SOL    HW227882   3.724   6.823   5.808
 5137SOL     OW27883   3.064   5.589   1.811
 5137SOL    HW127884   3.086   5.587   1.909
 5137SOL    HW227885   3.114   5.517   1.764
 5138SOL     OW27886   3.313   5.266   5.185
 5138SOL    HW127887   3.289   5.281   5.089
 5138SOL    HW227888   3.364   5.345   5.219
 5139SOL     OW27889   1.707   5.618   0.703
 5139SOL    HW127890   1.620   5.659   0.678
 5139SOL    HW227891   1.691   5.541   0.765
 5140SOL     OW27892   6.176   5.884   3.742
 5140SOL    HW127893   6.243   5.916   3.675
 5140SOL    HW227894   6.084   5.901   3.707
 5141SOL     OW27895   5.912   5.856   3.194
 5141SOL    HW127896   5.898   5.924   3.266
 5141SOL    HW227897   5.965   5.896   3.119
 5142SOL     OW27898   1.953   5.224   1.090
 5142SOL    HW127899   1.902   5.261   1.168
 5142SOL    HW227900   2.047   5.206   1.117
 5143SOL     OW27901   1.072   0.595   3.810
 5143SOL    HW127902   1.076   0.658   3.733
 5143SOL    HW227903   1.087   0.646   3.895
 5144SOL     OW27904   1.375   2.916   5.119
 5144SOL    HW127905   1.401   2.959   5.033
 5144SOL    HW227906   1.280   2.938   5.141
 5145SOL     OW27907   3.672   3.146   5.081
 5145SOL    HW127908   3.724   3.222   5.121
 5145SOL    HW227909   3.654   3.077   5.151
 5146SOL     OW27910   1.254   1.929   2.751
 5146SOL    HW127911   1.266   1.831   2.738
 5146SOL    HW227912   1.260   1.951   2.848
 5147SOL     OW27913   2.084   0.678   0.636
 5147SOL    HW127914   2.033   0.598   0.605
 5147SOL    HW227915   2.134   0.655   0.720
 5148SOL     OW27916   7.204   6.431   5.874
 5148SOL    HW127917   7.270   6.505   5.888
 5148SOL    HW227918   7.254   6.347   5.850
 5149SOL     OW27919   5.831   0.590   3.884
 5149SOL    HW127920   5.791   0.681   3.885
 5149SOL    HW227921   5.768   0.526   3.840
 5150SOL     OW27922   5.508   6.772   4.241
 5150SOL    HW127923   5.439   6.755   4.171
 5150SOL    HW227924   5.464   6.777   4.330
 5151SOL     OW27925   5.610   1.528   7.349
 5151SOL    HW127926   5.637   1.624   7.335
 5151SOL    HW227927   5.550   1.522   7.429
 5152SOL     OW27928   4.231   2.095   2.467
 5152SOL    HW127929   4.222   2.116   2.369
 5152SOL    HW227930   4.179   2.012   2.487
 5153SOL     OW27931   2.334   1.827   6.532
 5153SOL    HW127932   2.366   1.919   6.555
 5153SOL    HW227933   2.412   1.765   6.526
 5154SOL     OW27934   6.592   5.631   6.720
 5154SOL    HW127935   6.692   5.628   6.717
 5154SOL    HW227936   6.555   5.539   6.705
 5155SOL     OW27937   4.243   2.876   5.486
 5155SOL    HW127938   4.293   2.935   5.421
 5155SOL    HW227939   4.272   2.897   5.579
 5156SOL     OW27940   4.356   5.917   3.106
 5156SOL    HW127941   4.325   5.907   3.200
 5156SOL    HW227942   4.433   5.856   3.089
 5157SOL     OW27943   5.616   1.388   3.496
 5157SOL    HW127944   5.708   1.421   3.472
 5157SOL    HW227945   5.610   1.290   3.475
 5158SOL     OW27946   5.399   0.880   0.345
 5158SOL    HW127947   5.367   0.886   0.250
 5158SOL    HW227948   5.400   0.970   0.386
 5159SOL     OW27949   3.890   0.109   6.342
 5159SOL    HW127950   3.839   0.132   6.259
 5159SOL    HW227951   3.886   0.011   6.358
 5160SOL     OW27952   3.661   1.407   3.419
 5160SOL    HW127953   3.595   1.334   3.436
 5160SOL    HW227954   3.677   1.415   3.321
 5161SOL     OW27955   0.754   1.729   3.618
 5161SOL    HW127956   0.727   1.638   3.649
 5161SOL    HW227957   0.807   1.721   3.533
 5162SOL     OW27958   4.843   7.125   4.098
 5162SOL    HW127959   4.826   7.047   4.158
 5162SOL    HW227960   4.767   7.190   4.106
 5163SOL     OW27961   5.865   3.941   2.939
 5163SOL    HW127962   5.858   3.853   2.986
 5163SOL    HW227963   5.894   4.011   3.004
 5164SOL     OW27964   1.543   1.104   7.158
 5164SOL    HW127965   1.583   1.071   7.244
 5164SOL    HW227966   1.470   1.169   7.178
 5165SOL     OW27967   6.308   3.382   3.211
 5165SOL    HW127968   6.216   3.356   3.181
 5165SOL    HW227969   6.357   3.424   3.135
 5166SOL     OW27970   4.226   3.118   6.397
 5166SOL    HW127971   4.165   3.052   6.353
 5166SOL    HW227972   4.319   3.106   6.363
 5167SOL     OW27973   0.790   1.451   2.774
 5167SOL    HW127974   0.835   1.488   2.856
 5167SOL    HW227975   0.764   1.527   2.714
 5168SOL     OW27976   7.173   5.677   6.954
 5168SOL    HW127977   7.161   5.764   6.906
 5168SOL    HW227978   7.255   5.682   7.012
 5169SOL     OW27979   5.250   0.534   6.153
 5169SOL    HW127980   5.345   0.511   6.174
 5169SOL    HW227981   5.247   0.604   6.082
 5170SOL     OW27982   2.254   6.253   7.010
 5170SOL    HW127983   2.319   6.254   7.086
 5170SOL    HW227984   2.189   6.328   7.022
 5171SOL     OW27985   5.066   7.232   3.993
 5171SOL    HW127986   5.145   7.218   4.053
 5171SOL    HW227987   4.985   7.190   4.035
 5172SOL     OW27988   4.219   1.341   6.660
 5172SOL    HW127989   4.243   1.325   6.564
 5172SOL    HW227990   4.291   1.396   6.704
 5173SOL     OW27991   0.617   1.851   0.827
 5173SOL    HW127992   0.675   1.854   0.909
 5173SOL    HW227993   0.656   1.909   0.756
 5174SOL     OW27994   3.011   5.401   5.490
 5174SOL    HW127995   3.097   5.349   5.492
 5174SOL    HW227996   2.975   5.408   5.583
 5175SOL     OW27997   2.101   0.727   6.388
 5175SOL    HW127998   2.049   0.678   6.458
 5175SOL    HW227999   2.198   0.727   6.412
 5176SOL     OW28000   4.302   1.700   1.385
 5176SOL    HW128001   4.308   1.613   1.435
 5176SOL    HW228002   4.392   1.726   1.351
 5177SOL     OW28003   6.929   7.343   0.535
 5177SOL    HW128004   6.829   7.337   0.540
 5177SOL    HW228005   6.963   7.267   0.479
 5178SOL     OW28006   5.186   0.980   6.303
 5178SOL    HW128007   5.118   0.952   6.236
 5178SOL    HW228008   5.262   0.916   6.303
 5179SOL     OW28009   4.817   1.270   2.061
 5179SOL    HW128010   4.790   1.363   2.084
 5179SOL    HW228011   4.737   1.211   2.064
 5180SOL     OW28012   2.579   1.221   1.671
 5180SOL    HW128013   2.666   1.189   1.633
 5180SOL    HW228014   2.523   1.142   1.697
 5181SOL     OW28015   1.923   1.973   6.661
 5181SOL    HW128016   1.938   1.875   6.649
 5181SOL    HW228017   1.935   1.997   6.758
 5182SOL     OW28018   6.721   5.638   3.011
 5182SOL    HW128019   6.648   5.583   3.052
 5182SOL    HW228020   6.795   5.578   2.981
 5183SOL     OW28021   0.993   0.477   6.941
 5183SOL    HW128022   1.067   0.538   6.913
 5183SOL    HW228023   1.015   0.383   6.915
 5184SOL     OW28024   6.478   0.094   6.460
 5184SOL    HW128025   6.573   0.125   6.470
 5184SOL    HW228026   6.472   8.997   6.486
 5185SOL     OW28027   2.626   3.085   0.621
 5185SOL    HW128028   2.679   3.033   0.553
 5185SOL    HW228029   2.582   3.022   0.684
 5186SOL     OW28030   5.342   2.606   1.569
 5186SOL    HW128031   5.247   2.607   1.536
 5186SOL    HW228032   5.352   2.532   1.636
 5187SOL     OW28033   3.245   4.552   2.958
 5187SOL    HW128034   3.326   4.604   2.987
 5187SOL    HW228035   3.238   4.555   2.858
 5188SOL     OW28036   3.914   0.384   5.643
 5188SOL    HW128037   3.920   0.292   5.604
 5188SOL    HW228038   3.926   0.452   5.571
 5189SOL     OW28039   3.648   2.154   7.065
 5189SOL    HW128040   3.578   2.103   7.015
 5189SOL    HW228041   3.645   2.250   7.037
 5190SOL     OW28042   4.490   2.333   4.619
 5190SOL    HW128043   4.581   2.304   4.588
 5190SOL    HW228044   4.473   2.295   4.710
 5191SOL     OW28045   5.310   6.005   5.294
 5191SOL    HW128046   5.312   5.911   5.328
 5191SOL    HW228047   5.398   6.027   5.251
 5192SOL     OW28048   5.709   0.136   6.930
 5192SOL    HW128049   5.626   0.137   6.875
 5192SOL    HW228050   5.753   0.226   6.926
 5193SOL     OW28051   0.725   5.620   5.993
 5193SOL    HW128052   0.678   5.562   6.060
 5193SOL    HW228053   0.744   5.709   6.034
 5194SOL     OW28054   3.924   2.474   6.426
 5194SOL    HW128055   3.947   2.380   6.400
 5194SOL    HW228056   3.826   2.479   6.448
 5195SOL     OW28057   6.553   3.804   0.449
 5195SOL    HW128058   6.513   3.783   0.538
 5195SOL    HW228059   6.623   3.736   0.426
 5196SOL     OW28060   4.639   5.809   6.593
 5196SOL    HW128061   4.734   5.776   6.586
 5196SOL    HW228062   4.578   5.731   6.608
 5197SOL     OW28063   3.899   3.093   5.643
 5197SOL    HW128064   3.916   3.010   5.590
 5197SOL    HW228065   3.805   3.094   5.675
 5198SOL     OW28066   3.252   3.927   5.814
 5198SOL    HW128067   3.179   3.994   5.800
 5198SOL    HW228068   3.320   3.936   5.741
 5199SOL     OW28069   5.074   5.235   2.680
 5199SOL    HW128070   5.022   5.155   2.709
 5199SOL    HW228071   5.010   5.306   2.649
 5200SOL     OW28072   2.954   5.159   6.196
 5200SOL    HW128073   2.900   5.236   6.230
 5200SOL    HW228074   3.030   5.142   6.259
 5201SOL     OW28075   1.708   2.352   4.615
 5201SOL    HW128076   1.631   2.300   4.577
 5201SOL    HW228077   1.674   2.421   4.679
 5202SOL     OW28078   7.044   2.746   0.438
 5202SOL    HW128079   7.099   2.821   0.474
 5202SOL    HW228080   6.971   2.724   0.503
 5203SOL     OW28081   4.450   0.776   5.392
 5203SOL    HW128082   4.549   0.767   5.385
 5203SOL    HW228083   4.409   0.759   5.302
 5204SOL     OW28084   2.928   6.263   1.700
 5204SOL    HW128085   2.939   6.176   1.750
 5204SOL    HW228086   2.837   6.300   1.717
 5205SOL     OW28087   4.848   0.847   1.715
 5205SOL    HW128088   4.938   0.823   1.679
 5205SOL    HW228089   4.857   0.875   1.810
 5206SOL     OW28090   3.219   4.176   0.480
 5206SOL    HW128091   3.139   4.230   0.452
 5206SOL    HW228092   3.193   4.115   0.555
 5207SOL     OW28093   2.777   4.215   5.053
 5207SOL    HW128094   2.694   4.236   5.001
 5207SOL    HW228095   2.791   4.116   5.054
 5208SOL     OW28096   2.918   1.345   0.377
 5208SOL    HW128097   2.933   1.443   0.384
 5208SOL    HW228098   2.879   1.323   0.287
 5209SOL     OW28099   1.266   0.790   5.637
 5209SOL    HW128100   1.341   0.839   5.680
 5209SOL    HW228101   1.302   0.710   5.589
 5210SOL     OW28102   1.445   4.407   5.966
 5210SOL    HW128103   1.528   4.448   5.926
 5210SOL    HW228104   1.448   4.308   5.953
 5211SOL     OW28105   1.547   6.465   6.961
 5211SOL    HW128106   1.524   6.493   6.868
 5211SOL    HW228107   1.619   6.396   6.958
 5212SOL     OW28108   0.389   6.976   5.077
 5212SOL    HW128109   0.453   6.973   5.001
 5212SOL    HW228110   0.400   6.894   5.133
 5213SOL     OW28111   5.250   4.487   6.302
 5213SOL    HW128112   5.348   4.480   6.282
 5213SOL    HW228113   5.204   4.531   6.224
 5214SOL     OW28114   3.280   1.920   6.353
 5214SOL    HW128115   3.212   1.861   6.309
 5214SOL    HW228116   3.369   1.906   6.310
 5215SOL     OW28117   2.092   4.537   0.610
 5215SOL    HW128118   2.030   4.566   0.537
 5215SOL    HW228119   2.041   4.527   0.695
 5216SOL     OW28120   3.755   0.136   0.077
 5216SOL    HW128121   3.780   0.223   0.035
 5216SOL    HW228122   3.767   0.062   0.011
 5217SOL     OW28123   6.570   3.146   4.375
 5217SOL    HW128124   6.658   3.139   4.422
 5217SOL    HW228125   6.505   3.083   4.417
 5218SOL     OW28126   3.477   1.959   0.648
 5218SOL    HW128127   3.482   2.039   0.708
 5218SOL    HW228128   3.502   1.877   0.699
 5219SOL     OW28129   3.142   3.148   0.993
 5219SOL    HW128130   3.169   3.186   0.905
 5219SOL    HW228131   3.042   3.140   0.997
 5220SOL     OW28132   1.181   4.655   6.937
 5220SOL    HW128133   1.177   4.556   6.952
 5220SOL    HW228134   1.090   4.688   6.911
 5221SOL     OW28135   0.000   1.002   6.116
 5221SOL    HW128136   8.918   1.049   6.150
 5221SOL    HW228137   0.036   1.052   6.037
 5222SOL     OW28138   4.804   1.156   5.965
 5222SOL    HW128139   4.793   1.089   5.891
 5222SOL    HW228140   4.901   1.172   5.981
 5223SOL     OW28141   1.909   3.461   6.483
 5223SOL    HW128142   1.987   3.522   6.474
 5223SOL    HW228143   1.824   3.514   6.477
 5224SOL     OW28144   1.064   5.937   1.145
 5224SOL    HW128145   1.109   5.935   1.056
 5224SOL    HW228146   1.073   6.029   1.185
 5225SOL     OW28147   0.679   3.224   1.388
 5225SOL    HW128148   0.644   3.305   1.340
 5225SOL    HW228149   0.656   3.232   1.485
 5226SOL     OW28150   6.095   0.423   6.926
 5226SOL    HW128151   6.145   0.423   7.012
 5226SOL    HW228152   6.124   0.501   6.870
 5227SOL     OW28153   5.597   0.146   7.211
 5227SOL    HW128154   5.588   0.239   7.176
 5227SOL    HW228155   5.632   0.086   7.139
 5228SOL     OW28156   2.756   6.511   6.303
 5228SOL    HW128157   2.657   6.499   6.307
 5228SOL    HW228158   2.779   6.608   6.301
 5229SOL     OW28159   5.914   0.170   3.605
 5229SOL    HW128160   5.969   0.237   3.655
 5229SOL    HW228161   5.901   0.201   3.511
 5230SOL     OW28162   0.423   6.103   5.642
 5230SOL    HW128163   0.395   6.187   5.689
 5230SOL    HW228164   0.523   6.099   5.639
 5231SOL     OW28165   3.068   7.207   4.327
 5231SOL    HW128166   3.063   7.144   4.404
 5231SOL    HW228167   2.982   7.258   4.319
 5232SOL     OW28168   5.153   6.761   3.162
 5232SOL    HW128169   5.065   6.767   3.209
 5232SOL    HW228170   5.226   6.755   3.230
 5233SOL     OW28171   5.680   0.274   3.162
 5233SOL    HW128172   5.610   0.210   3.193
 5233SOL    HW228173   5.641   0.366   3.157
 5234SOL     OW28174   5.878   1.797   4.826
 5234SOL    HW128175   5.956   1.743   4.858
 5234SOL    HW228176   5.909   1.860   4.754
 5235SOL     OW28177   2.054   6.312   1.487
 5235SOL    HW128178   2.088   6.221   1.510
 5235SOL    HW228179   2.112   6.352   1.415
 5236SOL     OW28180   2.260   4.702   6.209
 5236SOL    HW128181   2.217   4.616   6.235
 5236SOL    HW228182   2.222   4.777   6.263
 5237SOL     OW28183   5.091   2.220   4.363
 5237SOL    HW128184   5.153   2.284   4.316
 5237SOL    HW228185   4.996   2.243   4.340
 5238SOL     OW28186   7.387   2.433   2.645
 5238SOL    HW128187   7.442   2.512   2.670
 5238SOL    HW228188   7.309   2.463   2.590
 5239SOL     OW28189   6.765   5.728   6.100
 5239SOL    HW128190   6.814   5.708   6.185
 5239SOL    HW228191   6.786   5.658   6.032
 5240SOL     OW28192   0.660   3.969   2.982
 5240SOL    HW128193   0.694   3.880   3.013
 5240SOL    HW228194   0.727   4.040   3.004
 5241SOL     OW28195   1.615   1.502   1.254
 5241SOL    HW128196   1.624   1.468   1.348
 5241SOL    HW228197   1.548   1.446   1.205
 5242SOL     OW28198   5.649   0.969   4.800
 5242SOL    HW128199   5.596   0.897   4.846
 5242SOL    HW228200   5.616   0.979   4.707
 5243SOL     OW28201   4.390   0.814   7.132
 5243SOL    HW128202   4.302   0.852   7.103
 5243SOL    HW228203   4.464   0.873   7.099
 5244SOL     OW28204   7.357   3.161   7.033
 5244SOL    HW128205   7.429   3.121   7.089
 5244SOL    HW228206   7.268   3.141   7.073
 5245SOL     OW28207   1.953   4.628   4.364
 5245SOL    HW128208   1.991   4.606   4.454
 5245SOL    HW228209   2.023   4.674   4.309
 5246SOL     OW28210   7.194   3.880   5.952
 5246SOL    HW128211   7.290   3.868   5.927
 5246SOL    HW228212   7.186   3.952   6.021
 5247SOL     OW28213   3.526   4.620   0.309
 5247SOL    HW128214   3.500   4.527   0.283
 5247SOL    HW228215   3.444   4.673   0.330
 5248SOL     OW28216   4.089   6.730   2.047
 5248SOL    HW128217   4.018   6.676   2.001
 5248SOL    HW228218   4.108   6.812   1.994
 5249SOL     OW28219   0.124   6.415   0.337
 5249SOL    HW128220   0.220   6.391   0.322
 5249SOL    HW228221   0.119   6.494   0.398
 5250SOL     OW28222   2.192   4.193   6.311
 5250SOL    HW128223   2.273   4.177   6.368
 5250SOL    HW228224   2.119   4.130   6.338
 5251SOL     OW28225   3.757   3.024   2.198
 5251SOL    HW128226   3.677   3.036   2.257
 5251SOL    HW228227   3.756   2.932   2.157
 5252SOL     OW28228   3.343   0.802   1.874
 5252SOL    HW128229   3.276   0.733   1.900
 5252SOL    HW228230   3.333   0.823   1.777
 5253SOL     OW28231   1.490   2.414   2.680
 5253SOL    HW128232   1.508   2.426   2.583
 5253SOL    HW228233   1.401   2.453   2.703
 5254SOL     OW28234   2.396   2.716   6.643
 5254SOL    HW128235   2.453   2.770   6.705
 5254SOL    HW228236   2.386   2.624   6.679
 5255SOL     OW28237   1.791   3.806   1.358
 5255SOL    HW128238   1.869   3.748   1.334
 5255SOL    HW228239   1.729   3.755   1.419
 5256SOL     OW28240   1.335   4.452   4.247
 5256SOL    HW128241   1.245   4.410   4.264
 5256SOL    HW228242   1.322   4.540   4.203
 5257SOL     OW28243   1.302   3.265   4.736
 5257SOL    HW128244   1.257   3.265   4.646
 5257SOL    HW228245   1.396   3.233   4.726
 5258SOL     OW28246   6.325   6.110   0.641
 5258SOL    HW128247   6.337   6.011   0.644
 5258SOL    HW228248   6.336   6.142   0.547
 5259SOL     OW28249   2.207   1.220   0.518
 5259SOL    HW128250   2.301   1.245   0.498
 5259SOL    HW228251   2.171   1.163   0.444
 5260SOL     OW28252   6.444   6.776   0.775
 5260SOL    HW128253   6.476   6.826   0.695
 5260SOL    HW228254   6.352   6.741   0.758
 5261SOL     OW28255   4.795   0.126   6.365
 5261SOL    HW128256   4.833   0.069   6.438
 5261SOL    HW228257   4.789   0.221   6.396
 5262SOL     OW28258   6.501   0.775   2.022
 5262SOL    HW128259   6.424   0.741   2.075
 5262SOL    HW228260   6.579   0.790   2.083
 5263SOL     OW28261   6.790   2.367   4.276
 5263SOL    HW128262   6.732   2.295   4.315
 5263SOL    HW228263   6.734   2.445   4.249
 5264SOL     OW28264   1.415   5.002   1.162
 5264SOL    HW128265   1.349   5.000   1.087
 5264SOL    HW228266   1.367   5.003   1.250
 5265SOL     OW28267   5.582   4.267   3.699
 5265SOL    HW128268   5.555   4.183   3.652
 5265SOL    HW228269   5.662   4.306   3.654
 5266SOL     OW28270   7.102   4.999   4.118
 5266SOL    HW128271   7.054   4.932   4.175
 5266SOL    HW228272   7.150   4.952   4.044
 5267SOL     OW28273   2.915   4.878   6.196
 5267SOL    HW128274   2.912   4.978   6.186
 5267SOL    HW228275   3.007   4.850   6.223
 5268SOL     OW28276   5.218   4.683   7.399
 5268SOL    HW128277   5.256   4.770   7.429
 5268SOL    HW228278   5.226   4.675   7.300
 5269SOL     OW28279   6.231   6.122   4.168
 5269SOL    HW128280   6.260   6.135   4.073
 5269SOL    HW228281   6.146   6.069   4.170
 5270SOL     OW28282   6.588   7.366   3.354
 5270SOL    HW128283   6.627   7.457   3.341
 5270SOL    HW228284   6.519   7.349   3.283
 5271SOL     OW28285   4.296   1.370   3.645
 5271SOL    HW128286   4.377   1.329   3.687
 5271SOL    HW228287   4.289   1.466   3.673
 5272SOL     OW28288   5.944   0.531   2.607
 5272SOL    HW128289   6.040   0.501   2.605
 5272SOL    HW228290   5.913   0.548   2.514
 5273SOL     OW28291   0.225   7.127   1.340
 5273SOL    HW128292   0.130   7.155   1.331
 5273SOL    HW228293   0.229   7.039   1.388
 5274SOL     OW28294   5.986   4.564   7.092
 5274SOL    HW128295   5.954   4.636   7.030
 5274SOL    HW228296   6.043   4.604   7.164
 5275SOL     OW28297   3.323   0.957   2.691
 5275SOL    HW128298   3.265   0.895   2.743
 5275SOL    HW228299   3.376   0.905   2.623
 5276SOL     OW28300   4.424   2.644   4.393
 5276SOL    HW128301   4.372   2.593   4.461
 5276SOL    HW228302   4.361   2.677   4.322
 5277SOL     OW28303   0.550   4.224   5.157
 5277SOL    HW128304   0.503   4.267   5.234
 5277SOL    HW228305   0.492   4.225   5.076
 5278SOL     OW28306   0.498   2.875   7.207
 5278SOL    HW128307   0.492   2.782   7.172
 5278SOL    HW228308   0.414   2.925   7.182
 5279SOL     OW28309   1.703   2.472   1.731
 5279SOL    HW128310   1.793   2.504   1.758
 5279SOL    HW228311   1.682   2.505   1.639
 5280SOL     OW28312   2.361   5.429   0.505
 5280SOL    HW128313   2.361   5.334   0.471
 5280SOL    HW228314   2.364   5.492   0.428
 5281SOL     OW28315   2.366   3.390   1.074
 5281SOL    HW128316   2.340   3.303   1.033
 5281SOL    HW228317   2.387   3.456   1.001
 5282SOL     OW28318   3.339   6.281   6.813
 5282SOL    HW128319   3.279   6.237   6.746
 5282SOL    HW228320   3.409   6.217   6.842
 5283SOL     OW28321   7.150   2.525   1.091
 5283SOL    HW128322   7.170   2.470   1.010
 5283SOL    HW228323   7.062   2.498   1.128
 5284SOL     OW28324   0.852   3.131   7.302
 5284SOL    HW128325   0.765   3.166   7.269
 5284SOL    HW228326   0.885   3.188   7.377
 5285SOL     OW28327   6.765   5.959   6.391
 5285SOL    HW128328   6.768   5.985   6.488
 5285SOL    HW228329   6.739   6.038   6.336
 5286SOL     OW28330   1.809   7.153   0.052
 5286SOL    HW128331   1.829   7.055   0.055
 5286SOL    HW228332   1.725   7.171   0.103
 5287SOL     OW28333   6.387   0.861   6.537
 5287SOL    HW128334   6.487   0.866   6.538
 5287SOL    HW228335   6.358   0.766   6.547
 5288SOL     OW28336   5.540   3.075   3.495
 5288SOL    HW128337   5.564   2.981   3.522
 5288SOL    HW228338   5.518   3.077   3.398
 5289SOL     OW28339   3.502   1.306   2.521
 5289SOL    HW128340   3.508   1.212   2.487
 5289SOL    HW228341   3.590   1.352   2.510
 5290SOL     OW28342   2.911   6.045   6.296
 5290SOL    HW128343   2.984   6.111   6.316
 5290SOL    HW228344   2.936   5.955   6.332
 5291SOL     OW28345   6.968   4.655   5.134
 5291SOL    HW128346   6.921   4.671   5.221
 5291SOL    HW228347   6.954   4.560   5.106
 5292SOL     OW28348   4.320   4.073   2.311
 5292SOL    HW128349   4.416   4.085   2.333
 5292SOL    HW228350   4.310   4.001   2.242
 5293SOL     OW28351   6.319   1.456   6.133
 5293SOL    HW128352   6.263   1.375   6.114
 5293SOL    HW228353   6.399   1.456   6.073
 5294SOL     OW28354   0.471   1.375   2.620
 5294SOL    HW128355   0.444   1.288   2.580
 5294SOL    HW228356   0.521   1.429   2.552
 5295SOL     OW28357   4.385   6.211   4.928
 5295SOL    HW128358   4.306   6.248   4.880
 5295SOL    HW228359   4.440   6.157   4.864
 5296SOL     OW28360   2.293   3.491   5.459
 5296SOL    HW128361   2.321   3.403   5.496
 5296SOL    HW228362   2.221   3.531   5.516
 5297SOL     OW28363   2.905   4.607   5.130
 5297SOL    HW128364   2.811   4.595   5.164
 5297SOL    HW228365   2.962   4.645   5.202
 5298SOL     OW28366   6.214   4.487   5.080
 5298SOL    HW128367   6.186   4.531   4.995
 5298SOL    HW228368   6.134   4.448   5.126
 5299SOL     OW28369   1.990   5.864   4.474
 5299SOL    HW128370   2.008   5.799   4.547
 5299SOL    HW228371   1.998   5.818   4.385
 5300SOL     OW28372   3.238   3.721   6.925
 5300SOL    HW128373   3.146   3.693   6.900
 5300SOL    HW228374   3.281   3.768   6.848
 5301SOL     OW28375   5.429   5.930   6.767
 5301SOL    HW128376   5.403   6.007   6.826
 5301SOL    HW228377   5.409   5.844   6.815
 5302SOL     OW28378   7.086   4.903   1.940
 5302SOL    HW128379   7.131   4.821   1.905
 5302SOL    HW228380   7.082   4.898   2.040
 5303SOL     OW28381   2.334   1.375   1.783
 5303SOL    HW128382   2.292   1.337   1.865
 5303SOL    HW228383   2.408   1.314   1.753
 5304SOL     OW28384   3.977   6.755   4.157
 5304SOL    HW128385   3.921   6.826   4.200
 5304SOL    HW228386   3.933   6.666   4.170
 5305SOL     OW28387   1.609   0.678   5.892
 5305SOL    HW128388   1.640   0.744   5.961
 5305SOL    HW228389   1.688   0.632   5.852
 5306SOL     OW28390   5.518   6.426   3.393
 5306SOL    HW128391   5.421   6.436   3.414
 5306SOL    HW228392   5.529   6.408   3.295
 5307SOL     OW28393   4.564   0.845   3.428
 5307SOL    HW128394   4.520   0.872   3.514
 5307SOL    HW228395   4.562   0.745   3.420
 5308SOL     OW28396   3.927   6.600   5.214
 5308SOL    HW128397   3.960   6.694   5.212
 5308SOL    HW228398   3.851   6.593   5.279
 5309SOL     OW28399   3.053   2.949   6.203
 5309SOL    HW128400   3.060   2.865   6.149
 5309SOL    HW228401   3.141   2.968   6.246
 5310SOL     OW28402   3.441   4.571   4.622
 5310SOL    HW128403   3.537   4.546   4.607
 5310SOL    HW228404   3.425   4.664   4.589
 5311SOL     OW28405   1.053   4.234   1.409
 5311SOL    HW128406   1.084   4.256   1.316
 5311SOL    HW228407   1.068   4.313   1.469
 5312SOL     OW28408   4.995   0.098   1.637
 5312SOL    HW128409   5.006   0.009   1.592
 5312SOL    HW228410   5.042   0.096   1.725
 5313SOL     OW28411   1.163   1.353   1.593
 5313SOL    HW128412   1.070   1.385   1.579
 5313SOL    HW228413   1.211   1.416   1.654
 5314SOL     OW28414   7.329   5.188   0.303
 5314SOL    HW128415   7.238   5.213   0.271
 5314SOL    HW228416   7.379   5.270   0.329
 5315SOL     OW28417   1.012   5.070   1.536
 5315SOL    HW128418   1.053   5.058   1.627
 5315SOL    HW228419   0.949   5.147   1.538
 5316SOL     OW28420   1.986   7.087   1.089
 5316SOL    HW128421   1.904   7.134   1.056
 5316SOL    HW228422   1.962   7.026   1.164
 5317SOL     OW28423   6.995   2.533   3.946
 5317SOL    HW128424   6.945   2.488   3.872
 5317SOL    HW228425   7.014   2.467   4.018
 5318SOL     OW28426   1.977   7.104   6.944
 5318SOL    HW128427   1.902   7.068   6.999
 5318SOL    HW228428   2.039   7.157   7.002
 5319SOL     OW28429   5.756   3.883   6.473
 5319SOL    HW128430   5.811   3.853   6.395
 5319SOL    HW228431   5.785   3.834   6.555
 5320SOL     OW28432   5.840   4.832   3.886
 5320SOL    HW128433   5.880   4.859   3.973
 5320SOL    HW228434   5.912   4.830   3.816
 5321SOL     OW28435   1.222   2.528   5.279
 5321SOL    HW128436   1.311   2.573   5.275
 5321SOL    HW228437   1.150   2.598   5.287
 5322SOL     OW28438   3.250   5.005   2.363
 5322SOL    HW128439   3.329   5.065   2.373
 5322SOL    HW228440   3.177   5.054   2.315
 5323SOL     OW28441   2.817   6.845   5.419
 5323SOL    HW128442   2.896   6.904   5.404
 5323SOL    HW228443   2.817   6.771   5.352
 5324SOL     OW28444   5.573   6.293   5.261
 5324SOL    HW128445   5.522   6.363   5.312
 5324SOL    HW228446   5.616   6.334   5.181
 5325SOL     OW28447   5.792   5.783   5.815
 5325SOL    HW128448   5.855   5.737   5.877
 5325SOL    HW228449   5.795   5.882   5.831
 5326SOL     OW28450   3.195   4.398   3.446
 5326SOL    HW128451   3.292   4.422   3.442
 5326SOL    HW228452   3.151   4.418   3.358
 5327SOL     OW28453   4.112   4.596   0.718
 5327SOL    HW128454   4.121   4.501   0.686
 5327SOL    HW228455   4.152   4.605   0.809
 5328SOL     OW28456   1.825   6.475   1.050
 5328SOL    HW128457   1.900   6.530   1.014
 5328SOL    HW228458   1.851   6.378   1.048
 5329SOL     OW28459   3.129   3.797   2.114
 5329SOL    HW128460   3.124   3.824   2.017
 5329SOL    HW228461   3.040   3.814   2.157
 5330SOL     OW28462   6.728   3.353   5.827
 5330SOL    HW128463   6.807   3.407   5.799
 5330SOL    HW228464   6.740   3.323   5.921
 5331SOL     OW28465   0.741   3.522   4.340
 5331SOL    HW128466   0.736   3.446   4.276
 5331SOL    HW228467   0.653   3.570   4.342
 5332SOL     OW28468   1.129   3.250   5.933
 5332SOL    HW128469   1.052   3.305   5.967
 5332SOL    HW228470   1.190   3.309   5.879
 5333SOL     OW28471   0.636   5.476   0.973
 5333SOL    HW128472   0.579   5.448   0.895
 5333SOL    HW228473   0.674   5.394   1.017
 5334SOL     OW28474   4.452   2.803   3.895
 5334SOL    HW128475   4.389   2.860   3.948
 5334SOL    HW228476   4.454   2.835   3.800
 5335SOL     OW28477   2.160   6.904   6.350
 5335SOL    HW128478   2.081   6.955   6.318
 5335SOL    HW228479   2.244   6.956   6.333
 5336SOL     OW28480   2.675   1.158   1.215
 5336SOL    HW128481   2.625   1.186   1.133
 5336SOL    HW228482   2.659   1.060   1.232
 5337SOL     OW28483   4.578   3.727   6.201
 5337SOL    HW128484   4.546   3.650   6.257
 5337SOL    HW228485   4.543   3.717   6.108
 5338SOL     OW28486   5.521   5.648   3.052
 5338SOL    HW128487   5.455   5.715   3.086
 5338SOL    HW228488   5.510   5.561   3.101
 5339SOL     OW28489   3.417   2.780   7.196
 5339SOL    HW128490   3.327   2.797   7.155
 5339SOL    HW228491   3.479   2.744   7.128
 5340SOL     OW28492   1.295   3.713   6.728
 5340SOL    HW128493   1.280   3.782   6.799
 5340SOL    HW228494   1.253   3.627   6.756
 5341SOL     OW28495   5.620   1.272   4.082
 5341SOL    HW128496   5.606   1.338   4.008
 5341SOL    HW228497   5.533   1.228   4.105
 5342SOL     OW28498   1.620   4.203   0.452
 5342SOL    HW128499   1.563   4.244   0.381
 5342SOL    HW228500   1.709   4.178   0.414
 5343SOL     OW28501   4.571   1.247   6.633
 5343SOL    HW128502   4.543   1.162   6.678
 5343SOL    HW228503   4.609   1.310   6.700
 5344SOL     OW28504   2.251   2.708   5.931
 5344SOL    HW128505   2.200   2.633   5.888
 5344SOL    HW228506   2.299   2.760   5.860
 5345SOL     OW28507   3.643   2.068   6.644
 5345SOL    HW128508   3.652   1.983   6.695
 5345SOL    HW228509   3.547   2.080   6.616
 5346SOL     OW28510   5.742   1.128   2.980
 5346SOL    HW128511   5.657   1.094   2.939
 5346SOL    HW228512   5.806   1.155   2.908
 5347SOL     OW28513   5.361   2.280   0.265
 5347SOL    HW128514   5.290   2.223   0.223
 5347SOL    HW228515   5.370   2.255   0.362
 5348SOL     OW28516   2.434   3.355   4.879
 5348SOL    HW128517   2.350   3.355   4.825
 5348SOL    HW228518   2.412   3.342   4.975
 5349SOL     OW28519   0.911   0.913   6.854
 5349SOL    HW128520   0.893   0.824   6.812
 5349SOL    HW228521   0.852   0.982   6.812
 5350SOL     OW28522   5.270   0.923   2.964
 5350SOL    HW128523   5.199   0.978   2.919
 5350SOL    HW228524   5.256   0.925   3.063
 5351SOL     OW28525   3.938   0.656   6.225
 5351SOL    HW128526   3.858   0.652   6.165
 5351SOL    HW228527   3.912   0.623   6.316
 5352SOL     OW28528   6.694   0.572   0.648
 5352SOL    HW128529   6.784   0.528   0.647
 5352SOL    HW228530   6.683   0.624   0.732
 5353SOL     OW28531   6.506   1.278   6.764
 5353SOL    HW128532   6.498   1.329   6.678
 5353SOL    HW228533   6.454   1.193   6.757
 5354SOL     OW28534   4.468   2.259   5.887
 5354SOL    HW128535   4.456   2.221   5.980
 5354SOL    HW228536   4.378   2.277   5.847
 5355SOL     OW28537   3.629   0.003   4.402
 5355SOL    HW128538   3.685   0.034   4.479
 5355SOL    HW228539   3.673   8.925   4.358
 5356SOL     OW28540   2.171   1.123   6.483
 5356SOL    HW128541   2.131   1.071   6.408
 5356SOL    HW228542   2.225   1.063   6.542
 5357SOL     OW28543   2.799   5.091   6.881
 5357SOL    HW128544   2.789   5.039   6.966
 5357SOL    HW228545   2.738   5.054   6.811
 5358SOL     OW28546   5.055   5.664   6.019
 5358SOL    HW128547   5.031   5.711   5.934
 5358SOL    HW228548   4.989   5.688   6.090
 5359SOL     OW28549   1.832   0.544   5.340
 5359SOL    HW128550   1.881   0.456   5.344
 5359SOL    HW228551   1.899   0.619   5.335
 5360SOL     OW28552   4.953   0.888   1.976
 5360SOL    HW128553   4.961   0.901   2.075
 5360SOL    HW228554   5.004   0.807   1.949
 5361SOL     OW28555   0.582   5.144   3.757
 5361SOL    HW128556   0.522   5.172   3.832
 5361SOL    HW228557   0.619   5.225   3.712
 5362SOL     OW28558   6.225   5.027   4.675
 5362SOL    HW128559   6.299   4.979   4.628
 5362SOL    HW228560   6.167   5.072   4.607
 5363SOL     OW28561   4.570   3.239   3.040
 5363SOL    HW128562   4.599   3.325   3.082
 5363SOL    HW228563   4.558   3.170   3.111
 5364SOL     OW28564   0.039   0.305   7.154
 5364SOL    HW128565   8.972   0.370   7.189
 5364SOL    HW228566   8.995   0.216   7.141
 5365SOL     OW28567   6.323   7.250   6.737
 5365SOL    HW128568   6.283   7.333   6.777
 5365SOL    HW228569   6.334   7.181   6.809
 5366SOL     OW28570   3.175   0.471   3.235
 5366SOL    HW128571   3.172   0.406   3.311
 5366SOL    HW228572   3.158   0.422   3.149
 5367SOL     OW28573   3.395   3.057   0.748
 5367SOL    HW128574   3.482   3.102   0.769
 5367SOL    HW228575   3.321   3.123   0.758
 5368SOL     OW28576   4.725   0.735   0.310
 5368SOL    HW128577   4.813   0.739   0.262
 5368SOL    HW228578   4.696   0.828   0.333
 5369SOL     OW28579   3.569   7.150   0.849
 5369SOL    HW128580   3.554   7.249   0.854
 5369SOL    HW228581   3.505   7.110   0.783
 5370SOL     OW28582   1.487   0.105   6.689
 5370SOL    HW128583   1.580   0.120   6.722
 5370SOL    HW228584   1.488   0.093   6.590
 5371SOL     OW28585   6.596   1.945   0.805
 5371SOL    HW128586   6.515   1.998   0.781
 5371SOL    HW228587   6.596   1.859   0.755
 5372SOL     OW28588   1.187   4.653   3.630
 5372SOL    HW128589   1.177   4.578   3.564
 5372SOL    HW228590   1.190   4.740   3.580
 5373SOL     OW28591   5.805   5.536   4.260
 5373SOL    HW128592   5.717   5.489   4.265
 5373SOL    HW228593   5.878   5.474   4.286
 5374SOL     OW28594   4.155   1.067   7.270
 5374SOL    HW128595   4.207   1.021   7.342
 5374SOL    HW228596   4.143   1.006   7.192
 5375SOL     OW28597   3.841   1.724   5.691
 5375SOL    HW128598   3.768   1.773   5.739
 5375SOL    HW228599   3.822   1.626   5.693
 5376SOL     OW28600   1.752   2.208   1.214
 5376SOL    HW128601   1.838   2.240   1.253
 5376SOL    HW228602   1.724   2.123   1.258
 5377SOL     OW28603   3.121   6.533   0.954
 5377SOL    HW128604   3.076   6.617   0.985
 5377SOL    HW228605   3.156   6.483   1.033
 5378SOL     OW28606   0.528   0.504   2.108
 5378SOL    HW128607   0.551   0.598   2.084
 5378SOL    HW228608   0.429   0.492   2.101
 5379SOL     OW28609   1.448   1.613   1.545
 5379SOL    HW128610   1.508   1.538   1.518
 5379SOL    HW228611   1.391   1.640   1.468
 5380SOL     OW28612   3.289   3.403   6.473
 5380SOL    HW128613   3.277   3.342   6.394
 5380SOL    HW228614   3.252   3.359   6.555
 5381SOL     OW28615   2.136   3.596   2.332
 5381SOL    HW128616   2.140   3.595   2.232
 5381SOL    HW228617   2.229   3.602   2.369
 5382SOL     OW28618   5.743   3.175   3.230
 5382SOL    HW128619   5.650   3.138   3.230
 5382SOL    HW228620   5.770   3.200   3.137
 5383SOL     OW28621   5.882   6.370   2.134
 5383SOL    HW128622   5.942   6.318   2.194
 5383SOL    HW228623   5.919   6.370   2.041
 5384SOL     OW28624   6.693   1.673   5.983
 5384SOL    HW128625   6.750   1.723   5.917
 5384SOL    HW228626   6.701   1.717   6.072
 5385SOL     OW28627   5.760   2.053   4.921
 5385SOL    HW128628   5.775   1.960   4.887
 5385SOL    HW228629   5.674   2.056   4.972
 5386SOL     OW28630   7.307   4.666   3.387
 5386SOL    HW128631   7.343   4.640   3.298
 5386SOL    HW228632   7.380   4.665   3.455
 5387SOL     OW28633   6.106   5.399   0.108
 5387SOL    HW128634   6.061   5.312   0.089
 5387SOL    HW228635   6.045   5.474   0.082
 5388SOL     OW28636   5.579   0.550   1.464
 5388SOL    HW128637   5.546   0.611   1.392
 5388SOL    HW228638   5.622   0.469   1.422
 5389SOL     OW28639   3.782   1.723   0.539
 5389SOL    HW128640   3.719   1.744   0.464
 5389SOL    HW228641   3.817   1.809   0.578
 5390SOL     OW28642   0.332   1.369   0.341
 5390SOL    HW128643   0.419   1.352   0.296
 5390SOL    HW228644   0.284   1.283   0.355
 5391SOL     OW28645   3.130   6.857   5.609
 5391SOL    HW128646   3.098   6.763   5.596
 5391SOL    HW228647   3.064   6.907   5.665
 5392SOL     OW28648   6.103   2.075   0.856
 5392SOL    HW128649   6.081   2.166   0.889
 5392SOL    HW228650   6.036   2.047   0.787
 5393SOL     OW28651   6.191   2.855   4.941
 5393SOL    HW128652   6.213   2.758   4.931
 5393SOL    HW228653   6.101   2.873   4.903
 5394SOL     OW28654   6.301   1.527   5.588
 5394SOL    HW128655   6.242   1.567   5.658
 5394SOL    HW228656   6.253   1.528   5.500
 5395SOL     OW28657   2.734   3.674   3.756
 5395SOL    HW128658   2.820   3.691   3.804
 5395SOL    HW228659   2.657   3.698   3.815
 5396SOL     OW28660   5.530   6.339   3.848
 5396SOL    HW128661   5.557   6.434   3.841
 5396SOL    HW228662   5.499   6.320   3.942
 5397SOL     OW28663   5.571   1.238   0.821
 5397SOL    HW128664   5.646   1.190   0.866
 5397SOL    HW228665   5.497   1.173   0.801
 5398SOL     OW28666   2.134   4.025   2.636
 5398SOL    HW128667   2.097   3.997   2.724
 5398SOL    HW228668   2.223   4.068   2.649
 5399SOL     OW28669   1.024   6.631   7.034
 5399SOL    HW128670   1.052   6.535   7.036
 5399SOL    HW228671   1.013   6.664   7.128
 5400SOL     OW28672   4.545   6.781   2.554
 5400SOL    HW128673   4.499   6.844   2.492
 5400SOL    HW228674   4.638   6.763   2.520
 5401SOL     OW28675   6.868   5.431   6.915
 5401SOL    HW128676   6.864   5.502   6.844
 5401SOL    HW228677   6.895   5.473   7.002
 5402SOL     OW28678   3.637   6.071   3.264
 5402SOL    HW128679   3.580   6.091   3.184
 5402SOL    HW228680   3.733   6.089   3.242
 5403SOL     OW28681   0.195   2.609   1.134
 5403SOL    HW128682   0.204   2.550   1.054
 5403SOL    HW228683   0.276   2.667   1.143
 5404SOL     OW28684   6.376   5.839   0.656
 5404SOL    HW128685   6.451   5.800   0.603
 5404SOL    HW228686   6.385   5.812   0.752
 5405SOL     OW28687   2.549   3.208   6.199
 5405SOL    HW128688   2.481   3.272   6.235
 5405SOL    HW228689   2.611   3.256   6.137
 5406SOL     OW28690   1.134   5.675   0.844
 5406SOL    HW128691   1.149   5.773   0.862
 5406SOL    HW228692   1.044   5.649   0.879
 5407SOL     OW28693   1.643   3.974   6.253
 5407SOL    HW128694   1.663   3.993   6.156
 5407SOL    HW228695   1.663   4.056   6.307
 5408SOL     OW28696   6.247   0.432   1.313
 5408SOL    HW128697   6.317   0.380   1.264
 5408SOL    HW228698   6.173   0.456   1.249
 5409SOL     OW28699   4.192   2.225   7.366
 5409SOL    HW128700   4.174   2.138   7.321
 5409SOL    HW228701   4.106   2.276   7.376
 5410SOL     OW28702   2.677   2.965   1.641
 5410SOL    HW128703   2.600   2.997   1.586
 5410SOL    HW228704   2.643   2.913   1.719
 5411SOL     OW28705   3.056   7.224   5.436
 5411SOL    HW128706   2.959   7.249   5.434
 5411SOL    HW228707   3.065   7.128   5.408
 5412SOL     OW28708   6.794   1.779   2.695
 5412SOL    HW128709   6.824   1.789   2.790
 5412SOL    HW228710   6.710   1.725   2.691
 5413SOL     OW28711   1.518   7.081   6.947
 5413SOL    HW128712   1.456   7.079   7.026
 5413SOL    HW228713   1.484   7.147   6.880
 5414SOL     OW28714   5.124   6.394   6.375
 5414SOL    HW128715   5.078   6.445   6.303
 5414SOL    HW228716   5.069   6.398   6.459
 5415SOL     OW28717   4.273   1.730   2.640
 5415SOL    HW128718   4.205   1.803   2.637
 5415SOL    HW228719   4.230   1.644   2.667
 5416SOL     OW28720   2.509   5.923   3.347
 5416SOL    HW128721   2.581   5.992   3.335
 5416SOL    HW228722   2.495   5.906   3.445
 5417SOL     OW28723   3.370   0.468   3.585
 5417SOL    HW128724   3.292   0.418   3.547
 5417SOL    HW228725   3.368   0.463   3.685
 5418SOL     OW28726   2.891   0.310   3.778
 5418SOL    HW128727   2.964   0.331   3.844
 5418SOL    HW228728   2.895   0.375   3.702
 5419SOL     OW28729   5.096   0.131   0.387
 5419SOL    HW128730   5.068   0.225   0.367
 5419SOL    HW228731   5.030   0.090   0.450
 5420SOL     OW28732   1.609   2.463   0.949
 5420SOL    HW128733   1.615   2.364   0.941
 5420SOL    HW228734   1.540   2.498   0.885
 5421SOL     OW28735   7.060   5.930   7.234
 5421SOL    HW128736   7.024   5.852   7.286
 5421SOL    HW228737   6.984   5.976   7.188
 5422SOL     OW28738   3.711   7.308   6.780
 5422SOL    HW128739   3.742   7.350   6.694
 5422SOL    HW228740   3.750   7.357   6.857
 5423SOL     OW28741   5.034   6.018   5.311
 5423SOL    HW128742   5.133   6.011   5.295
 5423SOL    HW228743   4.998   5.929   5.337
 5424SOL     OW28744   0.977   2.036   0.942
 5424SOL    HW128745   0.998   2.133   0.928
 5424SOL    HW228746   1.024   1.981   0.873
 5425SOL     OW28747   0.763   1.659   2.594
 5425SOL    HW128748   0.857   1.653   2.561
 5425SOL    HW228749   0.701   1.618   2.527
 5426SOL     OW28750   0.252   5.740   6.003
 5426SOL    HW128751   0.262   5.791   6.089
 5426SOL    HW228752   0.287   5.796   5.928
 5427SOL     OW28753   1.614   1.128   6.834
 5427SOL    HW128754   1.700   1.085   6.861
 5427SOL    HW228755   1.538   1.067   6.857
 5428SOL     OW28756   2.755   5.774   0.989
 5428SOL    HW128757   2.731   5.760   0.893
 5428SOL    HW228758   2.680   5.743   1.047
 5429SOL     OW28759   3.189   3.186   4.205
 5429SOL    HW128760   3.224   3.223   4.291
 5429SOL    HW228761   3.105   3.134   4.223
 5430SOL     OW28762   4.698   2.654   4.415
 5430SOL    HW128763   4.743   2.611   4.337
 5430SOL    HW228764   4.599   2.654   4.401
 5431SOL     OW28765   4.741   6.228   4.519
 5431SOL    HW128766   4.735   6.237   4.419
 5431SOL    HW228767   4.826   6.184   4.544
 5432SOL     OW28768   1.554   5.666   3.140
 5432SOL    HW128769   1.484   5.653   3.209
 5432SOL    HW228770   1.644   5.670   3.183
 5433SOL     OW28771   3.064   2.065   2.250
 5433SOL    HW128772   3.132   2.056   2.323
 5433SOL    HW228773   3.037   1.974   2.218
 5434SOL     OW28774   5.208   0.208   7.316
 5434SOL    HW128775   5.249   0.171   7.400
 5434SOL    HW228776   5.123   0.159   7.297
 5435SOL     OW28777   4.015   0.603   1.973
 5435SOL    HW128778   4.042   0.689   2.018
 5435SOL    HW228779   4.062   0.596   1.885
 5436SOL     OW28780   4.598   4.587   2.437
 5436SOL    HW128781   4.504   4.566   2.465
 5436SOL    HW228782   4.660   4.572   2.514
 5437SOL     OW28783   6.899   1.817   3.423
 5437SOL    HW128784   6.933   1.754   3.493
 5437SOL    HW228785   6.801   1.802   3.410
 5438SOL     OW28786   4.744   0.496   5.792
 5438SOL    HW128787   4.834   0.512   5.831
 5438SOL    HW228788   4.750   0.428   5.720
 5439SOL     OW28789   2.768   1.393   1.297
 5439SOL    HW128790   2.738   1.303   1.267
 5439SOL    HW228791   2.714   1.422   1.376
 5440SOL     OW28792   3.892   7.103   7.236
 5440SOL    HW128793   3.923   7.041   7.164
 5440SOL    HW228794   3.795   7.086   7.255
 5441SOL     OW28795   3.388   2.027   1.927
 5441SOL    HW128796   3.335   2.085   1.989
 5441SOL    HW228797   3.329   1.996   1.853
 5442SOL     OW28798   1.488   0.955   3.738
 5442SOL    HW128799   1.541   0.880   3.698
 5442SOL    HW228800   1.490   1.034   3.676
 5443SOL     OW28801   2.931   4.686   0.135
 5443SOL    HW128802   3.011   4.629   0.151
 5443SOL    HW228803   2.949   4.779   0.166
 5444SOL     OW28804   6.121   5.926   5.939
 5444SOL    HW128805   6.083   6.009   5.897
 5444SOL    HW228806   6.216   5.942   5.963
 5445SOL     OW28807   3.298   1.929   0.443
 5445SOL    HW128808   3.370   1.948   0.509
 5445SOL    HW228809   3.227   1.874   0.486
 5446SOL     OW28810   4.602   2.593   4.674
 5446SOL    HW128811   4.563   2.501   4.663
 5446SOL    HW228812   4.647   2.621   4.589
 5447SOL     OW28813   6.769   4.919   4.095
 5447SOL    HW128814   6.718   4.977   4.032
 5447SOL    HW228815   6.751   4.948   4.189
 5448SOL     OW28816   6.549   1.171   5.998
 5448SOL    HW128817   6.541   1.271   5.993
 5448SOL    HW228818   6.581   1.137   5.910
 5449SOL     OW28819   1.755   1.015   3.560
 5449SOL    HW128820   1.676   1.076   3.556
 5449SOL    HW228821   1.725   0.923   3.582
 5450SOL     OW28822   0.888   3.191   3.966
 5450SOL    HW128823   0.976   3.221   3.931
 5450SOL    HW228824   0.837   3.144   3.893
 5451SOL     OW28825   4.147   8.995   5.434
 5451SOL    HW128826   4.214   0.051   5.386
 5451SOL    HW228827   4.104   8.932   5.370
 5452SOL     OW28828   1.393   3.141   0.780
 5452SOL    HW128829   1.391   3.240   0.769
 5452SOL    HW228830   1.299   3.107   0.792
 5453SOL     OW28831   2.398   4.952   1.997
 5453SOL    HW128832   2.449   4.945   1.911
 5453SOL    HW228833   2.425   4.876   2.057
 5454SOL     OW28834   1.442   3.237   3.314
 5454SOL    HW128835   1.476   3.174   3.244
 5454SOL    HW228836   1.458   3.199   3.404
 5455SOL     OW28837   7.088   2.243   6.127
 5455SOL    HW128838   7.095   2.153   6.169
 5455SOL    HW228839   7.109   2.235   6.029
 5456SOL     OW28840   3.268   5.540   5.860
 5456SOL    HW128841   3.205   5.563   5.785
 5456SOL    HW228842   3.358   5.518   5.821
 5457SOL     OW28843   6.631   4.089   1.326
 5457SOL    HW128844   6.652   4.178   1.285
 5457SOL    HW228845   6.610   4.101   1.423
 5458SOL     OW28846   3.869   0.197   6.616
 5458SOL    HW128847   3.811   0.278   6.628
 5458SOL    HW228848   3.873   0.173   6.519
 5459SOL     OW28849   0.937   2.827   6.012
 5459SOL    HW128850   1.005   2.789   6.075
 5459SOL    HW228851   0.854   2.851   6.063
 5460SOL     OW28852   4.375   7.233   3.095
 5460SOL    HW128853   4.361   7.312   3.037
 5460SOL    HW228854   4.406   7.155   3.040
 5461SOL     OW28855   0.955   4.178   4.490
 5461SOL    HW128856   0.906   4.100   4.452
 5461SOL    HW228857   1.015   4.146   4.563
 5462SOL     OW28858   2.772   2.525   2.149
 5462SOL    HW128859   2.733   2.611   2.117
 5462SOL    HW228860   2.733   2.449   2.097
 5463SOL     OW28861   4.181   3.092   4.939
 5463SOL    HW128862   4.192   3.179   4.889
 5463SOL    HW228863   4.161   3.111   5.035
 5464SOL     OW28864   7.264   3.651   6.088
 5464SOL    HW128865   7.213   3.725   6.044
 5464SOL    HW228866   7.353   3.685   6.118
 5465SOL     OW28867   5.594   2.428   2.911
 5465SOL    HW128868   5.655   2.443   2.833
 5465SOL    HW228869   5.506   2.393   2.878
 5466SOL     OW28870   0.314   1.631   2.035
 5466SOL    HW128871   0.285   1.640   1.939
 5466SOL    HW228872   0.325   1.535   2.057
 5467SOL     OW28873   2.098   0.468   1.159
 5467SOL    HW128874   2.022   0.446   1.221
 5467SOL    HW228875   2.105   0.567   1.151
 5468SOL     OW28876   0.624   5.681   1.557
 5468SOL    HW128877   0.552   5.749   1.569
 5468SOL    HW228878   0.633   5.659   1.460
 5469SOL     OW28879   6.620   5.683   5.410
 5469SOL    HW128880   6.576   5.696   5.321
 5469SOL    HW228881   6.719   5.683   5.398
 5470SOL     OW28882   1.086   3.246   0.133
 5470SOL    HW128883   1.099   3.338   0.097
 5470SOL    HW228884   1.062   3.252   0.230
 5471SOL     OW28885   6.205   5.514   3.265
 5471SOL    HW128886   6.146   5.437   3.290
 5471SOL    HW228887   6.200   5.529   3.167
 5472SOL     OW28888   4.612   4.467   5.904
 5472SOL    HW128889   4.556   4.493   5.983
 5472SOL    HW228890   4.679   4.398   5.932
 5473SOL     OW28891   7.045   4.039   4.046
 5473SOL    HW128892   6.951   4.032   4.015
 5473SOL    HW228893   7.060   3.977   4.123
 5474SOL     OW28894   0.945   3.704   6.374
 5474SOL    HW128895   1.032   3.740   6.408
 5474SOL    HW228896   0.919   3.622   6.425
 5475SOL     OW28897   3.519   3.106   1.791
 5475SOL    HW128898   3.512   3.090   1.693
 5475SOL    HW228899   3.513   3.018   1.839
 5476SOL     OW28900   6.377   2.740   3.176
 5476SOL    HW128901   6.313   2.782   3.240
 5476SOL    HW228902   6.332   2.725   3.088
 5477SOL     OW28903   4.468   6.751   6.386
 5477SOL    HW128904   4.383   6.804   6.383
 5477SOL    HW228905   4.481   6.704   6.299
 5478SOL     OW28906   5.299   3.501   5.758
 5478SOL    HW128907   5.341   3.553   5.685
 5478SOL    HW228908   5.216   3.455   5.724
 5479SOL     OW28909   1.041   0.790   5.788
 5479SOL    HW128910   1.123   0.793   5.732
 5479SOL    HW228911   0.964   0.756   5.734
 5480SOL     OW28912   5.550   0.458   4.679
 5480SOL    HW128913   5.588   0.509   4.756
 5480SOL    HW228914   5.530   0.365   4.707
 5481SOL     OW28915   4.600   6.203   3.849
 5481SOL    HW128916   4.546   6.196   3.933
 5481SOL    HW228917   4.692   6.167   3.866
 5482SOL     OW28918   2.515   1.864   6.122
 5482SOL    HW128919   2.418   1.887   6.111
 5482SOL    HW228920   2.567   1.902   6.046
 5483SOL     OW28921   4.841   3.859   2.541
 5483SOL    HW128922   4.789   3.811   2.470
 5483SOL    HW228923   4.910   3.798   2.579
 5484SOL     OW28924   4.692   1.506   0.070
 5484SOL    HW128925   4.765   1.543   0.012
 5484SOL    HW228926   4.710   1.531   0.166
 5485SOL     OW28927   3.833   2.916   6.592
 5485SOL    HW128928   3.879   3.005   6.587
 5485SOL    HW228929   3.893   2.845   6.553
 5486SOL     OW28930   7.030   5.828   2.078
 5486SOL    HW128931   7.061   5.740   2.042
 5486SOL    HW228932   7.085   5.852   2.158
 5487SOL     OW28933   3.854   0.967   6.759
 5487SOL    HW128934   3.785   0.896   6.775
 5487SOL    HW228935   3.945   0.927   6.760
 5488SOL     OW28936   4.958   6.452   0.422
 5488SOL    HW128937   5.010   6.523   0.375
 5488SOL    HW228938   4.922   6.488   0.508
 5489SOL     OW28939   6.169   2.340   6.370
 5489SOL    HW128940   6.230   2.350   6.291
 5489SOL    HW228941   6.207   2.390   6.448
 5490SOL     OW28942   2.762   4.723   7.356
 5490SOL    HW128943   2.731   4.818   7.362
 5490SOL    HW228944   2.858   4.718   7.384
 5491SOL     OW28945   5.004   1.407   5.910
 5491SOL    HW128946   4.991   1.434   5.814
 5491SOL    HW228947   4.950   1.466   5.969
 5492SOL     OW28948   5.461   6.780   4.991
 5492SOL    HW128949   5.521   6.714   4.947
 5492SOL    HW228950   5.410   6.735   5.065
 5493SOL     OW28951   2.821   1.792   5.747
 5493SOL    HW128952   2.828   1.695   5.723
 5493SOL    HW228953   2.803   1.845   5.664
 5494SOL     OW28954   5.686   6.886   5.144
 5494SOL    HW128955   5.601   6.867   5.095
 5494SOL    HW228956   5.764   6.867   5.084
 5495SOL     OW28957   1.821   0.102   0.835
 5495SOL    HW128958   1.863   0.185   0.870
 5495SOL    HW228959   1.739   0.125   0.783
 5496SOL     OW28960   6.407   4.813   5.846
 5496SOL    HW128961   6.461   4.753   5.905
 5496SOL    HW228962   6.445   4.809   5.753
 5497SOL     OW28963   5.790   2.562   4.407
 5497SOL    HW128964   5.842   2.494   4.458
 5497SOL    HW228965   5.803   2.547   4.309
 5498SOL     OW28966   3.176   6.131   6.640
 5498SOL    HW128967   3.098   6.124   6.702
 5498SOL    HW228968   3.236   6.051   6.652
 5499SOL     OW28969   4.587   0.199   1.194
 5499SOL    HW128970   4.564   0.218   1.098
 5499SOL    HW228971   4.517   0.141   1.234
 5500SOL     OW28972   6.988   0.220   4.943
 5500SOL    HW128973   7.049   0.198   5.019
 5500SOL    HW228974   6.912   0.276   4.976
 5501SOL     OW28975   4.254   6.658   4.664
 5501SOL    HW128976   4.287   6.632   4.573
 5501SOL    HW228977   4.323   6.713   4.711
 5502SOL     OW28978   2.412   5.165   2.903
 5502SOL    HW128979   2.356   5.159   2.821
 5502SOL    HW228980   2.487   5.099   2.897
 5503SOL     OW28981   3.417   1.409   6.138
 5503SOL    HW128982   3.325   1.447   6.129
 5503SOL    HW228983   3.458   1.399   6.047
 5504SOL     OW28984   6.458   6.247   5.960
 5504SOL    HW128985   6.539   6.305   5.957
 5504SOL    HW228986   6.381   6.296   5.917
 5505SOL     OW28987   2.872   3.843   2.179
 5505SOL    HW128988   2.801   3.776   2.201
 5505SOL    HW228989   2.838   3.906   2.110
 5506SOL     OW28990   6.427   4.933   3.771
 5506SOL    HW128991   6.451   4.941   3.674
 5506SOL    HW228992   6.363   5.006   3.795
 5507SOL     OW28993   5.424   2.129   3.020
 5507SOL    HW128994   5.405   2.201   2.953
 5507SOL    HW228995   5.522   2.112   3.025
 5508SOL     OW28996   4.720   6.111   5.712
 5508SOL    HW128997   4.706   6.145   5.805
 5508SOL    HW228998   4.818   6.094   5.697
 5509SOL     OW28999   1.915   2.654   3.828
 5509SOL    HW129000   1.880   2.569   3.867
 5509SOL    HW229001   1.946   2.637   3.734
 5510SOL     OW29002   4.638   6.700   6.818
 5510SOL    HW129003   4.716   6.752   6.782
 5510SOL    HW229004   4.588   6.657   6.743
 5511SOL     OW29005   6.447   5.163   6.852
 5511SOL    HW129006   6.423   5.077   6.897
 5511SOL    HW229007   6.545   5.179   6.861
 5512SOL     OW29008   3.490   4.373   7.300
 5512SOL    HW129009   3.508   4.360   7.203
 5512SOL    HW229010   3.532   4.299   7.352
 5513SOL     OW29011   3.785   2.058   0.842
 5513SOL    HW129012   3.756   1.985   0.904
 5513SOL    HW229013   3.831   2.018   0.762
 5514SOL     OW29014   2.371   5.165   0.435
 5514SOL    HW129015   2.288   5.110   0.432
 5514SOL    HW229016   2.441   5.116   0.486
 5515SOL     OW29017   2.490   7.333   5.990
 5515SOL    HW129018   2.484   7.430   5.967
 5515SOL    HW229019   2.416   7.309   6.053
 5516SOL     OW29020   4.017   1.362   1.858
 5516SOL    HW129021   4.004   1.269   1.825
 5516SOL    HW229022   4.100   1.401   1.817
 5517SOL     OW29023   0.345   6.500   1.393
 5517SOL    HW129024   0.331   6.415   1.344
 5517SOL    HW229025   0.343   6.483   1.491
 5518SOL     OW29026   3.922   5.825   6.355
 5518SOL    HW129027   3.835   5.860   6.320
 5518SOL    HW229028   3.980   5.798   6.278
 5519SOL     OW29029   0.660   7.100   7.235
 5519SOL    HW129030   0.736   7.045   7.201
 5519SOL    HW229031   0.688   7.148   7.318
 5520SOL     OW29032   6.783   4.708   6.819
 5520SOL    HW129033   6.798   4.805   6.799
 5520SOL    HW229034   6.769   4.696   6.917
 5521SOL     OW29035   2.549   1.589   0.505
 5521SOL    HW129036   2.511   1.521   0.567
 5521SOL    HW229037   2.635   1.623   0.541
 5522SOL     OW29038   7.198   0.405   2.879
 5522SOL    HW129039   7.132   0.330   2.872
 5522SOL    HW229040   7.291   0.368   2.885
 5523SOL     OW29041   1.899   5.449   0.587
 5523SOL    HW129042   1.987   5.496   0.579
 5523SOL    HW229043   1.829   5.514   0.618
 5524SOL     OW29044   2.213   5.132   1.096
 5524SOL    HW129045   2.186   5.036   1.106
 5524SOL    HW229046   2.225   5.153   0.999
 5525SOL     OW29047   3.717   2.055   1.283
 5525SOL    HW129048   3.750   2.116   1.211
 5525SOL    HW229049   3.795   2.006   1.323
 5526SOL     OW29050   3.676   1.693   6.510
 5526SOL    HW129051   3.763   1.652   6.483
 5526SOL    HW229052   3.601   1.646   6.464
 5527SOL     OW29053   4.996   1.644   6.264
 5527SOL    HW129054   5.022   1.737   6.240
 5527SOL    HW229055   5.079   1.590   6.281
 5528SOL     OW29056   4.568   4.140   5.580
 5528SOL    HW129057   4.632   4.212   5.556
 5528SOL    HW229058   4.614   4.051   5.575
 5529SOL     OW29059   5.954   5.057   7.192
 5529SOL    HW129060   5.894   5.046   7.113
 5529SOL    HW229061   5.932   4.989   7.261
 5530SOL     OW29062   4.782   6.584   5.178
 5530SOL    HW129063   4.760   6.681   5.191
 5530SOL    HW229064   4.749   6.554   5.088
 5531SOL     OW29065   3.744   0.872   1.930
 5531SOL    HW129066   3.754   0.884   1.831
 5531SOL    HW229067   3.716   0.959   1.971
 5532SOL     OW29068   0.620   7.352   1.499
 5532SOL    HW129069   0.684   7.366   1.574
 5532SOL    HW229070   0.671   7.339   1.414
 5533SOL     OW29071   4.075   7.259   4.519
 5533SOL    HW129072   4.129   7.270   4.435
 5533SOL    HW229073   4.072   7.346   4.568
 5534SOL     OW29074   4.732   1.177   1.715
 5534SOL    HW129075   4.735   1.256   1.653
 5534SOL    HW229076   4.823   1.161   1.753
 5535SOL     OW29077   6.120   3.776   6.343
 5535SOL    HW129078   6.040   3.820   6.302
 5535SOL    HW229079   6.175   3.845   6.391
 5536SOL     OW29080   6.522   6.402   6.762
 5536SOL    HW129081   6.527   6.304   6.748
 5536SOL    HW229082   6.483   6.421   6.853
 5537SOL     OW29083   1.911   1.053   2.337
 5537SOL    HW129084   1.977   1.032   2.409
 5537SOL    HW229085   1.960   1.078   2.254
 5538SOL     OW29086   3.613   3.238   0.804
 5538SOL    HW129087   3.687   3.305   0.810
 5538SOL    HW229088   3.572   3.225   0.894
 5539SOL     OW29089   0.658   6.670   7.270
 5539SOL    HW129090   0.721   6.717   7.331
 5539SOL    HW229091   0.660   6.713   7.180
 5540SOL     OW29092   1.872   4.143   0.323
 5540SOL    HW129093   1.942   4.109   0.386
 5540SOL    HW229094   1.912   4.208   0.259
 5541SOL     OW29095   6.211   0.336   3.493
 5541SOL    HW129096   6.247   0.244   3.508
 5541SOL    HW229097   6.158   0.364   3.573
 5542SOL     OW29098   1.075   4.533   3.856
 5542SOL    HW129099   1.039   4.595   3.926
 5542SOL    HW229100   1.107   4.586   3.778
 5543SOL     OW29101   7.100   3.081   2.502
 5543SOL    HW129102   7.106   2.983   2.520
 5543SOL    HW229103   7.190   3.115   2.474
 5544SOL     OW29104   3.484   1.587   7.310
 5544SOL    HW129105   3.507   1.596   7.213
 5544SOL    HW229106   3.423   1.661   7.337
 5545SOL     OW29107   5.124   5.847   2.964
 5545SOL    HW129108   5.054   5.909   3.001
 5545SOL    HW229109   5.089   5.753   2.964
 5546SOL     OW29110   0.141   3.177   6.394
 5546SOL    HW129111   0.139   3.133   6.305
 5546SOL    HW229112   0.218   3.144   6.448
 5547SOL     OW29113   3.704   1.553   1.184
 5547SOL    HW129114   3.632   1.582   1.247
 5547SOL    HW229115   3.773   1.626   1.177
 5548SOL     OW29116   7.110   4.598   1.212
 5548SOL    HW129117   7.191   4.650   1.239
 5548SOL    HW229118   7.118   4.504   1.244
 5549SOL     OW29119   1.377   4.798   0.011
 5549SOL    HW129120   1.324   4.714   8.996
 5549SOL    HW229121   1.466   4.774   0.050
 5550SOL     OW29122   5.113   6.589   1.533
 5550SOL    HW129123   5.115   6.669   1.594
 5550SOL    HW229124   5.140   6.617   1.441
 5551SOL     OW29125   1.238   6.206   5.970
 5551SOL    HW129126   1.144   6.240   5.962
 5551SOL    HW229127   1.243   6.141   6.046
 5552SOL     OW29128   1.017   0.101   2.686
 5552SOL    HW129129   0.957   0.175   2.656
 5552SOL    HW229130   0.968   0.014   2.680
 5553SOL     OW29131   6.029   6.384   1.906
 5553SOL    HW129132   6.068   6.468   1.945
 5553SOL    HW229133   6.091   6.349   1.835
 5554SOL     OW29134   1.627   0.917   6.384
 5554SOL    HW129135   1.563   0.975   6.332
 5554SOL    HW229136   1.629   0.826   6.345
 5555SOL     OW29137   5.091   6.750   1.052
 5555SOL    HW129138   5.131   6.842   1.050
 5555SOL    HW229139   5.126   6.700   1.131
 5556SOL     OW29140   3.589   1.910   4.807
 5556SOL    HW129141   3.659   1.975   4.777
 5556SOL    HW229142   3.566   1.926   4.903
 5557SOL     OW29143   6.160   1.267   2.330
 5557SOL    HW129144   6.104   1.312   2.261
 5557SOL    HW229145   6.114   1.184   2.362
 5558SOL     OW29146   1.132   2.251   2.922
 5558SOL    HW129147   1.196   2.174   2.925
 5558SOL    HW229148   1.118   2.279   2.827
 5559SOL     OW29149   5.180   4.920   3.010
 5559SOL    HW129150   5.117   4.997   3.021
 5559SOL    HW229151   5.137   4.850   2.953
 5560SOL     OW29152   1.527   1.683   0.329
 5560SOL    HW129153   1.531   1.649   0.235
 5560SOL    HW229154   1.467   1.624   0.383
 5561SOL     OW29155   2.174   6.910   0.057
 5561SOL    HW129156   2.104   6.839   0.052
 5561SOL    HW229157   2.138   6.996   0.022
 5562SOL     OW29158   6.385   5.695   0.890
 5562SOL    HW129159   6.474   5.662   0.921
 5562SOL    HW229160   6.343   5.626   0.831
 5563SOL     OW29161   4.126   3.170   5.211
 5563SOL    HW129162   4.096   3.259   5.246
 5563SOL    HW229163   4.054   3.103   5.226
 5564SOL     OW29164   1.851   1.490   0.449
 5564SOL    HW129165   1.770   1.473   0.506
 5564SOL    HW229166   1.934   1.474   0.503
 5565SOL     OW29167   7.001   5.873   0.665
 5565SOL    HW129168   6.917   5.831   0.698
 5565SOL    HW229169   7.058   5.804   0.620
 5566SOL     OW29170   6.200   0.102   2.229
 5566SOL    HW129171   6.236   0.017   2.190
 5566SOL    HW229172   6.179   0.166   2.156
 5567SOL     OW29173   6.864   0.554   5.784
 5567SOL    HW129174   6.912   0.638   5.761
 5567SOL    HW229175   6.904   0.513   5.866
 5568SOL     OW29176   4.144   5.828   1.807
 5568SOL    HW129177   4.084   5.789   1.736
 5568SOL    HW229178   4.097   5.823   1.895
 5569SOL     OW29179   7.076   0.781   1.686
 5569SOL    HW129180   6.992   0.728   1.689
 5569SOL    HW229181   7.057   0.871   1.646
 5570SOL     OW29182   3.673   4.443   2.236
 5570SOL    HW129183   3.751   4.390   2.271
 5570SOL    HW229184   3.704   4.534   2.210
 5571SOL     OW29185   2.219   2.646   6.439
 5571SOL    HW129186   2.236   2.690   6.350
 5571SOL    HW229187   2.287   2.677   6.505
 5572SOL     OW29188   6.255   3.819   4.333
 5572SOL    HW129189   6.170   3.865   4.358
 5572SOL    HW229190   6.325   3.836   4.402
 5573SOL     OW29191   5.639   0.227   5.571
 5573SOL    HW129192   5.545   0.214   5.540
 5573SOL    HW229193   5.702   0.208   5.496
 5574SOL     OW29194   4.400   6.329   2.805
 5574SOL    HW129195   4.423   6.397   2.735
 5574SOL    HW229196   4.335   6.369   2.870
 5575SOL     OW29197   3.722   5.362   5.891
 5575SOL    HW129198   3.790   5.288   5.884
 5575SOL    HW229199   3.633   5.323   5.913
 5576SOL     OW29200   1.429   0.953   6.937
 5576SOL    HW129201   1.332   0.972   6.927
 5576SOL    HW229202   1.462   0.990   7.024
 5577SOL     OW29203   7.064   2.108   0.751
 5577SOL    HW129204   7.045   2.194   0.703
 5577SOL    HW229205   7.160   2.083   0.737
 5578SOL     OW29206   7.207   4.002   5.256
 5578SOL    HW129207   7.115   4.019   5.291
 5578SOL    HW229208   7.272   4.063   5.302
 5579SOL     OW29209   5.302   1.767   0.105
 5579SOL    HW129210   5.364   1.811   0.170
 5579SOL    HW229211   5.303   1.668   0.119
 5580SOL     OW29212   5.558   4.316   5.728
 5580SOL    HW129213   5.635   4.378   5.742
 5580SOL    HW229214   5.541   4.304   5.630
 5581SOL     OW29215   0.776   7.081   5.284
 5581SOL    HW129216   0.755   7.171   5.246
 5581SOL    HW229217   0.756   7.010   5.216
 5582SOL     OW29218   1.051   2.953   4.770
 5582SOL    HW129219   1.030   2.997   4.682
 5582SOL    HW229220   1.105   2.871   4.753
 5583SOL     OW29221   5.447   2.359   4.025
 5583SOL    HW129222   5.423   2.418   3.948
 5583SOL    HW229223   5.460   2.265   3.993
 5584SOL     OW29224   4.180   0.841   3.184
 5584SOL    HW129225   4.256   0.776   3.186
 5584SOL    HW229226   4.205   0.924   3.234
 5585SOL     OW29227   5.519   1.835   1.029
 5585SOL    HW129228   5.493   1.816   0.935
 5585SOL    HW229229   5.450   1.797   1.091
 5586SOL     OW29230   7.104   5.298   2.977
 5586SOL    HW129231   7.140   5.207   2.996
 5586SOL    HW229232   7.179   5.358   2.947
 5587SOL     OW29233   0.279   6.742   5.566
 5587SOL    HW129234   0.230   6.710   5.485
 5587SOL    HW229235   0.367   6.782   5.538
 5588SOL     OW29236   7.317   0.379   5.810
 5588SOL    HW129237   7.372   0.463   5.810
 5588SOL    HW229238   7.256   0.380   5.731
 5589SOL     OW29239   5.746   2.758   0.528
 5589SOL    HW129240   5.820   2.825   0.529
 5589SOL    HW229241   5.664   2.801   0.490
 5590SOL     OW29242   2.258   5.797   0.907
 5590SOL    HW129243   2.328   5.728   0.889
 5590SOL    HW229244   2.279   5.844   0.993
 5591SOL     OW29245   0.646   5.057   2.561
 5591SOL    HW129246   0.652   5.127   2.490
 5591SOL    HW229247   0.562   5.004   2.548
 5592SOL     OW29248   2.207   2.687   5.589
 5592SOL    HW129249   2.279   2.744   5.629
 5592SOL    HW229250   2.119   2.711   5.631
 5593SOL     OW29251   5.962   2.693   6.768
 5593SOL    HW129252   6.023   2.738   6.833
 5593SOL    HW229253   5.885   2.753   6.746
 5594SOL     OW29254   2.595   1.304   3.627
 5594SOL    HW129255   2.578   1.402   3.619
 5594SOL    HW229256   2.617   1.281   3.722
 5595SOL     OW29257   5.100   6.976   0.441
 5595SOL    HW129258   5.039   6.987   0.520
 5595SOL    HW229259   5.169   7.049   0.443
 5596SOL     OW29260   0.403   5.661   4.829
 5596SOL    HW129261   0.331   5.726   4.851
 5596SOL    HW229262   0.363   5.576   4.795
 5597SOL     OW29263   5.114   0.381   3.052
 5597SOL    HW129264   5.097   0.300   2.996
 5597SOL    HW229265   5.196   0.428   3.019
 5598SOL     OW29266   5.953   1.474   7.175
 5598SOL    HW129267   5.899   1.489   7.092
 5598SOL    HW229268   5.906   1.409   7.234
 5599SOL     OW29269   6.664   0.718   6.929
 5599SOL    HW129270   6.690   0.805   6.971
 5599SOL    HW229271   6.699   0.642   6.985
 5600SOL     OW29272   2.141   4.014   5.081
 5600SOL    HW129273   2.091   4.079   5.023
 5600SOL    HW229274   2.158   4.055   5.171
 5601SOL     OW29275   5.103   6.702   6.552
 5601SOL    HW129276   5.159   6.643   6.609
 5601SOL    HW229277   5.053   6.767   6.610
 5602SOL     OW29278   0.104   3.820   5.500
 5602SOL    HW129279   0.051   3.746   5.542
 5602SOL    HW229280   0.081   3.826   5.403
 5603SOL     OW29281   6.016   7.230   3.622
 5603SOL    HW129282   5.967   7.317   3.632
 5603SOL    HW229283   6.087   7.239   3.553
 5604SOL     OW29284   5.307   4.884   3.252
 5604SOL    HW129285   5.275   4.897   3.158
 5604SOL    HW229286   5.232   4.902   3.315
 5605SOL     OW29287   1.852   0.837   0.012
 5605SOL    HW129288   1.918   0.849   8.938
 5605SOL    HW229289   1.761   0.864   8.980
 5606SOL     OW29290   4.984   7.220   0.753
 5606SOL    HW129291   5.083   7.206   0.752
 5606SOL    HW229292   4.960   7.296   0.693
 5607SOL     OW29293   6.484   7.218   7.113
 5607SOL    HW129294   6.424   7.176   7.045
 5607SOL    HW229295   6.579   7.210   7.084
 5608SOL     OW29296   6.320   1.281   1.975
 5608SOL    HW129297   6.384   1.310   1.904
 5608SOL    HW229298   6.344   1.325   2.061
 5609SOL     OW29299   6.674   1.021   2.437
 5609SOL    HW129300   6.651   1.056   2.346
 5609SOL    HW229301   6.746   0.953   2.429
 5610SOL     OW29302   2.605   3.375   6.464
 5610SOL    HW129303   2.512   3.390   6.430
 5610SOL    HW229304   2.616   3.278   6.488
 5611SOL     OW29305   1.346   2.963   2.529
 5611SOL    HW129306   1.276   2.901   2.563
 5611SOL    HW229307   1.308   3.055   2.522
 5612SOL     OW29308   1.831   3.684   4.310
 5612SOL    HW129309   1.924   3.649   4.303
 5612SOL    HW229310   1.766   3.613   4.282
 5613SOL     OW29311   3.355   1.197   0.655
 5613SOL    HW129312   3.349   1.234   0.748
 5613SOL    HW229313   3.269   1.213   0.607
 5614SOL     OW29314   7.255   2.033   0.269
 5614SOL    HW129315   7.311   2.114   0.253
 5614SOL    HW229316   7.308   1.966   0.322
 5615SOL     OW29317   5.029   6.650   3.735
 5615SOL    HW129318   4.999   6.730   3.786
 5615SOL    HW229319   5.095   6.677   3.665
 5616SOL     OW29320   5.877   3.081   2.782
 5616SOL    HW129321   5.860   3.030   2.698
 5616SOL    HW229322   5.971   3.114   2.782
 5617SOL     OW29323   3.321   6.623   5.906
 5617SOL    HW129324   3.363   6.537   5.878
 5617SOL    HW229325   3.333   6.692   5.834
 5618SOL     OW29326   5.096   3.397   2.002
 5618SOL    HW129327   5.025   3.419   1.934
 5618SOL    HW229328   5.147   3.479   2.025
 5619SOL     OW29329   0.683   6.793   7.018
 5619SOL    HW129330   0.762   6.842   7.055
 5619SOL    HW229331   0.611   6.858   6.994
 5620SOL     OW29332   6.234   2.726   5.804
 5620SOL    HW129333   6.260   2.820   5.785
 5620SOL    HW229334   6.134   2.718   5.801
 5621SOL     OW29335   0.278   0.144   6.156
 5621SOL    HW129336   0.268   0.045   6.149
 5621SOL    HW229337   0.225   0.177   6.234
 5622SOL     OW29338   3.186   4.759   1.237
 5622SOL    HW129339   3.191   4.854   1.207
 5622SOL    HW229340   3.255   4.742   1.307
 5623SOL     OW29341   5.913   1.862   4.362
 5623SOL    HW129342   5.916   1.910   4.450
 5623SOL    HW229343   5.876   1.770   4.375
 5624SOL     OW29344   1.994   3.196   5.874
 5624SOL    HW129345   1.944   3.140   5.808
 5624SOL    HW229346   1.967   3.169   5.967
 5625SOL     OW29347   4.446   3.502   6.602
 5625SOL    HW129348   4.409   3.507   6.695
 5625SOL    HW229349   4.505   3.422   6.594
 5626SOL     OW29350   6.773   3.640   2.711
 5626SOL    HW129351   6.820   3.715   2.665
 5626SOL    HW229352   6.699   3.677   2.767
 5627SOL     OW29353   7.184   5.448   3.291
 5627SOL    HW129354   7.118   5.373   3.291
 5627SOL    HW229355   7.163   5.512   3.218
 5628SOL     OW29356   2.959   6.775   0.969
 5628SOL    HW129357   2.925   6.740   0.882
 5628SOL    HW229358   2.888   6.765   1.038
 5629SOL     OW29359   6.837   4.358   4.215
 5629SOL    HW129360   6.810   4.435   4.158
 5629SOL    HW229361   6.935   4.342   4.206
 5630SOL     OW29362   1.263   2.121   6.070
 5630SOL    HW129363   1.361   2.140   6.070
 5630SOL    HW229364   1.231   2.112   5.976
 5631SOL     OW29365   3.650   2.960   5.280
 5631SOL    HW129366   3.641   2.861   5.282
 5631SOL    HW229367   3.598   3.000   5.356
 5632SOL     OW29368   3.807   6.264   1.434
 5632SOL    HW129369   3.835   6.284   1.341
 5632SOL    HW229370   3.887   6.263   1.494
 5633SOL     OW29371   2.427   6.714   4.837
 5633SOL    HW129372   2.346   6.753   4.793
 5633SOL    HW229373   2.442   6.758   4.926
 5634SOL     OW29374   3.214   2.595   1.731
 5634SOL    HW129375   3.286   2.663   1.746
 5634SOL    HW229376   3.240   2.534   1.657
 5635SOL     OW29377   7.102   3.701   2.395
 5635SOL    HW129378   7.082   3.672   2.302
 5635SOL    HW229379   7.017   3.731   2.440
 5636SOL     OW29380   5.372   3.118   2.609
 5636SOL    HW129381   5.416   3.155   2.690
 5636SOL    HW229382   5.327   3.192   2.558
 5637SOL     OW29383   1.010   6.763   7.276
 5637SOL    HW129384   1.108   6.775   7.294
 5637SOL    HW229385   0.961   6.752   7.362
 5638SOL     OW29386   7.098   5.883   4.303
 5638SOL    HW129387   7.107   5.825   4.383
 5638SOL    HW229388   7.158   5.851   4.230
 5639SOL     OW29389   1.218   8.956   2.222
 5639SOL    HW129390   1.313   8.987   2.222
 5639SOL    HW229391   1.210   8.872   2.275
 5640SOL     OW29392   3.981   2.233   3.148
 5640SOL    HW129393   3.937   2.278   3.071
 5640SOL    HW229394   3.913   2.181   3.200
 5641SOL     OW29395   6.784   5.707   2.553
 5641SOL    HW129396   6.804   5.609   2.565
 5641SOL    HW229397   6.750   5.744   2.639
 5642SOL     OW29398   0.054   6.805   5.731
 5642SOL    HW129399   0.135   6.790   5.674
 5642SOL    HW229400   8.971   6.787   5.677
 5643SOL     OW29401   5.378   6.975   2.128
 5643SOL    HW129402   5.458   6.949   2.183
 5643SOL    HW229403   5.409   7.000   2.036
 5644SOL     OW29404   2.900   3.417   4.839
 5644SOL    HW129405   2.989   3.376   4.854
 5644SOL    HW229406   2.829   3.347   4.848
 5645SOL     OW29407   0.957   2.403   3.569
 5645SOL    HW129408   0.901   2.356   3.501
 5645SOL    HW229409   0.903   2.477   3.610
 5646SOL     OW29410   2.460   5.093   5.955
 5646SOL    HW129411   2.494   5.004   5.924
 5646SOL    HW229412   2.444   5.091   6.054
 5647SOL     OW29413   1.687   2.579   1.478
 5647SOL    HW129414   1.674   2.530   1.392
 5647SOL    HW229415   1.666   2.676   1.465
 5648SOL     OW29416   4.810   0.976   5.760
 5648SOL    HW129417   4.798   1.012   5.668
 5648SOL    HW229418   4.749   0.898   5.773
 5649SOL     OW29419   7.194   2.969   0.571
 5649SOL    HW129420   7.222   3.047   0.626
 5649SOL    HW229421   7.215   2.987   0.475
 5650SOL     OW29422   4.729   0.051   4.370
 5650SOL    HW129423   4.794   8.981   4.339
 5650SOL    HW229424   4.744   0.135   4.318
 5651SOL     OW29425   1.436   4.912   0.753
 5651SOL    HW129426   1.450   4.969   0.673
 5651SOL    HW229427   1.386   4.964   0.823
 5652SOL     OW29428   4.669   3.699   0.333
 5652SOL    HW129429   4.687   3.775   0.271
 5652SOL    HW229430   4.756   3.659   0.363
 5653SOL     OW29431   3.374   3.477   1.574
 5653SOL    HW129432   3.282   3.483   1.611
 5653SOL    HW229433   3.437   3.443   1.644
 5654SOL     OW29434   3.815   2.043   4.706
 5654SOL    HW129435   3.845   1.954   4.671
 5654SOL    HW229436   3.887   2.081   4.765
 5655SOL     OW29437   2.664   1.060   3.504
 5655SOL    HW129438   2.647   1.151   3.542
 5655SOL    HW229439   2.600   0.995   3.545
 5656SOL     OW29440   1.924   3.677   1.014
 5656SOL    HW129441   1.947   3.724   0.928
 5656SOL    HW229442   1.835   3.634   1.005
 5657SOL     OW29443   7.124   6.636   6.947
 5657SOL    HW129444   7.208   6.612   6.995
 5657SOL    HW229445   7.046   6.592   6.993
 5658SOL     OW29446   7.104   4.201   2.033
 5658SOL    HW129447   7.096   4.143   2.114
 5658SOL    HW229448   7.181   4.264   2.045
 5659SOL     OW29449   0.149   3.971   4.713
 5659SOL    HW129450   0.090   4.044   4.746
 5659SOL    HW229451   0.128   3.886   4.761
 5660SOL     OW29452   1.351   1.651   3.001
 5660SOL    HW129453   1.267   1.596   2.999
 5660SOL    HW229454   1.407   1.629   2.921
 5661SOL     OW29455   7.118   1.775   1.763
 5661SOL    HW129456   7.124   1.758   1.862
 5661SOL    HW229457   7.168   1.858   1.741
 5662SOL     OW29458   5.603   0.307   5.832
 5662SOL    HW129459   5.619   0.280   5.737
 5662SOL    HW229460   5.613   0.227   5.891
 5663SOL     OW29461   4.049   2.252   6.274
 5663SOL    HW129462   4.070   2.330   6.215
 5663SOL    HW229463   4.115   2.247   6.348
 5664SOL     OW29464   3.465   0.238   1.196
 5664SOL    HW129465   3.390   0.173   1.190
 5664SOL    HW229466   3.536   0.202   1.256
 5665SOL     OW29467   2.625   5.409   5.592
 5665SOL    HW129468   2.592   5.320   5.621
 5665SOL    HW229469   2.707   5.433   5.645
 5666SOL     OW29470   1.279   4.865   5.167
 5666SOL    HW129471   1.322   4.874   5.257
 5666SOL    HW229472   1.342   4.897   5.096
 5667SOL     OW29473   2.869   7.284   6.872
 5667SOL    HW129474   2.950   7.237   6.907
 5667SOL    HW229475   2.859   7.372   6.919
 5668SOL     OW29476   3.992   2.902   2.951
 5668SOL    HW129477   3.988   2.808   2.983
 5668SOL    HW229478   4.005   2.903   2.851
 5669SOL     OW29479   7.139   4.603   7.022
 5669SOL    HW129480   7.091   4.681   7.063
 5669SOL    HW229481   7.231   4.595   7.061
 5670SOL     OW29482   2.628   5.107   5.263
 5670SOL    HW129483   2.605   5.204   5.268
 5670SOL    HW229484   2.571   5.063   5.194
 5671SOL     OW29485   5.170   4.810   6.797
 5671SOL    HW129486   5.221   4.870   6.737
 5671SOL    HW229487   5.124   4.740   6.743
 5672SOL     OW29488   4.798   4.854   1.231
 5672SOL    HW129489   4.885   4.885   1.269
 5672SOL    HW229490   4.748   4.933   1.195
 5673SOL     OW29491   0.095   1.418   1.059
 5673SOL    HW129492   0.067   1.483   1.130
 5673SOL    HW229493   0.164   1.461   1.001
 5674SOL     OW29494   3.633   3.625   1.287
 5674SOL    HW129495   3.579   3.542   1.300
 5674SOL    HW229496   3.576   3.705   1.304
 5675SOL     OW29497   0.193   1.190   1.539
 5675SOL    HW129498   0.263   1.120   1.524
 5675SOL    HW229499   0.232   1.280   1.524
 5676SOL     OW29500   4.165   1.360   5.558
 5676SOL    HW129501   4.187   1.433   5.622
 5676SOL    HW229502   4.199   1.384   5.467
 5677SOL     OW29503   1.152   4.203   6.373
 5677SOL    HW129504   1.205   4.286   6.389
 5677SOL    HW229505   1.206   4.138   6.318
 5678SOL     OW29506   5.136   5.961   2.498
 5678SOL    HW129507   5.062   5.972   2.565
 5678SOL    HW229508   5.145   6.045   2.444
 5679SOL     OW29509   4.898   1.960   5.114
 5679SOL    HW129510   4.903   1.938   5.212
 5679SOL    HW229511   4.990   1.969   5.077
 5680SOL     OW29512   1.722   0.841   7.132
 5680SOL    HW129513   1.747   0.753   7.093
 5680SOL    HW229514   1.634   0.834   7.178
 5681SOL     OW29515   4.446   5.909   2.265
 5681SOL    HW129516   4.378   5.843   2.232
 5681SOL    HW229517   4.478   5.964   2.187
 5682SOL     OW29518   2.556   4.051   6.251
 5682SOL    HW129519   2.635   3.995   6.228
 5682SOL    HW229520   2.580   4.147   6.244
 5683SOL     OW29521   1.961   4.163   3.092
 5683SOL    HW129522   1.975   4.239   3.029
 5683SOL    HW229523   2.034   4.162   3.160
 5684SOL     OW29524   2.539   0.245   1.516
 5684SOL    HW129525   2.498   0.336   1.507
 5684SOL    HW229526   2.537   0.217   1.612
 5685SOL     OW29527   6.367   2.010   1.618
 5685SOL    HW129528   6.304   1.944   1.659
 5685SOL    HW229529   6.416   1.967   1.542
 5686SOL     OW29530   5.634   3.428   2.897
 5686SOL    HW129531   5.612   3.516   2.939
 5686SOL    HW229532   5.550   3.383   2.867
 5687SOL     OW29533   6.240   6.625   5.213
 5687SOL    HW129534   6.232   6.532   5.248
 5687SOL    HW229535   6.291   6.624   5.127
 5688SOL     OW29536   4.438   1.498   1.985
 5688SOL    HW129537   4.475   1.587   2.010
 5688SOL    HW229538   4.512   1.432   1.976
 5689SOL     OW29539   7.360   3.107   1.070
 5689SOL    HW129540   7.393   3.028   1.121
 5689SOL    HW229541   7.424   3.129   0.997
 5690SOL     OW29542   5.087   0.155   2.894
 5690SOL    HW129543   5.042   0.138   2.806
 5690SOL    HW229544   5.186   0.153   2.882
 5691SOL     OW29545   3.735   2.684   0.409
 5691SOL    HW129546   3.759   2.618   0.481
 5691SOL    HW229547   3.738   2.777   0.447
 5692SOL     OW29548   0.968   3.578   7.273
 5692SOL    HW129549   0.894   3.533   7.223
 5692SOL    HW229550   0.944   3.585   7.369
 5693SOL     OW29551   5.619   6.603   3.822
 5693SOL    HW129552   5.636   6.597   3.921
 5693SOL    HW229553   5.663   6.685   3.786
 5694SOL     OW29554   4.062   4.698   3.609
 5694SOL    HW129555   4.055   4.598   3.614
 5694SOL    HW229556   4.158   4.724   3.609
 5695SOL     OW29557   4.004   1.865   6.016
 5695SOL    HW129558   4.012   1.909   6.106
 5695SOL    HW229559   4.020   1.934   5.945
 5696SOL     OW29560   2.381   3.033   6.527
 5696SOL    HW129561   2.331   3.115   6.557
 5696SOL    HW229562   2.358   2.957   6.587
 5697SOL     OW29563   1.967   3.240   2.694
 5697SOL    HW129564   1.967   3.311   2.624
 5697SOL    HW229565   1.887   3.181   2.683
 5698SOL     OW29566   3.396   4.003   6.035
 5698SOL    HW129567   3.482   4.033   5.993
 5698SOL    HW229568   3.339   3.960   5.965
 5699SOL     OW29569   6.817   4.291   6.739
 5699SOL    HW129570   6.726   4.306   6.777
 5699SOL    HW229571   6.880   4.360   6.776
 5700SOL     OW29572   5.155   2.774   0.532
 5700SOL    HW129573   5.065   2.816   0.523
 5700SOL    HW229574   5.206   2.785   0.447
 5701SOL     OW29575   5.779   0.463   0.802
 5701SOL    HW129576   5.759   0.366   0.816
 5701SOL    HW229577   5.695   0.511   0.776
 5702SOL     OW29578   4.638   6.285   2.943
 5702SOL    HW129579   4.569   6.305   2.874
 5702SOL    HW229580   4.593   6.252   3.026
 5703SOL     OW29581   2.743   4.305   0.850
 5703SOL    HW129582   2.683   4.239   0.806
 5703SOL    HW229583   2.804   4.346   0.781
 5704SOL     OW29584   3.315   6.544   6.872
 5704SOL    HW129585   3.308   6.445   6.859
 5704SOL    HW229586   3.276   6.591   6.793
 5705SOL     OW29587   3.484   1.483   1.872
 5705SOL    HW129588   3.443   1.514   1.958
 5705SOL    HW229589   3.584   1.491   1.878
 5706SOL     OW29590   4.270   7.062   5.212
 5706SOL    HW129591   4.228   7.077   5.123
 5706SOL    HW229592   4.370   7.063   5.203
 5707SOL     OW29593   6.929   2.514   4.469
 5707SOL    HW129594   6.895   2.442   4.409
 5707SOL    HW229595   6.948   2.477   4.559
 5708SOL     OW29596   4.360   3.844   2.573
 5708SOL    HW129597   4.373   3.776   2.501
 5708SOL    HW229598   4.276   3.896   2.555
 5709SOL     OW29599   5.787   5.394   1.439
 5709SOL    HW129600   5.688   5.397   1.425
 5709SOL    HW229601   5.822   5.305   1.409
 5710SOL     OW29602   0.136   3.157   4.491
 5710SOL    HW129603   0.106   3.252   4.490
 5710SOL    HW229604   0.057   3.097   4.507
 5711SOL     OW29605   4.699   3.076   3.789
 5711SOL    HW129606   4.632   3.124   3.846
 5711SOL    HW229607   4.664   3.068   3.696
 5712SOL     OW29608   1.321   6.878   5.830
 5712SOL    HW129609   1.340   6.916   5.921
 5712SOL    HW229610   1.239   6.822   5.834
 5713SOL     OW29611   0.897   6.868   5.701
 5713SOL    HW129612   0.906   6.964   5.728
 5713SOL    HW229613   0.865   6.863   5.606
 5714SOL     OW29614   6.620   3.256   1.006
 5714SOL    HW129615   6.710   3.222   0.978
 5714SOL    HW229616   6.549   3.200   0.964
 5715SOL     OW29617   0.167   3.433   6.520
 5715SOL    HW129618   0.255   3.474   6.495
 5715SOL    HW229619   0.158   3.345   6.475
 5716SOL     OW29620   2.183   4.421   2.107
 5716SOL    HW129621   2.123   4.341   2.107
 5716SOL    HW229622   2.147   4.490   2.170
 5717SOL     OW29623   1.899   2.651   6.220
 5717SOL    HW129624   1.969   2.592   6.178
 5717SOL    HW229625   1.841   2.596   6.280
 5718SOL     OW29626   0.372   1.150   2.487
 5718SOL    HW129627   0.323   1.187   2.408
 5718SOL    HW229628   0.440   1.084   2.455
 5719SOL     OW29629   2.713   6.108   3.307
 5719SOL    HW129630   2.787   6.081   3.246
 5719SOL    HW229631   2.716   6.207   3.323
 5720SOL     OW29632   6.692   4.027   7.102
 5720SOL    HW129633   6.690   4.054   7.198
 5720SOL    HW229634   6.601   3.998   7.073
 5721SOL     OW29635   1.061   2.633   0.286
 5721SOL    HW129636   1.022   2.570   0.219
 5721SOL    HW229637   1.027   2.725   0.269
 5722SOL     OW29638   4.388   1.043   5.444
 5722SOL    HW129639   4.406   0.945   5.432
 5722SOL    HW229640   4.378   1.063   5.541
 5723SOL     OW29641   5.010   1.793   3.751
 5723SOL    HW129642   5.070   1.741   3.813
 5723SOL    HW229643   5.061   1.869   3.711
 5724SOL     OW29644   5.632   6.686   0.397
 5724SOL    HW129645   5.645   6.597   0.353
 5724SOL    HW229646   5.557   6.680   0.463
 5725SOL     OW29647   1.357   5.492   7.115
 5725SOL    HW129648   1.396   5.438   7.040
 5725SOL    HW229649   1.259   5.474   7.122
 5726SOL     OW29650   4.788   4.451   3.335
 5726SOL    HW129651   4.884   4.436   3.358
 5726SOL    HW229652   4.733   4.374   3.367
 5727SOL     OW29653   4.238   2.429   4.973
 5727SOL    HW129654   4.165   2.474   4.922
 5727SOL    HW229655   4.269   2.490   5.046
 5728SOL     OW29656   0.974   4.815   4.861
 5728SOL    HW129657   1.058   4.836   4.812
 5728SOL    HW229658   0.985   4.840   4.958
 5729SOL     OW29659   4.861   0.064   3.020
 5729SOL    HW129660   4.860   8.965   3.032
 5729SOL    HW229661   4.950   0.092   2.985
 5730SOL     OW29662   0.531   2.256   6.205
 5730SOL    HW129663   0.613   2.200   6.214
 5730SOL    HW229664   0.526   2.293   6.112
 5731SOL     OW29665   3.790   2.492   0.605
 5731SOL    HW129666   3.692   2.471   0.604
 5731SOL    HW229667   3.838   2.424   0.660
 5732SOL     OW29668   5.276   2.776   1.220
 5732SOL    HW129669   5.352   2.737   1.273
 5732SOL    HW229670   5.300   2.776   1.123
 5733SOL     OW29671   3.517   5.186   6.797
 5733SOL    HW129672   3.575   5.266   6.783
 5733SOL    HW229673   3.459   5.200   6.877
 5734SOL     OW29674   0.521   4.022   5.556
 5734SOL    HW129675   0.548   3.992   5.647
 5734SOL    HW229676   0.603   4.046   5.503
 5735SOL     OW29677   1.317   2.259   4.888
 5735SOL    HW129678   1.349   2.344   4.846
 5735SOL    HW229679   1.237   2.278   4.946
 5736SOL     OW29680   8.905   2.421   4.637
 5736SOL    HW129681   8.996   2.391   4.668
 5736SOL    HW229682   8.875   2.363   4.562
 5737SOL     OW29683   2.930   3.042   1.576
 5737SOL    HW129684   2.928   3.072   1.481
 5737SOL    HW229685   2.840   3.007   1.603
 5738SOL     OW29686   6.725   0.249   5.652
 5738SOL    HW129687   6.745   0.328   5.595
 5738SOL    HW229688   6.626   0.234   5.657
 5739SOL     OW29689   5.087   1.179   5.210
 5739SOL    HW129690   5.136   1.194   5.124
 5739SOL    HW229691   4.991   1.160   5.191
 5740SOL     OW29692   3.923   5.157   5.921
 5740SOL    HW129693   3.990   5.130   5.852
 5740SOL    HW229694   3.965   5.152   6.012
 5741SOL     OW29695   7.405   4.249   6.117
 5741SOL    HW129696   7.420   4.292   6.028
 5741SOL    HW229697   7.491   4.213   6.152
 5742SOL     OW29698   5.067   2.327   1.507
 5742SOL    HW129699   5.040   2.328   1.603
 5742SOL    HW229700   5.166   2.310   1.501
 5743SOL     OW29701   6.196   5.211   6.032
 5743SOL    HW129702   6.180   5.173   6.124
 5743SOL    HW229703   6.273   5.164   5.990
 5744SOL     OW29704   2.294   3.376   4.520
 5744SOL    HW129705   2.249   3.367   4.609
 5744SOL    HW229706   2.374   3.435   4.529
 5745SOL     OW29707   1.396   3.192   6.024
 5745SOL    HW129708   1.296   3.194   6.015
 5745SOL    HW229709   1.426   3.275   6.071
 5746SOL     OW29710   0.186   7.296   0.451
 5746SOL    HW129711   0.162   7.310   0.355
 5746SOL    HW229712   0.245   7.216   0.459
 5747SOL     OW29713   2.944   5.086   0.737
 5747SOL    HW129714   2.915   4.991   0.749
 5747SOL    HW229715   2.876   5.135   0.682
 5748SOL     OW29716   5.851   5.228   1.831
 5748SOL    HW129717   5.826   5.309   1.778
 5748SOL    HW229718   5.830   5.242   1.927
 5749SOL     OW29719   7.162   2.905   3.014
 5749SOL    HW129720   7.152   2.815   2.971
 5749SOL    HW229721   7.223   2.962   2.958
 5750SOL     OW29722   2.763   1.637   7.116
 5750SOL    HW129723   2.769   1.548   7.161
 5750SOL    HW229724   2.667   1.666   7.114
 5751SOL     OW29725   4.221   1.407   4.649
 5751SOL    HW129726   4.257   1.499   4.630
 5751SOL    HW229727   4.162   1.378   4.574
 5752SOL     OW29728   7.192   4.075   6.143
 5752SOL    HW129729   7.269   4.137   6.130
 5752SOL    HW229730   7.109   4.127   6.162
 5753SOL     OW29731   1.690   2.829   5.329
 5753SOL    HW129732   1.696   2.833   5.429
 5753SOL    HW229733   1.658   2.917   5.294
 5754SOL     OW29734   2.665   1.309   1.921
 5754SOL    HW129735   2.627   1.234   1.975
 5754SOL    HW229736   2.649   1.291   1.824
 5755SOL     OW29737   4.973   3.141   3.764
 5755SOL    HW129738   5.018   3.055   3.741
 5755SOL    HW229739   4.875   3.125   3.776
 5756SOL     OW29740   4.633   7.091   6.655
 5756SOL    HW129741   4.580   7.051   6.730
 5756SOL    HW229742   4.581   7.165   6.612
 5757SOL     OW29743   3.128   2.214   7.053
 5757SOL    HW129744   3.220   2.249   7.071
 5757SOL    HW229745   3.063   2.290   7.050
 5758SOL     OW29746   2.940   7.007   0.339
 5758SOL    HW129747   2.910   6.929   0.283
 5758SOL    HW229748   2.949   6.977   0.434
 5759SOL     OW29749   1.294   0.335   6.098
 5759SOL    HW129750   1.236   0.409   6.065
 5759SOL    HW229751   1.282   0.255   6.040
 5760SOL     OW29752   4.175   7.125   2.346
 5760SOL    HW129753   4.132   7.108   2.257
 5760SOL    HW229754   4.107   7.162   2.409
 5761SOL     OW29755   4.344   6.896   0.618
 5761SOL    HW129756   4.271   6.913   0.684
 5761SOL    HW229757   4.433   6.916   0.661
 5762SOL     OW29758   0.895   1.800   0.546
 5762SOL    HW129759   0.974   1.824   0.489
 5762SOL    HW229760   0.893   1.702   0.561
 5763SOL     OW29761   0.458   3.134   3.695
 5763SOL    HW129762   0.419   3.102   3.781
 5763SOL    HW229763   0.558   3.133   3.701
 5764SOL     OW29764   1.465   1.092   3.283
 5764SOL    HW129765   1.552   1.082   3.235
 5764SOL    HW229766   1.413   1.007   3.275
 5765SOL     OW29767   5.441   2.880   1.976
 5765SOL    HW129768   5.537   2.895   1.953
 5765SOL    HW229769   5.384   2.902   1.897
 5766SOL     OW29770   1.787   1.862   3.551
 5766SOL    HW129771   1.771   1.855   3.453
 5766SOL    HW229772   1.724   1.802   3.600
 5767SOL     OW29773   5.337   2.334   2.855
 5767SOL    HW129774   5.308   2.315   2.761
 5767SOL    HW229775   5.258   2.367   2.908
 5768SOL     OW29776   6.512   3.895   2.446
 5768SOL    HW129777   6.478   3.921   2.356
 5768SOL    HW229778   6.550   3.802   2.441
 5769SOL     OW29779   4.212   3.386   6.328
 5769SOL    HW129780   4.191   3.447   6.404
 5769SOL    HW229781   4.214   3.291   6.360
 5770SOL     OW29782   2.448   5.834   3.600
 5770SOL    HW129783   2.368   5.851   3.658
 5770SOL    HW229784   2.516   5.783   3.652
 5771SOL     OW29785   0.971   0.970   4.116
 5771SOL    HW129786   0.880   1.002   4.140
 5771SOL    HW229787   1.003   1.020   4.035
 5772SOL     OW29788   6.603   3.821   4.768
 5772SOL    HW129789   6.532   3.777   4.822
 5772SOL    HW229790   6.685   3.764   4.768
 5773SOL     OW29791   5.881   6.688   1.481
 5773SOL    HW129792   5.873   6.743   1.564
 5773SOL    HW229793   5.793   6.646   1.460
 5774SOL     OW29794   3.756   0.079   4.631
 5774SOL    HW129795   3.704   0.065   4.716
 5774SOL    HW229796   3.785   0.175   4.625
 5775SOL     OW29797   1.455   3.571   1.298
 5775SOL    HW129798   1.357   3.587   1.312
 5775SOL    HW229799   1.506   3.605   1.377
 5776SOL     OW29800   4.955   5.826   5.788
 5776SOL    HW129801   5.013   5.765   5.734
 5776SOL    HW229802   4.971   5.921   5.760
 5777SOL     OW29803   0.716   0.478   2.311
 5777SOL    HW129804   0.640   0.482   2.246
 5777SOL    HW229805   0.684   0.504   2.402
 5778SOL     OW29806   2.945   3.833   4.499
 5778SOL    HW129807   2.870   3.802   4.440
 5778SOL    HW229808   2.954   3.770   4.577
 5779SOL     OW29809   1.002   0.926   2.524
 5779SOL    HW129810   1.092   0.885   2.510
 5779SOL    HW229811   0.997   0.967   2.615
 5780SOL     OW29812   5.254   3.202   1.879
 5780SOL    HW129813   5.196   3.268   1.926
 5780SOL    HW229814   5.349   3.219   1.901
 5781SOL     OW29815   1.015   3.972   6.159
 5781SOL    HW129816   0.924   4.012   6.176
 5781SOL    HW229817   1.004   3.876   6.135
 5782SOL     OW29818   5.536   4.760   4.628
 5782SOL    HW129819   5.629   4.773   4.594
 5782SOL    HW229820   5.481   4.841   4.610
 5783SOL     OW29821   1.676   4.021   1.576
 5783SOL    HW129822   1.605   3.991   1.512
 5783SOL    HW229823   1.766   4.006   1.535
 5784SOL     OW29824   0.710   1.428   1.110
 5784SOL    HW129825   0.758   1.343   1.132
 5784SOL    HW229826   0.764   1.506   1.142
 5785SOL     OW29827   5.507   1.797   3.662
 5785SOL    HW129828   5.488   1.724   3.597
 5785SOL    HW229829   5.586   1.772   3.718
 5786SOL     OW29830   3.444   6.530   1.439
 5786SOL    HW129831   3.400   6.445   1.411
 5786SOL    HW229832   3.377   6.592   1.479
 5787SOL     OW29833   5.476   0.331   4.184
 5787SOL    HW129834   5.386   0.374   4.175
 5787SOL    HW229835   5.518   0.359   4.270
 5788SOL     OW29836   0.544   5.673   8.979
 5788SOL    HW129837   0.564   5.642   8.886
 5788SOL    HW229838   0.588   5.762   8.994
 5789SOL     OW29839   7.174   0.942   3.327
 5789SOL    HW129840   7.141   1.036   3.334
 5789SOL    HW229841   7.172   0.900   3.418
 5790SOL     OW29842   1.018   2.710   5.271
 5790SOL    HW129843   1.048   2.804   5.255
 5790SOL    HW229844   0.966   2.678   5.192
 5791SOL     OW29845   4.278   0.116   0.978
 5791SOL    HW129846   4.287   0.022   0.946
 5791SOL    HW229847   4.208   0.121   1.049
 5792SOL     OW29848   3.340   4.708   6.918
 5792SOL    HW129849   3.391   4.790   6.946
 5792SOL    HW229850   3.405   4.634   6.898
 5793SOL     OW29851   4.284   0.132   7.119
 5793SOL    HW129852   4.197   0.158   7.161
 5793SOL    HW229853   4.277   0.142   7.019
 5794SOL     OW29854   6.777   0.029   7.235
 5794SOL    HW129855   6.845   0.086   7.189
 5794SOL    HW229856   6.775   8.939   7.192
 5795SOL     OW29857   4.799   5.662   1.700
 5795SOL    HW129858   4.735   5.677   1.775
 5795SOL    HW229859   4.759   5.600   1.633
 5796SOL     OW29860   2.323   4.036   5.563
 5796SOL    HW129861   2.393   3.992   5.619
 5796SOL    HW229862   2.304   4.127   5.599
 5797SOL     OW29863   1.996   0.922   3.475
 5797SOL    HW129864   1.910   0.959   3.509
 5797SOL    HW229865   2.056   0.997   3.447
 5798SOL     OW29866   3.643   2.308   3.198
 5798SOL    HW129867   3.650   2.388   3.257
 5798SOL    HW229868   3.665   2.226   3.250
 5799SOL     OW29869   5.126   0.157   1.895
 5799SOL    HW129870   5.214   0.140   1.939
 5799SOL    HW229871   5.116   0.256   1.879
 5800SOL     OW29872   4.843   2.212   5.010
 5800SOL    HW129873   4.854   2.117   5.038
 5800SOL    HW229874   4.869   2.222   4.914
 5801SOL     OW29875   6.216   5.738   6.713
 5801SOL    HW129876   6.165   5.793   6.779
 5801SOL    HW229877   6.300   5.787   6.687
 5802SOL     OW29878   5.962   0.626   0.917
 5802SOL    HW129879   6.025   0.575   0.975
 5802SOL    HW229880   5.905   0.562   0.865
 5803SOL     OW29881   2.161   1.048   0.304
 5803SOL    HW129882   2.238   1.062   0.242
 5803SOL    HW229883   2.177   0.966   0.359
 5804SOL     OW29884   6.153   5.726   1.040
 5804SOL    HW129885   6.233   5.735   0.981
 5804SOL    HW229886   6.070   5.733   0.984
 5805SOL     OW29887   4.729   1.173   3.190
 5805SOL    HW129888   4.800   1.104   3.182
 5805SOL    HW229889   4.640   1.129   3.199
 5806SOL     OW29890   4.207   0.746   6.528
 5806SOL    HW129891   4.162   0.785   6.608
 5806SOL    HW229892   4.169   0.656   6.509
 5807SOL     OW29893   5.853   4.610   0.151
 5807SOL    HW129894   5.777   4.582   0.210
 5807SOL    HW229895   5.932   4.552   0.171
 5808SOL     OW29896   3.341   0.452   0.806
 5808SOL    HW129897   3.368   0.475   0.713
 5808SOL    HW229898   3.303   0.533   0.851
 5809SOL     OW29899   2.663   6.848   0.376
 5809SOL    HW129900   2.629   6.942   0.381
 5809SOL    HW229901   2.720   6.837   0.294
 5810SOL     OW29902   1.932   5.675   2.133
 5810SOL    HW129903   1.912   5.586   2.093
 5810SOL    HW229904   1.854   5.705   2.188
 5811SOL     OW29905   5.318   4.001   0.983
 5811SOL    HW129906   5.329   3.907   1.015
 5811SOL    HW229907   5.402   4.031   0.937
 5812SOL     OW29908   1.525   2.406   6.805
 5812SOL    HW129909   1.588   2.452   6.742
 5812SOL    HW229910   1.452   2.361   6.752
 5813SOL     OW29911   0.971   5.090   5.937
 5813SOL    HW129912   0.921   5.125   6.017
 5813SOL    HW229913   0.929   5.004   5.907
 5814SOL     OW29914   5.592   7.157   3.660
 5814SOL    HW129915   5.608   7.232   3.724
 5814SOL    HW229916   5.665   7.155   3.592
 5815SOL     OW29917   2.992   0.324   2.216
 5815SOL    HW129918   3.023   0.230   2.226
 5815SOL    HW229919   2.982   0.346   2.119
 5816SOL     OW29920   3.305   0.995   2.265
 5816SOL    HW129921   3.275   0.904   2.296
 5816SOL    HW229922   3.386   1.023   2.317
 5817SOL     OW29923   4.019   1.681   3.361
 5817SOL    HW129924   4.115   1.658   3.343
 5817SOL    HW229925   3.975   1.604   3.408
 5818SOL     OW29926   6.605   3.512   1.905
 5818SOL    HW129927   6.582   3.545   1.997
 5818SOL    HW229928   6.634   3.416   1.910
 5819SOL     OW29929   4.809   0.256   5.101
 5819SOL    HW129930   4.818   0.320   5.025
 5819SOL    HW229931   4.771   0.170   5.066
 5820SOL     OW29932   5.861   7.300   2.051
 5820SOL    HW129933   5.798   7.324   2.125
 5820SOL    HW229934   5.821   7.227   1.996
 5821SOL     OW29935   5.943   0.893   2.202
 5821SOL    HW129936   5.927   0.796   2.184
 5821SOL    HW229937   5.922   0.946   2.120
 5822SOL     OW29938   6.456   5.855   6.652
 5822SOL    HW129939   6.464   5.864   6.552
 5822SOL    HW229940   6.510   5.776   6.682
 5823SOL     OW29941   6.903   3.129   4.084
 5823SOL    HW129942   6.805   3.148   4.090
 5823SOL    HW229943   6.939   3.164   3.998
 5824SOL     OW29944   0.945   7.294   0.777
 5824SOL    HW129945   0.853   7.257   0.765
 5824SOL    HW229946   1.012   7.221   0.768
 5825SOL     OW29947   0.213   3.970   0.437
 5825SOL    HW129948   0.247   3.892   0.488
 5825SOL    HW229949   0.190   3.942   0.344
 5826SOL     OW29950   4.827   1.074   5.502
 5826SOL    HW129951   4.887   1.153   5.487
 5826SOL    HW229952   4.873   0.992   5.468
 5827SOL     OW29953   3.762   7.331   4.043
 5827SOL    HW129954   3.673   7.293   4.016
 5827SOL    HW229955   3.759   7.355   4.140
 5828SOL     OW29956   5.614   2.486   3.500
 5828SOL    HW129957   5.518   2.506   3.523
 5828SOL    HW229958   5.644   2.549   3.428
 5829SOL     OW29959   5.419   5.983   2.346
 5829SOL    HW129960   5.513   6.005   2.374
 5829SOL    HW229961   5.371   5.942   2.423
 5830SOL     OW29962   8.994   3.654   6.489
 5830SOL    HW129963   8.977   3.680   6.584
 5830SOL    HW229964   0.038   3.564   6.487
 5831SOL     OW29965   3.285   4.710   0.071
 5831SOL    HW129966   3.285   4.683   8.974
 5831SOL    HW229967   3.241   4.638   0.125
 5832SOL     OW29968   5.893   1.705   1.941
 5832SOL    HW129969   5.946   1.787   1.922
 5832SOL    HW229970   5.854   1.711   2.033
 5833SOL     OW29971   5.254   7.130   3.389
 5833SOL    HW129972   5.183   7.074   3.431
 5833SOL    HW229973   5.344   7.090   3.408
 5834SOL     OW29974   1.737   3.761   0.712
 5834SOL    HW129975   1.831   3.793   0.724
 5834SOL    HW229976   1.736   3.678   0.657
 5835SOL     OW29977   2.168   6.206   5.271
 5835SOL    HW129978   2.174   6.303   5.293
 5835SOL    HW229979   2.180   6.152   5.355
 5836SOL     OW29980   6.114   5.272   6.874
 5836SOL    HW129981   6.186   5.216   6.916
 5836SOL    HW229982   6.156   5.343   6.818
 5837SOL     OW29983   2.912   1.214   0.762
 5837SOL    HW129984   2.960   1.259   0.837
 5837SOL    HW229985   2.855   1.140   0.800
 5838SOL     OW29986   1.362   2.507   0.591
 5838SOL    HW129987   1.306   2.466   0.519
 5838SOL    HW229988   1.305   2.567   0.647
 5839SOL     OW29989   3.680   2.526   3.364
 5839SOL    HW129990   3.645   2.556   3.453
 5839SOL    HW229991   3.692   2.606   3.305
 5840SOL     OW29992   1.598   0.852   2.676
 5840SOL    HW129993   1.627   0.884   2.585
 5840SOL    HW229994   1.533   0.777   2.666
 5841SOL     OW29995   4.205   4.807   0.565
 5841SOL    HW129996   4.287   4.776   0.517
 5841SOL    HW229997   4.167   4.731   0.618
 5842SOL     OW29998   6.272   3.346   1.327
 5842SOL    HW129999   6.337   3.384   1.393
 5842SOL    HW230000   6.198   3.301   1.375
 5843SOL     OW30001   5.530   6.611   5.623
 5843SOL    HW130002   5.504   6.671   5.699
 5843SOL    HW230003   5.627   6.591   5.629
 5844SOL     OW30004   6.039   7.299   5.562
 5844SOL    HW130005   6.004   7.205   5.558
 5844SOL    HW230006   5.985   7.357   5.501
 5845SOL     OW30007   2.257   3.616   3.636
 5845SOL    HW130008   2.329   3.558   3.677
 5845SOL    HW230009   2.266   3.709   3.671
 5846SOL     OW30010   4.640   3.510   2.715
 5846SOL    HW130011   4.691   3.519   2.630
 5846SOL    HW230012   4.704   3.498   2.791
 5847SOL     OW30013   2.818   0.133   7.013
 5847SOL    HW130014   2.831   0.126   7.112
 5847SOL    HW230015   2.809   0.229   6.987
 5848SOL     OW30016   0.484   1.078   3.233
 5848SOL    HW130017   0.458   1.085   3.137
 5848SOL    HW230018   0.582   1.059   3.241
 5849SOL     OW30019   3.508   1.227   6.693
 5849SOL    HW130020   3.422   1.195   6.733
 5849SOL    HW230021   3.524   1.180   6.606
 5850SOL     OW30022   2.155   6.443   1.714
 5850SOL    HW130023   2.105   6.403   1.638
 5850SOL    HW230024   2.134   6.541   1.721
 5851SOL     OW30025   5.079   5.754   6.810
 5851SOL    HW130026   5.022   5.713   6.882
 5851SOL    HW230027   5.067   5.853   6.810
 5852SOL     OW30028   5.705   7.299   3.243
 5852SOL    HW130029   5.732   7.257   3.330
 5852SOL    HW230030   5.622   7.354   3.257
 5853SOL     OW30031   3.542   4.711   2.524
 5853SOL    HW130032   3.559   4.731   2.621
 5853SOL    HW230033   3.619   4.744   2.470
 5854SOL     OW30034   2.361   5.646   0.334
 5854SOL    HW130035   2.406   5.699   0.406
 5854SOL    HW230036   2.390   5.680   0.244
 5855SOL     OW30037   1.506   2.245   5.850
 5855SOL    HW130038   1.527   2.232   5.947
 5855SOL    HW230039   1.419   2.294   5.841
 5856SOL     OW30040   3.154   5.521   6.555
 5856SOL    HW130041   3.221   5.449   6.572
 5856SOL    HW230042   3.200   5.609   6.549
 5857SOL     OW30043   5.477   4.692   1.961
 5857SOL    HW130044   5.538   4.768   1.982
 5857SOL    HW230045   5.414   4.720   1.888
 5858SOL     OW30046   2.201   2.314   5.298
 5858SOL    HW130047   2.242   2.364   5.375
 5858SOL    HW230048   2.141   2.242   5.333
 5859SOL     OW30049   7.124   2.930   5.294
 5859SOL    HW130050   7.222   2.943   5.311
 5859SOL    HW230051   7.098   2.837   5.318
 5860SOL     OW30052   5.576   1.960   5.578
 5860SOL    HW130053   5.604   2.001   5.665
 5860SOL    HW230054   5.490   1.910   5.591
 5861SOL     OW30055   3.779   1.394   0.970
 5861SOL    HW130056   3.760   1.446   0.887
 5861SOL    HW230057   3.753   1.448   1.050
 5862SOL     OW30058   3.113   5.953   0.984
 5862SOL    HW130059   3.148   5.860   0.989
 5862SOL    HW230060   3.092   5.986   1.076
 5863SOL     OW30061   2.040   5.847   7.340
 5863SOL    HW130062   1.980   5.797   7.279
 5863SOL    HW230063   2.135   5.835   7.311
 5864SOL     OW30064   1.760   1.241   2.965
 5864SOL    HW130065   1.852   1.281   2.971
 5864SOL    HW230066   1.746   1.180   3.042
 5865SOL     OW30067   3.951   4.610   2.541
 5865SOL    HW130068   3.893   4.602   2.622
 5865SOL    HW230069   3.917   4.684   2.483
 5866SOL     OW30070   5.515   1.538   2.840
 5866SOL    HW130071   5.588   1.486   2.797
 5866SOL    HW230072   5.530   1.636   2.825
 5867SOL     OW30073   0.218   2.870   0.855
 5867SOL    HW130074   0.288   2.800   0.866
 5867SOL    HW230075   0.147   2.837   0.793
 5868SOL     OW30076   1.555   3.276   2.131
 5868SOL    HW130077   1.584   3.220   2.053
 5868SOL    HW230078   1.476   3.234   2.175
 5869SOL     OW30079   4.650   5.116   6.745
 5869SOL    HW130080   4.741   5.149   6.721
 5869SOL    HW230081   4.653   5.069   6.833
 5870SOL     OW30082   4.842   0.555   6.256
 5870SOL    HW130083   4.840   0.467   6.208
 5870SOL    HW230084   4.934   0.573   6.290
 5871SOL     OW30085   1.820   5.864   0.607
 5871SOL    HW130086   1.800   5.782   0.660
 5871SOL    HW230087   1.739   5.922   0.603
 5872SOL     OW30088   2.166   6.478   6.040
 5872SOL    HW130089   2.171   6.380   6.059
 5872SOL    HW230090   2.187   6.530   6.123
 5873SOL     OW30091   0.697   3.749   1.473
 5873SOL    HW130092   0.683   3.735   1.375
 5873SOL    HW230093   0.646   3.829   1.502
 5874SOL     OW30094   6.909   3.831   2.560
 5874SOL    HW130095   6.998   3.867   2.590
 5874SOL    HW230096   6.852   3.907   2.528
 5875SOL     OW30097   6.642   1.114   3.152
 5875SOL    HW130098   6.707   1.124   3.228
 5875SOL    HW230099   6.652   1.024   3.111
 5876SOL     OW30100   0.462   5.782   5.422
 5876SOL    HW130101   0.455   5.803   5.324
 5876SOL    HW230102   0.484   5.685   5.434
 5877SOL     OW30103   5.140   3.181   4.245
 5877SOL    HW130104   5.146   3.280   4.258
 5877SOL    HW230105   5.190   3.155   4.162
 5878SOL     OW30106   0.148   0.428   0.073
 5878SOL    HW130107   0.053   0.456   0.078
 5878SOL    HW230108   0.164   0.377   8.988
 5879SOL     OW30109   3.098   2.782   0.489
 5879SOL    HW130110   3.129   2.711   0.425
 5879SOL    HW230111   3.117   2.872   0.452
 5880SOL     OW30112   0.240   1.559   6.838
 5880SOL    HW130113   0.336   1.572   6.863
 5880SOL    HW230114   0.208   1.637   6.783
 5881SOL     OW30115   4.947   6.098   4.179
 5881SOL    HW130116   4.940   6.034   4.256
 5881SOL    HW230117   5.041   6.100   4.145
 5882SOL     OW30118   5.873   3.084   6.756
 5882SOL    HW130119   5.828   2.999   6.729
 5882SOL    HW230120   5.823   3.162   6.717
 5883SOL     OW30121   0.871   0.698   0.763
 5883SOL    HW130122   0.876   0.608   0.719
 5883SOL    HW230123   0.780   0.710   0.803
 5884SOL     OW30124   4.180   0.162   5.930
 5884SOL    HW130125   4.264   0.185   5.981
 5884SOL    HW230126   4.139   0.246   5.895
 5885SOL     OW30127   3.666   0.312   1.681
 5885SOL    HW130128   3.724   0.353   1.751
 5885SOL    HW230129   3.706   0.226   1.650
 5886SOL     OW30130   4.266   4.250   3.711
 5886SOL    HW130131   4.268   4.166   3.657
 5886SOL    HW230132   4.357   4.290   3.714
 5887SOL     OW30133   1.242   8.980   3.326
 5887SOL    HW130134   1.274   8.994   3.232
 5887SOL    HW230135   1.257   0.063   3.379
 5888SOL     OW30136   4.410   6.797   1.450
 5888SOL    HW130137   4.371   6.859   1.382
 5888SOL    HW230138   4.390   6.703   1.424
 5889SOL     OW30139   1.313   5.461   4.941
 5889SOL    HW130140   1.356   5.371   4.941
 5889SOL    HW230141   1.256   5.470   5.023
 5890SOL     OW30142   1.179   3.580   2.231
 5890SOL    HW130143   1.215   3.531   2.151
 5890SOL    HW230144   1.208   3.533   2.314
 5891SOL     OW30145   4.672   3.299   1.818
 5891SOL    HW130146   4.753   3.357   1.814
 5891SOL    HW230147   4.665   3.245   1.734
 5892SOL     OW30148   7.303   5.005   4.877
 5892SOL    HW130149   7.351   4.948   4.810
 5892SOL    HW230150   7.238   4.949   4.928
 5893SOL     OW30151   6.352   3.028   6.682
 5893SOL    HW130152   6.350   2.931   6.658
 5893SOL    HW230153   6.273   3.050   6.739
 5894SOL     OW30154   0.413   1.696   2.288
 5894SOL    HW130155   0.483   1.766   2.276
 5894SOL    HW230156   0.377   1.669   2.199
 5895SOL     OW30157   3.021   0.235   1.710
 5895SOL    HW130158   3.000   0.199   1.619
 5895SOL    HW230159   3.042   0.159   1.772
 5896SOL     OW30160   2.476   6.426   1.954
 5896SOL    HW130161   2.389   6.378   1.943
 5896SOL    HW230162   2.459   6.523   1.971
 5897SOL     OW30163   2.961   1.986   1.389
 5897SOL    HW130164   2.887   1.945   1.336
 5897SOL    HW230165   2.978   1.929   1.470
 5898SOL     OW30166   0.546   4.185   1.721
 5898SOL    HW130167   0.563   4.283   1.731
 5898SOL    HW230168   0.622   4.134   1.762
 5899SOL     OW30169   3.810   1.988   1.674
 5899SOL    HW130170   3.778   1.903   1.633
 5899SOL    HW230171   3.747   2.062   1.650
 5900SOL     OW30172   5.232   6.047   3.800
 5900SOL    HW130173   5.324   6.072   3.768
 5900SOL    HW230174   5.168   6.119   3.775
 5901SOL     OW30175   1.590   0.054   7.086
 5901SOL    HW130176   1.646   0.051   7.168
 5901SOL    HW230177   1.561   8.961   7.061
 5902SOL     OW30178   8.954   2.114   3.179
 5902SOL    HW130179   8.899   2.035   3.154
 5902SOL    HW230180   0.048   2.100   3.148
 5903SOL     OW30181   5.115   2.912   3.319
 5903SOL    HW130182   5.205   2.869   3.306
 5903SOL    HW230183   5.049   2.869   3.258
 5904SOL     OW30184   3.399   6.383   7.236
 5904SOL    HW130185   3.358   6.468   7.203
 5904SOL    HW230186   3.499   6.394   7.241
 5905SOL     OW30187   5.083   6.041   3.299
 5905SOL    HW130188   5.026   6.040   3.216
 5905SOL    HW230189   5.094   5.948   3.333
 5906SOL     OW30190   2.979   3.998   7.347
 5906SOL    HW130191   2.968   3.918   7.288
 5906SOL    HW230192   2.924   3.986   7.430
 5907SOL     OW30193   0.089   3.406   5.524
 5907SOL    HW130194   0.041   3.319   5.536
 5907SOL    HW230195   0.027   3.482   5.548
 5908SOL     OW30196   5.716   0.908   3.145
 5908SOL    HW130197   5.739   0.823   3.098
 5908SOL    HW230198   5.736   0.985   3.084
 5909SOL     OW30199   0.816   4.755   3.795
 5909SOL    HW130200   0.856   4.732   3.707
 5909SOL    HW230201   0.729   4.706   3.806
 5910SOL     OW30202   6.067   7.261   1.718
 5910SOL    HW130203   6.162   7.264   1.684
 5910SOL    HW230204   6.058   7.324   1.795
 5911SOL     OW30205   1.116   4.076   4.701
 5911SOL    HW130206   1.118   3.977   4.714
 5911SOL    HW230207   1.080   4.119   4.783
 5912SOL     OW30208   5.386   2.862   3.733
 5912SOL    HW130209   5.418   2.937   3.791
 5912SOL    HW230210   5.460   2.834   3.671
 5913SOL     OW30211   6.587   3.687   6.284
 5913SOL    HW130212   6.574   3.625   6.206
 5913SOL    HW230213   6.611   3.633   6.365
 5914SOL     OW30214   3.712   3.338   6.090
 5914SOL    HW130215   3.799   3.363   6.131
 5914SOL    HW230216   3.638   3.360   6.154
 5915SOL     OW30217   6.295   5.836   3.993
 5915SOL    HW130218   6.256   5.857   3.904
 5915SOL    HW230219   6.391   5.808   3.981
 5916SOL     OW30220   2.887   0.045   4.190
 5916SOL    HW130221   2.953   0.118   4.173
 5916SOL    HW230222   2.840   0.021   4.105
 5917SOL     OW30223   6.974   0.774   5.204
 5917SOL    HW130224   6.999   0.696   5.147
 5917SOL    HW230225   6.991   0.859   5.154
 5918SOL     OW30226   4.666   2.919   2.788
 5918SOL    HW130227   4.722   2.905   2.707
 5918SOL    HW230228   4.618   3.007   2.781
 5919SOL     OW30229   6.838   4.707   5.388
 5919SOL    HW130230   6.864   4.759   5.468
 5919SOL    HW230231   6.741   4.723   5.367
 5920SOL     OW30232   1.048   3.001   0.436
 5920SOL    HW130233   1.020   2.960   0.350
 5920SOL    HW230234   1.029   3.099   0.434
 5921SOL     OW30235   1.533   3.528   2.022
 5921SOL    HW130236   1.592   3.589   2.075
 5921SOL    HW230237   1.542   3.435   2.055
 5922SOL     OW30238   5.357   1.032   3.889
 5922SOL    HW130239   5.369   1.083   3.974
 5922SOL    HW230240   5.332   0.937   3.910
 5923SOL     OW30241   2.003   2.587   7.026
 5923SOL    HW130242   1.987   2.611   6.930
 5923SOL    HW230243   1.996   2.488   7.037
 5924SOL     OW30244   2.306   3.794   3.261
 5924SOL    HW130245   2.225   3.756   3.306
 5924SOL    HW230246   2.386   3.781   3.320
 5925SOL     OW30247   3.006   6.030   1.835
 5925SOL    HW130248   2.959   5.953   1.878
 5925SOL    HW230249   3.070   5.996   1.767
 5926SOL     OW30250   4.526   1.752   2.059
 5926SOL    HW130251   4.524   1.782   1.964
 5926SOL    HW230252   4.615   1.773   2.099
 5927SOL     OW30253   0.959   6.118   6.568
 5927SOL    HW130254   0.940   6.161   6.480
 5927SOL    HW230255   0.938   6.182   6.642
 5928SOL     OW30256   6.297   1.000   2.768
 5928SOL    HW130257   6.343   1.088   2.754
 5928SOL    HW230258   6.279   0.989   2.866
 5929SOL     OW30259   3.341   5.318   6.593
 5929SOL    HW130260   3.286   5.236   6.604
 5929SOL    HW230261   3.408   5.324   6.667
 5930SOL     OW30262   5.540   4.105   0.852
 5930SOL    HW130263   5.558   4.113   0.755
 5930SOL    HW230264   5.622   4.074   0.900
 5931SOL     OW30265   2.868   5.437   5.264
 5931SOL    HW130266   2.785   5.485   5.294
 5931SOL    HW230267   2.927   5.420   5.343
 5932SOL     OW30268   7.255   3.189   0.730
 5932SOL    HW130269   7.194   3.222   0.802
 5932SOL    HW230270   7.285   3.265   0.673
 5933SOL     OW30271   4.263   3.574   1.824
 5933SOL    HW130272   4.194   3.527   1.769
 5933SOL    HW230273   4.295   3.514   1.897
 5934SOL     OW30274   3.635   7.258   0.532
 5934SOL    HW130275   3.625   7.164   0.498
 5934SOL    HW230276   3.671   7.256   0.625
 5935SOL     OW30277   1.749   0.830   0.393
 5935SOL    HW130278   1.792   0.908   0.349
 5935SOL    HW230279   1.761   0.748   0.336
 5936SOL     OW30280   1.724   3.395   4.735
 5936SOL    HW130281   1.743   3.414   4.831
 5936SOL    HW230282   1.809   3.394   4.683
 5937SOL     OW30283   1.610   4.786   3.507
 5937SOL    HW130284   1.585   4.723   3.433
 5937SOL    HW230285   1.620   4.878   3.469
 5938SOL     OW30286   5.327   5.809   4.089
 5938SOL    HW130287   5.345   5.818   4.187
 5938SOL    HW230288   5.383   5.875   4.039
 5939SOL     OW30289   0.753   6.539   4.609
 5939SOL    HW130290   0.696   6.526   4.528
 5939SOL    HW230291   0.847   6.513   4.588
 5940SOL     OW30292   3.283   6.222   6.004
 5940SOL    HW130293   3.220   6.299   6.016
 5940SOL    HW230294   3.314   6.192   6.094
 5941SOL     OW30295   5.262   7.210   0.118
 5941SOL    HW130296   5.227   7.184   0.028
 5941SOL    HW230297   5.362   7.202   0.119
 5942SOL     OW30298   3.539   2.997   3.757
 5942SOL    HW130299   3.498   3.025   3.844
 5942SOL    HW230300   3.628   3.040   3.747
 5943SOL     OW30301   6.851   2.658   3.191
 5943SOL    HW130302   6.890   2.746   3.165
 5943SOL    HW230303   6.837   2.603   3.108
 5944SOL     OW30304   3.468   0.479   1.600
 5944SOL    HW130305   3.499   0.532   1.520
 5944SOL    HW230306   3.535   0.408   1.621
 5945SOL     OW30307   3.414   4.425   4.024
 5945SOL    HW130308   3.418   4.342   4.079
 5945SOL    HW230309   3.501   4.474   4.030
 5946SOL     OW30310   5.630   5.542   2.568
 5946SOL    HW130311   5.580   5.508   2.488
 5946SOL    HW230312   5.567   5.556   2.644
 5947SOL     OW30313   3.200   5.087   6.638
 5947SOL    HW130314   3.151   5.108   6.723
 5947SOL    HW230315   3.240   4.995   6.645
 5948SOL     OW30316   5.693   5.918   1.611
 5948SOL    HW130317   5.598   5.945   1.600
 5948SOL    HW230318   5.702   5.858   1.691
 5949SOL     OW30319   7.204   5.899   2.312
 5949SOL    HW130320   7.249   5.987   2.293
 5949SOL    HW230321   7.146   5.908   2.393
 5950SOL     OW30322   3.577   4.116   3.946
 5950SOL    HW130323   3.620   4.199   3.912
 5950SOL    HW230324   3.508   4.140   4.014
 5951SOL     OW30325   2.211   0.657   0.873
 5951SOL    HW130326   2.160   0.660   0.959
 5951SOL    HW230327   2.293   0.714   0.882
 5952SOL     OW30328   3.227   0.162   7.042
 5952SOL    HW130329   3.185   0.234   7.097
 5952SOL    HW230330   3.244   0.196   6.950
 5953SOL     OW30331   7.114   6.900   7.252
 5953SOL    HW130332   7.191   6.837   7.247
 5953SOL    HW230333   7.067   6.888   7.339
 5954SOL     OW30334   3.601   0.055   4.859
 5954SOL    HW130335   3.577   0.131   4.918
 5954SOL    HW230336   3.586   8.969   4.907
 5955SOL     OW30337   1.854   3.741   7.004
 5955SOL    HW130338   1.895   3.660   6.961
 5955SOL    HW230339   1.774   3.713   7.057
 5956SOL     OW30340   5.204   1.463   6.303
 5956SOL    HW130341   5.267   1.440   6.229
 5956SOL    HW230342   5.175   1.379   6.350
 5957SOL     OW30343   5.875   0.758   2.755
 5957SOL    HW130344   5.907   0.674   2.712
 5957SOL    HW230345   5.935   0.834   2.730
 5958SOL     OW30346   5.791   1.131   3.911
 5958SOL    HW130347   5.725   1.104   3.842
 5958SOL    HW230348   5.745   1.182   3.984
 5959SOL     OW30349   3.380   0.900   0.949
 5959SOL    HW130350   3.359   0.962   1.024
 5959SOL    HW230351   3.464   0.930   0.903
 5960SOL     OW30352   7.281   0.839   5.758
 5960SOL    HW130353   7.273   0.877   5.666
 5960SOL    HW230354   7.324   0.905   5.819
 5961SOL     OW30355   6.710   4.484   1.015
 5961SOL    HW130356   6.687   4.440   1.103
 5961SOL    HW230357   6.635   4.542   0.986
 5962SOL     OW30358   0.439   3.607   0.131
 5962SOL    HW130359   0.340   3.600   0.146
 5962SOL    HW230360   0.478   3.668   0.200
 5963SOL     OW30361   2.640   2.729   0.141
 5963SOL    HW130362   2.699   2.790   0.088
 5963SOL    HW230363   2.596   2.664   0.079
 5964SOL     OW30364   5.127   1.890   4.068
 5964SOL    HW130365   5.183   1.881   3.985
 5964SOL    HW230366   5.182   1.929   4.141
 5965SOL     OW30367   0.628   0.763   5.377
 5965SOL    HW130368   0.620   0.724   5.469
 5965SOL    HW230369   0.720   0.747   5.341
 5966SOL     OW30370   2.116   6.046   2.302
 5966SOL    HW130371   2.020   6.067   2.318
 5966SOL    HW230372   2.124   5.976   2.231
 5967SOL     OW30373   6.771   6.032   6.647
 5967SOL    HW130374   6.807   5.982   6.727
 5967SOL    HW230375   6.686   6.077   6.672
 5968SOL     OW30376   0.954   4.886   5.559
 5968SOL    HW130377   0.914   4.889   5.651
 5968SOL    HW230378   1.053   4.901   5.565
 5969SOL     OW30379   0.403   3.196   4.497
 5969SOL    HW130380   0.419   3.253   4.577
 5969SOL    HW230381   0.306   3.170   4.494
 5970SOL     OW30382   5.397   4.227   0.432
 5970SOL    HW130383   5.460   4.293   0.473
 5970SOL    HW230384   5.448   4.166   0.371
 5971SOL     OW30385   5.989   0.393   5.375
 5971SOL    HW130386   5.983   0.477   5.322
 5971SOL    HW230387   6.005   0.415   5.471
 5972SOL     OW30388   1.885   5.822   3.903
 5972SOL    HW130389   1.972   5.826   3.952
 5972SOL    HW230390   1.809   5.834   3.967
 5973SOL     OW30391   3.156   0.620   1.938
 5973SOL    HW130392   3.158   0.586   2.032
 5973SOL    HW230393   3.171   0.544   1.875
 5974SOL     OW30394   3.969   1.274   2.388
 5974SOL    HW130395   4.056   1.252   2.433
 5974SOL    HW230396   3.986   1.298   2.293
 5975SOL     OW30397   1.790   2.640   4.985
 5975SOL    HW130398   1.810   2.621   5.081
 5975SOL    HW230399   1.852   2.711   4.952
 5976SOL     OW30400   5.538   4.888   1.339
 5976SOL    HW130401   5.575   4.795   1.344
 5976SOL    HW230402   5.575   4.942   1.415
 5977SOL     OW30403   2.475   5.563   3.064
 5977SOL    HW130404   2.534   5.598   3.136
 5977SOL    HW230405   2.444   5.471   3.088
 5978SOL     OW30406   5.086   1.165   4.701
 5978SOL    HW130407   5.154   1.104   4.741
 5978SOL    HW230408   5.013   1.181   4.767
 5979SOL     OW30409   7.179   4.719   5.528
 5979SOL    HW130410   7.090   4.765   5.530
 5979SOL    HW230411   7.196   4.684   5.436
 5980SOL     OW30412   6.395   7.066   2.820
 5980SOL    HW130413   6.478   7.038   2.869
 5980SOL    HW230414   6.415   7.147   2.764
 5981SOL     OW30415   3.269   6.692   6.636
 5981SOL    HW130416   3.257   6.670   6.540
 5981SOL    HW230417   3.358   6.736   6.650
 5982SOL     OW30418   4.579   5.467   0.434
 5982SOL    HW130419   4.607   5.385   0.483
 5982SOL    HW230420   4.602   5.459   0.337
 5983SOL     OW30421   0.673   6.164   1.895
 5983SOL    HW130422   0.765   6.149   1.932
 5983SOL    HW230423   0.621   6.223   1.957
 5984SOL     OW30424   4.778   6.626   6.127
 5984SOL    HW130425   4.736   6.592   6.211
 5984SOL    HW230426   4.876   6.603   6.127
 5985SOL     OW30427   6.319   2.496   0.295
 5985SOL    HW130428   6.273   2.580   0.267
 5985SOL    HW230429   6.253   2.435   0.339
 5986SOL     OW30430   7.331   5.601   4.709
 5986SOL    HW130431   7.262   5.545   4.754
 5986SOL    HW230432   7.414   5.546   4.694
 5987SOL     OW30433   2.223   6.468   5.372
 5987SOL    HW130434   2.185   6.519   5.449
 5987SOL    HW230435   2.312   6.430   5.398
 5988SOL     OW30436   5.879   1.885   4.069
 5988SOL    HW130437   5.883   1.980   4.038
 5988SOL    HW230438   5.885   1.883   4.169
 5989SOL     OW30439   1.898   1.309   1.036
 5989SOL    HW130440   1.822   1.265   1.084
 5989SOL    HW230441   1.984   1.269   1.067
 5990SOL     OW30442   7.074   4.776   3.721
 5990SOL    HW130443   7.087   4.678   3.703
 5990SOL    HW230444   6.987   4.789   3.770
 5991SOL     OW30445   2.737   5.603   1.472
 5991SOL    HW130446   2.793   5.543   1.414
 5991SOL    HW230447   2.796   5.655   1.532
 5992SOL     OW30448   4.861   6.483   4.102
 5992SOL    HW130449   4.893   6.549   4.170
 5992SOL    HW230450   4.933   6.469   4.034
 5993SOL     OW30451   4.402   5.668   0.484
 5993SOL    HW130452   4.462   5.590   0.465
 5993SOL    HW230453   4.455   5.741   0.528
 5994SOL     OW30454   5.142   2.031   5.000
 5994SOL    HW130455   5.140   2.110   5.062
 5994SOL    HW230456   5.198   2.054   4.920
 5995SOL     OW30457   1.341   3.370   1.149
 5995SOL    HW130458   1.396   3.428   1.209
 5995SOL    HW230459   1.307   3.423   1.072
 5996SOL     OW30460   1.119   5.266   4.641
 5996SOL    HW130461   1.067   5.278   4.557
 5996SOL    HW230462   1.196   5.329   4.642
 5997SOL     OW30463   4.052   3.321   5.957
 5997SOL    HW130464   4.028   3.400   5.899
 5997SOL    HW230465   4.012   3.333   6.048
 5998SOL     OW30466   1.156   2.107   5.815
 5998SOL    HW130467   1.200   2.193   5.790
 5998SOL    HW230468   1.181   2.036   5.749
 5999SOL     OW30469   2.121   4.762   0.864
 5999SOL    HW130470   2.190   4.770   0.792
 5999SOL    HW230471   2.042   4.818   0.841
 6000SOL     OW30472   5.384   5.354   5.358
 6000SOL    HW130473   5.448   5.416   5.402
 6000SOL    HW230474   5.330   5.306   5.428
 6001SOL     OW30475   4.661   2.823   3.209
 6001SOL    HW130476   4.602   2.744   3.221
 6001SOL    HW230477   4.605   2.906   3.208
 6002SOL     OW30478   0.595   1.526   2.422
 6002SOL    HW130479   0.662   1.486   2.359
 6002SOL    HW230480   0.528   1.578   2.369
 6003SOL     OW30481   1.604   4.011   6.782
 6003SOL    HW130482   1.699   3.990   6.806
 6003SOL    HW230483   1.550   4.018   6.865
 6004SOL     OW30484   3.327   5.955   2.681
 6004SOL    HW130485   3.350   5.865   2.718
 6004SOL    HW230486   3.274   5.944   2.597
 6005SOL     OW30487   5.637   3.166   0.484
 6005SOL    HW130488   5.649   3.226   0.564
 6005SOL    HW230489   5.712   3.180   0.420
 6006SOL     OW30490   2.301   2.432   5.532
 6006SOL    HW130491   2.381   2.421   5.591
 6006SOL    HW230492   2.262   2.523   5.545
 6007SOL     OW30493   5.249   0.923   1.076
 6007SOL    HW130494   5.298   0.879   1.000
 6007SOL    HW230495   5.153   0.934   1.051
 6008SOL     OW30496   3.202   1.876   1.010
 6008SOL    HW130497   3.169   1.943   1.076
 6008SOL    HW230498   3.140   1.873   0.931
 6009SOL     OW30499   5.105   4.846   6.247
 6009SOL    HW130500   5.106   4.759   6.197
 6009SOL    HW230501   5.197   4.865   6.282
 6010SOL     OW30502   0.122   5.108   4.011
 6010SOL    HW130503   0.028   5.139   3.996
 6010SOL    HW230504   0.138   5.025   3.956
 6011SOL     OW30505   4.242   5.198   2.061
 6011SOL    HW130506   4.266   5.103   2.042
 6011SOL    HW230507   4.325   5.255   2.061
 6012SOL     OW30508   4.405   6.984   2.405
 6012SOL    HW130509   4.323   7.028   2.369
 6012SOL    HW230510   4.465   7.054   2.444
 6013SOL     OW30511   3.746   1.453   4.874
 6013SOL    HW130512   3.798   1.401   4.941
 6013SOL    HW230513   3.783   1.435   4.782
 6014SOL     OW30514   3.682   1.314   5.927
 6014SOL    HW130515   3.724   1.391   5.974
 6014SOL    HW230516   3.727   1.229   5.954
 6015SOL     OW30517   5.296   2.059   0.453
 6015SOL    HW130518   5.228   2.075   0.382
 6015SOL    HW230519   5.256   2.001   0.525
 6016SOL     OW30520   4.451   7.266   1.743
 6016SOL    HW130521   4.537   7.228   1.708
 6016SOL    HW230522   4.374   7.215   1.705
 6017SOL     OW30523   5.048   2.016   3.297
 6017SOL    HW130524   5.010   2.108   3.310
 6017SOL    HW230525   4.974   1.950   3.291
 6018SOL     OW30526   5.791   0.087   5.087
 6018SOL    HW130527   5.840   0.054   5.006
 6018SOL    HW230528   5.757   0.179   5.071
 6019SOL     OW30529   4.344   2.004   4.039
 6019SOL    HW130530   4.288   1.970   3.963
 6019SOL    HW230531   4.293   2.072   4.091
 6020SOL     OW30532   0.903   3.825   5.851
 6020SOL    HW130533   0.937   3.790   5.938
 6020SOL    HW230534   0.956   3.906   5.824
 6021SOL     OW30535   3.104   5.246   4.104
 6021SOL    HW130536   3.125   5.215   4.011
 6021SOL    HW230537   3.012   5.284   4.106
 6022SOL     OW30538   2.225   2.254   3.022
 6022SOL    HW130539   2.226   2.351   3.047
 6022SOL    HW230540   2.184   2.201   3.095
 6023SOL     OW30541   5.725   5.730   1.817
 6023SOL    HW130542   5.656   5.709   1.886
 6023SOL    HW230543   5.815   5.731   1.860
 6024SOL     OW30544   4.948   2.273   0.185
 6024SOL    HW130545   4.851   2.296   0.179
 6024SOL    HW230546   4.985   2.310   0.270
 6025SOL     OW30547   5.991   0.714   4.848
 6025SOL    HW130548   5.917   0.681   4.907
 6025SOL    HW230549   5.992   0.660   4.764
 6026SOL     OW30550   7.207   3.994   6.408
 6026SOL    HW130551   7.245   3.903   6.430
 6026SOL    HW230552   7.206   4.006   6.309
 6027SOL     OW30553   7.235   1.539   7.172
 6027SOL    HW130554   7.146   1.563   7.132
 6027SOL    HW230555   7.232   1.557   7.271
 6028SOL     OW30556   5.108   4.079   1.587
 6028SOL    HW130557   5.118   4.042   1.495
 6028SOL    HW230558   5.186   4.138   1.608
 6029SOL     OW30559   4.027   6.801   3.008
 6029SOL    HW130560   4.027   6.896   2.975
 6029SOL    HW230561   4.121   6.767   3.010
 6030SOL     OW30562   0.866   3.335   0.951
 6030SOL    HW130563   0.854   3.272   1.027
 6030SOL    HW230564   0.923   3.412   0.981
 6031SOL     OW30565   0.761   1.068   3.301
 6031SOL    HW130566   0.724   1.066   3.394
 6031SOL    HW230567   0.861   1.066   3.304
 6032SOL     OW30568   5.766   1.873   0.897
 6032SOL    HW130569   5.677   1.875   0.943
 6032SOL    HW230570   5.798   1.778   0.892
 6033SOL     OW30571   3.532   0.293   0.936
 6033SOL    HW130572   3.499   0.278   1.029
 6033SOL    HW230573   3.470   0.357   0.889
 6034SOL     OW30574   6.148   1.255   6.054
 6034SOL    HW130575   6.120   1.275   5.960
 6034SOL    HW230576   6.136   1.157   6.073
 6035SOL     OW30577   5.563   2.145   1.696
 6035SOL    HW130578   5.546   2.187   1.785
 6035SOL    HW230579   5.631   2.072   1.707
 6036SOL     OW30580   3.482   7.130   4.960
 6036SOL    HW130581   3.549   7.154   4.889
 6036SOL    HW230582   3.520   7.058   5.018
 6037SOL     OW30583   0.923   7.139   5.761
 6037SOL    HW130584   0.997   7.203   5.742
 6037SOL    HW230585   0.907   7.133   5.859
 6038SOL     OW30586   2.235   5.827   0.639
 6038SOL    HW130587   2.170   5.896   0.608
 6038SOL    HW230588   2.236   5.824   0.739
 6039SOL     OW30589   4.932   0.085   2.673
 6039SOL    HW130590   4.839   0.120   2.671
 6039SOL    HW230591   4.967   0.075   2.580
 6040SOL     OW30592   0.950   1.081   6.389
 6040SOL    HW130593   0.973   1.161   6.444
 6040SOL    HW230594   0.965   0.998   6.442
 6041SOL     OW30595   0.568   5.702   5.775
 6041SOL    HW130596   0.623   5.665   5.850
 6041SOL    HW230597   0.629   5.741   5.706
 6042SOL     OW30598   3.527   0.909   7.038
 6042SOL    HW130599   3.532   1.007   7.060
 6042SOL    HW230600   3.524   0.856   7.123
 6043SOL     OW30601   0.933   2.196   0.209
 6043SOL    HW130602   0.978   2.120   0.160
 6043SOL    HW230603   0.932   2.176   0.307
 6044SOL     OW30604   5.853   4.094   2.116
 6044SOL    HW130605   5.918   4.018   2.117
 6044SOL    HW230606   5.849   4.133   2.024
 6045SOL     OW30607   4.165   5.000   3.267
 6045SOL    HW130608   4.098   4.941   3.313
 6045SOL    HW230609   4.219   4.946   3.204
 6046SOL     OW30610   6.454   3.788   3.306
 6046SOL    HW130611   6.521   3.714   3.297
 6046SOL    HW230612   6.417   3.789   3.399
 6047SOL     OW30613   0.538   3.967   1.549
 6047SOL    HW130614   0.518   3.984   1.453
 6047SOL    HW230615   0.534   4.053   1.600
 6048SOL     OW30616   0.739   1.988   2.048
 6048SOL    HW130617   0.664   2.054   2.049
 6048SOL    HW230618   0.805   2.012   1.976
 6049SOL     OW30619   3.190   4.293   4.830
 6049SOL    HW130620   3.105   4.330   4.867
 6049SOL    HW230621   3.173   4.257   4.738
 6050SOL     OW30622   6.542   0.117   7.335
 6050SOL    HW130623   6.629   0.081   7.304
 6050SOL    HW230624   6.467   0.064   7.295
 6051SOL     OW30625   3.087   3.652   3.601
 6051SOL    HW130626   3.181   3.619   3.612
 6051SOL    HW230627   3.050   3.674   3.691
 6052SOL     OW30628   4.708   1.901   4.926
 6052SOL    HW130629   4.770   1.915   5.003
 6052SOL    HW230630   4.757   1.922   4.841
 6053SOL     OW30631   1.093   4.127   3.206
 6053SOL    HW130632   1.109   4.177   3.121
 6053SOL    HW230633   1.176   4.076   3.230
 6054SOL     OW30634   1.136   1.432   0.261
 6054SOL    HW130635   1.040   1.416   0.236
 6054SOL    HW230636   1.183   1.480   0.188
 6055SOL     OW30637   4.387   2.302   1.290
 6055SOL    HW130638   4.405   2.229   1.224
 6055SOL    HW230639   4.427   2.387   1.256
 6056SOL     OW30640   3.662   4.554   4.008
 6056SOL    HW130641   3.655   4.630   3.943
 6056SOL    HW230642   3.697   4.473   3.960
 6057SOL     OW30643   3.690   6.994   5.782
 6057SOL    HW130644   3.598   7.033   5.782
 6057SOL    HW230645   3.753   7.057   5.736
 6058SOL     OW30646   2.345   6.905   3.696
 6058SOL    HW130647   2.261   6.863   3.731
 6058SOL    HW230648   2.386   6.962   3.768
 6059SOL     OW30649   6.349   0.328   6.527
 6059SOL    HW130650   6.383   0.240   6.495
 6059SOL    HW230651   6.351   0.331   6.627
 6060SOL     OW30652   6.458   5.514   3.385
 6060SOL    HW130653   6.462   5.452   3.463
 6060SOL    HW230654   6.364   5.519   3.351
 6061SOL     OW30655   4.258   5.321   5.870
 6061SOL    HW130656   4.205   5.345   5.951
 6061SOL    HW230657   4.230   5.230   5.839
 6062SOL     OW30658   2.068   2.071   4.468
 6062SOL    HW130659   2.124   2.039   4.544
 6062SOL    HW230660   2.037   1.993   4.414
 6063SOL     OW30661   5.236   5.043   4.591
 6063SOL    HW130662   5.228   4.961   4.648
 6063SOL    HW230663   5.186   5.029   4.505
 6064SOL     OW30664   2.047   4.549   6.552
 6064SOL    HW130665   2.028   4.451   6.553
 6064SOL    HW230666   2.019   4.590   6.639
 6065SOL     OW30667   5.218   1.399   0.693
 6065SOL    HW130668   5.191   1.356   0.779
 6065SOL    HW230669   5.307   1.444   0.704
 6066SOL     OW30670   4.991   4.304   0.829
 6066SOL    HW130671   5.012   4.207   0.845
 6066SOL    HW230672   4.958   4.346   0.913
 6067SOL     OW30673   1.705   4.221   6.366
 6067SOL    HW130674   1.797   4.251   6.344
 6067SOL    HW230675   1.639   4.275   6.313
 6068SOL     OW30676   0.673   1.798   3.222
 6068SOL    HW130677   0.725   1.815   3.138
 6068SOL    HW230678   0.614   1.876   3.240
 6069SOL     OW30679   5.325   4.829   1.747
 6069SOL    HW130680   5.359   4.769   1.675
 6069SOL    HW230681   5.385   4.909   1.753
 6070SOL     OW30682   2.496   0.316   5.493
 6070SOL    HW130683   2.574   0.280   5.442
 6070SOL    HW230684   2.454   0.241   5.545
 6071SOL     OW30685   7.292   2.533   3.683
 6071SOL    HW130686   7.256   2.615   3.728
 6071SOL    HW230687   7.351   2.560   3.607
 6072SOL     OW30688   4.645   0.638   3.108
 6072SOL    HW130689   4.713   0.571   3.079
 6072SOL    HW230690   4.668   0.727   3.068
 6073SOL     OW30691   1.464   4.450   1.494
 6073SOL    HW130692   1.402   4.415   1.564
 6073SOL    HW230693   1.528   4.515   1.535
 6074SOL     OW30694   4.519   2.628   6.085
 6074SOL    HW130695   4.507   2.727   6.094
 6074SOL    HW230696   4.611   2.604   6.116
 6075SOL     OW30697   5.415   5.847   4.730
 6075SOL    HW130698   5.445   5.929   4.681
 6075SOL    HW230699   5.445   5.853   4.825
 6076SOL     OW30700   3.180   2.819   4.934
 6076SOL    HW130701   3.217   2.739   4.887
 6076SOL    HW230702   3.146   2.885   4.867
 6077SOL     OW30703   1.374   1.771   1.100
 6077SOL    HW130704   1.354   1.696   1.038
 6077SOL    HW230705   1.472   1.772   1.121
 6078SOL     OW30706   6.203   2.743   0.224
 6078SOL    HW130707   6.191   2.788   0.313
 6078SOL    HW230708   6.292   2.767   0.186
 6079SOL     OW30709   2.270   1.434   3.037
 6079SOL    HW130710   2.312   1.486   3.112
 6079SOL    HW230711   2.324   1.447   2.954
 6080SOL     OW30712   1.399   3.690   3.253
 6080SOL    HW130713   1.307   3.651   3.261
 6080SOL    HW230714   1.396   3.787   3.274
 6081SOL     OW30715   5.369   3.687   2.849
 6081SOL    HW130716   5.306   3.634   2.905
 6081SOL    HW230717   5.459   3.688   2.892
 6082SOL     OW30718   1.075   0.226   6.855
 6082SOL    HW130719   1.167   0.252   6.827
 6082SOL    HW230720   1.079   0.174   6.941
 6083SOL     OW30721   3.630   1.062   5.446
 6083SOL    HW130722   3.545   1.100   5.482
 6083SOL    HW230723   3.640   1.087   5.350
 6084SOL     OW30724   3.531   2.888   3.503
 6084SOL    HW130725   3.556   2.792   3.520
 6084SOL    HW230726   3.522   2.935   3.590
 6085SOL     OW30727   8.911   3.505   3.712
 6085SOL    HW130728   8.992   3.561   3.693
 6085SOL    HW230729   8.918   3.419   3.661
 6086SOL     OW30730   1.952   3.771   2.076
 6086SOL    HW130731   2.022   3.702   2.059
 6086SOL    HW230732   1.979   3.828   2.154
 6087SOL     OW30733   3.518   5.504   5.740
 6087SOL    HW130734   3.538   5.585   5.685
 6087SOL    HW230735   3.601   5.474   5.786
 6088SOL     OW30736   3.432   6.950   1.530
 6088SOL    HW130737   3.531   6.956   1.531
 6088SOL    HW230738   3.396   7.003   1.453
 6089SOL     OW30739   6.576   3.641   1.276
 6089SOL    HW130740   6.520   3.628   1.357
 6089SOL    HW230741   6.622   3.555   1.253
 6090SOL     OW30742   4.250   2.233   2.701
 6090SOL    HW130743   4.296   2.179   2.771
 6090SOL    HW230744   4.259   2.187   2.612
 6091SOL     OW30745   1.422   5.572   6.712
 6091SOL    HW130746   1.418   5.498   6.778
 6091SOL    HW230747   1.514   5.579   6.674
 6092SOL     OW30748   2.008   2.844   2.388
 6092SOL    HW130749   1.992   2.833   2.290
 6092SOL    HW230750   2.106   2.852   2.405
 6093SOL     OW30751   5.473   3.695   5.974
 6093SOL    HW130752   5.373   3.689   5.978
 6093SOL    HW230753   5.503   3.775   6.024
 6094SOL     OW30754   5.359   3.724   0.526
 6094SOL    HW130755   5.319   3.781   0.454
 6094SOL    HW230756   5.433   3.775   0.571
 6095SOL     OW30757   2.102   2.313   2.762
 6095SOL    HW130758   2.123   2.248   2.689
 6095SOL    HW230759   2.149   2.285   2.846
 6096SOL     OW30760   5.957   5.326   7.099
 6096SOL    HW130761   6.015   5.317   7.019
 6096SOL    HW230762   5.956   5.240   7.150
 6097SOL     OW30763   1.152   0.547   5.982
 6097SOL    HW130764   1.227   0.548   5.915
 6097SOL    HW230765   1.134   0.641   6.012
 6098SOL     OW30766   3.975   7.212   2.532
 6098SOL    HW130767   3.915   7.162   2.594
 6098SOL    HW230768   3.932   7.298   2.506
 6099SOL     OW30769   5.361   1.141   5.978
 6099SOL    HW130770   5.443   1.085   5.980
 6099SOL    HW230771   5.380   1.229   6.023
 6100SOL     OW30772   4.643   0.634   7.207
 6100SOL    HW130773   4.559   0.588   7.179
 6100SOL    HW230774   4.693   0.664   7.126
 6101SOL     OW30775   3.133   2.738   6.006
 6101SOL    HW130776   3.229   2.716   5.989
 6101SOL    HW230777   3.078   2.656   5.995
 6102SOL     OW30778   7.237   4.862   3.921
 6102SOL    HW130779   7.332   4.871   3.890
 6102SOL    HW230780   7.179   4.840   3.843
 6103SOL     OW30781   1.900   4.341   1.866
 6103SOL    HW130782   1.974   4.403   1.841
 6103SOL    HW230783   1.813   4.378   1.832
 6104SOL     OW30784   1.561   3.974   4.515
 6104SOL    HW130785   1.590   3.879   4.527
 6104SOL    HW230786   1.637   4.035   4.535
 6105SOL     OW30787   1.566   3.214   4.147
 6105SOL    HW130788   1.650   3.171   4.180
 6105SOL    HW230789   1.550   3.188   4.052
 6106SOL     OW30790   4.553   7.078   5.217
 6106SOL    HW130791   4.565   7.077   5.316
 6106SOL    HW230792   4.586   7.165   5.180
 6107SOL     OW30793   0.533   6.558   0.130
 6107SOL    HW130794   0.599   6.484   0.142
 6107SOL    HW230795   0.581   6.644   0.117
 6108SOL     OW30796   3.199   5.888   5.071
 6108SOL    HW130797   3.174   5.809   5.127
 6108SOL    HW230798   3.189   5.865   4.975
 6109SOL     OW30799   2.399   1.514   1.335
 6109SOL    HW130800   2.317   1.517   1.391
 6109SOL    HW230801   2.477   1.487   1.392
 6110SOL     OW30802   4.444   1.579   7.246
 6110SOL    HW130803   4.382   1.577   7.167
 6110SOL    HW230804   4.484   1.488   7.259
 6111SOL     OW30805   2.862   6.241   2.198
 6111SOL    HW130806   2.770   6.247   2.160
 6111SOL    HW230807   2.929   6.239   2.123
 6112SOL     OW30808   3.268   0.575   2.894
 6112SOL    HW130809   3.222   0.491   2.921
 6112SOL    HW230810   3.230   0.652   2.946
 6113SOL     OW30811   3.154   5.164   3.835
 6113SOL    HW130812   3.190   5.074   3.814
 6113SOL    HW230813   3.086   5.190   3.766
 6114SOL     OW30814   0.752   5.367   4.057
 6114SOL    HW130815   0.804   5.441   4.099
 6114SOL    HW230816   0.658   5.398   4.040
 6115SOL     OW30817   6.360   2.151   6.962
 6115SOL    HW130818   6.442   2.110   6.921
 6115SOL    HW230819   6.338   2.104   7.047
 6116SOL     OW30820   5.572   3.439   1.019
 6116SOL    HW130821   5.544   3.511   0.956
 6116SOL    HW230822   5.569   3.351   0.972
 6117SOL     OW30823   1.230   5.748   6.599
 6117SOL    HW130824   1.146   5.715   6.642
 6117SOL    HW230825   1.307   5.692   6.630
 6118SOL     OW30826   4.917   2.167   5.388
 6118SOL    HW130827   4.832   2.192   5.434
 6118SOL    HW230828   4.929   2.068   5.392
 6119SOL     OW30829   7.156   0.281   6.755
 6119SOL    HW130830   7.166   0.221   6.676
 6119SOL    HW230831   7.089   0.353   6.733
 6120SOL     OW30832   5.765   2.923   2.982
 6120SOL    HW130833   5.665   2.919   2.976
 6120SOL    HW230834   5.801   2.977   2.906
 6121SOL     OW30835   4.901   3.683   1.632
 6121SOL    HW130836   4.808   3.663   1.599
 6121SOL    HW230837   4.966   3.667   1.558
 6122SOL     OW30838   7.235   5.471   6.781
 6122SOL    HW130839   7.209   5.543   6.845
 6122SOL    HW230840   7.283   5.511   6.703
 6123SOL     OW30841   6.860   2.151   4.880
 6123SOL    HW130842   6.930   2.194   4.936
 6123SOL    HW230843   6.782   2.213   4.870
 6124SOL     OW30844   3.960   0.580   5.447
 6124SOL    HW130845   3.888   0.649   5.452
 6124SOL    HW230846   4.048   0.623   5.468
 6125SOL     OW30847   5.115   0.803   1.649
 6125SOL    HW130848   5.156   0.739   1.584
 6125SOL    HW230849   5.166   0.890   1.647
 6126SOL     OW30850   4.500   6.005   6.431
 6126SOL    HW130851   4.547   5.943   6.494
 6126SOL    HW230852   4.528   5.985   6.337
 6127SOL     OW30853   4.354   6.631   4.995
 6127SOL    HW130854   4.383   6.699   4.927
 6127SOL    HW230855   4.256   6.615   4.986
 6128SOL     OW30856   1.036   1.515   6.379
 6128SOL    HW130857   1.100   1.517   6.303
 6128SOL    HW230858   0.978   1.596   6.376
 6129SOL     OW30859   6.636   5.643   4.190
 6129SOL    HW130860   6.732   5.616   4.187
 6129SOL    HW230861   6.620   5.698   4.273
 6130SOL     OW30862   0.202   3.956   4.098
 6130SOL    HW130863   0.158   4.035   4.055
 6130SOL    HW230864   0.187   3.875   4.041
 6131SOL     OW30865   1.978   6.716   0.068
 6131SOL    HW130866   1.897   6.772   0.051
 6131SOL    HW230867   1.966   6.665   0.153
 6132SOL     OW30868   6.325   2.045   4.787
 6132SOL    HW130869   6.306   2.099   4.705
 6132SOL    HW230870   6.380   2.100   4.850
 6133SOL     OW30871   2.551   5.293   4.601
 6133SOL    HW130872   2.460   5.259   4.624
 6133SOL    HW230873   2.611   5.287   4.680
 6134SOL     OW30874   4.194   6.836   2.508
 6134SOL    HW130875   4.145   6.774   2.446
 6134SOL    HW230876   4.275   6.872   2.462
 6135SOL     OW30877   3.304   5.886   2.042
 6135SOL    HW130878   3.221   5.877   1.987
 6135SOL    HW230879   3.336   5.795   2.070
 6136SOL     OW30880   6.900   0.300   0.858
 6136SOL    HW130881   6.870   0.376   0.916
 6136SOL    HW230882   6.823   0.239   0.841
 6137SOL     OW30883   7.098   2.345   3.639
 6137SOL    HW130884   7.165   2.416   3.657
 6137SOL    HW230885   7.009   2.372   3.676
 6138SOL     OW30886   5.950   0.119   2.356
 6138SOL    HW130887   6.045   0.121   2.325
 6138SOL    HW230888   5.926   0.025   2.382
 6139SOL     OW30889   3.812   6.106   5.365
 6139SOL    HW130890   3.728   6.053   5.359
 6139SOL    HW230891   3.854   6.111   5.274
 6140SOL     OW30892   4.501   1.833   2.772
 6140SOL    HW130893   4.465   1.920   2.806
 6140SOL    HW230894   4.431   1.787   2.718
 6141SOL     OW30895   5.230   3.863   3.234
 6141SOL    HW130896   5.164   3.792   3.209
 6141SOL    HW230897   5.195   3.952   3.207
 6142SOL     OW30898   2.111   3.669   3.410
 6142SOL    HW130899   2.017   3.666   3.444
 6142SOL    HW230900   2.174   3.643   3.483
 6143SOL     OW30901   6.674   4.053   0.403
 6143SOL    HW130902   6.627   3.965   0.400
 6143SOL    HW230903   6.691   4.078   0.499
 6144SOL     OW30904   2.384   6.924   2.424
 6144SOL    HW130905   2.335   6.837   2.413
 6144SOL    HW230906   2.317   6.998   2.437
 6145SOL     OW30907   0.491   5.922   0.298
 6145SOL    HW130908   0.502   5.885   0.391
 6145SOL    HW230909   0.423   5.869   0.249
 6146SOL     OW30910   0.621   0.987   7.354
 6146SOL    HW130911   0.649   0.897   7.320
 6146SOL    HW230912   0.543   1.020   7.301
 6147SOL     OW30913   2.797   0.715   1.595
 6147SOL    HW130914   2.816   0.787   1.527
 6147SOL    HW230915   2.714   0.737   1.645
 6148SOL     OW30916   2.146   1.705   7.192
 6148SOL    HW130917   2.177   1.798   7.214
 6148SOL    HW230918   2.199   1.671   7.114
 6149SOL     OW30919   6.493   5.960   0.262
 6149SOL    HW130920   6.505   5.861   0.264
 6149SOL    HW230921   6.581   6.004   0.245
 6150SOL     OW30922   6.066   3.542   6.214
 6150SOL    HW130923   6.089   3.551   6.117
 6150SOL    HW230924   6.094   3.625   6.262
 6151SOL     OW30925   3.903   2.923   3.627
 6151SOL    HW130926   3.869   2.839   3.668
 6151SOL    HW230927   3.865   3.002   3.676
 6152SOL     OW30928   5.984   3.529   3.761
 6152SOL    HW130929   6.029   3.613   3.731
 6152SOL    HW230930   5.892   3.550   3.791
 6153SOL     OW30931   2.438   5.388   0.765
 6153SOL    HW130932   2.418   5.396   0.667
 6153SOL    HW230933   2.441   5.478   0.807
 6154SOL     OW30934   2.180   4.962   0.432
 6154SOL    HW130935   2.202   4.897   0.505
 6154SOL    HW230936   2.231   4.938   0.349
 6155SOL     OW30937   6.783   2.087   0.211
 6155SOL    HW130938   6.732   2.132   0.285
 6155SOL    HW230939   6.730   2.009   0.177
 6156SOL     OW30940   3.146   1.085   1.561
 6156SOL    HW130941   3.130   1.183   1.567
 6156SOL    HW230942   3.129   1.054   1.468
 6157SOL     OW30943   1.841   5.722   0.371
 6157SOL    HW130944   1.841   5.770   0.458
 6157SOL    HW230945   1.934   5.720   0.334
 6158SOL     OW30946   3.370   3.200   2.004
 6158SOL    HW130947   3.424   3.167   1.927
 6158SOL    HW230948   3.351   3.125   2.067
 6159SOL     OW30949   6.966   4.787   4.244
 6159SOL    HW130950   6.887   4.809   4.187
 6159SOL    HW230951   7.027   4.726   4.194
 6160SOL     OW30952   1.610   5.266   0.810
 6160SOL    HW130953   1.698   5.227   0.839
 6160SOL    HW230954   1.606   5.271   0.711
 6161SOL     OW30955   4.360   3.648   5.514
 6161SOL    HW130956   4.326   3.559   5.546
 6161SOL    HW230957   4.292   3.718   5.531
 6162SOL     OW30958   1.688   1.052   2.004
 6162SOL    HW130959   1.669   1.006   2.091
 6162SOL    HW230960   1.602   1.067   1.956
 6163SOL     OW30961   1.282   2.797   5.491
 6163SOL    HW130962   1.297   2.809   5.393
 6163SOL    HW230963   1.341   2.860   5.542
 6164SOL     OW30964   3.743   6.588   5.426
 6164SOL    HW130965   3.653   6.617   5.456
 6164SOL    HW230966   3.809   6.597   5.501
 6165SOL     OW30967   3.629   4.749   3.819
 6165SOL    HW130968   3.598   4.828   3.872
 6165SOL    HW230969   3.554   4.714   3.764
 6166SOL     OW30970   2.353   4.288   4.147
 6166SOL    HW130971   2.380   4.253   4.057
 6166SOL    HW230972   2.284   4.227   4.187
 6167SOL     OW30973   6.464   2.652   0.471
 6167SOL    HW130974   6.419   2.585   0.412
 6167SOL    HW230975   6.554   2.675   0.432
 6168SOL     OW30976   3.785   0.047   2.496
 6168SOL    HW130977   3.859   0.107   2.528
 6168SOL    HW230978   3.724   0.027   2.572
 6169SOL     OW30979   3.044   6.464   6.278
 6169SOL    HW130980   2.947   6.482   6.292
 6169SOL    HW230981   3.067   6.375   6.319
 6170SOL     OW30982   3.241   5.625   2.978
 6170SOL    HW130983   3.143   5.644   2.967
 6170SOL    HW230984   3.289   5.648   2.894
 6171SOL     OW30985   3.559   3.377   1.752
 6171SOL    HW130986   3.536   3.282   1.775
 6171SOL    HW230987   3.656   3.383   1.730
 6172SOL     OW30988   2.271   1.196   5.525
 6172SOL    HW130989   2.304   1.272   5.469
 6172SOL    HW230990   2.326   1.115   5.506
 6173SOL     OW30991   2.581   4.113   0.733
 6173SOL    HW130992   2.525   4.094   0.814
 6173SOL    HW230993   2.584   4.032   0.675
 6174SOL     OW30994   2.213   2.004   4.690
 6174SOL    HW130995   2.132   1.969   4.738
 6174SOL    HW230996   2.249   2.083   4.739
 6175SOL     OW30997   1.111   5.803   4.517
 6175SOL    HW130998   1.198   5.762   4.546
 6175SOL    HW230999   1.130   5.871   4.446
 6176SOL     OW31000   2.888   0.495   3.239
 6176SOL    HW131001   2.850   0.552   3.311
 6176SOL    HW231002   2.988   0.491   3.249
 6177SOL     OW31003   4.766   3.598   5.920
 6177SOL    HW131004   4.671   3.627   5.920
 6177SOL    HW231005   4.773   3.503   5.951
 6178SOL     OW31006   1.322   5.452   4.664
 6178SOL    HW131007   1.316   5.465   4.763
 6178SOL    HW231008   1.340   5.540   4.619
 6179SOL     OW31009   5.896   6.038   3.406
 6179SOL    HW131010   5.898   6.017   3.504
 6179SOL    HW231011   5.833   6.114   3.389
 6180SOL     OW31012   5.256   3.563   6.224
 6180SOL    HW131013   5.292   3.629   6.290
 6180SOL    HW231014   5.229   3.611   6.141
 6181SOL     OW31015   0.227   6.051   0.095
 6181SOL    HW131016   0.258   6.118   0.162
 6181SOL    HW231017   0.128   6.043   0.098
 6182SOL     OW31018   6.786   7.286   1.511
 6182SOL    HW131019   6.860   7.350   1.532
 6182SOL    HW231020   6.705   7.311   1.564
 6183SOL     OW31021   0.230   3.247   4.047
 6183SOL    HW131022   0.131   3.253   4.058
 6183SOL    HW231023   0.275   3.287   4.127
 6184SOL     OW31024   4.963   0.696   0.165
 6184SOL    HW131025   5.050   0.650   0.180
 6184SOL    HW231026   4.903   0.639   0.110
 6185SOL     OW31027   0.430   3.058   2.670
 6185SOL    HW131028   0.497   3.047   2.596
 6185SOL    HW231029   0.478   3.057   2.758
 6186SOL     OW31030   3.997   6.826   3.672
 6186SOL    HW131031   4.029   6.828   3.767
 6186SOL    HW231032   4.068   6.788   3.613
 6187SOL     OW31033   4.022   6.354   3.215
 6187SOL    HW131034   3.979   6.264   3.220
 6187SOL    HW231035   3.954   6.422   3.189
 6188SOL     OW31036   1.842   4.837   1.934
 6188SOL    HW131037   1.934   4.875   1.942
 6188SOL    HW231038   1.802   4.827   2.025
 6189SOL     OW31039   4.175   7.071   2.663
 6189SOL    HW131040   4.108   7.124   2.610
 6189SOL    HW231041   4.190   6.983   2.618
 6190SOL     OW31042   4.349   0.734   5.147
 6190SOL    HW131043   4.296   0.813   5.117
 6190SOL    HW231044   4.311   0.650   5.106
 6191SOL     OW31045   5.586   0.388   7.087
 6191SOL    HW131046   5.672   0.400   7.038
 6191SOL    HW231047   5.562   0.472   7.134
 6192SOL     OW31048   7.336   0.212   6.033
 6192SOL    HW131049   7.421   0.159   6.026
 6192SOL    HW231050   7.322   0.264   5.949
 6193SOL     OW31051   3.982   6.417   6.348
 6193SOL    HW131052   4.042   6.343   6.319
 6193SOL    HW231053   3.893   6.379   6.374
 6194SOL     OW31054   5.031   0.911   2.244
 6194SOL    HW131055   5.000   1.005   2.258
 6194SOL    HW231056   5.127   0.904   2.271
 6195SOL     OW31057   4.053   3.501   4.797
 6195SOL    HW131058   4.143   3.456   4.795
 6195SOL    HW231059   4.043   3.551   4.882
 6196SOL     OW31060   5.060   3.475   7.003
 6196SOL    HW131061   5.155   3.499   7.023
 6196SOL    HW231062   5.014   3.553   6.961
 6197SOL     OW31063   7.240   2.570   1.555
 6197SOL    HW131064   7.233   2.473   1.529
 6197SOL    HW231065   7.243   2.626   1.472
 6198SOL     OW31066   4.957   1.522   4.561
 6198SOL    HW131067   4.991   1.433   4.532
 6198SOL    HW231068   4.859   1.516   4.581
 6199SOL     OW31069   0.135   2.487   2.323
 6199SOL    HW131070   0.130   2.503   2.225
 6199SOL    HW231071   0.230   2.491   2.353
 6200SOL     OW31072   4.903   5.213   6.679
 6200SOL    HW131073   4.940   5.230   6.770
 6200SOL    HW231074   4.977   5.192   6.616
 6201SOL     OW31075   3.499   3.408   6.252
 6201SOL    HW131076   3.428   3.341   6.231
 6201SOL    HW231077   3.481   3.449   6.341
 6202SOL     OW31078   4.242   4.347   0.110
 6202SOL    HW131079   4.181   4.425   0.117
 6202SOL    HW231080   4.217   4.278   0.178
 6203SOL     OW31081   3.513   2.801   2.187
 6203SOL    HW131082   3.529   2.757   2.275
 6203SOL    HW231083   3.440   2.869   2.196
 6204SOL     OW31084   4.535   0.233   1.739
 6204SOL    HW131085   4.522   0.331   1.724
 6204SOL    HW231086   4.601   0.198   1.672
 6205SOL     OW31087   4.324   5.441   2.384
 6205SOL    HW131088   4.302   5.511   2.452
 6205SOL    HW231089   4.259   5.447   2.308
 6206SOL     OW31090   3.923   2.996   5.273
 6206SOL    HW131091   3.824   3.010   5.270
 6206SOL    HW231092   3.948   2.953   5.359
 6207SOL     OW31093   1.016   3.020   5.822
 6207SOL    HW131094   1.066   3.096   5.864
 6207SOL    HW231095   0.991   2.953   5.892
 6208SOL     OW31096   4.129   0.886   7.066
 6208SOL    HW131097   4.082   0.809   7.108
 6208SOL    HW231098   4.108   0.888   6.968
 6209SOL     OW31099   2.033   5.075   2.178
 6209SOL    HW131100   2.056   5.172   2.182
 6209SOL    HW231101   1.960   5.056   2.244
 6210SOL     OW31102   3.390   0.630   0.296
 6210SOL    HW131103   3.315   0.608   0.234
 6210SOL    HW231104   3.425   0.721   0.273
 6211SOL     OW31105   1.110   6.497   5.686
 6211SOL    HW131106   1.089   6.481   5.590
 6211SOL    HW231107   1.187   6.438   5.713
 6212SOL     OW31108   2.345   1.861   0.173
 6212SOL    HW131109   2.253   1.828   0.150
 6212SOL    HW231110   2.401   1.785   0.204
 6213SOL     OW31111   5.967   7.154   6.970
 6213SOL    HW131112   5.998   7.130   6.878
 6213SOL    HW231113   6.000   7.245   6.994
 6214SOL     OW31114   2.891   4.490   7.108
 6214SOL    HW131115   2.967   4.553   7.096
 6214SOL    HW231116   2.918   4.416   7.169
 6215SOL     OW31117   2.572   5.444   3.516
 6215SOL    HW131118   2.562   5.379   3.441
 6215SOL    HW231119   2.580   5.394   3.602
 6216SOL     OW31120   0.188   4.249   7.280
 6216SOL    HW131121   0.197   4.227   7.183
 6216SOL    HW231122   0.266   4.305   7.308
 6217SOL     OW31123   1.755   7.031   7.091
 6217SOL    HW131124   1.741   7.064   7.185
 6217SOL    HW231125   1.672   7.047   7.038
 6218SOL     OW31126   3.800   5.608   1.807
 6218SOL    HW131127   3.834   5.650   1.723
 6218SOL    HW231128   3.758   5.520   1.786
 6219SOL     OW31129   1.775   3.553   3.963
 6219SOL    HW131130   1.792   3.648   3.938
 6219SOL    HW231131   1.687   3.524   3.927
 6220SOL     OW31132   1.383   0.544   5.831
 6220SOL    HW131133   1.467   0.592   5.857
 6220SOL    HW231134   1.369   0.552   5.732
 6221SOL     OW31135   3.133   4.506   0.194
 6221SOL    HW131136   3.125   4.431   0.128
 6221SOL    HW231137   3.110   4.472   0.286
 6222SOL     OW31138   6.180   3.529   2.045
 6222SOL    HW131139   6.204   3.432   2.048
 6222SOL    HW231140   6.112   3.545   1.974
 6223SOL     OW31141   7.354   2.562   4.107
 6223SOL    HW131142   7.267   2.513   4.111
 6223SOL    HW231143   7.367   2.615   4.191
 6224SOL     OW31144   3.229   4.084   1.837
 6224SOL    HW131145   3.309   4.039   1.797
 6224SOL    HW231146   3.156   4.017   1.848
 6225SOL     OW31147   4.328   3.329   5.095
 6225SOL    HW131148   4.257   3.273   5.137
 6225SOL    HW231149   4.375   3.383   5.165
 6226SOL     OW31150   3.984   2.083   4.326
 6226SOL    HW131151   3.893   2.101   4.364
 6226SOL    HW231152   4.025   2.005   4.373
 6227SOL     OW31153   1.268   0.848   2.523
 6227SOL    HW131154   1.315   0.778   2.576
 6227SOL    HW231155   1.284   0.938   2.565
 6228SOL     OW31156   2.620   4.089   2.493
 6228SOL    HW131157   2.593   4.027   2.420
 6228SOL    HW231158   2.607   4.184   2.463
 6229SOL     OW31159   6.413   2.966   4.523
 6229SOL    HW131160   6.362   2.881   4.510
 6229SOL    HW231161   6.474   2.956   4.602
 6230SOL     OW31162   3.969   5.703   3.177
 6230SOL    HW131163   4.020   5.734   3.097
 6230SOL    HW231164   3.970   5.774   3.248
 6231SOL     OW31165   1.734   7.209   6.561
 6231SOL    HW131166   1.832   7.214   6.540
 6231SOL    HW231167   1.686   7.283   6.513
 6232SOL     OW31168   0.348   3.366   3.594
 6232SOL    HW131169   0.392   3.281   3.623
 6232SOL    HW231170   0.330   3.361   3.495
 6233SOL     OW31171   3.944   4.975   2.806
 6233SOL    HW131172   3.919   4.962   2.902
 6233SOL    HW231173   3.863   5.006   2.755
 6234SOL     OW31174   6.105   0.586   3.868
 6234SOL    HW131175   6.006   0.596   3.874
 6234SOL    HW231176   6.149   0.643   3.938
 6235SOL     OW31177   4.559   0.562   3.453
 6235SOL    HW131178   4.614   0.524   3.527
 6235SOL    HW231179   4.564   0.501   3.373
 6236SOL     OW31180   4.405   0.088   3.048
 6236SOL    HW131181   4.445   0.179   3.040
 6236SOL    HW231182   4.329   0.079   2.983
 6237SOL     OW31183   5.201   2.814   6.119
 6237SOL    HW131184   5.260   2.736   6.141
 6237SOL    HW231185   5.258   2.893   6.099
 6238SOL     OW31186   6.221   1.827   1.762
 6238SOL    HW131187   6.308   1.826   1.811
 6238SOL    HW231188   6.150   1.868   1.821
 6239SOL     OW31189   3.593   5.675   5.185
 6239SOL    HW131190   3.545   5.762   5.179
 6239SOL    HW231191   3.683   5.689   5.226
 6240SOL     OW31192   5.672   6.065   2.384
 6240SOL    HW131193   5.696   6.161   2.373
 6240SOL    HW231194   5.755   6.010   2.387
 6241SOL     OW31195   1.021   1.669   1.855
 6241SOL    HW131196   1.086   1.602   1.820
 6241SOL    HW231197   1.054   1.761   1.834
 6242SOL     OW31198   0.994   1.504   2.089
 6242SOL    HW131199   1.071   1.542   2.141
 6242SOL    HW231200   0.979   1.560   2.007
 6243SOL     OW31201   4.905   5.824   4.027
 6243SOL    HW131202   4.924   5.912   4.071
 6243SOL    HW231203   4.966   5.755   4.064
 6244SOL     OW31204   1.866   4.379   4.681
 6244SOL    HW131205   1.936   4.445   4.651
 6244SOL    HW231206   1.810   4.420   4.752
 6245SOL     OW31207   5.159   5.930   4.486
 6245SOL    HW131208   5.083   5.902   4.427
 6245SOL    HW231209   5.246   5.915   4.439
 6246SOL     OW31210   6.134   6.673   4.294
 6246SOL    HW131211   6.174   6.678   4.202
 6246SOL    HW231212   6.097   6.762   4.319
 6247SOL     OW31213   1.397   7.004   6.061
 6247SOL    HW131214   1.453   7.065   6.005
 6247SOL    HW231215   1.453   6.965   6.134
 6248SOL     OW31216   6.323   3.759   2.024
 6248SOL    HW131217   6.277   3.671   2.034
 6248SOL    HW231218   6.344   3.775   1.927
 6249SOL     OW31219   2.377   5.964   4.327
 6249SOL    HW131220   2.452   5.970   4.261
 6249SOL    HW231221   2.348   5.869   4.337
 6250SOL     OW31222   0.813   4.384   5.845
 6250SOL    HW131223   0.880   4.411   5.914
 6250SOL    HW231224   0.777   4.293   5.867
 6251SOL     OW31225   4.269   2.733   3.507
 6251SOL    HW131226   4.190   2.721   3.447
 6251SOL    HW231227   4.305   2.643   3.533
 6252SOL     OW31228   1.818   3.436   4.990
 6252SOL    HW131229   1.917   3.439   5.003
 6252SOL    HW231230   1.783   3.351   5.028
 6253SOL     OW31231   3.779   0.067   1.595
 6253SOL    HW131232   3.760   8.971   1.573
 6253SOL    HW231233   3.841   0.072   1.673
 6254SOL     OW31234   5.627   6.596   1.425
 6254SOL    HW131235   5.591   6.681   1.463
 6254SOL    HW231236   5.563   6.560   1.357
 6255SOL     OW31237   5.385   0.439   1.624
 6255SOL    HW131238   5.301   0.484   1.590
 6255SOL    HW231239   5.464   0.479   1.578
 6256SOL     OW31240   2.156   3.585   2.051
 6256SOL    HW131241   2.146   3.490   2.019
 6256SOL    HW231242   2.244   3.621   2.020
 6257SOL     OW31243   1.833   1.001   6.938
 6257SOL    HW131244   1.787   0.964   7.019
 6257SOL    HW231245   1.876   0.927   6.887
 6258SOL     OW31246   2.657   5.573   5.384
 6258SOL    HW131247   2.716   5.649   5.412
 6258SOL    HW231248   2.637   5.515   5.463
 6259SOL     OW31249   5.981   2.447   7.350
 6259SOL    HW131250   6.059   2.509   7.353
 6259SOL    HW231251   5.955   2.430   7.255
 6260SOL     OW31252   3.587   2.926   3.065
 6260SOL    HW131253   3.496   2.892   3.090
 6260SOL    HW231254   3.596   2.926   2.966
 6261SOL     OW31255   1.180   6.040   6.191
 6261SOL    HW131256   1.083   6.059   6.180
 6261SOL    HW231257   1.199   6.014   6.286
 6262SOL     OW31258   0.046   3.316   0.606
 6262SOL    HW131259   0.068   3.266   0.523
 6262SOL    HW231260   0.102   3.399   0.611
 6263SOL     OW31261   1.326   4.694   4.113
 6263SOL    HW131262   1.277   4.779   4.136
 6263SOL    HW231263   1.333   4.686   4.014
 6264SOL     OW31264   4.870   3.590   6.419
 6264SOL    HW131265   4.824   3.538   6.348
 6264SOL    HW231266   4.804   3.615   6.490
 6265SOL     OW31267   1.547   2.803   0.375
 6265SOL    HW131268   1.468   2.762   0.331
 6265SOL    HW231269   1.519   2.847   0.460
 6266SOL     OW31270   5.101   4.051   0.828
 6266SOL    HW131271   5.139   4.062   0.736
 6266SOL    HW231272   5.175   4.027   0.892
 6267SOL     OW31273   4.130   0.424   0.778
 6267SOL    HW131274   4.054   0.359   0.771
 6267SOL    HW231275   4.188   0.417   0.697
 6268SOL     OW31276   4.506   3.485   7.261
 6268SOL    HW131277   4.514   3.560   7.194
 6268SOL    HW231278   4.450   3.412   7.222
 6269SOL     OW31279   0.442   5.026   2.152
 6269SOL    HW131280   0.370   4.987   2.210
 6269SOL    HW231281   0.488   4.953   2.102
 6270SOL     OW31282   1.549   0.531   0.915
 6270SOL    HW131283   1.452   0.525   0.938
 6270SOL    HW231284   1.571   0.625   0.889
 6271SOL     OW31285   5.859   6.865   1.988
 6271SOL    HW131286   5.917   6.926   2.042
 6271SOL    HW231287   5.843   6.780   2.039
 6272SOL     OW31288   1.243   3.222   2.485
 6272SOL    HW131289   1.152   3.215   2.528
 6272SOL    HW231290   1.273   3.317   2.485
 6273SOL     OW31291   1.741   6.613   5.898
 6273SOL    HW131292   1.674   6.660   5.841
 6273SOL    HW231293   1.741   6.651   5.990
 6274SOL     OW31294   6.874   5.246   4.361
 6274SOL    HW131295   6.915   5.259   4.270
 6274SOL    HW231296   6.814   5.323   4.382
 6275SOL     OW31297   2.483   1.325   5.000
 6275SOL    HW131298   2.388   1.302   4.978
 6275SOL    HW231299   2.544   1.269   4.945
 6276SOL     OW31300   5.904   4.872   0.230
 6276SOL    HW131301   5.823   4.925   0.257
 6276SOL    HW231302   5.875   4.783   0.194
 6277SOL     OW31303   0.384   5.171   3.979
 6277SOL    HW131304   0.434   5.088   4.006
 6277SOL    HW231305   0.288   5.162   4.006
 6278SOL     OW31306   0.163   6.966   6.797
 6278SOL    HW131307   0.150   7.036   6.727
 6278SOL    HW231308   0.086   6.902   6.795
 6279SOL     OW31309   2.038   1.680   0.932
 6279SOL    HW131310   2.047   1.779   0.943
 6279SOL    HW231311   1.941   1.656   0.924
 6280SOL     OW31312   3.106   4.458   3.182
 6280SOL    HW131313   3.075   4.365   3.162
 6280SOL    HW231314   3.158   4.494   3.104
 6281SOL     OW31315   4.892   0.066   0.559
 6281SOL    HW131316   4.858   0.159   0.576
 6281SOL    HW231317   4.851   0.003   0.624
 6282SOL     OW31318   1.204   4.930   0.181
 6282SOL    HW131319   1.131   4.863   0.197
 6282SOL    HW231320   1.275   4.889   0.124
 6283SOL     OW31321   2.498   0.691   3.315
 6283SOL    HW131322   2.473   0.671   3.410
 6283SOL    HW231323   2.416   0.683   3.258
 6284SOL     OW31324   4.355   0.840   0.099
 6284SOL    HW131325   4.356   0.834   0.199
 6284SOL    HW231326   4.441   0.803   0.063
 6285SOL     OW31327   2.923   3.331   2.937
 6285SOL    HW131328   3.023   3.327   2.943
 6285SOL    HW231329   2.893   3.424   2.918
 6286SOL     OW31330   3.010   4.735   5.350
 6286SOL    HW131331   2.947   4.812   5.336
 6286SOL    HW231332   3.099   4.769   5.379
 6287SOL     OW31333   0.383   2.083   5.848
 6287SOL    HW131334   0.303   2.112   5.900
 6287SOL    HW231335   0.444   2.161   5.834
 6288SOL     OW31336   2.293   1.930   1.601
 6288SOL    HW131337   2.306   1.929   1.502
 6288SOL    HW231338   2.247   1.846   1.630
 6289SOL     OW31339   3.640   5.589   3.670
 6289SOL    HW131340   3.608   5.500   3.703
 6289SOL    HW231341   3.725   5.577   3.619
 6290SOL     OW31342   5.764   4.329   2.237
 6290SOL    HW131343   5.796   4.404   2.180
 6290SOL    HW231344   5.799   4.243   2.201
 6291SOL     OW31345   4.871   0.692   2.796
 6291SOL    HW131346   4.874   0.623   2.868
 6291SOL    HW231347   4.863   0.648   2.707
 6292SOL     OW31348   2.365   2.336   2.558
 6292SOL    HW131349   2.447   2.295   2.516
 6292SOL    HW231350   2.288   2.272   2.549
 6293SOL     OW31351   0.075   7.462   2.129
 6293SOL    HW131352   0.090   7.423   2.038
 6293SOL    HW231353   0.147   7.432   2.190
 6294SOL     OW31354   0.308   6.793   0.447
 6294SOL    HW131355   0.224   6.744   0.466
 6294SOL    HW231356   0.360   6.806   0.531
 6295SOL     OW31357   6.457   2.721   5.096
 6295SOL    HW131358   6.429   2.815   5.117
 6295SOL    HW231359   6.520   2.721   5.019
 6296SOL     OW31360   4.420   7.370   3.705
 6296SOL    HW131361   4.389   7.317   3.626
 6296SOL    HW231362   4.519   7.366   3.710
 6297SOL     OW31363   5.010   0.911   6.095
 6297SOL    HW131364   4.912   0.888   6.097
 6297SOL    HW231365   5.021   1.003   6.056
 6298SOL     OW31366   6.155   3.998   2.302
 6298SOL    HW131367   6.110   3.962   2.220
 6298SOL    HW231368   6.254   3.987   2.294
 6299SOL     OW31369   5.956   6.846   6.423
 6299SOL    HW131370   5.941   6.935   6.379
 6299SOL    HW231371   5.908   6.843   6.511
 6300SOL     OW31372   6.101   6.766   3.164
 6300SOL    HW131373   6.099   6.760   3.064
 6300SOL    HW231374   6.094   6.862   3.192
 6301SOL     OW31375   5.449   1.105   1.157
 6301SOL    HW131376   5.521   1.048   1.196
 6301SOL    HW231377   5.368   1.049   1.139
 6302SOL     OW31378   4.328   3.884   5.236
 6302SOL    HW131379   4.330   3.984   5.230
 6302SOL    HW231380   4.411   3.852   5.283
 6303SOL     OW31381   6.714   1.158   0.535
 6303SOL    HW131382   6.725   1.091   0.462
 6303SOL    HW231383   6.631   1.212   0.518
 6304SOL     OW31384   4.827   5.411   4.414
 6304SOL    HW131385   4.758   5.352   4.372
 6304SOL    HW231386   4.824   5.502   4.372
 6305SOL     OW31387   2.119   3.730   1.715
 6305SOL    HW131388   2.074   3.756   1.629
 6305SOL    HW231389   2.057   3.747   1.791
 6306SOL     OW31390   5.713   2.902   1.496
 6306SOL    HW131391   5.621   2.891   1.534
 6306SOL    HW231392   5.744   2.815   1.457
 6307SOL     OW31393   5.725   2.914   0.227
 6307SOL    HW131394   5.809   2.882   0.183
 6307SOL    HW231395   5.708   3.009   0.200
 6308SOL     OW31396   6.048   6.757   5.889
 6308SOL    HW131397   5.967   6.731   5.942
 6308SOL    HW231398   6.041   6.718   5.797
 6309SOL     OW31399   1.958   4.600   3.514
 6309SOL    HW131400   1.872   4.580   3.562
 6309SOL    HW231401   1.989   4.517   3.466
 6310SOL     OW31402   6.745   7.013   0.471
 6310SOL    HW131403   6.811   7.010   0.545
 6310SOL    HW231404   6.656   6.981   0.504
 6311SOL     OW31405   2.132   7.263   5.638
 6311SOL    HW131406   2.161   7.168   5.624
 6311SOL    HW231407   2.055   7.265   5.701
 6312SOL     OW31408   3.391   2.661   5.926
 6312SOL    HW131409   3.381   2.600   5.847
 6312SOL    HW231410   3.443   2.615   5.997
 6313SOL     OW31411   2.907   0.507   2.884
 6313SOL    HW131412   2.849   0.506   2.803
 6313SOL    HW231413   2.893   0.592   2.935
 6314SOL     OW31414   5.311   1.715   1.170
 6314SOL    HW131415   5.247   1.762   1.230
 6314SOL    HW231416   5.282   1.620   1.156
 6315SOL     OW31417   1.886   4.971   5.361
 6315SOL    HW131418   1.878   4.998   5.265
 6315SOL    HW231419   1.891   5.052   5.419
 6316SOL     OW31420   2.220   6.798   2.140
 6316SOL    HW131421   2.133   6.786   2.092
 6316SOL    HW231422   2.210   6.766   2.234
 6317SOL     OW31423   6.319   0.214   4.071
 6317SOL    HW131424   6.334   0.302   4.115
 6317SOL    HW231425   6.406   0.176   4.041
 6318SOL     OW31426   5.065   5.760   2.025
 6318SOL    HW131427   5.008   5.749   2.106
 6318SOL    HW231428   5.038   5.694   1.955
 6319SOL     OW31429   6.033   2.110   7.157
 6319SOL    HW131430   6.060   2.170   7.082
 6319SOL    HW231431   6.115   2.064   7.194
 6320SOL     OW31432   4.346   1.427   0.930
 6320SOL    HW131433   4.247   1.439   0.918
 6320SOL    HW231434   4.370   1.444   1.026
 6321SOL     OW31435   0.312   3.833   4.531
 6321SOL    HW131436   0.346   3.885   4.453
 6321SOL    HW231437   0.251   3.890   4.585
 6322SOL     OW31438   5.532   2.035   3.530
 6322SOL    HW131439   5.604   2.028   3.460
 6322SOL    HW231440   5.522   1.948   3.577
 6323SOL     OW31441   0.218   3.390   7.043
 6323SOL    HW131442   0.197   3.426   6.952
 6323SOL    HW231443   0.139   3.339   7.077
 6324SOL     OW31444   5.133   3.125   5.595
 6324SOL    HW131445   5.051   3.103   5.543
 6324SOL    HW231446   5.115   3.201   5.657
 6325SOL     OW31447   2.839   5.096   5.694
 6325SOL    HW131448   2.885   5.129   5.776
 6325SOL    HW231449   2.747   5.135   5.689
 6326SOL     OW31450   3.885   4.295   2.318
 6326SOL    HW131451   3.965   4.323   2.372
 6326SOL    HW231452   3.899   4.203   2.283
 6327SOL     OW31453   5.886   3.465   0.879
 6327SOL    HW131454   5.903   3.412   0.963
 6327SOL    HW231455   5.957   3.534   0.868
 6328SOL     OW31456   5.179   3.988   1.335
 6328SOL    HW131457   5.113   3.924   1.296
 6328SOL    HW231458   5.191   4.066   1.274
 6329SOL     OW31459   6.729   2.559   3.544
 6329SOL    HW131460   6.824   2.580   3.519
 6329SOL    HW231461   6.669   2.578   3.466
 6330SOL     OW31462   7.130   3.090   7.180
 6330SOL    HW131463   7.082   3.006   7.156
 6330SOL    HW231464   7.135   3.099   7.280
 6331SOL     OW31465   5.745   3.877   4.408
 6331SOL    HW131466   5.698   3.963   4.427
 6331SOL    HW231467   5.713   3.839   4.321
 6332SOL     OW31468   3.019   1.411   1.907
 6332SOL    HW131469   3.049   1.322   1.873
 6332SOL    HW231470   2.952   1.398   1.979
 6333SOL     OW31471   2.077   7.190   1.573
 6333SOL    HW131472   1.981   7.217   1.580
 6333SOL    HW231473   2.124   7.248   1.507
 6334SOL     OW31474   6.892   3.988   4.427
 6334SOL    HW131475   6.799   3.954   4.414
 6334SOL    HW231476   6.952   3.947   4.358
 6335SOL     OW31477   7.066   6.943   1.674
 6335SOL    HW131478   7.095   7.027   1.629
 6335SOL    HW231479   7.036   6.877   1.606
 6336SOL     OW31480   6.054   6.397   7.286
 6336SOL    HW131481   5.961   6.363   7.272
 6336SOL    HW231482   6.085   6.373   7.378
 6337SOL     OW31483   1.708   2.518   2.193
 6337SOL    HW131484   1.661   2.539   2.107
 6337SOL    HW231485   1.719   2.602   2.246
 6338SOL     OW31486   2.892   3.709   3.414
 6338SOL    HW131487   2.817   3.651   3.446
 6338SOL    HW231488   2.971   3.698   3.474
 6339SOL     OW31489   4.733   4.530   2.678
 6339SOL    HW131490   4.810   4.466   2.677
 6339SOL    HW231491   4.742   4.592   2.756
 6340SOL     OW31492   2.340   4.052   1.376
 6340SOL    HW131493   2.394   3.986   1.428
 6340SOL    HW231494   2.253   4.010   1.350
 6341SOL     OW31495   1.706   0.191   6.869
 6341SOL    HW131496   1.670   0.133   6.942
 6341SOL    HW231497   1.694   0.287   6.894
 6342SOL     OW31498   6.496   2.081   2.288
 6342SOL    HW131499   6.510   2.109   2.193
 6342SOL    HW231500   6.503   1.981   2.295
 6343SOL     OW31501   3.536   2.389   0.647
 6343SOL    HW131502   3.503   2.371   0.554
 6343SOL    HW231503   3.527   2.305   0.701
 6344SOL     OW31504   6.218   5.463   1.102
 6344SOL    HW131505   6.301   5.459   1.158
 6344SOL    HW231506   6.188   5.559   1.095
 6345SOL     OW31507   3.844   3.878   6.491
 6345SOL    HW131508   3.871   3.790   6.451
 6345SOL    HW231509   3.790   3.930   6.424
 6346SOL     OW31510   2.864   3.124   0.956
 6346SOL    HW131511   2.892   3.032   0.929
 6346SOL    HW231512   2.796   3.119   1.029
 6347SOL     OW31513   5.305   2.170   3.612
 6347SOL    HW131514   5.387   2.120   3.585
 6347SOL    HW231515   5.286   2.242   3.544
 6348SOL     OW31516   2.753   2.259   5.759
 6348SOL    HW131517   2.853   2.257   5.762
 6348SOL    HW231518   2.718   2.171   5.791
 6349SOL     OW31519   6.539   0.957   6.166
 6349SOL    HW131520   6.540   1.037   6.106
 6349SOL    HW231521   6.447   0.941   6.200
 6350SOL     OW31522   5.267   4.520   0.063
 6350SOL    HW131523   5.289   4.431   0.024
 6350SOL    HW231524   5.316   4.591   0.013
 6351SOL     OW31525   2.768   5.686   4.920
 6351SOL    HW131526   2.814   5.735   4.994
 6351SOL    HW231527   2.733   5.599   4.955
 6352SOL     OW31528   6.475   6.432   0.447
 6352SOL    HW131529   6.439   6.345   0.414
 6352SOL    HW231530   6.522   6.417   0.535
 6353SOL     OW31531   0.992   4.290   6.778
 6353SOL    HW131532   0.926   4.361   6.751
 6353SOL    HW231533   0.991   4.216   6.711
 6354SOL     OW31534   2.738   0.254   6.698
 6354SOL    HW131535   2.752   0.302   6.785
 6354SOL    HW231536   2.814   0.192   6.681
 6355SOL     OW31537   4.294   4.934   6.498
 6355SOL    HW131538   4.374   4.895   6.543
 6355SOL    HW231539   4.211   4.896   6.539
 6356SOL     OW31540   6.789   4.004   3.963
 6356SOL    HW131541   6.807   3.917   3.916
 6356SOL    HW231542   6.723   4.058   3.911
 6357SOL     OW31543   1.664   0.921   1.069
 6357SOL    HW131544   1.616   0.906   1.156
 6357SOL    HW231545   1.616   0.870   0.996
 6358SOL     OW31546   5.396   6.300   6.710
 6358SOL    HW131547   5.492   6.309   6.681
 6358SOL    HW231548   5.392   6.245   6.794
 6359SOL     OW31549   1.731   5.952   4.857
 6359SOL    HW131550   1.650   5.991   4.813
 6359SOL    HW231551   1.810   6.011   4.842
 6360SOL     OW31552   6.660   0.969   1.613
 6360SOL    HW131553   6.647   1.067   1.598
 6360SOL    HW231554   6.678   0.924   1.526
 6361SOL     OW31555   5.083   5.561   1.438
 6361SOL    HW131556   5.144   5.546   1.516
 6361SOL    HW231557   5.030   5.645   1.453
 6362SOL     OW31558   5.569   0.719   1.892
 6362SOL    HW131559   5.533   0.812   1.898
 6362SOL    HW231560   5.531   0.664   1.967
 6363SOL     OW31561   2.560   2.706   0.557
 6363SOL    HW131562   2.514   2.621   0.532
 6363SOL    HW231563   2.659   2.689   0.564
 6364SOL     OW31564   4.600   3.979   2.620
 6364SOL    HW131565   4.685   3.928   2.603
 6364SOL    HW231566   4.522   3.919   2.608
 6365SOL     OW31567   0.722   6.884   5.101
 6365SOL    HW131568   0.742   6.787   5.110
 6365SOL    HW231569   0.671   6.900   5.017
 6366SOL     OW31570   5.465   6.779   5.839
 6366SOL    HW131571   5.542   6.841   5.853
 6366SOL    HW231572   5.380   6.826   5.861
 6367SOL     OW31573   4.581   2.062   3.900
 6367SOL    HW131574   4.506   2.032   3.959
 6367SOL    HW231575   4.654   1.994   3.901
 6368SOL     OW31576   1.245   5.090   5.803
 6368SOL    HW131577   1.207   5.182   5.795
 6368SOL    HW231578   1.185   5.033   5.859
 6369SOL     OW31579   1.432   2.761   0.797
 6369SOL    HW131580   1.341   2.729   0.768
 6369SOL    HW231581   1.469   2.824   0.730
 6370SOL     OW31582   2.387   1.784   0.943
 6370SOL    HW131583   2.332   1.846   0.888
 6370SOL    HW231584   2.363   1.689   0.921
 6371SOL     OW31585   4.257   3.131   1.907
 6371SOL    HW131586   4.223   3.110   1.816
 6371SOL    HW231587   4.182   3.159   1.966
 6372SOL     OW31588   5.402   5.000   5.432
 6372SOL    HW131589   5.440   5.009   5.340
 6372SOL    HW231590   5.346   5.080   5.453
 6373SOL     OW31591   1.104   1.855   0.388
 6373SOL    HW131592   1.170   1.929   0.379
 6373SOL    HW231593   1.091   1.810   0.299
 6374SOL     OW31594   2.120   6.049   5.042
 6374SOL    HW131595   2.062   5.974   5.074
 6374SOL    HW231596   2.141   6.110   5.119
 6375SOL     OW31597   6.681   5.485   6.390
 6375SOL    HW131598   6.605   5.524   6.338
 6375SOL    HW231599   6.756   5.551   6.394
 6376SOL     OW31600   6.807   3.643   4.802
 6376SOL    HW131601   6.851   3.610   4.885
 6376SOL    HW231602   6.868   3.627   4.724
 6377SOL     OW31603   5.567   3.652   5.717
 6377SOL    HW131604   5.638   3.583   5.722
 6377SOL    HW231605   5.530   3.668   5.809
 6378SOL     OW31606   0.984   3.915   1.935
 6378SOL    HW131607   0.972   3.845   2.005
 6378SOL    HW231608   1.023   3.874   1.852
 6379SOL     OW31609   7.124   5.884   3.360
 6379SOL    HW131610   7.040   5.831   3.368
 6379SOL    HW231611   7.156   5.882   3.265
 6380SOL     OW31612   1.317   5.876   0.305
 6380SOL    HW131613   1.245   5.827   0.355
 6380SOL    HW231614   1.405   5.836   0.327
 6381SOL     OW31615   1.298   5.146   7.267
 6381SOL    HW131616   1.222   5.083   7.276
 6381SOL    HW231617   1.284   5.225   7.327
 6382SOL     OW31618   3.882   2.017   7.085
 6382SOL    HW131619   3.798   2.070   7.088
 6382SOL    HW231620   3.867   1.934   7.030
 6383SOL     OW31621   3.828   3.321   1.679
 6383SOL    HW131622   3.782   3.291   1.596
 6383SOL    HW231623   3.844   3.243   1.739
 6384SOL     OW31624   0.598   6.172   0.336
 6384SOL    HW131625   0.553   6.084   0.321
 6384SOL    HW231626   0.693   6.158   0.360
 6385SOL     OW31627   2.561   4.358   2.407
 6385SOL    HW131628   2.537   4.395   2.318
 6385SOL    HW231629   2.483   4.366   2.469
 6386SOL     OW31630   2.510   2.580   1.675
 6386SOL    HW131631   2.579   2.545   1.612
 6386SOL    HW231632   2.484   2.508   1.739
 6387SOL     OW31633   3.273   7.291   6.928
 6387SOL    HW131634   3.240   7.385   6.934
 6387SOL    HW231635   3.199   7.227   6.951
 6388SOL     OW31636   4.992   5.371   2.287
 6388SOL    HW131637   5.069   5.316   2.321
 6388SOL    HW231638   4.926   5.384   2.360
 6389SOL     OW31639   4.080   2.907   2.682
 6389SOL    HW131640   4.151   2.837   2.678
 6389SOL    HW231641   4.087   2.967   2.602
 6390SOL     OW31642   5.600   4.069   0.317
 6390SOL    HW131643   5.604   3.970   0.327
 6390SOL    HW231644   5.657   4.097   0.239
 6391SOL     OW31645   1.776   4.954   3.894
 6391SOL    HW131646   1.753   4.955   3.991
 6391SOL    HW231647   1.695   4.927   3.841
 6392SOL     OW31648   4.698   5.089   1.122
 6392SOL    HW131649   4.776   5.134   1.165
 6392SOL    HW231650   4.715   5.080   1.024
 6393SOL     OW31651   2.188   0.888   5.106
 6393SOL    HW131652   2.099   0.924   5.133
 6393SOL    HW231653   2.233   0.848   5.185
 6394SOL     OW31654   0.483   1.571   1.646
 6394SOL    HW131655   0.509   1.532   1.734
 6394SOL    HW231656   0.534   1.656   1.631
 6395SOL     OW31657   2.237   3.472   1.707
 6395SOL    HW131658   2.195   3.562   1.715
 6395SOL    HW231659   2.226   3.422   1.793
 6396SOL     OW31660   5.910   7.126   0.034
 6396SOL    HW131661   5.987   7.174   0.076
 6396SOL    HW231662   5.905   7.033   0.071
 6397SOL     OW31663   2.009   0.751   5.341
 6397SOL    HW131664   1.962   0.835   5.366
 6397SOL    HW231665   2.108   0.763   5.351
 6398SOL     OW31666   4.478   3.032   0.847
 6398SOL    HW131667   4.399   3.094   0.843
 6398SOL    HW231668   4.518   3.036   0.939
 6399SOL     OW31669   1.893   6.915   1.277
 6399SOL    HW131670   1.941   6.839   1.322
 6399SOL    HW231671   1.795   6.896   1.275
 6400SOL     OW31672   0.126   4.600   6.206
 6400SOL    HW131673   0.039   4.553   6.200
 6400SOL    HW231674   0.111   4.699   6.204
 6401SOL     OW31675   4.741   6.745   1.763
 6401SOL    HW131676   4.810   6.710   1.826
 6401SOL    HW231677   4.654   6.756   1.811
 6402SOL     OW31678   4.978   5.799   1.538
 6402SOL    HW131679   4.914   5.759   1.603
 6402SOL    HW231680   5.057   5.837   1.586
 6403SOL     OW31681   1.333   4.380   3.085
 6403SOL    HW131682   1.409   4.404   3.023
 6403SOL    HW231683   1.370   4.334   3.166
 6404SOL     OW31684   1.135   2.102   6.302
 6404SOL    HW131685   1.144   2.010   6.338
 6404SOL    HW231686   1.191   2.112   6.219
 6405SOL     OW31687   7.347   0.082   4.839
 6405SOL    HW131688   7.383   0.175   4.846
 6405SOL    HW231689   7.400   0.030   4.773
 6406SOL     OW31690   6.705   5.457   1.581
 6406SOL    HW131691   6.783   5.502   1.626
 6406SOL    HW231692   6.646   5.527   1.540
 6407SOL     OW31693   2.537   7.020   0.684
 6407SOL    HW131694   2.625   7.059   0.708
 6407SOL    HW231695   2.518   7.037   0.587
 6408SOL     OW31696   4.660   2.002   3.401
 6408SOL    HW131697   4.564   2.004   3.430
 6408SOL    HW231698   4.718   2.028   3.478
 6409SOL     OW31699   6.548   5.825   3.137
 6409SOL    HW131700   6.462   5.806   3.090
 6409SOL    HW231701   6.622   5.774   3.092
 6410SOL     OW31702   0.922   2.107   3.029
 6410SOL    HW131703   0.971   2.073   3.110
 6410SOL    HW231704   0.985   2.159   2.971
 6411SOL     OW31705   1.042   5.108   0.557
 6411SOL    HW131706   1.052   5.040   0.629
 6411SOL    HW231707   1.123   5.107   0.498
 6412SOL     OW31708   4.113   6.596   0.923
 6412SOL    HW131709   4.017   6.569   0.907
 6412SOL    HW231710   4.168   6.570   0.843
 6413SOL     OW31711   3.043   5.052   5.511
 6413SOL    HW131712   3.108   5.128   5.504
 6413SOL    HW231713   2.976   5.072   5.582
 6414SOL     OW31714   2.643   0.408   1.927
 6414SOL    HW131715   2.682   0.332   1.980
 6414SOL    HW231716   2.700   0.426   1.848
 6415SOL     OW31717   0.811   6.349   4.277
 6415SOL    HW131718   0.865   6.294   4.341
 6415SOL    HW231719   0.738   6.395   4.328
 6416SOL     OW31720   8.992   2.354   3.299
 6416SOL    HW131721   8.919   2.415   3.267
 6416SOL    HW231722   8.980   2.265   3.256
 6417SOL     OW31723   5.061   2.790   1.693
 6417SOL    HW131724   5.063   2.717   1.624
 6417SOL    HW231725   5.030   2.753   1.780
 6418SOL     OW31726   4.972   1.175   2.268
 6418SOL    HW131727   4.918   1.214   2.194
 6418SOL    HW231728   4.981   1.241   2.343
 6419SOL     OW31729   2.705   6.117   2.397
 6419SOL    HW131730   2.758   6.166   2.328
 6419SOL    HW231731   2.767   6.066   2.457
 6420SOL     OW31732   1.174   3.607   1.326
 6420SOL    HW131733   1.101   3.645   1.383
 6420SOL    HW231734   1.140   3.529   1.275
 6421SOL     OW31735   7.184   4.586   2.459
 6421SOL    HW131736   7.270   4.559   2.417
 6421SOL    HW231737   7.183   4.685   2.474
 6422SOL     OW31738   3.431   1.774   4.429
 6422SOL    HW131739   3.492   1.740   4.357
 6422SOL    HW231740   3.398   1.697   4.484
 6423SOL     OW31741   1.922   4.888   5.796
 6423SOL    HW131742   1.901   4.811   5.856
 6423SOL    HW231743   1.986   4.949   5.843
 6424SOL     OW31744   1.897   7.211   5.800
 6424SOL    HW131745   1.847   7.124   5.803
 6424SOL    HW231746   1.848   7.276   5.741
 6425SOL     OW31747   5.261   6.242   5.448
 6425SOL    HW131748   5.283   6.161   5.394
 6425SOL    HW231749   5.162   6.248   5.460
 6426SOL     OW31750   7.259   5.362   4.156
 6426SOL    HW131751   7.358   5.372   4.166
 6426SOL    HW231752   7.212   5.410   4.231
 6427SOL     OW31753   0.247   4.532   0.371
 6427SOL    HW131754   0.169   4.584   0.408
 6427SOL    HW231755   0.213   4.451   0.324
 6428SOL     OW31756   6.227   6.885   2.706
 6428SOL    HW131757   6.294   6.946   2.750
 6428SOL    HW231758   6.205   6.921   2.615
 6429SOL     OW31759   6.586   4.623   5.953
 6429SOL    HW131760   6.652   4.636   5.878
 6429SOL    HW231761   6.547   4.532   5.947
 6430SOL     OW31762   0.292   6.698   0.181
 6430SOL    HW131763   0.373   6.643   0.156
 6430SOL    HW231764   0.304   6.734   0.273
 6431SOL     OW31765   1.258   4.705   0.752
 6431SOL    HW131766   1.328   4.776   0.748
 6431SOL    HW231767   1.259   4.663   0.843
 6432SOL     OW31768   0.233   0.138   0.454
 6432SOL    HW131769   0.297   0.135   0.378
 6432SOL    HW231770   0.160   0.203   0.435
 6433SOL     OW31771   5.160   6.225   2.399
 6433SOL    HW131772   5.237   6.231   2.336
 6433SOL    HW231773   5.091   6.294   2.374
 6434SOL     OW31774   5.799   5.657   3.028
 6434SOL    HW131775   5.699   5.662   3.031
 6434SOL    HW231776   5.838   5.724   3.092
 6435SOL     OW31777   3.034   5.644   3.442
 6435SOL    HW131778   2.992   5.698   3.369
 6435SOL    HW231779   2.965   5.583   3.482
 6436SOL     OW31780   4.333   1.656   4.601
 6436SOL    HW131781   4.354   1.735   4.543
 6436SOL    HW231782   4.316   1.686   4.695
 6437SOL     OW31783   5.444   6.525   4.451
 6437SOL    HW131784   5.443   6.617   4.490
 6437SOL    HW231785   5.356   6.505   4.408
 6438SOL     OW31786   2.477   1.630   0.243
 6438SOL    HW131787   2.400   1.567   0.237
 6438SOL    HW231788   2.517   1.628   0.335
 6439SOL     OW31789   4.857   4.882   0.601
 6439SOL    HW131790   4.888   4.808   0.661
 6439SOL    HW231791   4.864   4.852   0.506
 6440SOL     OW31792   2.969   2.880   0.912
 6440SOL    HW131793   3.048   2.875   0.851
 6440SOL    HW231794   2.991   2.837   1.000
 6441SOL     OW31795   5.453   1.901   0.289
 6441SOL    HW131796   5.394   1.956   0.349
 6441SOL    HW231797   5.549   1.921   0.310
 6442SOL     OW31798   0.643   3.644   6.857
 6442SOL    HW131799   0.633   3.638   6.956
 6442SOL    HW231800   0.587   3.720   6.822
 6443SOL     OW31801   5.868   2.366   3.019
 6443SOL    HW131802   5.902   2.272   3.019
 6443SOL    HW231803   5.768   2.365   3.027
 6444SOL     OW31804   1.967   2.241   6.092
 6444SOL    HW131805   2.007   2.332   6.106
 6444SOL    HW231806   1.893   2.227   6.158
 6445SOL     OW31807   6.468   1.796   2.293
 6445SOL    HW131808   6.439   1.749   2.376
 6445SOL    HW231809   6.389   1.812   2.234
 6446SOL     OW31810   0.125   5.782   6.349
 6446SOL    HW131811   0.095   5.829   6.433
 6446SOL    HW231812   0.195   5.837   6.304
 6447SOL     OW31813   6.169   3.910   7.099
 6447SOL    HW131814   6.145   3.917   7.196
 6447SOL    HW231815   6.138   3.822   7.064
 6448SOL     OW31816   5.376   0.439   2.956
 6448SOL    HW131817   5.370   0.343   2.930
 6448SOL    HW231818   5.416   0.491   2.880
 6449SOL     OW31819   4.208   3.632   5.235
 6449SOL    HW131820   4.293   3.579   5.240
 6449SOL    HW231821   4.229   3.729   5.237
 6450SOL     OW31822   4.697   8.991   7.077
 6450SOL    HW131823   4.672   0.061   7.143
 6450SOL    HW231824   4.718   0.033   6.989
 6451SOL     OW31825   6.767   4.226   0.911
 6451SOL    HW131826   6.860   4.195   0.931
 6451SOL    HW231827   6.758   4.323   0.934
 6452SOL     OW31828   2.770   0.791   1.019
 6452SOL    HW131829   2.712   0.721   0.977
 6452SOL    HW231830   2.859   0.753   1.040
 6453SOL     OW31831   1.665   3.018   4.486
 6453SOL    HW131832   1.687   2.927   4.522
 6453SOL    HW231833   1.726   3.040   4.410
 6454SOL     OW31834   4.366   0.831   0.380
 6454SOL    HW131835   4.267   0.827   0.399
 6454SOL    HW231836   4.413   0.766   0.439
 6455SOL     OW31837   4.283   5.721   3.581
 6455SOL    HW131838   4.351   5.728   3.653
 6455SOL    HW231839   4.274   5.625   3.552
 6456SOL     OW31840   1.644   3.131   1.913
 6456SOL    HW131841   1.624   3.033   1.919
 6456SOL    HW231842   1.637   3.160   1.817
 6457SOL     OW31843   3.606   4.089   5.241
 6457SOL    HW131844   3.558   4.030   5.177
 6457SOL    HW231845   3.687   4.127   5.198
 6458SOL     OW31846   1.646   4.127   5.327
 6458SOL    HW131847   1.575   4.155   5.262
 6458SOL    HW231848   1.732   4.171   5.301
 6459SOL     OW31849   6.573   0.775   1.135
 6459SOL    HW131850   6.619   0.793   1.222
 6459SOL    HW231851   6.507   0.847   1.117
 6460SOL     OW31852   4.159   3.303   1.291
 6460SOL    HW131853   4.059   3.302   1.294
 6460SOL    HW231854   4.195   3.300   1.384
 6461SOL     OW31855   4.452   4.451   5.098
 6461SOL    HW131856   4.358   4.427   5.119
 6461SOL    HW231857   4.496   4.491   5.178
 6462SOL     OW31858   6.467   1.839   1.903
 6462SOL    HW131859   6.498   1.765   1.843
 6462SOL    HW231860   6.536   1.857   1.973
 6463SOL     OW31861   2.611   0.585   6.841
 6463SOL    HW131862   2.514   0.564   6.855
 6463SOL    HW231863   2.623   0.633   6.754
 6464SOL     OW31864   4.284   5.704   2.144
 6464SOL    HW131865   4.201   5.753   2.118
 6464SOL    HW231866   4.262   5.608   2.161
 6465SOL     OW31867   2.815   3.950   5.190
 6465SOL    HW131868   2.886   3.995   5.245
 6465SOL    HW231869   2.774   3.876   5.243
 6466SOL     OW31870   2.029   2.845   3.988
 6466SOL    HW131871   2.128   2.834   3.977
 6466SOL    HW231872   1.982   2.780   3.929
 6467SOL     OW31873   5.965   2.580   1.195
 6467SOL    HW131874   6.039   2.644   1.213
 6467SOL    HW231875   5.912   2.613   1.117
 6468SOL     OW31876   1.769   3.041   2.682
 6468SOL    HW131877   1.783   2.952   2.641
 6468SOL    HW231878   1.714   3.098   2.621
 6469SOL     OW31879   0.224   1.264   5.134
 6469SOL    HW131880   0.161   1.341   5.142
 6469SOL    HW231881   0.275   1.271   5.048
 6470SOL     OW31882   1.270   3.554   0.953
 6470SOL    HW131883   1.298   3.650   0.954
 6470SOL    HW231884   1.311   3.508   0.874
 6471SOL     OW31885   2.660   1.858   6.359
 6471SOL    HW131886   2.621   1.789   6.420
 6471SOL    HW231887   2.611   1.857   6.271
 6472SOL     OW31888   0.933   4.893   3.111
 6472SOL    HW131889   0.857   4.833   3.134
 6472SOL    HW231890   1.012   4.869   3.166
 6473SOL     OW31891   4.662   2.649   5.421
 6473SOL    HW131892   4.676   2.570   5.481
 6473SOL    HW231893   4.631   2.618   5.331
 6474SOL     OW31894   3.416   4.683   3.661
 6474SOL    HW131895   3.393   4.591   3.692
 6474SOL    HW231896   3.471   4.678   3.578
 6475SOL     OW31897   5.465   4.596   6.684
 6475SOL    HW131898   5.493   4.541   6.763
 6475SOL    HW231899   5.377   4.563   6.650
 6476SOL     OW31900   4.042   4.632   6.261
 6476SOL    HW131901   4.018   4.535   6.257
 6476SOL    HW231902   4.141   4.641   6.270
 6477SOL     OW31903   3.121   3.685   5.814
 6477SOL    HW131904   3.169   3.773   5.810
 6477SOL    HW231905   3.145   3.638   5.899
 6478SOL     OW31906   4.922   2.523   3.203
 6478SOL    HW131907   4.850   2.525   3.272
 6478SOL    HW231908   4.945   2.616   3.175
 6479SOL     OW31909   5.877   3.395   6.917
 6479SOL    HW131910   5.960   3.391   6.860
 6479SOL    HW231911   5.798   3.369   6.862
 6480SOL     OW31912   2.711   5.513   4.544
 6480SOL    HW131913   2.643   5.440   4.551
 6480SOL    HW231914   2.797   5.482   4.586
 6481SOL     OW31915   3.697   5.044   2.714
 6481SOL    HW131916   3.645   4.977   2.767
 6481SOL    HW231917   3.664   5.136   2.735
 6482SOL     OW31918   2.886   3.068   3.387
 6482SOL    HW131919   2.872   2.970   3.374
 6482SOL    HW231920   2.934   3.083   3.474
 6483SOL     OW31921   1.554   4.877   3.758
 6483SOL    HW131922   1.490   4.813   3.801
 6483SOL    HW231923   1.582   4.840   3.669
 6484SOL     OW31924   0.508   5.436   0.341
 6484SOL    HW131925   0.602   5.438   0.373
 6484SOL    HW231926   0.469   5.345   0.356
 6485SOL     OW31927   5.889   2.459   0.746
 6485SOL    HW131928   5.802   2.478   0.791
 6485SOL    HW231929   5.879   2.470   0.647
 6486SOL     OW31930   3.471   1.575   6.357
 6486SOL    HW131931   3.475   1.518   6.275
 6486SOL    HW231932   3.393   1.548   6.413
 6487SOL     OW31933   3.438   1.307   7.328
 6487SOL    HW131934   3.441   1.406   7.324
 6487SOL    HW231935   3.468   1.276   7.418
 6488SOL     OW31936   6.877   3.170   0.946
 6488SOL    HW131937   6.902   3.108   0.872
 6488SOL    HW231938   6.959   3.220   0.976
 6489SOL     OW31939   6.461   2.229   4.931
 6489SOL    HW131940   6.543   2.280   4.908
 6489SOL    HW231941   6.394   2.290   4.975
 6490SOL     OW31942   4.520   3.062   3.255
 6490SOL    HW131943   4.430   3.105   3.264
 6490SOL    HW231944   4.560   3.050   3.346
 6491SOL     OW31945   4.001   0.661   0.860
 6491SOL    HW131946   4.043   0.732   0.804
 6491SOL    HW231947   4.039   0.572   0.834
 6492SOL     OW31948   4.957   3.930   1.762
 6492SOL    HW131949   5.007   3.988   1.698
 6492SOL    HW231950   4.931   3.845   1.716
 6493SOL     OW31951   1.257   3.011   1.636
 6493SOL    HW131952   1.286   2.993   1.730
 6493SOL    HW231953   1.158   3.000   1.629
 6494SOL     OW31954   6.997   5.244   3.240
 6494SOL    HW131955   6.993   5.144   3.243
 6494SOL    HW231956   7.016   5.274   3.147
 6495SOL     OW31957   1.297   3.534   3.599
 6495SOL    HW131958   1.323   3.631   3.606
 6495SOL    HW231959   1.378   3.477   3.615
 6496SOL     OW31960   2.199   6.774   4.685
 6496SOL    HW131961   2.191   6.679   4.652
 6496SOL    HW231962   2.110   6.818   4.682
 6497SOL     OW31963   6.417   0.559   0.562
 6497SOL    HW131964   6.507   0.539   0.602
 6497SOL    HW231965   6.362   0.476   0.562
 6498SOL     OW31966   0.653   1.150   7.020
 6498SOL    HW131967   0.717   1.098   7.076
 6498SOL    HW231968   0.673   1.135   6.923
 6499SOL     OW31969   2.564   0.078   3.217
 6499SOL    HW131970   2.625   0.152   3.243
 6499SOL    HW231971   2.537   0.089   3.122
 6500SOL     OW31972   5.054   1.075   2.873
 6500SOL    HW131973   4.964   1.038   2.892
 6500SOL    HW231974   5.063   1.092   2.775
 6501SOL     OW31975   5.086   1.749   4.487
 6501SOL    HW131976   5.038   1.670   4.524
 6501SOL    HW231977   5.048   1.833   4.529
 6502SOL     OW31978   4.853   6.124   3.905
 6502SOL    HW131979   4.889   6.125   3.999
 6502SOL    HW231980   4.923   6.159   3.843
 6503SOL     OW31981   3.196   3.539   0.804
 6503SOL    HW131982   3.251   3.544   0.887
 6503SOL    HW231983   3.139   3.621   0.796
 6504SOL     OW31984   6.994   2.806   1.373
 6504SOL    HW131985   7.077   2.755   1.349
 6504SOL    HW231986   6.965   2.861   1.295
 6505SOL     OW31987   3.268   1.119   6.786
 6505SOL    HW131988   3.258   1.180   6.865
 6505SOL    HW231989   3.286   1.026   6.818
 6506SOL     OW31990   2.446   0.580   5.452
 6506SOL    HW131991   2.456   0.483   5.474
 6506SOL    HW231992   2.519   0.608   5.389
 6507SOL     OW31993   1.568   4.530   3.884
 6507SOL    HW131994   1.562   4.452   3.947
 6507SOL    HW231995   1.650   4.521   3.828
 6508SOL     OW31996   4.390   7.110   6.311
 6508SOL    HW131997   4.460   7.155   6.366
 6508SOL    HW231998   4.405   7.132   6.215
 6509SOL     OW31999   5.537   6.831   1.521
 6509SOL    HW132000   5.492   6.838   1.610
 6509SOL    HW232001   5.586   6.916   1.502
 6510SOL     OW32002   4.330   3.730   1.325
 6510SOL    HW132003   4.260   3.673   1.282
 6510SOL    HW232004   4.292   3.777   1.404
 6511SOL     OW32005   4.834   0.214   0.180
 6511SOL    HW132006   4.900   0.265   0.235
 6511SOL    HW232007   4.750   0.268   0.169
 6512SOL     OW32008   3.514   4.411   4.351
 6512SOL    HW132009   3.419   4.415   4.383
 6512SOL    HW232010   3.544   4.503   4.326
 6513SOL     OW32011   0.359   7.275   1.528
 6513SOL    HW132012   0.457   7.294   1.516
 6513SOL    HW232013   0.325   7.224   1.450
 6514SOL     OW32014   7.136   5.612   3.079
 6514SOL    HW132015   7.164   5.708   3.085
 6514SOL    HW232016   7.180   5.569   3.000
 6515SOL     OW32017   6.767   5.536   0.199
 6515SOL    HW132018   6.763   5.457   0.138
 6515SOL    HW232019   6.800   5.506   0.289
 6516SOL     OW32020   5.136   5.664   7.296
 6516SOL    HW132021   5.079   5.594   7.337
 6516SOL    HW232022   5.079   5.738   7.261
 6517SOL     OW32023   1.091   6.725   5.839
 6517SOL    HW132024   1.108   6.645   5.782
 6517SOL    HW232025   1.023   6.784   5.794
 6518SOL     OW32026   1.018   4.075   5.794
 6518SOL    HW132027   1.052   4.127   5.715
 6518SOL    HW232028   1.058   4.113   5.877
 6519SOL     OW32029   4.268   1.067   3.823
 6519SOL    HW132030   4.359   1.101   3.848
 6519SOL    HW232031   4.199   1.133   3.853
 6520SOL     OW32032   3.219   5.693   1.094
 6520SOL    HW132033   3.145   5.676   1.159
 6520SOL    HW232034   3.281   5.615   1.094
 6521SOL     OW32035   6.682   2.182   7.195
 6521SOL    HW132036   6.633   2.095   7.207
 6521SOL    HW232037   6.744   2.196   7.272
 6522SOL     OW32038   0.870   1.532   0.862
 6522SOL    HW132039   0.947   1.586   0.896
 6522SOL    HW232040   0.789   1.551   0.917
 6523SOL     OW32041   4.854   6.658   7.143
 6523SOL    HW132042   4.806   6.574   7.117
 6523SOL    HW232043   4.910   6.690   7.067
 6524SOL     OW32044   4.322   0.200   1.910
 6524SOL    HW132045   4.327   0.288   1.959
 6524SOL    HW232046   4.399   0.194   1.846
 6525SOL     OW32047   5.741   2.847   6.717
 6525SOL    HW132048   5.681   2.857   6.638
 6525SOL    HW232049   5.686   2.826   6.798
 6526SOL     OW32050   5.791   7.148   3.469
 6526SOL    HW132051   5.875   7.158   3.522
 6526SOL    HW232052   5.790   7.058   3.424
 6527SOL     OW32053   0.414   5.273   2.266
 6527SOL    HW132054   0.410   5.187   2.215
 6527SOL    HW232055   0.501   5.279   2.315
 6528SOL     OW32056   4.077   2.521   6.190
 6528SOL    HW132057   4.035   2.530   6.281
 6528SOL    HW232058   4.176   2.509   6.200
 6529SOL     OW32059   6.729   5.274   1.798
 6529SOL    HW132060   6.657   5.209   1.822
 6529SOL    HW232061   6.702   5.325   1.716
 6530SOL     OW32062   4.110   7.119   3.970
 6530SOL    HW132063   4.049   7.186   3.928
 6530SOL    HW232064   4.204   7.135   3.938
 6531SOL     OW32065   2.661   3.401   1.572
 6531SOL    HW132066   2.725   3.465   1.531
 6531SOL    HW232067   2.709   3.346   1.641
 6532SOL     OW32068   7.173   3.529   4.815
 6532SOL    HW132069   7.162   3.435   4.781
 6532SOL    HW232070   7.173   3.529   4.915
 6533SOL     OW32071   2.132   5.891   4.033
 6533SOL    HW132072   2.226   5.859   4.027
 6533SOL    HW232073   2.129   5.989   4.015
 6534SOL     OW32074   4.206   4.372   5.191
 6534SOL    HW132075   4.133   4.357   5.123
 6534SOL    HW232076   4.177   4.443   5.255
 6535SOL     OW32077   1.441   4.529   2.375
 6535SOL    HW132078   1.457   4.437   2.340
 6535SOL    HW232079   1.528   4.575   2.390
 6536SOL     OW32080   0.780   2.333   3.104
 6536SOL    HW132081   0.826   2.252   3.067
 6536SOL    HW232082   0.780   2.329   3.203
 6537SOL     OW32083   4.486   1.690   0.102
 6537SOL    HW132084   4.528   1.777   0.077
 6537SOL    HW232085   4.550   1.616   0.085
 6538SOL     OW32086   0.521   3.937   2.511
 6538SOL    HW132087   0.482   3.852   2.548
 6538SOL    HW232088   0.566   3.987   2.585
 6539SOL     OW32089   3.417   3.121   4.750
 6539SOL    HW132090   3.390   3.217   4.747
 6539SOL    HW232091   3.391   3.081   4.838
 6540SOL     OW32092   0.112   2.159   1.678
 6540SOL    HW132093   0.154   2.158   1.587
 6540SOL    HW232094   0.148   2.084   1.732
 6541SOL     OW32095   0.677   0.766   7.194
 6541SOL    HW132096   0.728   0.681   7.179
 6541SOL    HW232097   0.598   0.769   7.132
 6542SOL     OW32098   4.487   1.177   1.828
 6542SOL    HW132099   4.575   1.174   1.782
 6542SOL    HW232100   4.418   1.133   1.771
 6543SOL     OW32101   3.325   4.168   2.088
 6543SOL    HW132102   3.336   4.081   2.135
 6543SOL    HW232103   3.285   4.152   1.998
 6544SOL     OW32104   2.869   2.316   2.563
 6544SOL    HW132105   2.919   2.364   2.635
 6544SOL    HW232106   2.818   2.382   2.508
 6545SOL     OW32107   0.481   2.006   0.499
 6545SOL    HW132108   0.438   2.095   0.484
 6545SOL    HW232109   0.423   1.934   0.460
 6546SOL     OW32110   4.722   7.212   2.719
 6546SOL    HW132111   4.717   7.310   2.702
 6546SOL    HW232112   4.811   7.177   2.690
 6547SOL     OW32113   2.304   3.384   4.247
 6547SOL    HW132114   2.290   3.375   4.345
 6547SOL    HW232115   2.400   3.366   4.225
 6548SOL     OW32116   0.623   5.679   4.995
 6548SOL    HW132117   0.545   5.663   4.936
 6548SOL    HW232118   0.707   5.676   4.941
 6549SOL     OW32119   1.172   5.917   7.015
 6549SOL    HW132120   1.235   5.844   6.990
 6549SOL    HW232121   1.109   5.934   6.939
 6550SOL     OW32122   4.787   0.880   5.049
 6550SOL    HW132123   4.720   0.880   4.975
 6550SOL    HW232124   4.752   0.827   5.127
 6551SOL     OW32125   6.578   4.157   1.589
 6551SOL    HW132126   6.654   4.132   1.649
 6551SOL    HW232127   6.560   4.255   1.599
 6552SOL     OW32128   6.059   3.883   2.078
 6552SOL    HW132129   6.018   3.886   1.987
 6552SOL    HW232130   6.146   3.835   2.074
 6553SOL     OW32131   5.016   7.254   0.247
 6553SOL    HW132132   5.038   7.344   0.286
 6553SOL    HW232133   5.097   7.219   0.199
 6554SOL     OW32134   2.922   5.203   5.121
 6554SOL    HW132135   2.897   5.283   5.175
 6554SOL    HW232136   3.018   5.179   5.138
 6555SOL     OW32137   7.207   4.561   5.754
 6555SOL    HW132138   7.200   4.619   5.673
 6555SOL    HW232139   7.215   4.618   5.836
 6556SOL     OW32140   5.965   0.537   4.637
 6556SOL    HW132141   5.959   0.535   4.537
 6556SOL    HW232142   5.962   0.444   4.673
 6557SOL     OW32143   5.505   4.684   6.424
 6557SOL    HW132144   5.502   4.659   6.521
 6557SOL    HW232145   5.521   4.601   6.370
 6558SOL     OW32146   2.778   7.230   5.424
 6558SOL    HW132147   2.737   7.181   5.501
 6558SOL    HW232148   2.737   7.320   5.416
 6559SOL     OW32149   3.778   2.303   2.960
 6559SOL    HW132150   3.718   2.309   3.040
 6559SOL    HW232151   3.772   2.211   2.921
 6560SOL     OW32152   3.032   1.384   2.613
 6560SOL    HW132153   2.973   1.333   2.676
 6560SOL    HW232154   3.114   1.329   2.593
 6561SOL     OW32155   0.896   4.055   0.946
 6561SOL    HW132156   0.946   4.122   0.891
 6561SOL    HW232157   0.890   3.969   0.897
 6562SOL     OW32158   6.371   0.324   4.449
 6562SOL    HW132159   6.383   0.361   4.357
 6562SOL    HW232160   6.450   0.268   4.472
 6563SOL     OW32161   2.624   7.278   1.420
 6563SOL    HW132162   2.558   7.340   1.461
 6563SOL    HW232163   2.666   7.321   1.340
 6564SOL     OW32164   5.061   6.979   2.834
 6564SOL    HW132165   5.145   6.960   2.886
 6564SOL    HW232166   5.035   6.898   2.782
 6565SOL     OW32167   4.541   0.238   0.657
 6565SOL    HW132168   4.531   0.138   0.657
 6565SOL    HW232169   4.634   0.262   0.631
 6566SOL     OW32170   1.101   5.286   3.929
 6566SOL    HW132171   1.135   5.363   3.983
 6566SOL    HW232172   1.033   5.236   3.982
 6567SOL     OW32173   1.694   6.787   5.080
 6567SOL    HW132174   1.747   6.703   5.080
 6567SOL    HW232175   1.649   6.799   5.169
 6568SOL     OW32176   3.547   1.520   5.056
 6568SOL    HW132177   3.474   1.452   5.061
 6568SOL    HW232178   3.613   1.494   4.986
 6569SOL     OW32179   3.058   2.330   0.434
 6569SOL    HW132180   3.086   2.326   0.530
 6569SOL    HW232181   2.960   2.312   0.428
 6570SOL     OW32182   3.733   1.751   1.530
 6570SOL    HW132183   3.758   1.659   1.558
 6570SOL    HW232184   3.652   1.747   1.471
 6571SOL     OW32185   4.786   0.162   3.266
 6571SOL    HW132186   4.809   0.135   3.172
 6571SOL    HW232187   4.710   0.226   3.265
 6572SOL     OW32188   5.501   7.047   4.175
 6572SOL    HW132189   5.518   6.948   4.177
 6572SOL    HW232190   5.568   7.092   4.116
 6573SOL     OW32191   2.963   3.235   0.266
 6573SOL    HW132192   2.869   3.212   0.242
 6573SOL    HW232193   2.964   3.284   0.354
 6574SOL     OW32194   1.699   3.197   5.064
 6574SOL    HW132195   1.666   3.167   5.154
 6574SOL    HW232196   1.652   3.144   4.993
 6575SOL     OW32197   4.791   0.288   5.618
 6575SOL    HW132198   4.803   0.269   5.521
 6575SOL    HW232199   4.824   0.211   5.672
 6576SOL     OW32200   0.792   5.128   4.322
 6576SOL    HW132201   0.842   5.124   4.236
 6576SOL    HW232202   0.694   5.128   4.304
 6577SOL     OW32203   4.348   6.920   3.734
 6577SOL    HW132204   4.352   7.010   3.777
 6577SOL    HW232205   4.300   6.857   3.795
 6578SOL     OW32206   0.373   3.074   6.508
 6578SOL    HW132207   0.373   2.983   6.551
 6578SOL    HW232208   0.449   3.078   6.442
 6579SOL     OW32209   6.349   2.221   1.357
 6579SOL    HW132210   6.347   2.139   1.298
 6579SOL    HW232211   6.389   2.297   1.306
 6580SOL     OW32212   7.155   4.129   0.709
 6580SOL    HW132213   7.083   4.076   0.664
 6580SOL    HW232214   7.174   4.212   0.657
 6581SOL     OW32215   5.879   7.069   0.544
 6581SOL    HW132216   5.975   7.042   0.536
 6581SOL    HW232217   5.825   7.019   0.477
 6582SOL     OW32218   6.591   1.312   4.519
 6582SOL    HW132219   6.534   1.392   4.539
 6582SOL    HW232220   6.683   1.342   4.494
 6583SOL     OW32221   6.081   4.453   0.223
 6583SOL    HW132222   6.147   4.418   0.290
 6583SOL    HW232223   6.060   4.381   0.156
 6584SOL     OW32224   2.207   7.018   3.986
 6584SOL    HW132225   2.218   6.983   4.079
 6584SOL    HW232226   2.295   7.055   3.954
 6585SOL     OW32227   3.733   5.046   0.296
 6585SOL    HW132228   3.820   5.086   0.269
 6585SOL    HW232229   3.724   4.955   0.255
 6586SOL     OW32230   7.305   4.627   5.006
 6586SOL    HW132231   7.350   4.603   4.920
 6586SOL    HW232232   7.233   4.694   4.988
 6587SOL     OW32233   2.828   2.346   6.795
 6587SOL    HW132234   2.850   2.371   6.700
 6587SOL    HW232235   2.863   2.255   6.815
 6588SOL     OW32236   1.296   0.343   6.371
 6588SOL    HW132237   1.294   0.328   6.273
 6588SOL    HW232238   1.261   0.435   6.391
 6589SOL     OW32239   5.761   1.101   5.423
 6589SOL    HW132240   5.724   1.173   5.364
 6589SOL    HW232241   5.709   1.098   5.508
 6590SOL     OW32242   2.977   2.440   7.006
 6590SOL    HW132243   2.921   2.422   6.925
 6590SOL    HW232244   3.058   2.492   6.980
 6591SOL     OW32245   5.791   6.517   5.634
 6591SOL    HW132246   5.788   6.449   5.560
 6591SOL    HW232247   5.809   6.471   5.721
 6592SOL     OW32248   3.765   0.446   3.913
 6592SOL    HW132249   3.811   0.434   3.825
 6592SOL    HW232250   3.697   0.373   3.925
 6593SOL     OW32251   4.735   0.265   2.874
 6593SOL    HW132252   4.712   0.237   2.781
 6593SOL    HW232253   4.773   0.187   2.924
 6594SOL     OW32254   1.807   2.786   7.087
 6594SOL    HW132255   1.736   2.778   7.017
 6594SOL    HW232256   1.869   2.708   7.081
 6595SOL     OW32257   3.844   4.815   2.373
 6595SOL    HW132258   3.800   4.775   2.294
 6595SOL    HW232259   3.929   4.861   2.345
 6596SOL     OW32260   0.069   6.609   6.199
 6596SOL    HW132261   8.988   6.555   6.225
 6596SOL    HW232262   0.082   6.605   6.100
 6597SOL     OW32263   3.861   0.044   1.143
 6597SOL    HW132264   3.958   0.050   1.164
 6597SOL    HW232265   3.833   0.126   1.092
 6598SOL     OW32266   3.097   5.253   2.851
 6598SOL    HW132267   3.049   5.337   2.827
 6598SOL    HW232268   3.031   5.182   2.874
 6599SOL     OW32269   2.776   6.206   6.941
 6599SOL    HW132270   2.700   6.143   6.929
 6599SOL    HW232271   2.755   6.271   7.013
 6600SOL     OW32272   3.546   1.194   0.297
 6600SOL    HW132273   3.625   1.132   0.300
 6600SOL    HW232274   3.575   1.283   0.261
 6601SOL     OW32275   5.350   2.536   3.550
 6601SOL    HW132276   5.303   2.464   3.499
 6601SOL    HW232277   5.297   2.620   3.545
 6602SOL     OW32278   1.770   2.192   6.293
 6602SOL    HW132279   1.839   2.127   6.326
 6602SOL    HW232280   1.688   2.186   6.350
 6603SOL     OW32281   1.508   5.034   0.513
 6603SOL    HW132282   1.572   4.961   0.488
 6603SOL    HW232283   1.558   5.121   0.518
 6604SOL     OW32284   3.801   3.447   0.805
 6604SOL    HW132285   3.795   3.509   0.727
 6604SOL    HW232286   3.782   3.497   0.889
 6605SOL     OW32287   2.013   5.239   5.267
 6605SOL    HW132288   1.966   5.245   5.355
 6605SOL    HW232289   1.957   5.187   5.203
 6606SOL     OW32290   3.211   3.668   6.479
 6606SOL    HW132291   3.244   3.574   6.476
 6606SOL    HW232292   3.260   3.719   6.550
 6607SOL     OW32293   1.860   3.181   0.592
 6607SOL    HW132294   1.953   3.215   0.583
 6607SOL    HW232295   1.811   3.195   0.506
 6608SOL     OW32296   2.479   6.567   0.809
 6608SOL    HW132297   2.505   6.636   0.741
 6608SOL    HW232298   2.544   6.491   0.806
 6609SOL     OW32299   1.087   3.773   1.719
 6609SOL    HW132300   1.068   3.691   1.773
 6609SOL    HW232301   1.047   3.762   1.628
 6610SOL     OW32302   2.892   6.686   0.711
 6610SOL    HW132303   2.945   6.608   0.679
 6610SOL    HW232304   2.796   6.673   0.689
 6611SOL     OW32305   4.666   0.152   2.622
 6611SOL    HW132306   4.681   0.116   2.530
 6611SOL    HW232307   4.569   0.173   2.635
 6612SOL     OW32308   0.697   6.087   5.689
 6612SOL    HW132309   0.774   6.151   5.690
 6612SOL    HW232310   0.670   6.066   5.784
 6613SOL     OW32311   5.813   3.914   7.287
 6613SOL    HW132312   5.776   3.921   7.194
 6613SOL    HW232313   5.913   3.917   7.283
 6614SOL     OW32314   5.736   1.746   3.878
 6614SOL    HW132315   5.777   1.664   3.838
 6614SOL    HW232316   5.801   1.789   3.941
 6615SOL     OW32317   1.706   4.867   4.678
 6615SOL    HW132318   1.613   4.858   4.714
 6615SOL    HW232319   1.715   4.811   4.595
 6616SOL     OW32320   3.094   2.365   1.311
 6616SOL    HW132321   3.103   2.269   1.285
 6616SOL    HW232322   3.079   2.421   1.230
 6617SOL     OW32323   2.612   4.345   1.974
 6617SOL    HW132324   2.571   4.324   1.885
 6617SOL    HW232325   2.708   4.319   1.974
 6618SOL     OW32326   2.410   3.954   4.247
 6618SOL    HW132327   2.323   4.002   4.256
 6618SOL    HW232328   2.405   3.866   4.293
 6619SOL     OW32329   1.623   3.070   0.130
 6619SOL    HW132330   1.683   3.023   0.066
 6619SOL    HW232331   1.536   3.020   0.137
 6620SOL     OW32332   1.024   5.072   7.000
 6620SOL    HW132333   1.053   5.023   7.082
 6620SOL    HW232334   0.931   5.106   7.013
 6621SOL     OW32335   4.398   0.140   2.199
 6621SOL    HW132336   4.419   0.135   2.101
 6621SOL    HW232337   4.299   0.145   2.212
 6622SOL     OW32338   3.030   1.436   0.028
 6622SOL    HW132339   3.107   1.436   0.093
 6622SOL    HW232340   3.066   1.436   8.935
 6623SOL     OW32341   5.976   5.710   1.930
 6623SOL    HW132342   6.017   5.652   1.859
 6623SOL    HW232343   6.017   5.688   2.019
 6624SOL     OW32344   6.078   0.348   3.736
 6624SOL    HW132345   6.090   0.434   3.785
 6624SOL    HW232346   6.127   0.275   3.784
 6625SOL     OW32347   3.995   2.810   3.376
 6625SOL    HW132348   3.971   2.853   3.463
 6625SOL    HW232349   4.061   2.867   3.327
 6626SOL     OW32350   0.262   0.462   2.066
 6626SOL    HW132351   0.212   0.424   2.143
 6626SOL    HW232352   0.202   0.467   1.986
 6627SOL     OW32353   7.037   3.962   6.811
 6627SOL    HW132354   7.129   3.983   6.778
 6627SOL    HW232355   7.027   3.863   6.822
 6628SOL     OW32356   6.775   4.035   4.842
 6628SOL    HW132357   6.709   3.963   4.824
 6628SOL    HW232358   6.780   4.097   4.763
 6629SOL     OW32359   2.569   6.510   0.459
 6629SOL    HW132360   2.566   6.586   0.524
 6629SOL    HW232361   2.483   6.507   0.408
 6630SOL     OW32362   2.200   0.559   3.431
 6630SOL    HW132363   2.212   0.611   3.346
 6630SOL    HW232364   2.167   0.467   3.409
 6631SOL     OW32365   7.241   2.791   4.871
 6631SOL    HW132366   7.261   2.886   4.847
 6631SOL    HW232367   7.151   2.766   4.835
 6632SOL     OW32368   1.526   3.799   6.608
 6632SOL    HW132369   1.559   3.877   6.661
 6632SOL    HW232370   1.447   3.758   6.655
 6633SOL     OW32371   3.139   6.126   5.792
 6633SOL    HW132372   3.116   6.031   5.810
 6633SOL    HW232373   3.196   6.162   5.865
 6634SOL     OW32374   2.291   5.791   7.239
 6634SOL    HW132375   2.309   5.839   7.153
 6634SOL    HW232376   2.290   5.693   7.224
 6635SOL     OW32377   0.101   5.250   4.805
 6635SOL    HW132378   0.013   5.230   4.762
 6635SOL    HW232379   0.090   5.254   4.904
 6636SOL     OW32380   4.765   1.544   3.567
 6636SOL    HW132381   4.730   1.470   3.509
 6636SOL    HW232382   4.846   1.584   3.524
 6637SOL     OW32383   5.855   2.363   1.701
 6637SOL    HW132384   5.835   2.362   1.603
 6637SOL    HW232385   5.781   2.410   1.749
 6638SOL     OW32386   5.646   1.533   3.097
 6638SOL    HW132387   5.674   1.452   3.149
 6638SOL    HW232388   5.568   1.510   3.039
 6639SOL     OW32389   1.554   6.242   1.056
 6639SOL    HW132390   1.651   6.220   1.049
 6639SOL    HW232391   1.529   6.253   1.152
 6640SOL     OW32392   6.537   5.685   0.258
 6640SOL    HW132393   6.620   5.636   0.231
 6640SOL    HW232394   6.458   5.643   0.214
 6641SOL     OW32395   5.550   1.810   2.814
 6641SOL    HW132396   5.591   1.885   2.761
 6641SOL    HW232397   5.566   1.827   2.912
 6642SOL     OW32398   4.434   7.081   5.830
 6642SOL    HW132399   4.443   7.125   5.919
 6642SOL    HW232400   4.419   7.150   5.759
 6643SOL     OW32401   6.430   6.282   4.277
 6643SOL    HW132402   6.387   6.349   4.338
 6643SOL    HW232403   6.359   6.223   4.237
 6644SOL     OW32404   3.000   4.378   4.546
 6644SOL    HW132405   2.953   4.442   4.606
 6644SOL    HW232406   2.934   4.319   4.501
 6645SOL     OW32407   3.115   1.635   7.164
 6645SOL    HW132408   3.035   1.695   7.165
 6645SOL    HW232409   3.087   1.544   7.133
 6646SOL     OW32410   6.196   6.475   2.581
 6646SOL    HW132411   6.201   6.468   2.680
 6646SOL    HW232412   6.115   6.527   2.555
 6647SOL     OW32413   6.777   4.992   5.889
 6647SOL    HW132414   6.778   5.033   5.797
 6647SOL    HW232415   6.719   5.046   5.949
 6648SOL     OW32416   4.017   4.147   5.480
 6648SOL    HW132417   4.115   4.145   5.497
 6648SOL    HW232418   3.987   4.241   5.464
 6649SOL     OW32419   1.930   4.516   3.952
 6649SOL    HW132420   1.963   4.464   3.874
 6649SOL    HW232421   1.955   4.612   3.942
 6650SOL     OW32422   1.260   3.471   1.990
 6650SOL    HW132423   1.356   3.496   1.985
 6650SOL    HW232424   1.250   3.373   1.973
 6651SOL     OW32425   5.875   5.149   1.351
 6651SOL    HW132426   5.964   5.178   1.317
 6651SOL    HW232427   5.837   5.080   1.291
 6652SOL     OW32428   3.242   2.202   0.898
 6652SOL    HW132429   3.231   2.188   0.997
 6652SOL    HW232430   3.337   2.184   0.872
 6653SOL     OW32431   5.584   3.181   0.895
 6653SOL    HW132432   5.614   3.133   0.977
 6653SOL    HW232433   5.537   3.118   0.834
 6654SOL     OW32434   6.348   6.712   1.538
 6654SOL    HW132435   6.270   6.653   1.515
 6654SOL    HW232436   6.340   6.743   1.632
 6655SOL     OW32437   2.523   5.613   2.794
 6655SOL    HW132438   2.505   5.582   2.888
 6655SOL    HW232439   2.440   5.654   2.756
 6656SOL     OW32440   2.758   5.356   6.807
 6656SOL    HW132441   2.785   5.263   6.834
 6656SOL    HW232442   2.699   5.395   6.877
 6657SOL     OW32443   6.274   0.271   0.048
 6657SOL    HW132444   6.297   0.368   0.050
 6657SOL    HW232445   6.358   0.216   0.054
 6658SOL     OW32446   4.474   2.163   5.305
 6658SOL    HW132447   4.475   2.071   5.267
 6658SOL    HW232448   4.380   2.188   5.329
 6659SOL     OW32449   0.972   5.370   2.608
 6659SOL    HW132450   1.071   5.373   2.592
 6659SOL    HW232451   0.954   5.378   2.706
 6660SOL     OW32452   2.045   4.118   4.670
 6660SOL    HW132453   1.957   4.119   4.624
 6660SOL    HW232454   2.034   4.152   4.763
 6661SOL     OW32455   4.439   0.615   6.434
 6661SOL    HW132456   4.439   0.539   6.498
 6661SOL    HW232457   4.362   0.675   6.454
 6662SOL     OW32458   1.257   5.976   4.865
 6662SOL    HW132459   1.243   5.878   4.856
 6662SOL    HW232460   1.340   6.002   4.815
 6663SOL     OW32461   4.455   3.726   1.702
 6663SOL    HW132462   4.494   3.786   1.771
 6663SOL    HW232463   4.387   3.666   1.745
 6664SOL     OW32464   6.532   2.118   1.859
 6664SOL    HW132465   6.533   2.167   1.771
 6664SOL    HW232466   6.489   2.029   1.848
 6665SOL     OW32467   1.323   3.032   0.410
 6665SOL    HW132468   1.383   3.002   0.484
 6665SOL    HW232469   1.228   3.007   0.432
 6666SOL     OW32470   1.321   3.969   3.273
 6666SOL    HW132471   1.386   3.988   3.199
 6666SOL    HW232472   1.359   4.002   3.360
 6667SOL     OW32473   0.835   5.469   2.388
 6667SOL    HW132474   0.888   5.439   2.467
 6667SOL    HW232475   0.824   5.568   2.391
 6668SOL     OW32476   6.361   4.876   0.815
 6668SOL    HW132477   6.384   4.908   0.723
 6668SOL    HW232478   6.329   4.953   0.871
 6669SOL     OW32479   0.288   2.964   5.900
 6669SOL    HW132480   0.254   3.049   5.940
 6669SOL    HW232481   0.344   2.915   5.968
 6670SOL     OW32482   1.725   1.526   7.179
 6670SOL    HW132483   1.794   1.571   7.236
 6670SOL    HW232484   1.750   1.431   7.166
 6671SOL     OW32485   5.369   7.335   4.471
 6671SOL    HW132486   5.393   7.372   4.381
 6671SOL    HW232487   5.402   7.397   4.542
 6672SOL     OW32488   5.249   2.182   2.065
 6672SOL    HW132489   5.233   2.128   2.148
 6672SOL    HW232490   5.194   2.145   1.990
 6673SOL     OW32491   4.305   4.797   2.258
 6673SOL    HW132492   4.391   4.819   2.303
 6673SOL    HW232493   4.311   4.706   2.217
 6674SOL     OW32494   4.848   1.395   3.053
 6674SOL    HW132495   4.944   1.370   3.043
 6674SOL    HW232496   4.800   1.321   3.101
 6675SOL     OW32497   2.847   3.926   0.660
 6675SOL    HW132498   2.848   3.970   0.750
 6675SOL    HW232499   2.753   3.906   0.633
 6676SOL     OW32500   5.812   4.672   3.454
 6676SOL    HW132501   5.799   4.771   3.456
 6676SOL    HW232502   5.910   4.652   3.462
 6677SOL     OW32503   2.363   2.938   3.714
 6677SOL    HW132504   2.454   2.913   3.681
 6677SOL    HW232505   2.332   3.021   3.667
 6678SOL     OW32506   3.294   3.226   3.960
 6678SOL    HW132507   3.251   3.216   4.050
 6678SOL    HW232508   3.234   3.186   3.891
 6679SOL     OW32509   1.158   2.475   5.012
 6679SOL    HW132510   1.233   2.502   4.952
 6679SOL    HW232511   1.188   2.481   5.107
 6680SOL     OW32512   5.870   6.750   7.262
 6680SOL    HW132513   5.928   6.703   7.196
 6680SOL    HW232514   5.776   6.753   7.228
 6681SOL     OW32515   3.715   3.898   4.028
 6681SOL    HW132516   3.801   3.897   3.978
 6681SOL    HW232517   3.658   3.974   3.995
 6682SOL     OW32518   2.036   0.685   3.609
 6682SOL    HW132519   2.020   0.775   3.567
 6682SOL    HW232520   2.096   0.631   3.550
 6683SOL     OW32521   1.204   0.625   6.853
 6683SOL    HW132522   1.212   0.666   6.762
 6683SOL    HW232523   1.293   0.629   6.899
 6684SOL     OW32524   4.204   0.098   2.863
 6684SOL    HW132525   4.115   0.057   2.843
 6684SOL    HW232526   4.205   0.193   2.833
 6685SOL     OW32527   6.339   6.989   4.960
 6685SOL    HW132528   6.393   7.024   5.037
 6685SOL    HW232529   6.347   6.889   4.956
 6686SOL     OW32530   3.420   0.690   3.968
 6686SOL    HW132531   3.404   0.672   4.065
 6686SOL    HW232532   3.365   0.768   3.938
 6687SOL     OW32533   2.851   7.248   1.810
 6687SOL    HW132534   2.761   7.283   1.834
 6687SOL    HW232535   2.921   7.311   1.842
 6688SOL     OW32536   1.968   4.233   2.101
 6688SOL    HW132537   1.926   4.143   2.110
 6688SOL    HW232538   1.945   4.272   2.012
 6689SOL     OW32539   4.419   7.138   1.131
 6689SOL    HW132540   4.395   7.224   1.177
 6689SOL    HW232541   4.363   7.064   1.167
 6690SOL     OW32542   1.639   2.579   4.766
 6690SOL    HW132543   1.691   2.593   4.850
 6690SOL    HW232544   1.664   2.648   4.699
 6691SOL     OW32545   2.843   1.057   6.598
 6691SOL    HW132546   2.937   1.024   6.611
 6691SOL    HW232547   2.844   1.157   6.589
 6692SOL     OW32548   5.549   2.906   6.538
 6692SOL    HW132549   5.563   2.982   6.475
 6692SOL    HW232550   5.485   2.933   6.610
 6693SOL     OW32551   5.478   1.484   0.732
 6693SOL    HW132552   5.524   1.490   0.644
 6693SOL    HW232553   5.503   1.398   0.777
 6694SOL     OW32554   0.304   6.774   0.898
 6694SOL    HW132555   0.357   6.793   0.815
 6694SOL    HW232556   0.354   6.806   0.978
 6695SOL     OW32557   4.345   6.348   4.592
 6695SOL    HW132558   4.279   6.352   4.668
 6695SOL    HW232559   4.352   6.254   4.560
 6696SOL     OW32560   2.593   4.688   1.104
 6696SOL    HW132561   2.568   4.611   1.045
 6696SOL    HW232562   2.629   4.762   1.049
 6697SOL     OW32563   0.579   5.819   6.691
 6697SOL    HW132564   0.631   5.886   6.638
 6697SOL    HW232565   0.508   5.779   6.633
 6698SOL     OW32566   7.005   4.193   5.752
 6698SOL    HW132567   6.981   4.279   5.798
 6698SOL    HW232568   6.958   4.187   5.664
 6699SOL     OW32569   4.154   5.080   5.772
 6699SOL    HW132570   4.184   4.991   5.806
 6699SOL    HW232571   4.155   5.080   5.672
 6700SOL     OW32572   5.564   2.628   4.039
 6700SOL    HW132573   5.527   2.613   3.947
 6700SOL    HW232574   5.524   2.561   4.102
 6701SOL     OW32575   3.675   5.684   6.640
 6701SOL    HW132576   3.774   5.688   6.623
 6701SOL    HW232577   3.626   5.708   6.556
 6702SOL     OW32578   2.715   1.299   5.669
 6702SOL    HW132579   2.618   1.308   5.694
 6702SOL    HW232580   2.741   1.202   5.671
 6703SOL     OW32581   3.188   0.984   2.018
 6703SOL    HW132582   3.246   0.921   1.967
 6703SOL    HW232583   3.226   0.997   2.110
 6704SOL     OW32584   3.608   1.004   0.818
 6704SOL    HW132585   3.572   1.000   0.725
 6704SOL    HW232586   3.707   0.994   0.816
 6705SOL     OW32587   1.835   4.299   0.773
 6705SOL    HW132588   1.879   4.382   0.808
 6705SOL    HW232589   1.742   4.320   0.743
 6706SOL     OW32590   3.857   0.054   7.103
 6706SOL    HW132591   3.822   8.961   7.099
 6706SOL    HW232592   3.892   0.080   7.012
 6707SOL     OW32593   2.731   4.246   7.411
 6707SOL    HW132594   2.817   4.255   7.361
 6707SOL    HW232595   2.682   4.333   7.410
 6708SOL     OW32596   6.750   3.620   0.411
 6708SOL    HW132597   6.743   3.543   0.347
 6708SOL    HW232598   6.846   3.649   0.417
 6709SOL     OW32599   1.817   3.048   5.715
 6709SOL    HW132600   1.778   2.973   5.662
 6709SOL    HW232601   1.743   3.101   5.757
 6710SOL     OW32602   0.906   3.535   0.380
 6710SOL    HW132603   0.967   3.553   0.457
 6710SOL    HW232604   0.812   3.561   0.404
 6711SOL     OW32605   2.557   3.942   4.015
 6711SOL    HW132606   2.540   3.851   3.976
 6711SOL    HW232607   2.514   3.948   4.105
 6712SOL     OW32608   4.480   5.164   1.278
 6712SOL    HW132609   4.562   5.141   1.225
 6712SOL    HW232610   4.399   5.140   1.225
 6713SOL     OW32611   1.318   3.158   2.227
 6713SOL    HW132612   1.303   3.060   2.215
 6713SOL    HW232613   1.292   3.184   2.320
 6714SOL     OW32614   5.284   6.931   2.985
 6714SOL    HW132615   5.235   6.889   3.061
 6714SOL    HW232616   5.339   6.861   2.939
 6715SOL     OW32617   2.747   2.799   1.230
 6715SOL    HW132618   2.687   2.788   1.150
 6715SOL    HW232619   2.715   2.740   1.304
 6716SOL     OW32620   7.105   4.278   4.172
 6716SOL    HW132621   7.142   4.340   4.103
 6716SOL    HW232622   7.086   4.189   4.131
 6717SOL     OW32623   6.185   0.008   5.087
 6717SOL    HW132624   6.168   0.096   5.130
 6717SOL    HW232625   6.208   0.021   4.990
 6718SOL     OW32626   3.295   6.184   1.003
 6718SOL    HW132627   3.234   6.108   0.980
 6718SOL    HW232628   3.245   6.253   1.055
 6719SOL     OW32629   0.842   0.124   6.752
 6719SOL    HW132630   0.927   0.167   6.781
 6719SOL    HW232631   0.838   0.123   6.652
 6720SOL     OW32632   4.365   0.197   3.385
 6720SOL    HW132633   4.368   0.196   3.485
 6720SOL    HW232634   4.364   0.103   3.351
 6721SOL     OW32635   0.590   3.280   1.645
 6721SOL    HW132636   0.493   3.265   1.662
 6721SOL    HW232637   0.608   3.379   1.647
 6722SOL     OW32638   0.067   3.419   4.501
 6722SOL    HW132639   0.003   3.484   4.542
 6722SOL    HW232640   0.154   3.466   4.482
 6723SOL     OW32641   2.286   5.207   5.271
 6723SOL    HW132642   2.188   5.226   5.275
 6723SOL    HW232643   2.310   5.170   5.181
 6724SOL     OW32644   2.074   0.979   6.268
 6724SOL    HW132645   2.117   0.897   6.307
 6724SOL    HW232646   1.984   0.955   6.232
 6725SOL     OW32647   2.454   4.060   5.988
 6725SOL    HW132648   2.483   4.054   6.083
 6725SOL    HW232649   2.515   4.121   5.938
 6726SOL     OW32650   6.958   2.438   4.733
 6726SOL    HW132651   6.878   2.393   4.773
 6726SOL    HW232652   7.040   2.384   4.753
 6727SOL     OW32653   5.887   5.613   2.566
 6727SOL    HW132654   5.911   5.631   2.470
 6727SOL    HW232655   5.792   5.584   2.571
 6728SOL     OW32656   5.506   2.245   1.964
 6728SOL    HW132657   5.566   2.298   2.024
 6728SOL    HW232658   5.421   2.224   2.012
 6729SOL     OW32659   5.522   5.793   0.735
 6729SOL    HW132660   5.526   5.891   0.712
 6729SOL    HW232661   5.427   5.765   0.744
 6730SOL     OW32662   1.840   0.447   7.268
 6730SOL    HW132663   1.757   0.463   7.323
 6730SOL    HW232664   1.835   0.502   7.185
 6731SOL     OW32665   4.969   1.139   1.866
 6731SOL    HW132666   4.924   1.201   1.931
 6731SOL    HW232667   4.968   1.046   1.902
 6732SOL     OW32668   1.090   5.315   5.834
 6732SOL    HW132669   1.026   5.391   5.817
 6732SOL    HW232670   1.040   5.238   5.873
 6733SOL     OW32671   2.065   4.021   0.487
 6733SOL    HW132672   2.163   4.008   0.471
 6733SOL    HW232673   2.050   4.051   0.581
 6734SOL     OW32674   0.701   0.723   1.543
 6734SOL    HW132675   0.683   0.682   1.632
 6734SOL    HW232676   0.614   0.738   1.495
 6735SOL     OW32677   4.477   6.988   6.855
 6735SOL    HW132678   4.424   6.905   6.833
 6735SOL    HW232679   4.415   7.061   6.882
 6736SOL     OW32680   4.931   6.014   3.066
 6736SOL    HW132681   4.923   6.083   2.994
 6736SOL    HW232682   4.840   5.991   3.100
 6737SOL     OW32683   2.925   7.025   7.228
 6737SOL    HW132684   2.867   6.943   7.227
 6737SOL    HW232685   3.002   7.011   7.290
 6738SOL     OW32686   4.337   6.004   5.374
 6738SOL    HW132687   4.325   5.905   5.383
 6738SOL    HW232688   4.421   6.032   5.420
 6739SOL     OW32689   3.954   7.315   3.847
 6739SOL    HW132690   3.890   7.329   3.923
 6739SOL    HW232691   3.902   7.303   3.762
 6740SOL     OW32692   1.931   1.969   6.937
 6740SOL    HW132693   1.894   1.878   6.956
 6740SOL    HW232694   2.029   1.969   6.956
 6741SOL     OW32695   0.987   3.920   0.427
 6741SOL    HW132696   0.997   4.020   0.427
 6741SOL    HW232697   1.049   3.880   0.359
 6742SOL     OW32698   1.189   1.925   7.135
 6742SOL    HW132699   1.253   1.849   7.145
 6742SOL    HW232700   1.106   1.893   7.088
 6743SOL     OW32701   2.217   6.833   0.317
 6743SOL    HW132702   2.233   6.911   0.377
 6743SOL    HW232703   2.214   6.864   0.222
 6744SOL     OW32704   0.649   2.393   0.444
 6744SOL    HW132705   0.730   2.448   0.466
 6744SOL    HW232706   0.621   2.413   0.350
 6745SOL     OW32707   3.796   4.952   6.341
 6745SOL    HW132708   3.846   4.905   6.269
 6745SOL    HW232709   3.708   4.984   6.305
 6746SOL     OW32710   2.630   3.823   4.814
 6746SOL    HW132711   2.719   3.843   4.855
 6746SOL    HW232712   2.615   3.724   4.814
 6747SOL     OW32713   6.983   0.875   1.362
 6747SOL    HW132714   7.006   0.938   1.287
 6747SOL    HW232715   6.994   0.923   1.449
 6748SOL     OW32716   7.339   2.024   5.582
 6748SOL    HW132717   7.404   1.987   5.515
 6748SOL    HW232718   7.270   2.078   5.535
 6749SOL     OW32719   7.139   1.983   6.212
 6749SOL    HW132720   7.236   1.971   6.234
 6749SOL    HW232721   7.119   1.937   6.126
 6750SOL     OW32722   6.716   0.824   1.375
 6750SOL    HW132723   6.708   0.729   1.405
 6750SOL    HW232724   6.812   0.846   1.358
 6751SOL     OW32725   0.845   6.278   6.369
 6751SOL    HW132726   0.895   6.364   6.369
 6751SOL    HW232727   0.755   6.292   6.411
 6752SOL     OW32728   0.268   3.531   5.915
 6752SOL    HW132729   0.252   3.460   5.846
 6752SOL    HW232730   0.364   3.530   5.942
 6753SOL     OW32731   4.344   0.828   6.074
 6753SOL    HW132732   4.358   0.842   5.975
 6753SOL    HW232733   4.395   0.747   6.103
 6754SOL     OW32734   0.624   2.722   1.334
 6754SOL    HW132735   0.675   2.804   1.360
 6754SOL    HW232736   0.546   2.710   1.396
 6755SOL     OW32737   5.744   5.443   0.203
 6755SOL    HW132738   5.696   5.508   0.261
 6755SOL    HW232739   5.684   5.415   0.128
 6756SOL     OW32740   5.588   0.658   0.736
 6756SOL    HW132741   5.667   0.719   0.731
 6756SOL    HW232742   5.509   0.709   0.772
 6757SOL     OW32743   4.289   6.776   1.025
 6757SOL    HW132744   4.373   6.722   1.034
 6757SOL    HW232745   4.216   6.718   0.991
 6758SOL     OW32746   7.224   0.224   7.018
 6758SOL    HW132747   7.247   0.128   7.031
 6758SOL    HW232748   7.207   0.242   6.921
 6759SOL     OW32749   2.430   4.533   1.278
 6759SOL    HW132750   2.476   4.603   1.223
 6759SOL    HW232751   2.488   4.453   1.286
 6760SOL     OW32752   6.197   2.158   3.546
 6760SOL    HW132753   6.199   2.202   3.636
 6760SOL    HW232754   6.214   2.226   3.475
 6761SOL     OW32755   5.964   2.109   3.006
 6761SOL    HW132756   6.023   2.115   3.086
 6761SOL    HW232757   6.003   2.045   2.940
 6762SOL     OW32758   4.055   4.151   1.780
 6762SOL    HW132759   4.000   4.067   1.781
 6762SOL    HW232760   4.122   4.147   1.707
 6763SOL     OW32761   6.282   0.546   3.095
 6763SOL    HW132762   6.285   0.548   2.995
 6763SOL    HW232763   6.335   0.623   3.132
 6764SOL     OW32764   1.227   6.539   0.222
 6764SOL    HW132765   1.320   6.541   0.259
 6764SOL    HW232766   1.226   6.581   0.132
 6765SOL     OW32767   5.233   6.929   5.905
 6765SOL    HW132768   5.212   6.961   5.812
 6765SOL    HW232769   5.154   6.944   5.964
 6766SOL     OW32770   0.321   5.199   4.434
 6766SOL    HW132771   0.384   5.267   4.472
 6766SOL    HW232772   0.313   5.122   4.499
 6767SOL     OW32773   0.360   0.327   5.963
 6767SOL    HW132774   0.291   0.398   5.972
 6767SOL    HW232775   0.342   0.253   6.029
 6768SOL     OW32776   2.222   5.846   3.740
 6768SOL    HW132777   2.191   5.754   3.761
 6768SOL    HW232778   2.146   5.910   3.752
 6769SOL     OW32779   4.115   6.178   6.296
 6769SOL    HW132780   4.077   6.139   6.379
 6769SOL    HW232781   4.096   6.118   6.219
 6770SOL     OW32782   4.806   1.893   3.920
 6770SOL    HW132783   4.870   1.851   3.856
 6770SOL    HW232784   4.851   1.968   3.969
 6771SOL     OW32785   4.236   0.505   5.050
 6771SOL    HW132786   4.237   0.451   4.966
 6771SOL    HW232787   4.144   0.502   5.090
 6772SOL     OW32788   3.174   4.981   0.636
 6772SOL    HW132789   3.096   5.036   0.664
 6772SOL    HW232790   3.225   4.951   0.717
 6773SOL     OW32791   6.267   1.854   2.119
 6773SOL    HW132792   6.198   1.923   2.140
 6773SOL    HW232793   6.320   1.883   2.039
 6774SOL     OW32794   1.643   3.447   2.730
 6774SOL    HW132795   1.643   3.450   2.830
 6774SOL    HW232796   1.703   3.518   2.694
 6775SOL     OW32797   1.364   4.406   1.835
 6775SOL    HW132798   1.298   4.336   1.809
 6775SOL    HW232799   1.323   4.467   1.904
 6776SOL     OW32800   2.185   2.582   2.599
 6776SOL    HW132801   2.088   2.558   2.597
 6776SOL    HW232802   2.240   2.506   2.563
 6777SOL     OW32803   5.373   1.155   4.145
 6777SOL    HW132804   5.349   1.222   4.216
 6777SOL    HW232805   5.310   1.078   4.150
 6778SOL     OW32806   0.285   1.013   0.978
 6778SOL    HW132807   0.219   1.082   0.947
 6778SOL    HW232808   0.245   0.922   0.968
 6779SOL     OW32809   6.538   3.698   6.909
 6779SOL    HW132810   6.478   3.624   6.877
 6779SOL    HW232811   6.482   3.771   6.949
 6780SOL     OW32812   1.147   3.500   6.819
 6780SOL    HW132813   1.142   3.411   6.772
 6780SOL    HW232814   1.059   3.545   6.813
 6781SOL     OW32815   5.365   0.150   2.039
 6781SOL    HW132816   5.397   0.223   1.978
 6781SOL    HW232817   5.412   0.158   2.127
 6782SOL     OW32818   5.219   4.383   5.785
 6782SOL    HW132819   5.292   4.388   5.854
 6782SOL    HW232820   5.227   4.296   5.735
 6783SOL     OW32821   2.790   6.781   6.295
 6783SOL    HW132822   2.713   6.831   6.255
 6783SOL    HW232823   2.874   6.834   6.282
 6784SOL     OW32824   3.466   0.486   2.107
 6784SOL    HW132825   3.484   0.477   2.009
 6784SOL    HW232826   3.456   0.583   2.130
 6785SOL     OW32827   5.995   7.011   2.184
 6785SOL    HW132828   6.027   6.923   2.219
 6785SOL    HW232829   5.923   7.046   2.244
 6786SOL     OW32830   5.019   4.970   5.791
 6786SOL    HW132831   5.113   4.989   5.763
 6786SOL    HW232832   5.011   4.982   5.890
 6787SOL     OW32833   3.499   2.598   5.097
 6787SOL    HW132834   3.579   2.584   5.155
 6787SOL    HW232835   3.486   2.519   5.038
 6788SOL     OW32836   5.097   4.242   2.338
 6788SOL    HW132837   5.102   4.334   2.375
 6788SOL    HW232838   5.172   4.227   2.273
 6789SOL     OW32839   3.377   5.629   2.124
 6789SOL    HW132840   3.410   5.571   2.198
 6789SOL    HW232841   3.438   5.620   2.045
 6790SOL     OW32842   0.633   2.704   6.687
 6790SOL    HW132843   0.716   2.760   6.682
 6790SOL    HW232844   0.641   2.626   6.625
 6791SOL     OW32845   2.152   1.708   1.676
 6791SOL    HW132846   2.059   1.742   1.666
 6791SOL    HW232847   2.162   1.623   1.624
 6792SOL     OW32848   5.101   1.314   3.287
 6792SOL    HW132849   5.140   1.391   3.338
 6792SOL    HW232850   5.112   1.329   3.189
 6793SOL     OW32851   3.879   1.120   2.764
 6793SOL    HW132852   3.819   1.200   2.771
 6793SOL    HW232853   3.863   1.059   2.840
 6794SOL     OW32854   4.286   0.528   2.260
 6794SOL    HW132855   4.339   0.466   2.318
 6794SOL    HW232856   4.194   0.491   2.247
 6795SOL     OW32857   2.714   2.483   2.414
 6795SOL    HW132858   2.689   2.569   2.458
 6795SOL    HW232859   2.737   2.501   2.318
 6796SOL     OW32860   1.939   0.934   1.070
 6796SOL    HW132861   1.968   0.932   0.974
 6796SOL    HW232862   1.841   0.917   1.076
 6797SOL     OW32863   1.415   6.368   7.177
 6797SOL    HW132864   1.458   6.407   7.096
 6797SOL    HW232865   1.363   6.286   7.152
 6798SOL     OW32866   6.232   0.637   0.364
 6798SOL    HW132867   6.165   0.563   0.359
 6798SOL    HW232868   6.305   0.612   0.428
 6799SOL     OW32869   5.959   3.510   1.495
 6799SOL    HW132870   5.890   3.509   1.567
 6799SOL    HW232871   5.923   3.557   1.415
 6800SOL     OW32872   5.982   3.882   1.819
 6800SOL    HW132873   5.996   3.783   1.808
 6800SOL    HW232874   5.905   3.910   1.763
 6801SOL     OW32875   2.480   6.502   6.305
 6801SOL    HW132876   2.408   6.568   6.286
 6801SOL    HW232877   2.455   6.412   6.268
 6802SOL     OW32878   4.392   4.551   1.635
 6802SOL    HW132879   4.483   4.574   1.670
 6802SOL    HW232880   4.325   4.565   1.708
 6803SOL     OW32881   4.599   2.301   5.091
 6803SOL    HW132882   4.690   2.267   5.068
 6803SOL    HW232883   4.564   2.252   5.171
 6804SOL     OW32884   2.167   6.068   5.592
 6804SOL    HW132885   2.233   6.017   5.648
 6804SOL    HW232886   2.089   6.010   5.572
 6805SOL     OW32887   4.400   1.694   0.368
 6805SOL    HW132888   4.466   1.753   0.415
 6805SOL    HW232889   4.429   1.682   0.273
 6806SOL     OW32890   4.087   3.333   0.303
 6806SOL    HW132891   4.093   3.404   0.234
 6806SOL    HW232892   4.137   3.362   0.385
 6807SOL     OW32893   5.834   1.519   3.750
 6807SOL    HW132894   5.894   1.447   3.785
 6807SOL    HW232895   5.863   1.545   3.658
 6808SOL     OW32896   6.229   5.467   6.717
 6808SOL    HW132897   6.323   5.436   6.700
 6808SOL    HW232898   6.227   5.566   6.725
 6809SOL     OW32899   4.864   3.681   5.435
 6809SOL    HW132900   4.861   3.590   5.477
 6809SOL    HW232901   4.959   3.705   5.414
 6810SOL     OW32902   1.572   5.236   1.113
 6810SOL    HW132903   1.577   5.243   1.013
 6810SOL    HW232904   1.520   5.155   1.138
 6811SOL     OW32905   4.968   5.407   7.106
 6811SOL    HW132906   4.967   5.502   7.074
 6811SOL    HW232907   4.983   5.405   7.205
 6812SOL     OW32908   5.414   1.196   0.164
 6812SOL    HW132909   5.495   1.136   0.159
 6812SOL    HW232910   5.440   1.282   0.208
 6813SOL     OW32911   0.393   6.739   5.229
 6813SOL    HW132912   0.451   6.767   5.305
 6813SOL    HW232913   0.306   6.704   5.264
 6814SOL     OW32914   2.590   1.264   6.333
 6814SOL    HW132915   2.603   1.303   6.242
 6814SOL    HW232916   2.495   1.278   6.362
 6815SOL     OW32917   2.180   6.503   4.594
 6815SOL    HW132918   2.189   6.518   4.496
 6815SOL    HW232919   2.160   6.407   4.612
 6816SOL     OW32920   2.269   5.723   2.735
 6816SOL    HW132921   2.257   5.730   2.834
 6816SOL    HW232922   2.188   5.681   2.694
 6817SOL     OW32923   3.492   4.803   0.609
 6817SOL    HW132924   3.540   4.716   0.598
 6817SOL    HW232925   3.425   4.813   0.536
 6818SOL     OW32926   5.498   3.237   5.024
 6818SOL    HW132927   5.413   3.196   5.057
 6818SOL    HW232928   5.556   3.166   4.983
 6819SOL     OW32929   5.462   5.845   2.658
 6819SOL    HW132930   5.457   5.754   2.699
 6819SOL    HW232931   5.552   5.858   2.617
 6820SOL     OW32932   2.687   3.056   2.459
 6820SOL    HW132933   2.590   3.065   2.435
 6820SOL    HW232934   2.695   3.013   2.549
 6821SOL     OW32935   6.884   5.734   3.339
 6821SOL    HW132936   6.787   5.747   3.360
 6821SOL    HW232937   6.893   5.694   3.248
 6822SOL     OW32938   7.300   6.834   1.232
 6822SOL    HW132939   7.272   6.929   1.249
 6822SOL    HW232940   7.393   6.820   1.267
 6823SOL     OW32941   4.860   6.004   4.825
 6823SOL    HW132942   4.864   5.922   4.881
 6823SOL    HW232943   4.838   6.083   4.883
 6824SOL     OW32944   4.001   1.867   3.555
 6824SOL    HW132945   3.979   1.810   3.634
 6824SOL    HW232946   4.000   1.811   3.472
 6825SOL     OW32947   1.784   6.751   6.138
 6825SOL    HW132948   1.828   6.698   6.210
 6825SOL    HW232949   1.854   6.793   6.080
 6826SOL     OW32950   2.454   0.231   5.866
 6826SOL    HW132951   2.415   0.321   5.884
 6826SOL    HW232952   2.548   0.241   5.835
 6827SOL     OW32953   4.288   2.906   5.757
 6827SOL    HW132954   4.216   2.966   5.794
 6827SOL    HW232955   4.377   2.938   5.791
 6828SOL     OW32956   5.219   0.215   1.319
 6828SOL    HW132957   5.143   0.243   1.378
 6828SOL    HW232958   5.242   0.290   1.257
 6829SOL     OW32959   4.818   3.425   5.533
 6829SOL    HW132960   4.720   3.419   5.549
 6829SOL    HW232961   4.853   3.335   5.508
 6830SOL     OW32962   0.065   5.722   3.258
 6830SOL    HW132963   0.095   5.718   3.163
 6830SOL    HW232964   0.077   5.633   3.301
 6831SOL     OW32965   6.217   6.572   0.082
 6831SOL    HW132966   6.180   6.557   8.990
 6831SOL    HW232967   6.311   6.539   0.085
 6832SOL     OW32968   2.707   3.529   0.782
 6832SOL    HW132969   2.738   3.436   0.767
 6832SOL    HW232970   2.687   3.572   0.694
 6833SOL     OW32971   5.672   7.339   4.249
 6833SOL    HW132972   5.683   7.275   4.172
 6833SOL    HW232973   5.758   7.346   4.299
 6834SOL     OW32974   2.759   2.550   0.321
 6834SOL    HW132975   2.800   2.476   0.267
 6834SOL    HW232976   2.714   2.615   0.260
 6835SOL     OW32977   2.897   3.439   2.259
 6835SOL    HW132978   2.861   3.370   2.196
 6835SOL    HW232979   2.836   3.518   2.259
 6836SOL     OW32980   2.362   1.194   3.538
 6836SOL    HW132981   2.446   1.241   3.568
 6836SOL    HW232982   2.333   1.130   3.609
 6837SOL     OW32983   4.521   4.887   3.488
 6837SOL    HW132984   4.558   4.979   3.500
 6837SOL    HW232985   4.532   4.859   3.393
 6838SOL     OW32986   5.696   2.065   3.062
 6838SOL    HW132987   5.790   2.076   3.030
 6838SOL    HW232988   5.674   1.967   3.067
 6839SOL     OW32989   6.935   6.664   6.734
 6839SOL    HW132990   6.999   6.647   6.810
 6839SOL    HW232991   6.961   6.749   6.688
 6840SOL     OW32992   1.247   1.935   1.533
 6840SOL    HW132993   1.335   1.982   1.542
 6840SOL    HW232994   1.257   1.857   1.471
 6841SOL     OW32995   5.213   3.160   3.224
 6841SOL    HW132996   5.160   3.239   3.254
 6841SOL    HW232997   5.173   3.076   3.262
 6842SOL     OW32998   0.246   2.962   5.627
 6842SOL    HW132999   0.267   2.955   5.724
 6842SOL    HW233000   0.172   3.028   5.613
 6843SOL     OW33001   2.065   1.432   0.621
 6843SOL    HW133002   2.131   1.494   0.664
 6843SOL    HW233003   2.113   1.353   0.584
 6844SOL     OW33004   4.653   4.167   6.431
 6844SOL    HW133005   4.726   4.199   6.491
 6844SOL    HW233006   4.641   4.069   6.442
 6845SOL     OW33007   5.396   0.801   6.291
 6845SOL    HW133008   5.423   0.713   6.330
 6845SOL    HW233009   5.411   0.799   6.192
 6846SOL     OW33010   2.639   5.936   7.190
 6846SOL    HW133011   2.636   6.029   7.228
 6846SOL    HW233012   2.685   5.876   7.256
 6847SOL     OW33013   1.352   5.929   0.036
 6847SOL    HW133014   1.333   5.900   0.130
 6847SOL    HW233015   1.267   5.959   8.993
 6848SOL     OW33016   6.717   6.942   2.744
 6848SOL    HW133017   6.710   6.844   2.724
 6848SOL    HW233018   6.683   6.960   2.836
 6849SOL     OW33019   3.035   1.931   5.404
 6849SOL    HW133020   3.083   1.996   5.345
 6849SOL    HW233021   3.102   1.869   5.446
 6850SOL     OW33022   2.462   6.829   5.083
 6850SOL    HW133023   2.422   6.921   5.090
 6850SOL    HW233024   2.443   6.778   5.167
 6851SOL     OW33025   3.463   0.754   2.132
 6851SOL    HW133026   3.560   0.774   2.148
 6851SOL    HW233027   3.434   0.794   2.046
 6852SOL     OW33028   5.545   6.047   4.587
 6852SOL    HW133029   5.535   6.146   4.597
 6852SOL    HW233030   5.572   6.026   4.493
 6853SOL     OW33031   2.867   4.818   0.761
 6853SOL    HW133032   2.796   4.833   0.830
 6853SOL    HW233033   2.831   4.758   0.689
 6854SOL     OW33034   0.138   4.370   4.968
 6854SOL    HW133035   0.138   4.399   5.064
 6854SOL    HW233036   0.131   4.450   4.909
 6855SOL     OW33037   6.965   4.388   5.025
 6855SOL    HW133038   7.043   4.337   5.061
 6855SOL    HW233039   6.980   4.407   4.928
 6856SOL     OW33040   1.001   5.690   0.159
 6856SOL    HW133041   1.078   5.632   0.135
 6856SOL    HW233042   0.916   5.639   0.147
 6857SOL     OW33043   4.913   4.370   0.579
 6857SOL    HW133044   4.935   4.341   0.672
 6857SOL    HW233045   4.832   4.321   0.548
 6858SOL     OW33046   3.641   2.628   4.607
 6858SOL    HW133047   3.607   2.714   4.645
 6858SOL    HW233048   3.741   2.625   4.615
 6859SOL     OW33049   4.875   2.004   5.931
 6859SOL    HW133050   4.964   1.995   5.887
 6859SOL    HW233051   4.811   2.048   5.868
 6860SOL     OW33052   4.342   0.516   4.289
 6860SOL    HW133053   4.293   0.527   4.203
 6860SOL    HW233054   4.278   0.529   4.365
 6861SOL     OW33055   1.578   2.156   0.550
 6861SOL    HW133056   1.507   2.146   0.619
 6861SOL    HW233057   1.578   2.251   0.516
 6862SOL     OW33058   5.519   3.953   6.348
 6862SOL    HW133059   5.540   3.941   6.251
 6862SOL    HW233060   5.599   3.927   6.403
 6863SOL     OW33061   4.695   3.282   2.377
 6863SOL    HW133062   4.721   3.226   2.298
 6863SOL    HW233063   4.734   3.243   2.460
 6864SOL     OW33064   1.655   3.415   0.833
 6864SOL    HW133065   1.648   3.469   0.917
 6864SOL    HW233066   1.701   3.328   0.853
 6865SOL     OW33067   4.880   6.226   7.139
 6865SOL    HW133068   4.817   6.298   7.110
 6865SOL    HW233069   4.828   6.142   7.157
 6866SOL     OW33070   2.252   2.852   2.527
 6866SOL    HW133071   2.204   2.904   2.597
 6866SOL    HW233072   2.242   2.754   2.544
 6867SOL     OW33073   5.047   0.837   5.702
 6867SOL    HW133074   5.095   0.798   5.780
 6867SOL    HW233075   4.970   0.893   5.734
 6868SOL     OW33076   0.693   0.958   5.941
 6868SOL    HW133077   0.747   0.969   6.024
 6868SOL    HW233078   0.741   1.002   5.864
 6869SOL     OW33079   4.505   7.182   1.416
 6869SOL    HW133080   4.535   7.121   1.343
 6869SOL    HW233081   4.572   7.180   1.491
 6870SOL     OW33082   4.608   2.564   5.165
 6870SOL    HW133083   4.659   2.623   5.103
 6870SOL    HW233084   4.611   2.470   5.131
 6871SOL     OW33085   0.785   7.248   5.525
 6871SOL    HW133086   0.825   7.205   5.607
 6871SOL    HW233087   0.782   7.180   5.452
 6872SOL     OW33088   5.525   3.509   0.467
 6872SOL    HW133089   5.457   3.580   0.487
 6872SOL    HW233090   5.566   3.478   0.552
 6873SOL     OW33091   4.685   6.459   4.937
 6873SOL    HW133092   4.659   6.436   4.843
 6873SOL    HW233093   4.607   6.442   4.998
 6874SOL     OW33094   4.832   2.283   4.273
 6874SOL    HW133095   4.750   2.236   4.238
 6874SOL    HW233096   4.830   2.378   4.244
 6875SOL     OW33097   2.889   2.734   6.727
 6875SOL    HW133098   2.855   2.643   6.702
 6875SOL    HW233099   2.830   2.804   6.688
 6876SOL     OW33100   1.213   3.605   6.013
 6876SOL    HW133101   1.259   3.590   6.100
 6876SOL    HW233102   1.238   3.532   5.949
 6877SOL     OW33103   6.705   4.716   2.944
 6877SOL    HW133104   6.723   4.697   2.848
 6877SOL    HW233105   6.610   4.692   2.966
 6878SOL     OW33106   0.508   0.317   5.731
 6878SOL    HW133107   0.460   0.318   5.819
 6878SOL    HW233108   0.446   0.344   5.658
 6879SOL     OW33109   0.652   5.949   1.040
 6879SOL    HW133110   0.578   5.984   1.097
 6879SOL    HW233111   0.698   6.025   0.993
 6880SOL     OW33112   2.674   3.655   2.224
 6880SOL    HW133113   2.604   3.725   2.243
 6880SOL    HW233114   2.640   3.591   2.156
 6881SOL     OW33115   4.830   4.836   5.630
 6881SOL    HW133116   4.850   4.739   5.626
 6881SOL    HW233117   4.902   4.883   5.682
 6882SOL     OW33118   6.961   5.929   6.049
 6882SOL    HW133119   6.886   5.865   6.058
 6882SOL    HW233120   7.048   5.883   6.069
 6883SOL     OW33121   2.672   4.148   5.574
 6883SOL    HW133122   2.691   4.050   5.584
 6883SOL    HW233123   2.709   4.180   5.487
 6884SOL     OW33124   1.495   0.888   5.757
 6884SOL    HW133125   1.541   0.812   5.805
 6884SOL    HW233126   1.541   0.906   5.671
 6885SOL     OW33127   6.770   2.402   5.816
 6885SOL    HW133128   6.824   2.433   5.894
 6885SOL    HW233129   6.814   2.430   5.731
 6886SOL     OW33130   3.975   6.207   2.079
 6886SOL    HW133131   3.958   6.301   2.108
 6886SOL    HW233132   3.936   6.192   1.988
 6887SOL     OW33133   4.076   1.451   0.843
 6887SOL    HW133134   4.063   1.431   0.746
 6887SOL    HW233135   3.993   1.424   0.893
 6888SOL     OW33136   3.781   6.253   6.446
 6888SOL    HW133137   3.713   6.267   6.518
 6888SOL    HW233138   3.856   6.197   6.481
 6889SOL     OW33139   6.719   4.535   6.189
 6889SOL    HW133140   6.672   4.579   6.113
 6889SOL    HW233141   6.813   4.513   6.161
 6890SOL     OW33142   0.033   3.589   1.401
 6890SOL    HW133143   0.098   3.664   1.411
 6890SOL    HW233144   0.059   3.515   1.464
 6891SOL     OW33145   0.584   5.854   6.303
 6891SOL    HW133146   0.644   5.852   6.223
 6891SOL    HW233147   0.632   5.897   6.379
 6892SOL     OW33148   7.143   3.433   0.415
 6892SOL    HW133149   7.222   3.414   0.473
 6892SOL    HW233150   7.104   3.522   0.440
 6893SOL     OW33151   1.180   0.208   1.897
 6893SOL    HW133152   1.169   0.211   1.996
 6893SOL    HW233153   1.092   0.225   1.853
 6894SOL     OW33154   1.252   1.485   3.262
 6894SOL    HW133155   1.229   1.501   3.358
 6894SOL    HW233156   1.294   1.567   3.224
 6895SOL     OW33157   4.497   2.605   3.252
 6895SOL    HW133158   4.421   2.649   3.203
 6895SOL    HW233159   4.468   2.514   3.282
 6896SOL     OW33160   6.755   3.417   0.225
 6896SOL    HW133161   6.675   3.357   0.228
 6896SOL    HW233162   6.766   3.453   0.133
 6897SOL     OW33163   5.955   5.836   4.716
 6897SOL    HW133164   5.907   5.758   4.676
 6897SOL    HW233165   6.043   5.847   4.671
 6898SOL     OW33166   0.915   6.113   6.155
 6898SOL    HW133167   0.882   6.166   6.234
 6898SOL    HW233168   0.933   6.175   6.079
 6899SOL     OW33169   2.538   4.609   4.584
 6899SOL    HW133170   2.551   4.640   4.678
 6899SOL    HW233171   2.568   4.514   4.577
 6900SOL     OW33172   5.819   0.015   1.201
 6900SOL    HW133173   5.818   0.090   1.267
 6900SOL    HW233174   5.880   8.942   1.233
 6901SOL     OW33175   5.662   3.149   7.319
 6901SOL    HW133176   5.659   3.204   7.236
 6901SOL    HW233177   5.662   3.052   7.295
 6902SOL     OW33178   5.665   6.589   4.093
 6902SOL    HW133179   5.614   6.662   4.139
 6902SOL    HW233180   5.656   6.504   4.144
 6903SOL     OW33181   5.239   2.336   3.393
 6903SOL    HW133182   5.142   2.316   3.379
 6903SOL    HW233183   5.294   2.264   3.351
 6904SOL     OW33184   5.220   6.547   4.726
 6904SOL    HW133185   5.247   6.456   4.756
 6904SOL    HW233186   5.135   6.541   4.673
 6905SOL     OW33187   2.569   3.462   1.251
 6905SOL    HW133188   2.504   3.433   1.181
 6905SOL    HW233189   2.522   3.470   1.339
 6906SOL     OW33190   2.599   0.956   6.699
 6906SOL    HW133191   2.596   0.860   6.668
 6906SOL    HW233192   2.682   0.999   6.664
 6907SOL     OW33193   3.288   2.068   5.685
 6907SOL    HW133194   3.245   2.133   5.623
 6907SOL    HW233195   3.220   2.002   5.717
 6908SOL     OW33196   4.149   0.469   6.503
 6908SOL    HW133197   4.232   0.449   6.555
 6908SOL    HW233198   4.133   0.397   6.436
 6909SOL     OW33199   0.437   2.849   6.102
 6909SOL    HW133200   0.533   2.873   6.114
 6909SOL    HW233201   0.410   2.780   6.169
 6910SOL     OW33202   4.994   0.521   7.093
 6910SOL    HW133203   4.916   0.463   7.120
 6910SOL    HW233204   5.021   0.499   7.000
 6911SOL     OW33205   6.728   5.628   3.791
 6911SOL    HW133206   6.764   5.603   3.701
 6911SOL    HW233207   6.757   5.560   3.859
 6912SOL     OW33208   3.550   0.307   0.464
 6912SOL    HW133209   3.498   0.226   0.489
 6912SOL    HW233210   3.500   0.389   0.492
 6913SOL     OW33211   6.110   2.358   0.432
 6913SOL    HW133212   6.022   2.406   0.428
 6913SOL    HW233213   6.095   2.260   0.429
 6914SOL     OW33214   0.846   5.777   1.140
 6914SOL    HW133215   0.776   5.841   1.109
 6914SOL    HW233216   0.932   5.827   1.155
 6915SOL     OW33217   3.971   2.543   5.108
 6915SOL    HW133218   3.945   2.640   5.104
 6915SOL    HW233219   3.978   2.507   5.015
 6916SOL     OW33220   5.983   2.292   1.267
 6916SOL    HW133221   5.992   2.381   1.221
 6916SOL    HW233222   6.017   2.220   1.207
 6917SOL     OW33223   6.831   5.062   1.311
 6917SOL    HW133224   6.862   4.968   1.293
 6917SOL    HW233225   6.909   5.119   1.333
 6918SOL     OW33226   6.257   1.041   3.488
 6918SOL    HW133227   6.181   0.980   3.468
 6918SOL    HW233228   6.321   1.042   3.411
 6919SOL     OW33229   2.687   4.674   7.018
 6919SOL    HW133230   2.673   4.635   6.927
 6919SOL    HW233231   2.751   4.616   7.070
 6920SOL     OW33232   3.035   3.890   1.864
 6920SOL    HW133233   3.010   3.821   1.795
 6920SOL    HW233234   2.952   3.931   1.901
 6921SOL     OW33235   5.228   4.354   0.699
 6921SOL    HW133236   5.140   4.352   0.748
 6921SOL    HW233237   5.248   4.262   0.665
 6922SOL     OW33238   1.379   3.106   1.195
 6922SOL    HW133239   1.357   3.203   1.184
 6922SOL    HW233240   1.453   3.081   1.132
 6923SOL     OW33241   3.962   7.197   6.204
 6923SOL    HW133242   3.957   7.131   6.130
 6923SOL    HW233243   3.906   7.166   6.281
 6924SOL     OW33244   7.136   5.389   7.298
 6924SOL    HW133245   7.203   5.420   7.366
 6924SOL    HW233246   7.179   5.324   7.236
 6925SOL     OW33247   2.116   7.268   7.122
 6925SOL    HW133248   2.035   7.298   7.172
 6925SOL    HW233249   2.173   7.348   7.099
 6926SOL     OW33250   3.266   4.905   0.896
 6926SOL    HW133251   3.364   4.890   0.886
 6926SOL    HW233252   3.247   4.945   0.986
 6927SOL     OW33253   5.987   2.306   0.952
 6927SOL    HW133254   5.953   2.367   0.881
 6927SOL    HW233255   5.912   2.250   0.987
 6928SOL     OW33256   6.329   2.190   0.049
 6928SOL    HW133257   6.394   2.266   0.049
 6928SOL    HW233258   6.300   2.171   8.956
 6929SOL     OW33259   2.021   1.948   1.006
 6929SOL    HW133260   2.044   1.928   1.102
 6929SOL    HW233261   2.070   2.030   0.977
 6930SOL     OW33262   5.774   4.027   0.954
 6930SOL    HW133263   5.812   3.938   0.980
 6930SOL    HW233264   5.848   4.092   0.938
 6931SOL     OW33265   6.720   4.316   0.345
 6931SOL    HW133266   6.714   4.218   0.360
 6931SOL    HW233267   6.632   4.351   0.312
 6932SOL     OW33268   2.684   0.873   2.034
 6932SOL    HW133269   2.630   0.791   2.015
 6932SOL    HW233270   2.780   0.854   2.019
 6933SOL     OW33271   3.033   0.353   0.240
 6933SOL    HW133272   3.029   0.271   0.182
 6933SOL    HW233273   3.058   0.326   0.333
 6934SOL     OW33274   6.174   6.372   5.314
 6934SOL    HW133275   6.079   6.384   5.283
 6934SOL    HW233276   6.202   6.277   5.297
 6935SOL     OW33277   0.397   5.453   6.381
 6935SOL    HW133278   0.299   5.469   6.370
 6935SOL    HW233279   0.411   5.365   6.427
 6936SOL     OW33280   5.742   0.863   7.240
 6936SOL    HW133281   5.705   0.836   7.152
 6936SOL    HW233282   5.675   0.843   7.312
 6937SOL     OW33283   1.241   3.886   6.933
 6937SOL    HW133284   1.316   3.944   6.965
 6937SOL    HW233285   1.196   3.843   7.011
 6938SOL     OW33286   1.681   1.182   1.157
 6938SOL    HW133287   1.591   1.222   1.173
 6938SOL    HW233288   1.671   1.093   1.112
 6939SOL     OW33289   0.315   6.461   1.660
 6939SOL    HW133290   0.278   6.549   1.689
 6939SOL    HW233291   0.310   6.396   1.735
 6940SOL     OW33292   5.208   0.962   3.230
 6940SOL    HW133293   5.306   0.949   3.247
 6940SOL    HW233294   5.165   1.004   3.310
 6941SOL     OW33295   0.666   2.499   6.510
 6941SOL    HW133296   0.614   2.424   6.551
 6941SOL    HW233297   0.746   2.462   6.463
 6942SOL     OW33298   1.470   4.287   3.300
 6942SOL    HW133299   1.550   4.256   3.248
 6942SOL    HW233300   1.496   4.303   3.395
 6943SOL     OW33301   0.503   3.891   1.822
 6943SOL    HW133302   0.514   3.899   1.723
 6943SOL    HW233303   0.407   3.879   1.845
 6944SOL     OW33304   1.691   2.184   1.740
 6944SOL    HW133305   1.682   2.284   1.741
 6944SOL    HW233306   1.779   2.158   1.778
 6945SOL     OW33307   0.944   1.376   2.540
 6945SOL    HW133308   1.035   1.343   2.567
 6945SOL    HW233309   0.884   1.376   2.620
 6946SOL     OW33310   2.023   4.476   6.047
 6946SOL    HW133311   1.964   4.398   6.029
 6946SOL    HW233312   2.068   4.465   6.135
 6947SOL     OW33313   6.826   2.099   0.883
 6947SOL    HW133314   6.761   2.033   0.844
 6947SOL    HW233315   6.915   2.088   0.839
 6948SOL     OW33316   3.953   1.526   2.875
 6948SOL    HW133317   4.003   1.470   2.809
 6948SOL    HW233318   3.966   1.489   2.967
 6949SOL     OW33319   3.167   2.770   2.485
 6949SOL    HW133320   3.201   2.686   2.442
 6949SOL    HW233321   3.082   2.751   2.533
 6950SOL     OW33322   6.687   3.143   5.345
 6950SOL    HW133323   6.673   3.167   5.441
 6950SOL    HW233324   6.638   3.059   5.325
 6951SOL     OW33325   2.806   2.386   0.993
 6951SOL    HW133326   2.830   2.425   0.904
 6951SOL    HW233327   2.723   2.429   1.028
 6952SOL     OW33328   0.700   5.537   5.223
 6952SOL    HW133329   0.670   5.586   5.141
 6952SOL    HW233330   0.790   5.572   5.251
 6953SOL     OW33331   1.242   7.041   3.496
 6953SOL    HW133332   1.310   7.113   3.483
 6953SOL    HW233333   1.273   6.978   3.567
 6954SOL     OW33334   1.298   1.739   3.993
 6954SOL    HW133335   1.291   1.833   3.959
 6954SOL    HW233336   1.306   1.739   4.092
 6955SOL     OW33337   1.213   5.467   1.627
 6955SOL    HW133338   1.204   5.394   1.694
 6955SOL    HW233339   1.203   5.429   1.535
 6956SOL     OW33340   0.842   5.213   6.148
 6956SOL    HW133341   0.889   5.220   6.236
 6956SOL    HW233342   0.777   5.288   6.140
 6957SOL     OW33343   4.191   0.947   5.080
 6957SOL    HW133344   4.189   1.022   5.146
 6957SOL    HW233345   4.105   0.895   5.086
 6958SOL     OW33346   3.971   2.514   3.837
 6958SOL    HW133347   3.983   2.465   3.751
 6958SOL    HW233348   4.030   2.475   3.907
 6959SOL     OW33349   3.611   5.296   2.760
 6959SOL    HW133350   3.616   5.326   2.855
 6959SOL    HW233351   3.555   5.360   2.708
 6960SOL     OW33352   5.618   4.366   0.942
 6960SOL    HW133353   5.577   4.279   0.916
 6960SOL    HW233354   5.676   4.398   0.867
 6961SOL     OW33355   5.487   6.107   3.720
 6961SOL    HW133356   5.509   6.196   3.760
 6961SOL    HW233357   5.501   6.110   3.621
 6962SOL     OW33358   3.606   1.721   5.229
 6962SOL    HW133359   3.608   1.676   5.318
 6962SOL    HW233360   3.582   1.655   5.159
 6963SOL     OW33361   5.732   2.266   5.195
 6963SOL    HW133362   5.741   2.238   5.291
 6963SOL    HW233363   5.674   2.201   5.146
 6964SOL     OW33364   0.092   7.076   6.260
 6964SOL    HW133365   0.084   7.006   6.332
 6964SOL    HW233366   0.064   7.165   6.297
 6965SOL     OW33367   6.190   0.119   3.845
 6965SOL    HW133368   6.111   0.061   3.864
 6965SOL    HW233369   6.232   0.147   3.932
 6966SOL     OW33370   5.231   4.503   6.572
 6966SOL    HW133371   5.149   4.554   6.599
 6966SOL    HW233372   5.237   4.499   6.472
 6967SOL     OW33373   0.151   1.558   2.633
 6967SOL    HW133374   0.116   1.483   2.577
 6967SOL    HW233375   0.194   1.626   2.574
 6968SOL     OW33376   0.910   2.600   5.036
 6968SOL    HW133377   0.997   2.553   5.024
 6968SOL    HW233378   0.856   2.594   4.952
 6969SOL     OW33379   2.043   5.219   0.643
 6969SOL    HW133380   1.992   5.301   0.615
 6969SOL    HW233381   2.050   5.156   0.566
 6970SOL     OW33382   4.103   4.142   0.856
 6970SOL    HW133383   4.174   4.091   0.807
 6970SOL    HW233384   4.034   4.078   0.892
 6971SOL     OW33385   5.003   5.560   1.851
 6971SOL    HW133386   4.975   5.479   1.902
 6971SOL    HW233387   4.927   5.591   1.794
 6972SOL     OW33388   4.643   4.583   3.140
 6972SOL    HW133389   4.575   4.522   3.101
 6972SOL    HW233390   4.698   4.534   3.208
 6973SOL     OW33391   4.263   6.929   1.249
 6973SOL    HW133392   4.276   6.873   1.167
 6973SOL    HW233393   4.176   6.905   1.292
 6974SOL     OW33394   0.615   5.335   1.365
 6974SOL    HW133395   0.657   5.421   1.337
 6974SOL    HW233396   0.515   5.346   1.367
 6975SOL     OW33397   6.655   0.862   3.045
 6975SOL    HW133398   6.721   0.793   3.075
 6975SOL    HW233399   6.669   0.882   2.948
 6976SOL     OW33400   4.462   4.557   6.117
 6976SOL    HW133401   4.397   4.489   6.149
 6976SOL    HW233402   4.515   4.591   6.195
 6977SOL     OW33403   7.181   2.502   0.461
 6977SOL    HW133404   7.223   2.473   0.375
 6977SOL    HW233405   7.129   2.586   0.446
 6978SOL     OW33406   1.302   2.241   1.845
 6978SOL    HW133407   1.316   2.326   1.895
 6978SOL    HW233408   1.301   2.259   1.747
 6979SOL     OW33409   2.428   7.181   0.180
 6979SOL    HW133410   2.473   7.250   0.123
 6979SOL    HW233411   2.337   7.212   0.206
 6980SOL     OW33412   4.226   5.248   3.913
 6980SOL    HW133413   4.141   5.218   3.957
 6980SOL    HW233414   4.215   5.245   3.814
 6981SOL     OW33415   6.834   7.009   1.806
 6981SOL    HW133416   6.800   6.934   1.862
 6981SOL    HW233417   6.925   6.987   1.771
 6982SOL     OW33418   0.389   4.116   4.694
 6982SOL    HW133419   0.469   4.063   4.666
 6982SOL    HW233420   0.313   4.054   4.712
 6983SOL     OW33421   3.839   7.168   4.413
 6983SOL    HW133422   3.787   7.243   4.373
 6983SOL    HW233423   3.928   7.202   4.445
 6984SOL     OW33424   5.623   4.922   1.994
 6984SOL    HW133425   5.653   4.976   2.072
 6984SOL    HW233426   5.574   4.980   1.929
 6985SOL     OW33427   2.094   6.895   0.920
 6985SOL    HW133428   2.051   6.960   0.983
 6985SOL    HW233429   2.190   6.919   0.908
 6986SOL     OW33430   0.599   4.646   6.057
 6986SOL    HW133431   0.499   4.651   6.051
 6986SOL    HW233432   0.637   4.639   5.965
 6987SOL     OW33433   4.775   4.633   6.854
 6987SOL    HW133434   4.782   4.560   6.787
 6987SOL    HW233435   4.788   4.721   6.809
 6988SOL     OW33436   1.312   2.013   4.242
 6988SOL    HW133437   1.313   1.985   4.338
 6988SOL    HW233438   1.218   2.008   4.207
 6989SOL     OW33439   5.730   0.194   0.849
 6989SOL    HW133440   5.822   0.158   0.870
 6989SOL    HW233441   5.689   0.139   0.776
 6990SOL     OW33442   2.364   7.186   1.869
 6990SOL    HW133443   2.277   7.235   1.866
 6990SOL    HW233444   2.366   7.126   1.949
 6991SOL     OW33445   2.909   7.353   0.527
 6991SOL    HW133446   2.880   7.276   0.585
 6991SOL    HW233447   2.873   7.438   0.564
 6992SOL     OW33448   4.976   6.378   6.613
 6992SOL    HW133449   5.008   6.398   6.705
 6992SOL    HW233450   4.881   6.407   6.602
 6993SOL     OW33451   5.915   2.466   6.376
 6993SOL    HW133452   6.004   2.424   6.358
 6993SOL    HW233453   5.919   2.563   6.352
 6994SOL     OW33454   2.987   0.129   1.454
 6994SOL    HW133455   3.065   0.068   1.441
 6994SOL    HW233456   2.908   0.092   1.406
 6995SOL     OW33457   4.985   3.165   6.395
 6995SOL    HW133458   5.004   3.113   6.312
 6995SOL    HW233459   5.024   3.257   6.387
 6996SOL     OW33460   6.581   1.669   7.282
 6996SOL    HW133461   6.648   1.609   7.237
 6996SOL    HW233462   6.493   1.621   7.288
 6997SOL     OW33463   4.095   7.091   6.654
 6997SOL    HW133464   4.135   7.143   6.579
 6997SOL    HW233465   4.106   6.993   6.636
 6998SOL     OW33466   3.559   1.744   0.808
 6998SOL    HW133467   3.612   1.664   0.779
 6998SOL    HW233468   3.605   1.789   0.884
 6999SOL     OW33469   6.350   2.143   4.410
 6999SOL    HW133470   6.300   2.192   4.481
 6999SOL    HW233471   6.291   2.074   4.368
 7000SOL     OW33472   3.186   6.922   0.992
 7000SOL    HW133473   3.106   6.862   0.987
 7000SOL    HW233474   3.255   6.881   1.051
 7001SOL     OW33475   5.302   1.870   3.852
 7001SOL    HW133476   5.341   1.845   3.764
 7001SOL    HW233477   5.376   1.882   3.919
 7002SOL     OW33478   1.531   2.104   4.963
 7002SOL    HW133479   1.610   2.165   4.956
 7002SOL    HW233480   1.449   2.152   4.932
 7003SOL     OW33481   2.178   0.140   6.376
 7003SOL    HW133482   2.273   0.148   6.404
 7003SOL    HW233483   2.126   0.218   6.411
 7004SOL     OW33484   3.671   7.214   1.806
 7004SOL    HW133485   3.711   7.232   1.716
 7004SOL    HW233486   3.583   7.168   1.795
 7005SOL     OW33487   0.560   4.041   6.402
 7005SOL    HW133488   0.567   4.113   6.472
 7005SOL    HW233489   0.490   4.066   6.335
 7006SOL     OW33490   2.154   1.097   0.769
 7006SOL    HW133491   2.154   1.143   0.680
 7006SOL    HW233492   2.248   1.086   0.801
 7007SOL     OW33493   0.155   0.514   5.991
 7007SOL    HW133494   0.071   0.485   6.037
 7007SOL    HW233495   0.132   0.563   5.907
 7008SOL     OW33496   0.805   4.908   1.436
 7008SOL    HW133497   0.749   4.953   1.366
 7008SOL    HW233498   0.884   4.965   1.457
 7009SOL     OW33499   6.348   0.137   0.958
 7009SOL    HW133500   6.394   0.050   0.971
 7009SOL    HW233501   6.310   0.142   0.866
 7010SOL     OW33502   5.504   6.869   2.660
 7010SOL    HW133503   5.450   6.818   2.728
 7010SOL    HW233504   5.442   6.918   2.599
 7011SOL     OW33505   7.173   2.510   5.897
 7011SOL    HW133506   7.184   2.414   5.872
 7011SOL    HW233507   7.258   2.545   5.936
 7012SOL     OW33508   5.132   6.898   4.088
 7012SOL    HW133509   5.065   6.885   4.015
 7012SOL    HW233510   5.210   6.836   4.073
 7013SOL     OW33511   2.431   6.698   1.989
 7013SOL    HW133512   2.506   6.760   2.013
 7013SOL    HW233513   2.350   6.722   2.042
 7014SOL     OW33514   7.267   3.734   2.775
 7014SOL    HW133515   7.230   3.816   2.731
 7014SOL    HW233516   7.267   3.659   2.710
 7015SOL     OW33517   3.945   5.924   7.034
 7015SOL    HW133518   3.990   5.862   6.970
 7015SOL    HW233519   4.014   5.968   7.092
 7016SOL     OW33520   4.872   2.976   3.443
 7016SOL    HW133521   4.966   2.971   3.412
 7016SOL    HW233522   4.848   2.890   3.490
 7017SOL     OW33523   2.997   5.235   3.612
 7017SOL    HW133524   2.935   5.158   3.599
 7017SOL    HW233525   3.069   5.231   3.543
 7018SOL     OW33526   2.932   1.778   1.583
 7018SOL    HW133527   2.917   1.718   1.504
 7018SOL    HW233528   2.926   1.725   1.667
 7019SOL     OW33529   2.713   0.286   3.292
 7019SOL    HW133530   2.779   0.353   3.259
 7019SOL    HW233531   2.657   0.326   3.364
 7020SOL     OW33532   0.570   3.365   0.672
 7020SOL    HW133533   0.585   3.454   0.628
 7020SOL    HW233534   0.486   3.368   0.725
 7021SOL     OW33535   0.974   1.284   0.903
 7021SOL    HW133536   0.930   1.372   0.885
 7021SOL    HW233537   0.934   1.241   0.983
 7022SOL     OW33538   4.585   3.312   1.223
 7022SOL    HW133539   4.556   3.325   1.318
 7022SOL    HW233540   4.631   3.396   1.192
 7023SOL     OW33541   4.167   7.212   4.236
 7023SOL    HW133542   4.176   7.309   4.215
 7023SOL    HW233543   4.132   7.164   4.155
 7024SOL     OW33544   7.058   3.520   3.659
 7024SOL    HW133545   6.999   3.505   3.738
 7024SOL    HW233546   7.034   3.454   3.587
 7025SOL     OW33547   4.747   2.645   6.671
 7025SOL    HW133548   4.782   2.653   6.764
 7025SOL    HW233549   4.763   2.553   6.636
 7026SOL     OW33550   5.045   2.986   1.503
 7026SOL    HW133551   5.108   2.958   1.432
 7026SOL    HW233552   5.047   2.918   1.578
 7027SOL     OW33553   5.385   6.714   2.852
 7027SOL    HW133554   5.290   6.683   2.859
 7027SOL    HW233555   5.446   6.640   2.879
 7028SOL     OW33556   4.925   6.255   2.100
 7028SOL    HW133557   5.016   6.233   2.065
 7028SOL    HW233558   4.873   6.303   2.030
 7029SOL     OW33559   5.876   6.462   6.545
 7029SOL    HW133560   5.911   6.435   6.455
 7029SOL    HW233561   5.945   6.516   6.592
 7030SOL     OW33562   2.621   1.897   0.379
 7030SOL    HW133563   2.719   1.897   0.400
 7030SOL    HW233564   2.606   1.934   0.288
 7031SOL     OW33565   7.213   4.671   1.876
 7031SOL    HW133566   7.189   4.585   1.831
 7031SOL    HW233567   7.283   4.654   1.945
 7032SOL     OW33568   1.215   4.645   5.476
 7032SOL    HW133569   1.221   4.734   5.521
 7032SOL    HW233570   1.305   4.600   5.479
 7033SOL     OW33571   3.893   1.751   1.162
 7033SOL    HW133572   3.902   1.812   1.241
 7033SOL    HW233573   3.980   1.705   1.145
 7034SOL     OW33574   5.770   4.436   0.719
 7034SOL    HW133575   5.815   4.523   0.700
 7034SOL    HW233576   5.823   4.362   0.677
 7035SOL     OW33577   6.279   4.328   0.383
 7035SOL    HW133578   6.301   4.297   0.475
 7035SOL    HW233579   6.361   4.365   0.340
 7036SOL     OW33580   0.650   5.790   2.612
 7036SOL    HW133581   0.701   5.766   2.529
 7036SOL    HW233582   0.601   5.709   2.645
 7037SOL     OW33583   1.698   1.489   3.566
 7037SOL    HW133584   1.680   1.395   3.538
 7037SOL    HW233585   1.796   1.500   3.584
 7038SOL     OW33586   3.821   4.939   3.056
 7038SOL    HW133587   3.729   4.933   3.093
 7038SOL    HW233588   3.873   4.857   3.079
 7039SOL     OW33589   5.166   5.312   4.899
 7039SOL    HW133590   5.113   5.346   4.821
 7039SOL    HW233591   5.243   5.258   4.865
 7040SOL     OW33592   2.412   5.832   4.029
 7040SOL    HW133593   2.415   5.924   3.989
 7040SOL    HW233594   2.498   5.814   4.077
 7041SOL     OW33595   5.248   7.138   0.737
 7041SOL    HW133596   5.259   7.142   0.637
 7041SOL    HW233597   5.336   7.157   0.780
 7042SOL     OW33598   3.874   7.161   5.670
 7042SOL    HW133599   3.908   7.155   5.576
 7042SOL    HW233600   3.930   7.227   5.721
 7043SOL     OW33601   3.244   0.408   1.770
 7043SOL    HW133602   3.169   0.356   1.728
 7043SOL    HW233603   3.310   0.435   1.700
 7044SOL     OW33604   3.007   0.666   1.066
 7044SOL    HW133605   3.024   0.586   1.124
 7044SOL    HW233606   3.086   0.682   1.007
 7045SOL     OW33607   5.642   1.517   0.506
 7045SOL    HW133608   5.705   1.476   0.572
 7045SOL    HW233609   5.648   1.617   0.512
 7046SOL     OW33610   7.065   1.198   3.295
 7046SOL    HW133611   7.073   1.225   3.199
 7046SOL    HW233612   6.969   1.184   3.318
 7047SOL     OW33613   4.097   0.737   0.039
 7047SOL    HW133614   4.040   0.769   8.964
 7047SOL    HW233615   4.181   0.791   0.042
 7048SOL     OW33616   2.335   4.441   0.723
 7048SOL    HW133617   2.399   4.443   0.646
 7048SOL    HW233618   2.246   4.476   0.694
 7049SOL     OW33619   6.372   6.430   1.972
 7049SOL    HW133620   6.353   6.380   1.888
 7049SOL    HW233621   6.300   6.498   1.988
 7050SOL     OW33622   6.374   2.493   4.160
 7050SOL    HW133623   6.303   2.526   4.098
 7050SOL    HW233624   6.334   2.429   4.226
 7051SOL     OW33625   5.315   5.802   3.158
 7051SOL    HW133626   5.253   5.816   3.081
 7051SOL    HW233627   5.263   5.780   3.240
 7052SOL     OW33628   5.845   6.132   1.503
 7052SOL    HW133629   5.803   6.052   1.545
 7052SOL    HW233630   5.780   6.208   1.502
 7053SOL     OW33631   3.994   6.481   6.984
 7053SOL    HW133632   3.938   6.499   6.904
 7053SOL    HW233633   3.971   6.390   7.021
 7054SOL     OW33634   2.028   3.912   2.295
 7054SOL    HW133635   2.065   3.849   2.363
 7054SOL    HW233636   2.014   4.002   2.337
 7055SOL     OW33637   4.599   5.945   6.178
 7055SOL    HW133638   4.537   5.868   6.163
 7055SOL    HW233639   4.675   5.941   6.113
 7056SOL     OW33640   5.254   4.056   2.597
 7056SOL    HW133641   5.278   4.015   2.685
 7056SOL    HW233642   5.156   4.076   2.595
 7057SOL     OW33643   4.839   2.355   3.562
 7057SOL    HW133644   4.907   2.417   3.602
 7057SOL    HW233645   4.771   2.408   3.511
 7058SOL     OW33646   7.270   2.990   3.253
 7058SOL    HW133647   7.226   2.966   3.167
 7058SOL    HW233648   7.310   2.907   3.294
 7059SOL     OW33649   2.235   2.586   1.350
 7059SOL    HW133650   2.292   2.509   1.323
 7059SOL    HW233651   2.153   2.589   1.292
 7060SOL     OW33652   2.710   3.079   1.183
 7060SOL    HW133653   2.745   2.994   1.223
 7060SOL    HW233654   2.747   3.157   1.233
 7061SOL     OW33655   1.385   1.363   3.657
 7061SOL    HW133656   1.409   1.418   3.736
 7061SOL    HW233657   1.313   1.409   3.605
 7062SOL     OW33658   0.575   3.447   1.260
 7062SOL    HW133659   0.513   3.426   1.184
 7062SOL    HW233660   0.624   3.532   1.240
 7063SOL     OW33661   6.915   6.341   6.815
 7063SOL    HW133662   7.008   6.313   6.791
 7063SOL    HW233663   6.864   6.360   6.732
 7064SOL     OW33664   4.469   6.521   2.619
 7064SOL    HW133665   4.425   6.480   2.539
 7064SOL    HW233666   4.486   6.618   2.601
 7065SOL     OW33667   1.792   5.689   3.284
 7065SOL    HW133668   1.887   5.699   3.253
 7065SOL    HW233669   1.772   5.762   3.350
 7066SOL     OW33670   3.965   4.715   3.134
 7066SOL    HW133671   3.992   4.753   3.222
 7066SOL    HW233672   4.047   4.685   3.084
 7067SOL     OW33673   1.192   3.313   4.980
 7067SOL    HW133674   1.211   3.410   4.999
 7067SOL    HW233675   1.232   3.288   4.892
 7068SOL     OW33676   3.202   6.397   1.184
 7068SOL    HW133677   3.264   6.346   1.244
 7068SOL    HW233678   3.184   6.487   1.222
 7069SOL     OW33679   5.904   6.523   4.310
 7069SOL    HW133680   5.902   6.453   4.239
 7069SOL    HW233681   5.989   6.575   4.305
 7070SOL     OW33682   6.121   3.625   2.302
 7070SOL    HW133683   6.025   3.650   2.296
 7070SOL    HW233684   6.152   3.588   2.215
 7071SOL     OW33685   5.003   0.378   0.319
 7071SOL    HW133686   5.075   0.431   0.272
 7071SOL    HW233687   4.951   0.439   0.379
 7072SOL     OW33688   2.519   6.927   0.065
 7072SOL    HW133689   2.535   6.966   8.975
 7072SOL    HW233690   2.473   6.994   0.123
 7073SOL     OW33691   7.118   1.143   1.869
 7073SOL    HW133692   7.027   1.115   1.839
 7073SOL    HW233693   7.112   1.186   1.959
 7074SOL     OW33694   3.780   1.229   6.775
 7074SOL    HW133695   3.684   1.234   6.748
 7074SOL    HW233696   3.812   1.134   6.767
 7075SOL     OW33697   2.902   1.581   2.436
 7075SOL    HW133698   2.847   1.531   2.370
 7075SOL    HW233699   2.946   1.517   2.500
 7076SOL     OW33700   3.649   2.708   6.295
 7076SOL    HW133701   3.602   2.780   6.244
 7076SOL    HW233702   3.724   2.747   6.347
 7077SOL     OW33703   7.236   2.694   1.298
 7077SOL    HW133704   7.305   2.757   1.264
 7077SOL    HW233705   7.214   2.627   1.227
 7078SOL     OW33706   7.304   6.159   2.290
 7078SOL    HW133707   7.356   6.198   2.215
 7078SOL    HW233708   7.266   6.232   2.347
 7079SOL     OW33709   4.485   6.215   4.104
 7079SOL    HW133710   4.569   6.243   4.148
 7079SOL    HW233711   4.414   6.284   4.118
 7080SOL     OW33712   5.909   4.187   4.535
 7080SOL    HW133713   5.949   4.126   4.467
 7080SOL    HW233714   5.847   4.251   4.490
 7081SOL     OW33715   7.245   3.016   0.308
 7081SOL    HW133716   7.180   3.061   0.247
 7081SOL    HW233717   7.337   3.050   0.289
 7082SOL     OW33718   3.643   6.934   0.191
 7082SOL    HW133719   3.658   6.846   0.146
 7082SOL    HW233720   3.650   7.008   0.124
 7083SOL     OW33721   7.352   0.190   5.434
 7083SOL    HW133722   7.360   0.288   5.420
 7083SOL    HW233723   7.256   0.163   5.435
 7084SOL     OW33724   4.801   4.075   5.040
 7084SOL    HW133725   4.707   4.061   5.008
 7084SOL    HW233726   4.810   4.039   5.133
 7085SOL     OW33727   4.206   2.122   2.194
 7085SOL    HW133728   4.240   2.030   2.176
 7085SOL    HW233729   4.175   2.163   2.108
 7086SOL     OW33730   5.006   2.999   6.171
 7086SOL    HW133731   5.079   2.932   6.154
 7086SOL    HW233732   4.918   2.952   6.176
 7087SOL     OW33733   0.404   7.139   1.132
 7087SOL    HW133734   0.347   7.144   1.214
 7087SOL    HW233735   0.350   7.167   1.052
 7088SOL     OW33736   4.122   0.997   2.688
 7088SOL    HW133737   4.031   1.032   2.713
 7088SOL    HW233738   4.169   0.966   2.771
 7089SOL     OW33739   0.602   6.496   5.791
 7089SOL    HW133740   0.634   6.457   5.877
 7089SOL    HW233741   0.680   6.535   5.741
 7090SOL     OW33742   5.934   2.008   0.209
 7090SOL    HW133743   5.925   1.939   0.137
 7090SOL    HW233744   5.977   2.090   0.170
 7091SOL     OW33745   0.572   2.495   5.326
 7091SOL    HW133746   0.646   2.460   5.383
 7091SOL    HW233747   0.498   2.529   5.385
 7092SOL     OW33748   0.758   4.881   4.711
 7092SOL    HW133749   0.720   4.964   4.751
 7092SOL    HW233750   0.835   4.849   4.767
 7093SOL     OW33751   4.655   4.934   6.390
 7093SOL    HW133752   4.752   4.954   6.403
 7093SOL    HW233753   4.608   5.017   6.359
 7094SOL     OW33754   0.313   1.435   1.479
 7094SOL    HW133755   0.375   1.481   1.543
 7094SOL    HW233756   0.362   1.416   1.393
 7095SOL     OW33757   3.034   7.247   2.382
 7095SOL    HW133758   2.956   7.196   2.347
 7095SOL    HW233759   3.104   7.183   2.414
 7096SOL     OW33760   5.423   1.612   3.986
 7096SOL    HW133761   5.464   1.703   3.991
 7096SOL    HW233762   5.486   1.550   3.940
 7097SOL     OW33763   4.478   2.646   0.908
 7097SOL    HW133764   4.431   2.699   0.838
 7097SOL    HW233765   4.571   2.681   0.921
 7098SOL     OW33766   6.170   1.349   2.760
 7098SOL    HW133767   6.164   1.399   2.674
 7098SOL    HW233768   6.262   1.310   2.769
 7099SOL     OW33769   4.326   6.784   7.166
 7099SOL    HW133770   4.258   6.756   7.099
 7099SOL    HW233771   4.330   6.884   7.170
 7100SOL     OW33772   4.390   0.454   1.493
 7100SOL    HW133773   4.388   0.483   1.589
 7100SOL    HW233774   4.474   0.487   1.450
 7101SOL     OW33775   2.667   5.899   6.187
 7101SOL    HW133776   2.737   5.963   6.219
 7101SOL    HW233777   2.696   5.805   6.207
 7102SOL     OW33778   2.130   0.736   1.136
 7102SOL    HW133779   2.057   0.802   1.121
 7102SOL    HW233780   2.213   0.785   1.166
 7103SOL     OW33781   5.565   0.521   3.138
 7103SOL    HW133782   5.491   0.502   3.074
 7103SOL    HW233783   5.627   0.588   3.098
 7104SOL     OW33784   0.401   0.587   0.691
 7104SOL    HW133785   0.339   0.665   0.693
 7104SOL    HW233786   0.349   0.502   0.703
 7105SOL     OW33787   4.749   1.409   2.597
 7105SOL    HW133788   4.781   1.463   2.675
 7105SOL    HW233789   4.672   1.352   2.626
 7106SOL     OW33790   1.207   8.994   1.701
 7106SOL    HW133791   1.238   0.019   1.609
 7106SOL    HW233792   1.224   0.071   1.763
 7107SOL     OW33793   0.651   1.779   1.644
 7107SOL    HW133794   0.711   1.839   1.590
 7107SOL    HW233795   0.688   1.770   1.737
 7108SOL     OW33796   2.261   3.381   3.971
 7108SOL    HW133797   2.276   3.381   4.070
 7108SOL    HW233798   2.163   3.377   3.952
 7109SOL     OW33799   5.144   2.352   3.761
 7109SOL    HW133800   5.068   2.320   3.818
 7109SOL    HW233801   5.204   2.275   3.739
 7110SOL     OW33802   1.973   1.709   6.670
 7110SOL    HW133803   2.066   1.714   6.705
 7110SOL    HW233804   1.930   1.625   6.703
 7111SOL     OW33805   0.976   7.095   3.494
 7111SOL    HW133806   1.075   7.078   3.488
 7111SOL    HW233807   0.946   7.144   3.412
 7112SOL     OW33808   5.778   3.792   4.953
 7112SOL    HW133809   5.818   3.879   4.924
 7112SOL    HW233810   5.731   3.750   4.875
 7113SOL     OW33811   3.884   6.605   1.907
 7113SOL    HW133812   3.861   6.514   1.871
 7113SOL    HW233813   3.845   6.675   1.846
 7114SOL     OW33814   5.838   1.533   2.903
 7114SOL    HW133815   5.800   1.467   2.839
 7114SOL    HW233816   5.777   1.541   2.982
 7115SOL     OW33817   3.212   5.027   1.145
 7115SOL    HW133818   3.268   5.089   1.199
 7115SOL    HW233819   3.154   5.080   1.083
 7116SOL     OW33820   1.359   0.900   6.016
 7116SOL    HW133821   1.403   0.964   6.079
 7116SOL    HW233822   1.403   0.907   5.926
 7117SOL     OW33823   2.401   2.523   3.884
 7117SOL    HW133824   2.329   2.455   3.899
 7117SOL    HW233825   2.456   2.496   3.806
 7118SOL     OW33826   5.359   7.017   2.472
 7118SOL    HW133827   5.362   7.117   2.467
 7118SOL    HW233828   5.266   6.986   2.457
 7119SOL     OW33829   2.042   3.856   6.660
 7119SOL    HW133830   1.966   3.897   6.712
 7119SOL    HW233831   2.094   3.796   6.721
 7120SOL     OW33832   0.422   6.289   4.513
 7120SOL    HW133833   0.328   6.320   4.500
 7120SOL    HW233834   0.427   6.190   4.506
 7121SOL     OW33835   2.462   6.768   1.318
 7121SOL    HW133836   2.480   6.851   1.371
 7121SOL    HW233837   2.378   6.725   1.351
 7122SOL     OW33838   2.199   1.047   1.335
 7122SOL    HW133839   2.149   0.987   1.396
 7122SOL    HW233840   2.181   1.142   1.360
 7123SOL     OW33841   5.214   2.900   0.764
 7123SOL    HW133842   5.200   2.844   0.682
 7123SOL    HW233843   5.130   2.951   0.784
 7124SOL     OW33844   5.083   1.159   5.988
 7124SOL    HW133845   5.066   1.254   5.959
 7124SOL    HW233846   5.181   1.141   5.985
 7125SOL     OW33847   3.096   2.259   1.734
 7125SOL    HW133848   3.122   2.310   1.815
 7125SOL    HW233849   2.996   2.261   1.723
 7126SOL     OW33850   0.482   3.307   5.606
 7126SOL    HW133851   0.493   3.252   5.524
 7126SOL    HW233852   0.502   3.403   5.586
 7127SOL     OW33853   4.612   0.076   1.954
 7127SOL    HW133854   4.640   8.984   1.928
 7127SOL    HW233855   4.593   0.130   1.871
 7128SOL     OW33856   3.218   2.561   6.964
 7128SOL    HW133857   3.240   2.551   6.867
 7128SOL    HW233858   3.282   2.508   7.019
 7129SOL     OW33859   3.238   5.122   5.835
 7129SOL    HW133860   3.321   5.177   5.845
 7129SOL    HW233861   3.264   5.026   5.818
 7130SOL     OW33862   1.096   3.826   3.365
 7130SOL    HW133863   1.169   3.884   3.330
 7130SOL    HW233864   1.106   3.734   3.328
 7131SOL     OW33865   0.895   5.508   5.798
 7131SOL    HW133866   0.864   5.536   5.707
 7131SOL    HW233867   0.835   5.547   5.867
 7132SOL     OW33868   3.833   0.139   2.865
 7132SOL    HW133869   3.813   0.163   2.960
 7132SOL    HW233870   3.857   0.042   2.860
 7133SOL     OW33871   4.268   1.586   7.038
 7133SOL    HW133872   4.255   1.667   6.980
 7133SOL    HW233873   4.184   1.566   7.087
 7134SOL     OW33874   6.690   0.212   0.374
 7134SOL    HW133875   6.633   0.285   0.336
 7134SOL    HW233876   6.786   0.232   0.357
 7135SOL     OW33877   5.970   1.999   3.479
 7135SOL    HW133878   5.918   2.008   3.564
 7135SOL    HW233879   6.056   2.050   3.487
 7136SOL     OW33880   2.909   7.036   6.008
 7136SOL    HW133881   2.826   7.086   6.033
 7136SOL    HW233882   2.952   7.000   6.090
 7137SOL     OW33883   3.843   1.103   3.853
 7137SOL    HW133884   3.838   1.003   3.848
 7137SOL    HW233885   3.839   1.142   3.761
 7138SOL     OW33886   6.229   0.067   4.822
 7138SOL    HW133887   6.234   0.167   4.820
 7138SOL    HW233888   6.221   0.032   4.729
 7139SOL     OW33889   6.781   4.017   6.723
 7139SOL    HW133890   6.786   4.117   6.724
 7139SOL    HW233891   6.870   3.979   6.745
 7140SOL     OW33892   4.982   1.058   7.262
 7140SOL    HW133893   4.976   0.964   7.228
 7140SOL    HW233894   5.033   1.060   7.348
 7141SOL     OW33895   3.112   3.494   1.668
 7141SOL    HW133896   3.127   3.450   1.756
 7141SOL    HW233897   3.047   3.569   1.678
 7142SOL     OW33898   1.280   5.175   6.996
 7142SOL    HW133899   1.187   5.145   6.974
 7142SOL    HW233900   1.293   5.175   7.095
 7143SOL     OW33901   5.084   0.600   6.365
 7143SOL    HW133902   5.142   0.582   6.286
 7143SOL    HW233903   5.141   0.611   6.446
 7144SOL     OW33904   3.067   6.223   2.017
 7144SOL    HW133905   3.132   6.289   1.980
 7144SOL    HW233906   3.046   6.154   1.947
 7145SOL     OW33907   4.888   5.919   4.377
 7145SOL    HW133908   4.809   5.904   4.317
 7145SOL    HW233909   4.863   5.897   4.471
 7146SOL     OW33910   0.018   3.235   1.348
 7146SOL    HW133911   8.995   3.214   1.254
 7146SOL    HW233912   8.936   3.229   1.405
 7147SOL     OW33913   4.719   3.539   1.146
 7147SOL    HW133914   4.784   3.584   1.084
 7147SOL    HW233915   4.673   3.608   1.202
 7148SOL     OW33916   2.534   4.487   0.926
 7148SOL    HW133917   2.605   4.421   0.902
 7148SOL    HW233918   2.456   4.477   0.863
 7149SOL     OW33919   0.142   0.785   0.935
 7149SOL    HW133920   0.072   0.788   0.864
 7149SOL    HW233921   0.115   0.721   1.006
 7150SOL     OW33922   4.191   2.199   3.333
 7150SOL    HW133923   4.127   2.176   3.406
 7150SOL    HW233924   4.140   2.220   3.249
 7151SOL     OW33925   5.642   2.500   1.795
 7151SOL    HW133926   5.636   2.556   1.877
 7151SOL    HW233927   5.551   2.483   1.758
 7152SOL     OW33928   6.646   0.533   8.926
 7152SOL    HW133929   6.716   0.482   8.976
 7152SOL    HW233930   6.641   0.627   8.962
 7153SOL     OW33931   3.608   0.835   3.061
 7153SOL    HW133932   3.550   0.904   3.017
 7153SOL    HW233933   3.589   0.745   3.021
 7154SOL     OW33934   3.485   3.937   2.483
 7154SOL    HW133935   3.552   3.979   2.422
 7154SOL    HW233936   3.521   3.850   2.517
 7155SOL     OW33937   1.025   3.744   3.908
 7155SOL    HW133938   1.095   3.810   3.882
 7155SOL    HW233939   0.937   3.791   3.914
 7156SOL     OW33940   3.845   1.933   5.507
 7156SOL    HW133941   3.839   1.857   5.572
 7156SOL    HW233942   3.848   1.897   5.414
 7157SOL     OW33943   0.800   6.034   6.944
 7157SOL    HW133944   0.880   6.000   6.894
 7157SOL    HW233945   0.817   6.128   6.973
 7158SOL     OW33946   2.042   6.102   3.256
 7158SOL    HW133947   2.089   6.180   3.214
 7158SOL    HW233948   1.943   6.112   3.244
 7159SOL     OW33949   7.314   4.109   4.848
 7159SOL    HW133950   7.316   4.190   4.790
 7159SOL    HW233951   7.220   4.077   4.858
 7160SOL     OW33952   5.315   0.642   0.441
 7160SOL    HW133953   5.348   0.731   0.409
 7160SOL    HW233954   5.393   0.585   0.469
 7161SOL     OW33955   3.096   1.160   1.829
 7161SOL    HW133956   3.123   1.120   1.742
 7161SOL    HW233957   3.125   1.100   1.904
 7162SOL     OW33958   5.503   3.825   3.225
 7162SOL    HW133959   5.405   3.843   3.218
 7162SOL    HW233960   5.520   3.760   3.299
 7163SOL     OW33961   3.590   2.589   5.572
 7163SOL    HW133962   3.545   2.674   5.545
 7163SOL    HW233963   3.685   2.590   5.541
 7164SOL     OW33964   1.803   1.018   2.796
 7164SOL    HW133965   1.767   1.100   2.841
 7164SOL    HW233966   1.728   0.971   2.750
 7165SOL     OW33967   1.566   0.330   1.120
 7165SOL    HW133968   1.658   0.298   1.143
 7165SOL    HW233969   1.573   0.397   1.045
 7166SOL     OW33970   0.314   3.564   4.502
 7166SOL    HW133971   0.314   3.659   4.534
 7166SOL    HW233972   0.346   3.504   4.575
 7167SOL     OW33973   5.930   5.272   0.910
 7167SOL    HW133974   5.934   5.173   0.901
 7167SOL    HW233975   6.016   5.312   0.879
 7168SOL     OW33976   6.162   2.428   0.692
 7168SOL    HW133977   6.069   2.444   0.726
 7168SOL    HW233978   6.158   2.396   0.597
 7169SOL     OW33979   1.341   5.633   7.345
 7169SOL    HW133980   1.367   5.582   7.263
 7169SOL    HW233981   1.256   5.683   7.327
 7170SOL     OW33982   3.727   2.326   6.706
 7170SOL    HW133983   3.701   2.231   6.688
 7170SOL    HW233984   3.698   2.383   6.629
 7171SOL     OW33985   4.656   3.747   2.357
 7171SOL    HW133986   4.672   3.818   2.289
 7171SOL    HW233987   4.559   3.723   2.358
 7172SOL     OW33988   4.923   1.477   1.409
 7172SOL    HW133989   5.002   1.416   1.410
 7172SOL    HW233990   4.929   1.537   1.329
 7173SOL     OW33991   2.567   0.022   7.049
 7173SOL    HW133992   2.654   0.064   7.022
 7173SOL    HW233993   2.585   8.939   7.101
 7174SOL     OW33994   7.264   3.270   5.779
 7174SOL    HW133995   7.289   3.225   5.865
 7174SOL    HW233996   7.178   3.233   5.745
 7175SOL     OW33997   2.713   5.296   4.823
 7175SOL    HW133998   2.697   5.360   4.898
 7175SOL    HW233999   2.725   5.204   4.861
 7176SOL     OW34000   6.852   2.413   3.747
 7176SOL    HW134001   6.795   2.349   3.798
 7176SOL    HW234002   6.797   2.457   3.675
 7177SOL     OW34003   0.667   4.714   6.983
 7177SOL    HW134004   0.651   4.619   6.957
 7177SOL    HW234005   0.580   4.764   6.979
 7178SOL     OW34006   0.281   1.772   2.520
 7178SOL    HW134007   0.247   1.866   2.520
 7178SOL    HW234008   0.326   1.753   2.433
 7179SOL     OW34009   7.095   6.536   1.094
 7179SOL    HW134010   7.104   6.558   1.191
 7179SOL    HW234011   7.120   6.616   1.039
 7180SOL     OW34012   2.708   6.216   5.924
 7180SOL    HW134013   2.792   6.248   5.881
 7180SOL    HW234014   2.714   6.227   6.023
 7181SOL     OW34015   4.968   4.291   5.024
 7181SOL    HW134016   4.921   4.202   5.026
 7181SOL    HW234017   4.924   4.351   4.957
 7182SOL     OW34018   4.170   0.640   1.741
 7182SOL    HW134019   4.175   0.739   1.755
 7182SOL    HW234020   4.262   0.601   1.743
 7183SOL     OW34021   2.539   7.261   5.726
 7183SOL    HW134022   2.549   7.162   5.712
 7183SOL    HW234023   2.523   7.279   5.822
 7184SOL     OW34024   4.640   0.490   0.975
 7184SOL    HW134025   4.597   0.402   0.956
 7184SOL    HW234026   4.651   0.541   0.890
 7185SOL     OW34027   3.603   3.126   0.367
 7185SOL    HW134028   3.625   3.189   0.293
 7185SOL    HW234029   3.525   3.069   0.341
 7186SOL     OW34030   0.119   0.469   1.822
 7186SOL    HW134031   0.080   0.378   1.806
 7186SOL    HW234032   0.075   0.534   1.760
 7187SOL     OW34033   3.828   1.240   5.541
 7187SOL    HW134034   3.762   1.171   5.510
 7187SOL    HW234035   3.906   1.194   5.584
 7188SOL     OW34036   2.649   4.170   3.486
 7188SOL    HW134037   2.705   4.236   3.436
 7188SOL    HW234038   2.663   4.079   3.448
 7189SOL     OW34039   1.798   4.829   2.554
 7189SOL    HW134040   1.776   4.872   2.641
 7189SOL    HW234041   1.810   4.899   2.483
 7190SOL     OW34042   4.664   4.957   1.586
 7190SOL    HW134043   4.615   4.976   1.501
 7190SOL    HW234044   4.663   5.039   1.644
 7191SOL     OW34045   5.619   6.602   4.855
 7191SOL    HW134046   5.711   6.620   4.820
 7191SOL    HW234047   5.570   6.545   4.790
 7192SOL     OW34048   1.440   3.925   1.438
 7192SOL    HW134049   1.376   3.898   1.365
 7192SOL    HW234050   1.388   3.945   1.521
 7193SOL     OW34051   1.517   0.497   6.729
 7193SOL    HW134052   1.504   0.596   6.726
 7193SOL    HW234053   1.578   0.474   6.805
 7194SOL     OW34054   3.670   3.456   4.778
 7194SOL    HW134055   3.759   3.492   4.751
 7194SOL    HW234056   3.678   3.358   4.798
 7195SOL     OW34057   5.778   4.382   7.039
 7195SOL    HW134058   5.739   4.378   7.131
 7195SOL    HW234059   5.860   4.439   7.040
 7196SOL     OW34060   4.387   3.674   2.357
 7196SOL    HW134061   4.313   3.681   2.290
 7196SOL    HW234062   4.411   3.577   2.370
 7197SOL     OW34063   1.233   0.610   6.359
 7197SOL    HW134064   1.141   0.635   6.329
 7197SOL    HW234065   1.299   0.631   6.286
 7198SOL     OW34066   3.977   1.653   3.722
 7198SOL    HW134067   3.945   1.584   3.657
 7198SOL    HW234068   4.072   1.633   3.746
 7199SOL     OW34069   1.762   1.655   0.917
 7199SOL    HW134070   1.734   1.710   0.838
 7199SOL    HW234071   1.773   1.559   0.889
 7200SOL     OW34072   2.579   1.132   6.913
 7200SOL    HW134073   2.537   1.089   6.992
 7200SOL    HW234074   2.584   1.066   6.838
 7201SOL     OW34075   1.122   0.212   2.168
 7201SOL    HW134076   1.025   0.224   2.191
 7201SOL    HW234077   1.152   0.121   2.197
 7202SOL     OW34078   1.929   6.042   1.695
 7202SOL    HW134079   1.962   6.048   1.789
 7202SOL    HW234080   2.005   6.053   1.631
 7203SOL     OW34081   5.504   5.741   5.580
 7203SOL    HW134082   5.500   5.754   5.679
 7203SOL    HW234083   5.547   5.653   5.559
 7204SOL     OW34084   2.151   2.291   6.697
 7204SOL    HW134085   2.108   2.348   6.627
 7204SOL    HW234086   2.171   2.201   6.659
 7205SOL     OW34087   7.323   3.508   6.319
 7205SOL    HW134088   7.420   3.483   6.312
 7205SOL    HW234089   7.292   3.547   6.232
 7206SOL     OW34090   1.119   2.963   5.226
 7206SOL    HW134091   1.077   3.010   5.148
 7206SOL    HW234092   1.099   3.014   5.310
 7207SOL     OW34093   5.298   1.289   7.005
 7207SOL    HW134094   5.337   1.312   6.916
 7207SOL    HW234095   5.356   1.223   7.051
 7208SOL     OW34096   0.676   0.285   2.016
 7208SOL    HW134097   0.611   0.350   2.057
 7208SOL    HW234098   0.740   0.334   1.957
 7209SOL     OW34099   5.996   6.329   3.157
 7209SOL    HW134100   6.085   6.285   3.147
 7209SOL    HW234101   5.933   6.293   3.089
 7210SOL     OW34102   6.428   1.245   2.787
 7210SOL    HW134103   6.510   1.215   2.739
 7210SOL    HW234104   6.454   1.279   2.878
 7211SOL     OW34105   6.007   4.322   2.557
 7211SOL    HW134106   5.914   4.287   2.562
 7211SOL    HW234107   6.041   4.314   2.464
 7212SOL     OW34108   4.434   5.819   2.696
 7212SOL    HW134109   4.403   5.903   2.742
 7212SOL    HW234110   4.495   5.843   2.621
 7213SOL     OW34111   0.476   6.120   1.712
 7213SOL    HW134112   0.514   6.148   1.624
 7213SOL    HW234113   0.547   6.123   1.782
 7214SOL     OW34114   1.305   2.299   5.511
 7214SOL    HW134115   1.328   2.279   5.416
 7214SOL    HW234116   1.282   2.396   5.520
 7215SOL     OW34117   5.456   4.219   5.479
 7215SOL    HW134118   5.515   4.147   5.441
 7215SOL    HW234119   5.385   4.178   5.536
 7216SOL     OW34120   1.742   3.901   4.173
 7216SOL    HW134121   1.776   3.823   4.224
 7216SOL    HW234122   1.656   3.932   4.214
 7217SOL     OW34123   0.369   6.296   2.274
 7217SOL    HW134124   0.273   6.305   2.247
 7217SOL    HW234125   0.379   6.316   2.371
 7218SOL     OW34126   0.052   2.164   0.395
 7218SOL    HW134127   0.082   2.196   0.485
 7218SOL    HW234128   0.121   2.187   0.326
 7219SOL     OW34129   5.918   4.130   3.594
 7219SOL    HW134130   5.976   4.103   3.517
 7219SOL    HW234131   5.962   4.205   3.643
 7220SOL     OW34132   0.610   5.849   6.964
 7220SOL    HW134133   0.685   5.915   6.965
 7220SOL    HW234134   0.581   5.833   6.870
 7221SOL     OW34135   5.989   1.301   3.813
 7221SOL    HW134136   6.026   1.273   3.725
 7221SOL    HW234137   5.926   1.231   3.846
 7222SOL     OW34138   1.491   4.420   0.929
 7222SOL    HW134139   1.452   4.340   0.975
 7222SOL    HW234140   1.524   4.394   0.839
 7223SOL     OW34141   6.657   6.557   7.128
 7223SOL    HW134142   6.657   6.657   7.133
 7223SOL    HW234143   6.576   6.526   7.078
 7224SOL     OW34144   4.281   4.030   3.559
 7224SOL    HW134145   4.229   4.029   3.473
 7224SOL    HW234146   4.323   3.940   3.573
 7225SOL     OW34147   4.321   6.771   6.779
 7225SOL    HW134148   4.251   6.797   6.712
 7225SOL    HW234149   4.384   6.705   6.738
 7226SOL     OW34150   6.781   4.666   7.097
 7226SOL    HW134151   6.858   4.727   7.116
 7226SOL    HW234152   6.811   4.571   7.108
 7227SOL     OW34153   2.888   5.933   0.288
 7227SOL    HW134154   2.913   6.028   0.306
 7227SOL    HW234155   2.789   5.926   0.276
 7228SOL     OW34156   3.451   0.789   2.503
 7228SOL    HW134157   3.371   0.764   2.449
 7228SOL    HW234158   3.507   0.708   2.519
 7229SOL     OW34159   0.804   5.172   0.439
 7229SOL    HW134160   0.888   5.146   0.486
 7229SOL    HW234161   0.803   5.133   0.348
 7230SOL     OW34162   5.314   5.007   6.652
 7230SOL    HW134163   5.362   5.035   6.569
 7230SOL    HW234164   5.376   5.016   6.731
 7231SOL     OW34165   4.510   7.064   4.098
 7231SOL    HW134166   4.556   7.150   4.120
 7231SOL    HW234167   4.458   7.032   4.178
 7232SOL     OW34168   2.597   5.437   7.018
 7232SOL    HW134169   2.581   5.535   7.024
 7232SOL    HW234170   2.554   5.391   7.096
 7233SOL     OW34171   3.546   0.827   1.578
 7233SOL    HW134172   3.446   0.830   1.583
 7233SOL    HW234173   3.574   0.754   1.516
 7234SOL     OW34174   2.051   2.451   0.251
 7234SOL    HW134175   2.098   2.533   0.220
 7234SOL    HW234176   1.971   2.477   0.305
 7235SOL     OW34177   3.961   2.909   6.029
 7235SOL    HW134178   4.013   2.961   5.961
 7235SOL    HW234179   3.886   2.965   6.063
 7236SOL     OW34180   1.082   7.333   3.109
 7236SOL    HW134181   1.145   7.369   3.178
 7236SOL    HW234182   0.999   7.301   3.154
 7237SOL     OW34183   2.378   5.303   3.982
 7237SOL    HW134184   2.475   5.279   3.987
 7237SOL    HW234185   2.368   5.403   3.973
 7238SOL     OW34186   2.341   7.132   3.537
 7238SOL    HW134187   2.331   7.050   3.594
 7238SOL    HW234188   2.391   7.108   3.454
 7239SOL     OW34189   4.531   5.300   6.583
 7239SOL    HW134190   4.595   5.295   6.506
 7239SOL    HW234191   4.558   5.235   6.653
 7240SOL     OW34192   2.200   6.996   5.626
 7240SOL    HW134193   2.300   6.995   5.627
 7240SOL    HW234194   2.166   6.914   5.580
 7241SOL     OW34195   6.624   3.244   1.475
 7241SOL    HW134196   6.708   3.260   1.526
 7241SOL    HW234197   6.599   3.147   1.482
 7242SOL     OW34198   4.132   6.819   6.593
 7242SOL    HW134199   4.085   6.731   6.590
 7242SOL    HW234200   4.166   6.842   6.502
 7243SOL     OW34201   2.687   1.803   3.600
 7243SOL    HW134202   2.765   1.843   3.551
 7243SOL    HW234203   2.689   1.831   3.696
 7244SOL     OW34204   3.124   6.633   7.323
 7244SOL    HW134205   3.198   6.626   7.257
 7244SOL    HW234206   3.134   6.718   7.376
 7245SOL     OW34207   0.998   6.447   4.539
 7245SOL    HW134208   0.987   6.350   4.518
 7245SOL    HW234209   1.067   6.486   4.477
 7246SOL     OW34210   5.708   6.467   3.591
 7246SOL    HW134211   5.636   6.447   3.524
 7246SOL    HW234212   5.667   6.505   3.674
 7247SOL     OW34213   2.163   3.088   0.151
 7247SOL    HW134214   2.089   3.055   0.209
 7247SOL    HW234215   2.145   3.063   0.056
 7248SOL     OW34216   1.700   4.495   4.868
 7248SOL    HW134217   1.650   4.520   4.786
 7248SOL    HW234218   1.638   4.495   4.947
 7249SOL     OW34219   2.796   3.272   0.732
 7249SOL    HW134220   2.730   3.210   0.689
 7249SOL    HW234221   2.831   3.230   0.816
 7250SOL     OW34222   4.784   7.246   0.392
 7250SOL    HW134223   4.863   7.238   0.332
 7250SOL    HW234224   4.720   7.313   0.355
 7251SOL     OW34225   4.176   0.109   2.494
 7251SOL    HW134226   4.099   0.139   2.550
 7251SOL    HW234227   4.156   0.125   2.397
 7252SOL     OW34228   1.892   1.879   1.435
 7252SOL    HW134229   1.968   1.879   1.369
 7252SOL    HW234230   1.811   1.917   1.392
 7253SOL     OW34231   5.870   0.880   5.312
 7253SOL    HW134232   5.961   0.905   5.277
 7253SOL    HW234233   5.829   0.960   5.357
 7254SOL     OW34234   0.859   2.568   0.495
 7254SOL    HW134235   0.944   2.585   0.446
 7254SOL    HW234236   0.879   2.555   0.592
 7255SOL     OW34237   3.186   2.852   0.747
 7255SOL    HW134238   3.262   2.917   0.746
 7255SOL    HW234239   3.161   2.829   0.653
 7256SOL     OW34240   1.899   3.243   3.563
 7256SOL    HW134241   1.975   3.294   3.603
 7256SOL    HW234242   1.848   3.303   3.501
 7257SOL     OW34243   3.301   3.794   5.225
 7257SOL    HW134244   3.391   3.834   5.207
 7257SOL    HW234245   3.287   3.785   5.323
 7258SOL     OW34246   1.912   6.562   0.287
 7258SOL    HW134247   1.944   6.478   0.330
 7258SOL    HW234248   1.927   6.639   0.349
 7259SOL     OW34249   5.384   6.770   3.329
 7259SOL    HW134250   5.462   6.719   3.292
 7259SOL    HW234251   5.416   6.857   3.367
 7260SOL     OW34252   4.300   3.166   0.027
 7260SOL    HW134253   4.365   3.095   0.055
 7260SOL    HW234254   4.208   3.140   0.057
 7261SOL     OW34255   4.047   1.333   2.129
 7261SOL    HW134256   4.023   1.341   2.032
 7261SOL    HW234257   4.115   1.401   2.153
 7262SOL     OW34258   0.772   5.081   1.857
 7262SOL    HW134259   0.722   5.043   1.779
 7262SOL    HW234260   0.811   5.169   1.832
 7263SOL     OW34261   3.082   5.178   0.957
 7263SOL    HW134262   3.040   5.155   0.870
 7263SOL    HW234263   3.164   5.234   0.940
 7264SOL     OW34264   3.943   0.014   0.700
 7264SOL    HW134265   3.991   8.965   0.772
 7264SOL    HW234266   3.924   0.107   0.729
 7265SOL     OW34267   6.377   2.260   2.447
 7265SOL    HW134268   6.422   2.196   2.385
 7265SOL    HW234269   6.375   2.351   2.406
 7266SOL     OW34270   3.751   2.133   2.091
 7266SOL    HW134271   3.833   2.094   2.050
 7266SOL    HW234272   3.693   2.172   2.019
 7267SOL     OW34273   5.784   2.370   1.438
 7267SOL    HW134274   5.702   2.313   1.428
 7267SOL    HW234275   5.853   2.339   1.373
 7268SOL     OW34276   6.527   5.656   6.229
 7268SOL    HW134277   6.496   5.730   6.289
 7268SOL    HW234278   6.610   5.685   6.181
 7269SOL     OW34279   6.208   7.270   3.428
 7269SOL    HW134280   6.288   7.211   3.418
 7269SOL    HW234281   6.193   7.320   3.342
 7270SOL     OW34282   0.208   0.750   7.335
 7270SOL    HW134283   0.213   0.681   7.407
 7270SOL    HW234284   0.163   0.711   7.254
 7271SOL     OW34285   2.620   3.550   4.804
 7271SOL    HW134286   2.550   3.487   4.837
 7271SOL    HW234287   2.711   3.509   4.819
 7272SOL     OW34288   6.652   5.204   1.476
 7272SOL    HW134289   6.720   5.157   1.419
 7272SOL    HW234290   6.683   5.297   1.496
 7273SOL     OW34291   6.498   6.930   0.555
 7273SOL    HW134292   6.473   7.022   0.583
 7273SOL    HW234293   6.455   6.909   0.467
 7274SOL     OW34294   0.139   5.801   4.876
 7274SOL    HW134295   0.052   5.847   4.858
 7274SOL    HW234296   0.124   5.703   4.886
 7275SOL     OW34297   2.540   4.581   5.748
 7275SOL    HW134298   2.462   4.575   5.686
 7275SOL    HW234299   2.545   4.672   5.788
 7276SOL     OW34300   0.328   1.847   4.029
 7276SOL    HW134301   0.340   1.790   3.948
 7276SOL    HW234302   0.289   1.792   4.103
 7277SOL     OW34303   3.365   6.833   1.181
 7277SOL    HW134304   3.441   6.768   1.183
 7277SOL    HW234305   3.392   6.918   1.226
 7278SOL     OW34306   5.506   5.046   1.774
 7278SOL    HW134307   5.561   5.044   1.690
 7278SOL    HW234308   5.484   5.141   1.797
 7279SOL     OW34309   3.719   1.531   0.732
 7279SOL    HW134310   3.669   1.458   0.685
 7279SOL    HW234311   3.758   1.594   0.665
 7280SOL     OW34312   1.364   4.693   3.835
 7280SOL    HW134313   1.308   4.660   3.760
 7280SOL    HW234314   1.438   4.627   3.852
 7281SOL     OW34315   6.693   5.269   3.723
 7281SOL    HW134316   6.604   5.296   3.687
 7281SOL    HW234317   6.760   5.266   3.649
 7282SOL     OW34318   3.756   4.653   6.506
 7282SOL    HW134319   3.723   4.566   6.542
 7282SOL    HW234320   3.823   4.636   6.433
 7283SOL     OW34321   2.068   3.539   4.309
 7283SOL    HW134322   2.159   3.516   4.273
 7283SOL    HW234323   2.013   3.456   4.314
 7284SOL     OW34324   0.323   3.352   3.322
 7284SOL    HW134325   0.271   3.414   3.264
 7284SOL    HW234326   0.377   3.290   3.265
 7285SOL     OW34327   5.466   8.994   4.324
 7285SOL    HW134328   5.431   0.075   4.372
 7285SOL    HW234329   5.459   0.008   4.226
 7286SOL     OW34330   3.185   1.992   1.742
 7286SOL    HW134331   3.163   2.088   1.724
 7286SOL    HW234332   3.109   1.948   1.790
 7287SOL     OW34333   6.595   1.891   0.123
 7287SOL    HW134334   6.536   1.953   0.176
 7287SOL    HW234335   6.552   1.873   0.034
 7288SOL     OW34336   6.376   2.469   6.866
 7288SOL    HW134337   6.465   2.515   6.867
 7288SOL    HW234338   6.382   2.383   6.916
 7289SOL     OW34339   5.226   3.679   2.340
 7289SOL    HW134340   5.290   3.668   2.415
 7289SOL    HW234341   5.148   3.618   2.354
 7290SOL     OW34342   4.085   2.879   0.302
 7290SOL    HW134343   4.130   2.902   0.389
 7290SOL    HW234344   4.092   2.780   0.287
 7291SOL     OW34345   2.678   5.321   6.536
 7291SOL    HW134346   2.593   5.373   6.524
 7291SOL    HW234347   2.710   5.332   6.630
 7292SOL     OW34348   5.774   2.170   7.094
 7292SOL    HW134349   5.859   2.135   7.134
 7292SOL    HW234350   5.761   2.128   7.004
 7293SOL     OW34351   3.744   0.626   4.253
 7293SOL    HW134352   3.676   0.560   4.284
 7293SOL    HW234353   3.722   0.655   4.160
 7294SOL     OW34354   3.251   7.029   2.195
 7294SOL    HW134355   3.259   7.049   2.293
 7294SOL    HW234356   3.290   7.104   2.142
 7295SOL     OW34357   6.032   1.946   1.915
 7295SOL    HW134358   6.032   1.986   2.007
 7295SOL    HW234359   6.010   2.017   1.848
 7296SOL     OW34360   5.086   1.021   0.456
 7296SOL    HW134361   5.048   0.999   0.366
 7296SOL    HW234362   5.130   1.110   0.453
 7297SOL     OW34363   7.410   0.278   1.968
 7297SOL    HW134364   7.393   0.196   1.912
 7297SOL    HW234365   7.380   0.260   2.062
 7298SOL     OW34366   0.160   2.635   0.225
 7298SOL    HW134367   0.086   2.577   0.192
 7298SOL    HW234368   0.138   2.731   0.207
 7299SOL     OW34369   4.349   7.214   6.950
 7299SOL    HW134370   4.433   7.266   6.962
 7299SOL    HW234371   4.278   7.273   6.910
 7300SOL     OW34372   6.985   1.592   7.049
 7300SOL    HW134373   6.985   1.625   6.954
 7300SOL    HW234374   6.892   1.567   7.074
 7301SOL     OW34375   1.033   6.416   5.437
 7301SOL    HW134376   0.949   6.389   5.389
 7301SOL    HW234377   1.111   6.370   5.395
 7302SOL     OW34378   1.045   3.699   5.153
 7302SOL    HW134379   1.127   3.661   5.111
 7302SOL    HW234380   0.993   3.751   5.085
 7303SOL     OW34381   3.075   0.693   3.873
 7303SOL    HW134382   3.124   0.771   3.911
 7303SOL    HW234383   3.063   0.705   3.774
 7304SOL     OW34384   7.016   7.208   1.148
 7304SOL    HW134385   6.922   7.223   1.177
 7304SOL    HW234386   7.051   7.291   1.104
 7305SOL     OW34387   5.243   5.689   3.837
 7305SOL    HW134388   5.271   5.745   3.916
 7305SOL    HW234389   5.207   5.748   3.766
 7306SOL     OW34390   8.946   4.159   3.495
 7306SOL    HW134391   8.941   4.137   3.592
 7306SOL    HW234392   8.978   4.079   3.444
 7307SOL     OW34393   6.107   1.623   6.075
 7307SOL    HW134394   6.189   1.569   6.096
 7307SOL    HW234395   6.026   1.567   6.093
 7308SOL     OW34396   3.314   4.781   0.391
 7308SOL    HW134397   3.223   4.764   0.428
 7308SOL    HW234398   3.308   4.853   0.322
 7309SOL     OW34399   1.216   4.207   3.608
 7309SOL    HW134400   1.196   4.241   3.700
 7309SOL    HW234401   1.155   4.131   3.587
 7310SOL     OW34402   7.050   3.971   4.837
 7310SOL    HW134403   6.953   3.987   4.856
 7310SOL    HW234404   7.071   4.005   4.745
 7311SOL     OW34405   0.111   6.618   5.934
 7311SOL    HW134406   0.063   6.687   5.879
 7311SOL    HW234407   0.206   6.611   5.902
 7312SOL     OW34408   6.315   1.031   7.285
 7312SOL    HW134409   6.308   0.941   7.329
 7312SOL    HW234410   6.266   1.098   7.340
 7313SOL     OW34411   7.064   2.674   5.380
 7313SOL    HW134412   6.966   2.659   5.365
 7313SOL    HW234413   7.107   2.589   5.409
 7314SOL     OW34414   5.245   6.410   1.689
 7314SOL    HW134415   5.191   6.469   1.629
 7314SOL    HW234416   5.223   6.430   1.785
 7315SOL     OW34417   1.088   4.333   4.295
 7315SOL    HW134418   1.030   4.410   4.270
 7315SOL    HW234419   1.043   4.279   4.367
 7316SOL     OW34420   5.824   3.439   6.302
 7316SOL    HW134421   5.799   3.359   6.247
 7316SOL    HW234422   5.912   3.475   6.270
 7317SOL     OW34423   4.280   4.074   7.308
 7317SOL    HW134424   4.250   4.164   7.337
 7317SOL    HW234425   4.334   4.031   7.380
 7318SOL     OW34426   1.618   2.391   7.324
 7318SOL    HW134427   1.716   2.374   7.337
 7318SOL    HW234428   1.592   2.364   7.232
 7319SOL     OW34429   2.436   0.977   5.495
 7319SOL    HW134430   2.455   0.952   5.590
 7319SOL    HW234431   2.523   0.990   5.447
 7320SOL     OW34432   6.070   7.032   4.615
 7320SOL    HW134433   6.060   7.023   4.714
 7320SOL    HW234434   6.167   7.026   4.591
 7321SOL     OW34435   0.043   1.327   2.513
 7321SOL    HW134436   8.944   1.334   2.524
 7321SOL    HW234437   0.078   1.250   2.567
 7322SOL     OW34438   1.684   6.113   1.588
 7322SOL    HW134439   1.769   6.082   1.630
 7322SOL    HW234440   1.638   6.035   1.545
 7323SOL     OW34441   3.939   4.043   2.211
 7323SOL    HW134442   4.016   4.070   2.152
 7323SOL    HW234443   3.959   3.954   2.252
 7324SOL     OW34444   1.907   5.735   4.878
 7324SOL    HW134445   1.943   5.759   4.968
 7324SOL    HW234446   1.840   5.803   4.849
 7325SOL     OW34447   3.357   3.448   5.841
 7325SOL    HW134448   3.323   3.499   5.920
 7325SOL    HW234449   3.286   3.386   5.807
 7326SOL     OW34450   0.115   3.850   0.875
 7326SOL    HW134451   0.101   3.901   0.960
 7326SOL    HW234452   0.067   3.762   0.881
 7327SOL     OW34453   1.570   2.958   6.244
 7327SOL    HW134454   1.612   2.959   6.153
 7327SOL    HW234455   1.640   2.935   6.312
 7328SOL     OW34456   4.891   2.039   2.892
 7328SOL    HW134457   4.980   2.051   2.936
 7328SOL    HW234458   4.834   2.119   2.910
 7329SOL     OW34459   1.721   6.838   0.071
 7329SOL    HW134460   1.703   6.741   0.083
 7329SOL    HW234461   1.658   6.876   0.003
 7330SOL     OW34462   5.104   0.690   4.116
 7330SOL    HW134463   5.022   0.710   4.170
 7330SOL    HW234464   5.131   0.595   4.132
 7331SOL     OW34465   1.783   5.311   1.279
 7331SOL    HW134466   1.699   5.288   1.230
 7331SOL    HW234467   1.768   5.392   1.335
 7332SOL     OW34468   1.250   4.578   2.032
 7332SOL    HW134469   1.163   4.595   1.987
 7332SOL    HW234470   1.236   4.574   2.131
 7333SOL     OW34471   6.414   2.522   0.709
 7333SOL    HW134472   6.438   2.582   0.633
 7333SOL    HW234473   6.318   2.497   0.702
 7334SOL     OW34474   1.738   7.179   1.019
 7334SOL    HW134475   1.702   7.098   0.972
 7334SOL    HW234476   1.678   7.204   1.095
 7335SOL     OW34477   0.711   5.982   6.514
 7335SOL    HW134478   0.797   6.028   6.537
 7335SOL    HW234479   0.640   6.049   6.496
 7336SOL     OW34480   2.313   3.521   6.659
 7336SOL    HW134481   2.267   3.580   6.724
 7336SOL    HW234482   2.356   3.577   6.588
 7337SOL     OW34483   4.754   0.329   1.368
 7337SOL    HW134484   4.711   0.418   1.385
 7337SOL    HW234485   4.702   0.280   1.297
 7338SOL     OW34486   6.152   1.542   5.357
 7338SOL    HW134487   6.123   1.506   5.269
 7338SOL    HW234488   6.111   1.632   5.372
 7339SOL     OW34489   3.775   0.947   1.667
 7339SOL    HW134490   3.840   0.938   1.592
 7339SOL    HW234491   3.687   0.908   1.639
 7340SOL     OW34492   0.813   5.600   5.546
 7340SOL    HW134493   0.872   5.592   5.466
 7340SOL    HW234494   0.775   5.693   5.550
 7341SOL     OW34495   6.123   0.378   3.240
 7341SOL    HW134496   6.181   0.439   3.186
 7341SOL    HW234497   6.158   0.375   3.334
 7342SOL     OW34498   3.929   3.122   3.121
 7342SOL    HW134499   3.943   3.043   3.061
 7342SOL    HW234500   3.906   3.090   3.213
 7343SOL     OW34501   3.195   1.915   6.003
 7343SOL    HW134502   3.150   1.897   5.915
 7343SOL    HW234503   3.142   1.873   6.077
 7344SOL     OW34504   4.169   0.910   1.805
 7344SOL    HW134505   4.100   0.982   1.796
 7344SOL    HW234506   4.174   0.881   1.901
 7345SOL     OW34507   2.176   6.074   1.563
 7345SOL    HW134508   2.195   5.986   1.608
 7345SOL    HW234509   2.263   6.119   1.541
 7346SOL     OW34510   2.120   2.486   5.834
 7346SOL    HW134511   2.185   2.411   5.839
 7346SOL    HW234512   2.067   2.479   5.749
 7347SOL     OW34513   3.322   5.899   1.238
 7347SOL    HW134514   3.253   5.971   1.241
 7347SOL    HW234515   3.293   5.827   1.176
 7348SOL     OW34516   1.356   0.910   1.494
 7348SOL    HW134517   1.275   0.851   1.502
 7348SOL    HW234518   1.424   0.883   1.563
 7349SOL     OW34519   6.531   2.282   0.660
 7349SOL    HW134520   6.489   2.371   0.676
 7349SOL    HW234521   6.473   2.210   0.697
 7350SOL     OW34522   3.844   6.497   5.946
 7350SOL    HW134523   3.794   6.422   5.903
 7350SOL    HW234524   3.810   6.584   5.911
 7351SOL     OW34525   6.428   5.434   1.276
 7351SOL    HW134526   6.413   5.338   1.299
 7351SOL    HW234527   6.385   5.492   1.346
 7352SOL     OW34528   1.943   5.849   5.131
 7352SOL    HW134529   1.846   5.876   5.138
 7352SOL    HW234530   1.967   5.792   5.210
 7353SOL     OW34531   4.900   2.893   0.553
 7353SOL    HW134532   4.868   2.901   0.458
 7353SOL    HW234533   4.845   2.825   0.601
 7354SOL     OW34534   6.048   8.952   7.026
 7354SOL    HW134535   5.961   8.913   6.996
 7354SOL    HW234536   6.039   8.989   7.118
 7355SOL     OW34537   0.811   6.067   4.657
 7355SOL    HW134538   0.877   6.069   4.733
 7355SOL    HW234539   0.744   6.141   4.669
 7356SOL     OW34540   2.984   6.067   6.829
 7356SOL    HW134541   2.906   6.114   6.871
 7356SOL    HW234542   2.951   6.002   6.761
 7357SOL     OW34543   1.909   4.903   3.008
 7357SOL    HW134544   1.836   4.865   3.065
 7357SOL    HW234545   1.997   4.864   3.035
 7358SOL     OW34546   6.115   4.331   7.175
 7358SOL    HW134547   6.065   4.410   7.139
 7358SOL    HW234548   6.206   4.360   7.204
 7359SOL     OW34549   6.084   3.649   6.743
 7359SOL    HW134550   6.070   3.560   6.699
 7359SOL    HW234551   6.166   3.691   6.706
 7360SOL     OW34552   2.063   6.108   0.293
 7360SOL    HW134553   1.989   6.084   0.230
 7360SOL    HW234554   2.148   6.065   0.263
 7361SOL     OW34555   4.678   5.712   5.402
 7361SOL    HW134556   4.603   5.646   5.398
 7361SOL    HW234557   4.673   5.772   5.322
 7362SOL     OW34558   3.784   2.508   1.984
 7362SOL    HW134559   3.854   2.468   1.924
 7362SOL    HW234560   3.717   2.438   2.008
 7363SOL     OW34561   2.765   6.779   1.160
 7363SOL    HW134562   2.763   6.787   1.259
 7363SOL    HW234563   2.675   6.804   1.123
 7364SOL     OW34564   3.519   0.749   7.262
 7364SOL    HW134565   3.549   0.768   7.356
 7364SOL    HW234566   3.452   0.674   7.264
 7365SOL     OW34567   3.926   1.993   1.922
 7365SOL    HW134568   3.887   1.998   1.830
 7365SOL    HW234569   3.914   1.901   1.958
 7366SOL     OW34570   3.893   4.389   5.416
 7366SOL    HW134571   3.908   4.416   5.321
 7366SOL    HW234572   3.796   4.369   5.430
 7367SOL     OW34573   6.931   4.848   5.623
 7367SOL    HW134574   6.990   4.853   5.703
 7367SOL    HW234575   6.883   4.934   5.610
 7368SOL     OW34576   6.981   2.599   3.446
 7368SOL    HW134577   7.040   2.519   3.454
 7368SOL    HW234578   6.951   2.609   3.351
 7369SOL     OW34579   2.119   2.599   2.115
 7369SOL    HW134580   2.058   2.678   2.113
 7369SOL    HW234581   2.155   2.582   2.023
 7370SOL     OW34582   7.270   2.759   2.771
 7370SOL    HW134583   7.355   2.708   2.754
 7370SOL    HW234584   7.293   2.854   2.791
 7371SOL     OW34585   5.624   2.338   7.259
 7371SOL    HW134586   5.673   2.277   7.198
 7371SOL    HW234587   5.630   2.303   7.353
 7372SOL     OW34588   1.860   4.254   5.203
 7372SOL    HW134589   1.821   4.190   5.137
 7372SOL    HW234590   1.892   4.336   5.155
 7373SOL     OW34591   3.758   0.817   5.462
 7373SOL    HW134592   3.849   0.843   5.495
 7373SOL    HW234593   3.699   0.898   5.457
 7374SOL     OW34594   0.993   2.515   1.486
 7374SOL    HW134595   1.038   2.593   1.441
 7374SOL    HW234596   1.058   2.439   1.493
 7375SOL     OW34597   5.306   3.586   7.058
 7375SOL    HW134598   5.403   3.563   7.066
 7375SOL    HW234599   5.274   3.628   7.143
 7376SOL     OW34600   3.407   6.911   2.606
 7376SOL    HW134601   3.481   6.929   2.671
 7376SOL    HW234602   3.386   6.813   2.606
 7377SOL     OW34603   0.020   5.511   2.489
 7377SOL    HW134604   8.952   5.548   2.427
 7377SOL    HW234605   0.099   5.478   2.436
 7378SOL     OW34606   4.543   3.800   5.379
 7378SOL    HW134607   4.614   3.844   5.433
 7378SOL    HW234608   4.484   3.745   5.439
 7379SOL     OW34609   3.339   5.299   0.943
 7379SOL    HW134610   3.414   5.233   0.948
 7379SOL    HW234611   3.355   5.374   1.008
 7380SOL     OW34612   4.979   1.623   1.183
 7380SOL    HW134613   5.055   1.565   1.154
 7380SOL    HW234614   5.015   1.704   1.229
 7381SOL     OW34615   0.251   3.788   5.837
 7381SOL    HW134616   0.245   3.692   5.866
 7381SOL    HW234617   0.289   3.792   5.745
 7382SOL     OW34618   3.316   0.869   6.870
 7382SOL    HW134619   3.393   0.877   6.932
 7382SOL    HW234620   3.291   0.772   6.860
 7383SOL     OW34621   4.216   3.257   3.589
 7383SOL    HW134622   4.127   3.293   3.561
 7383SOL    HW234623   4.202   3.180   3.651
 7384SOL     OW34624   1.978   0.889   0.783
 7384SOL    HW134625   2.017   0.815   0.727
 7384SOL    HW234626   2.038   0.969   0.778
 7385SOL     OW34627   0.000   3.827   5.241
 7385SOL    HW134628   8.907   3.853   5.265
 7385SOL    HW234629   0.039   3.894   5.178
 7386SOL     OW34630   2.852   4.911   4.463
 7386SOL    HW134631   2.895   4.829   4.427
 7386SOL    HW234632   2.889   4.992   4.416
 7387SOL     OW34633   7.027   1.025   1.584
 7387SOL    HW134634   7.084   1.090   1.534
 7387SOL    HW234635   6.965   1.075   1.644
 7388SOL     OW34636   1.487   5.113   3.170
 7388SOL    HW134637   1.537   5.113   3.084
 7388SOL    HW234638   1.390   5.094   3.152
 7389SOL     OW34639   4.468   1.735   3.868
 7389SOL    HW134640   4.523   1.757   3.788
 7389SOL    HW234641   4.527   1.717   3.946
 7390SOL     OW34642   6.729   2.359   0.839
 7390SOL    HW134643   6.660   2.345   0.768
 7390SOL    HW234644   6.785   2.277   0.847
 7391SOL     OW34645   1.708   4.705   4.457
 7391SOL    HW134646   1.801   4.679   4.431
 7391SOL    HW234647   1.650   4.707   4.376
 7392SOL     OW34648   0.600   1.356   0.861
 7392SOL    HW134649   0.636   1.375   0.953
 7392SOL    HW234650   0.569   1.442   0.820
 7393SOL     OW34651   5.645   6.798   6.182
 7393SOL    HW134652   5.553   6.829   6.158
 7393SOL    HW234653   5.642   6.752   6.271
 7394SOL     OW34654   4.056   1.136   5.660
 7394SOL    HW134655   4.089   1.131   5.754
 7394SOL    HW234656   4.099   1.213   5.613
 7395SOL     OW34657   0.255   7.200   0.911
 7395SOL    HW134658   0.178   7.135   0.919
 7395SOL    HW234659   0.308   7.179   0.829
 7396SOL     OW34660   3.699   6.950   0.977
 7396SOL    HW134661   3.643   7.025   0.942
 7396SOL    HW234662   3.784   6.944   0.925
 7397SOL     OW34663   5.778   2.128   1.007
 7397SOL    HW134664   5.739   2.116   1.098
 7397SOL    HW234665   5.790   2.039   0.963
 7398SOL     OW34666   3.406   7.138   4.430
 7398SOL    HW134667   3.365   7.119   4.341
 7398SOL    HW234668   3.445   7.054   4.467
 7399SOL     OW34669   2.593   2.236   2.429
 7399SOL    HW134670   2.663   2.165   2.428
 7399SOL    HW234671   2.636   2.326   2.430
 7400SOL     OW34672   5.762   5.647   4.665
 7400SOL    HW134673   5.691   5.665   4.597
 7400SOL    HW234674   5.747   5.557   4.706
 7401SOL     OW34675   1.983   4.371   2.923
 7401SOL    HW134676   2.033   4.457   2.930
 7401SOL    HW234677   1.931   4.370   2.838
 7402SOL     OW34678   6.744   0.362   1.959
 7402SOL    HW134679   6.818   0.428   1.967
 7402SOL    HW234680   6.772   0.275   2.001
 7403SOL     OW34681   1.986   3.635   6.204
 7403SOL    HW134682   2.018   3.647   6.298
 7403SOL    HW234683   1.993   3.721   6.155
 7404SOL     OW34684   3.462   5.908   5.142
 7404SOL    HW134685   3.366   5.907   5.115
 7404SOL    HW234686   3.516   5.956   5.073
 7405SOL     OW34687   0.582   2.733   0.210
 7405SOL    HW134688   0.608   2.746   0.305
 7405SOL    HW234689   0.612   2.811   0.156
 7406SOL     OW34690   2.108   3.379   3.673
 7406SOL    HW134691   2.146   3.470   3.653
 7406SOL    HW234692   2.068   3.380   3.765
 7407SOL     OW34693   4.495   0.942   2.980
 7407SOL    HW134694   4.486   0.975   3.074
 7407SOL    HW234695   4.590   0.915   2.964
 7408SOL     OW34696   6.486   1.364   7.026
 7408SOL    HW134697   6.496   1.335   6.930
 7408SOL    HW234698   6.389   1.378   7.046
 7409SOL     OW34699   4.837   6.649   0.024
 7409SOL    HW134700   4.863   6.730   0.076
 7409SOL    HW234701   4.906   6.630   8.954
 7410SOL     OW34702   6.172   1.554   1.801
 7410SOL    HW134703   6.189   1.647   1.769
 7410SOL    HW234704   6.191   1.549   1.899
 7411SOL     OW34705   6.207   3.571   1.610
 7411SOL    HW134706   6.127   3.551   1.553
 7411SOL    HW234707   6.286   3.520   1.575
 7412SOL     OW34708   1.357   6.876   0.633
 7412SOL    HW134709   1.414   6.880   0.551
 7412SOL    HW234710   1.374   6.789   0.681
 7413SOL     OW34711   3.848   0.950   2.982
 7413SOL    HW134712   3.906   0.872   2.958
 7413SOL    HW234713   3.759   0.916   3.014
 7414SOL     OW34714   5.220   2.569   5.488
 7414SOL    HW134715   5.226   2.473   5.516
 7414SOL    HW234716   5.266   2.626   5.556
 7415SOL     OW34717   6.471   6.229   4.870
 7415SOL    HW134718   6.438   6.274   4.788
 7415SOL    HW234719   6.547   6.168   4.847
 7416SOL     OW34720   6.437   0.298   1.167
 7416SOL    HW134721   6.497   0.374   1.139
 7416SOL    HW234722   6.408   0.247   1.086
 7417SOL     OW34723   6.957   4.071   8.939
 7417SOL    HW134724   6.921   4.149   8.990
 7417SOL    HW234725   6.903   4.058   8.855
 7418SOL     OW34726   5.142   1.311   1.373
 7418SOL    HW134727   5.216   1.284   1.436
 7418SOL    HW234728   5.091   1.230   1.345
 7419SOL     OW34729   1.290   2.300   6.684
 7419SOL    HW134730   1.336   2.214   6.664
 7419SOL    HW234731   1.261   2.301   6.780
 7420SOL     OW34732   1.429   6.620   0.727
 7420SOL    HW134733   1.347   6.562   0.728
 7420SOL    HW234734   1.492   6.590   0.798
 7421SOL     OW34735   5.921   0.046   3.088
 7421SOL    HW134736   5.848   0.040   3.155
 7421SOL    HW234737   5.914   8.970   3.023
 7422SOL     OW34738   2.241   2.047   0.356
 7422SOL    HW134739   2.273   1.982   0.287
 7422SOL    HW234740   2.174   2.001   0.415
 7423SOL     OW34741   1.710   3.473   2.997
 7423SOL    HW134742   1.656   3.471   3.081
 7423SOL    HW234743   1.774   3.396   2.997
 7424SOL     OW34744   4.332   6.477   3.742
 7424SOL    HW134745   4.309   6.438   3.652
 7424SOL    HW234746   4.432   6.479   3.752
 7425SOL     OW34747   2.867   2.527   7.235
 7425SOL    HW134748   2.889   2.624   7.245
 7425SOL    HW234749   2.909   2.491   7.152
 7426SOL     OW34750   4.293   3.201   3.335
 7426SOL    HW134751   4.267   3.218   3.430
 7426SOL    HW234752   4.231   3.251   3.274
 7427SOL     OW34753   4.286   1.870   2.140
 7427SOL    HW134754   4.215   1.822   2.088
 7427SOL    HW234755   4.374   1.827   2.122
 7428SOL     OW34756   6.519   6.738   5.411
 7428SOL    HW134757   6.594   6.790   5.371
 7428SOL    HW234758   6.433   6.786   5.395
 7429SOL     OW34759   1.085   1.668   0.958
 7429SOL    HW134760   1.173   1.622   0.952
 7429SOL    HW234761   1.083   1.747   0.896
 7430SOL     OW34762   1.965   1.836   4.351
 7430SOL    HW134763   1.961   1.789   4.263
 7430SOL    HW234764   1.973   1.769   4.425
 7431SOL     OW34765   6.118   4.577   3.104
 7431SOL    HW134766   6.182   4.566   3.181
 7431SOL    HW234767   6.159   4.541   3.021
 7432SOL     OW34768   5.480   5.421   3.200
 7432SOL    HW134769   5.528   5.338   3.170
 7432SOL    HW234770   5.508   5.444   3.293
 7433SOL     OW34771   2.449   6.510   4.662
 7433SOL    HW134772   2.352   6.498   4.639
 7433SOL    HW234773   2.458   6.583   4.730
 7434SOL     OW34774   0.502   6.314   2.041
 7434SOL    HW134775   0.464   6.306   2.133
 7434SOL    HW234776   0.428   6.312   1.974
 7435SOL     OW34777   5.855   0.160   1.440
 7435SOL    HW134778   5.937   0.212   1.462
 7435SOL    HW234779   5.780   0.223   1.418
 7436SOL     OW34780   7.307   0.880   2.829
 7436SOL    HW134781   7.270   0.922   2.912
 7436SOL    HW234782   7.259   0.794   2.811
 7437SOL     OW34783   3.301   5.210   6.151
 7437SOL    HW134784   3.256   5.175   6.234
 7437SOL    HW234785   3.288   5.309   6.145
 7438SOL     OW34786   1.173   3.597   5.629
 7438SOL    HW134787   1.078   3.589   5.599
 7438SOL    HW234788   1.207   3.689   5.610
 7439SOL     OW34789   3.624   4.049   2.721
 7439SOL    HW134790   3.554   4.025   2.653
 7439SOL    HW234791   3.581   4.061   2.810
 7440SOL     OW34792   2.737   0.179   2.049
 7440SOL    HW134793   2.722   0.080   2.054
 7440SOL    HW234794   2.807   0.205   2.115
 7441SOL     OW34795   5.005   2.986   5.346
 7441SOL    HW134796   5.102   2.961   5.338
 7441SOL    HW234797   4.949   2.913   5.309
 7442SOL     OW34798   1.486   5.127   6.642
 7442SOL    HW134799   1.430   5.207   6.621
 7442SOL    HW234800   1.443   5.045   6.603
 7443SOL     OW34801   1.811   3.097   4.216
 7443SOL    HW134802   1.841   3.005   4.238
 7443SOL    HW234803   1.839   3.119   4.122
 7444SOL     OW34804   0.286   5.587   0.314
 7444SOL    HW134805   0.294   5.652   0.238
 7444SOL    HW234806   0.372   5.536   0.323
 7445SOL     OW34807   0.353   6.624   5.806
 7445SOL    HW134808   0.330   6.670   5.720
 7445SOL    HW234809   0.449   6.596   5.804
 7446SOL     OW34810   1.222   1.756   3.664
 7446SOL    HW134811   1.245   1.843   3.709
 7446SOL    HW234812   1.173   1.698   3.729
 7447SOL     OW34813   5.297   3.907   3.502
 7447SOL    HW134814   5.276   3.887   3.407
 7447SOL    HW234815   5.385   3.955   3.507
 7448SOL     OW34816   0.216   2.441   0.922
 7448SOL    HW134817   0.118   2.437   0.901
 7448SOL    HW234818   0.263   2.366   0.876
 7449SOL     OW34819   2.662   6.369   0.789
 7449SOL    HW134820   2.759   6.365   0.813
 7449SOL    HW234821   2.637   6.285   0.741
 7450SOL     OW34822   1.292   3.433   5.811
 7450SOL    HW134823   1.386   3.411   5.784
 7450SOL    HW234824   1.249   3.487   5.739
 7451SOL     OW34825   5.080   4.888   1.610
 7451SOL    HW134826   5.000   4.831   1.630
 7451SOL    HW234827   5.159   4.854   1.660
 7452SOL     OW34828   0.766   1.131   0.182
 7452SOL    HW134829   0.766   1.079   0.096
 7452SOL    HW234830   0.775   1.068   0.259
 7453SOL     OW34831   1.629   1.403   1.503
 7453SOL    HW134832   1.710   1.436   1.551
 7453SOL    HW234833   1.617   1.305   1.522
 7454SOL     OW34834   7.313   2.255   5.012
 7454SOL    HW134835   7.342   2.187   5.079
 7454SOL    HW234836   7.371   2.337   5.021
 7455SOL     OW34837   1.075   6.323   0.306
 7455SOL    HW134838   1.114   6.410   0.277
 7455SOL    HW234839   1.142   6.250   0.291
 7456SOL     OW34840   6.304   5.791   3.002
 7456SOL    HW134841   6.265   5.699   2.997
 7456SOL    HW234842   6.349   5.812   2.915
 7457SOL     OW34843   5.957   1.975   4.631
 7457SOL    HW134844   6.041   1.926   4.607
 7457SOL    HW234845   5.979   2.054   4.687
 7458SOL     OW34846   4.056   1.907   2.642
 7458SOL    HW134847   3.986   1.854   2.690
 7458SOL    HW234848   4.033   2.005   2.649
 7459SOL     OW34849   1.115   1.012   4.348
 7459SOL    HW134850   1.173   0.932   4.368
 7459SOL    HW234851   1.066   0.996   4.263
 7460SOL     OW34852   5.373   4.328   1.317
 7460SOL    HW134853   5.466   4.339   1.280
 7460SOL    HW234854   5.318   4.274   1.253
 7461SOL     OW34855   4.105   3.776   5.819
 7461SOL    HW134856   4.138   3.842   5.886
 7461SOL    HW234857   4.133   3.804   5.727
 7462SOL     OW34858   2.383   5.773   6.273
 7462SOL    HW134859   2.444   5.852   6.276
 7462SOL    HW234860   2.428   5.698   6.225
 7463SOL     OW34861   3.322   5.277   3.377
 7463SOL    HW134862   3.306   5.363   3.426
 7463SOL    HW234863   3.343   5.297   3.281
 7464SOL     OW34864   5.359   1.065   0.736
 7464SOL    HW134865   5.260   1.079   0.742
 7464SOL    HW234866   5.388   1.077   0.641
 7465SOL     OW34867   1.228   1.235   6.728
 7465SOL    HW134868   1.165   1.248   6.652
 7465SOL    HW234869   1.211   1.145   6.769
 7466SOL     OW34870   6.573   1.639   1.745
 7466SOL    HW134871   6.672   1.649   1.741
 7466SOL    HW234872   6.536   1.645   1.652
 7467SOL     OW34873   0.483   5.430   4.010
 7467SOL    HW134874   0.445   5.476   3.930
 7467SOL    HW234875   0.449   5.336   4.013
 7468SOL     OW34876   1.462   1.352   6.817
 7468SOL    HW134877   1.529   1.278   6.820
 7468SOL    HW234878   1.379   1.321   6.772
 7469SOL     OW34879   4.106   5.443   6.528
 7469SOL    HW134880   4.172   5.369   6.526
 7469SOL    HW234881   4.023   5.413   6.575
 7470SOL     OW34882   2.420   6.690   5.312
 7470SOL    HW134883   2.493   6.671   5.377
 7470SOL    HW234884   2.350   6.619   5.319
 7471SOL     OW34885   0.821   1.010   2.344
 7471SOL    HW134886   0.884   0.972   2.411
 7471SOL    HW234887   0.836   1.109   2.336
 7472SOL     OW34888   2.067   7.103   2.787
 7472SOL    HW134889   2.098   7.186   2.741
 7472SOL    HW234890   2.096   7.105   2.883
 7473SOL     OW34891   4.203   2.958   0.541
 7473SOL    HW134892   4.131   2.991   0.601
 7473SOL    HW234893   4.258   3.035   0.508
 7474SOL     OW34894   2.570   4.016   1.794
 7474SOL    HW134895   2.494   3.952   1.783
 7474SOL    HW234896   2.538   4.109   1.774
 7475SOL     OW34897   3.014   5.801   6.400
 7475SOL    HW134898   3.107   5.798   6.437
 7475SOL    HW234899   2.994   5.715   6.353
 7476SOL     OW34900   5.075   2.607   1.481
 7476SOL    HW134901   5.058   2.509   1.477
 7476SOL    HW234902   5.043   2.651   1.397
 7477SOL     OW34903   1.594   1.143   1.593
 7477SOL    HW134904   1.568   1.198   1.672
 7477SOL    HW234905   1.592   1.046   1.617
 7478SOL     OW34906   3.178   0.279   0.945
 7478SOL    HW134907   3.237   0.340   0.892
 7478SOL    HW234908   3.108   0.241   0.885
 7479SOL     OW34909   4.524   2.903   6.104
 7479SOL    HW134910   4.498   2.978   6.165
 7479SOL    HW234911   4.527   2.936   6.009
 7480SOL     OW34912   3.859   3.729   5.241
 7480SOL    HW134913   3.767   3.696   5.220
 7480SOL    HW234914   3.857   3.829   5.252
 7481SOL     OW34915   1.696   4.630   2.399
 7481SOL    HW134916   1.736   4.690   2.467
 7481SOL    HW234917   1.756   4.551   2.384
 7482SOL     OW34918   2.806   0.457   1.714
 7482SOL    HW134919   2.876   0.398   1.675
 7482SOL    HW234920   2.804   0.544   1.664
 7483SOL     OW34921   0.712   0.389   4.953
 7483SOL    HW134922   0.718   0.457   4.879
 7483SOL    HW234923   0.620   0.349   4.954
 7484SOL     OW34924   4.563   4.860   2.365
 7484SOL    HW134925   4.594   4.767   2.384
 7484SOL    HW234926   4.618   4.899   2.290
 7485SOL     OW34927   4.996   0.736   6.807
 7485SOL    HW134928   5.094   0.718   6.821
 7485SOL    HW234929   4.969   0.706   6.716
 7486SOL     OW34930   1.094   2.375   7.170
 7486SOL    HW134931   1.080   2.417   7.259
 7486SOL    HW234932   1.034   2.418   7.102
 7487SOL     OW34933   5.977   0.071   0.886
 7487SOL    HW134934   6.016   0.104   0.972
 7487SOL    HW234935   5.947   8.976   0.897
 7488SOL     OW34936   6.489   4.811   1.157
 7488SOL    HW134937   6.489   4.748   1.079
 7488SOL    HW234938   6.395   4.824   1.189
 7489SOL     OW34939   3.392   1.567   2.660
 7489SOL    HW134940   3.312   1.553   2.719
 7489SOL    HW234941   3.420   1.479   2.621
 7490SOL     OW34942   7.018   2.849   7.065
 7490SOL    HW134943   6.971   2.784   7.004
 7490SOL    HW234944   7.111   2.864   7.031
 7491SOL     OW34945   7.377   7.161   0.835
 7491SOL    HW134946   7.367   7.186   0.931
 7491SOL    HW234947   7.358   7.063   0.824
 7492SOL     OW34948   3.776   5.313   2.121
 7492SOL    HW134949   3.686   5.293   2.081
 7492SOL    HW234950   3.836   5.234   2.110
 7493SOL     OW34951   0.415   3.899   6.022
 7493SOL    HW134952   0.344   3.870   5.957
 7493SOL    HW234953   0.430   3.827   6.090
 7494SOL     OW34954   0.245   6.890   1.474
 7494SOL    HW134955   0.319   6.843   1.426
 7494SOL    HW234956   0.216   6.835   1.552
 7495SOL     OW34957   2.144   0.422   3.104
 7495SOL    HW134958   2.132   0.385   3.197
 7495SOL    HW234959   2.180   0.351   3.044
 7496SOL     OW34960   3.396   5.479   1.155
 7496SOL    HW134961   3.470   5.530   1.199
 7496SOL    HW234962   3.369   5.403   1.213
 7497SOL     OW34963   3.799   6.108   1.859
 7497SOL    HW134964   3.754   6.053   1.789
 7497SOL    HW234965   3.747   6.103   1.944
 7498SOL     OW34966   0.718   5.590   6.916
 7498SOL    HW134967   0.723   5.594   6.816
 7498SOL    HW234968   0.681   5.676   6.951
 7499SOL     OW34969   6.049   2.532   2.123
 7499SOL    HW134970   6.124   2.594   2.145
 7499SOL    HW234971   5.978   2.539   2.193
 7500SOL     OW34972   6.563   0.477   5.000
 7500SOL    HW134973   6.565   0.490   4.901
 7500SOL    HW234974   6.471   0.452   5.029
 7501SOL     OW34975   3.841   0.415   0.263
 7501SOL    HW134976   3.834   0.414   0.164
 7501SOL    HW234977   3.833   0.321   0.298
 7502SOL     OW34978   6.871   5.645   6.734
 7502SOL    HW134979   6.865   5.730   6.785
 7502SOL    HW234980   6.944   5.652   6.666
 7503SOL     OW34981   6.108   2.144   1.470
 7503SOL    HW134982   6.053   2.197   1.406
 7503SOL    HW234983   6.205   2.166   1.456
 7504SOL     OW34984   3.754   0.446   0.624
 7504SOL    HW134985   3.691   0.399   0.563
 7504SOL    HW234986   3.717   0.537   0.646
 7505SOL     OW34987   0.714   3.452   7.244
 7505SOL    HW134988   0.679   3.364   7.213
 7505SOL    HW234989   0.697   3.461   7.342
 7506SOL     OW34990   5.919   7.160   5.075
 7506SOL    HW134991   5.907   7.256   5.098
 7506SOL    HW234992   5.838   7.126   5.026
 7507SOL     OW34993   6.381   3.749   0.050
 7507SOL    HW134994   6.320   3.676   0.082
 7507SOL    HW234995   6.447   3.710   8.985
 7508SOL     OW34996   6.302   3.501   7.066
 7508SOL    HW134997   6.231   3.572   7.067
 7508SOL    HW234998   6.273   3.427   7.005
 7509SOL     OW34999   5.767   5.804   4.191
 7509SOL    HW135000   5.737   5.795   4.096
 7509SOL    HW235001   5.787   5.713   4.228
 7510SOL     OW35002   6.323   7.316   1.619
 7510SOL    HW135003   6.305   7.300   1.522
 7510SOL    HW235004   6.292   7.408   1.644
 7511SOL     OW35005   3.417   5.293   0.671
 7511SOL    HW135006   3.374   5.306   0.761
 7511SOL    HW235007   3.513   5.270   0.683
 7512SOL     OW35008   1.974   1.054   4.306
 7512SOL    HW135009   2.043   0.985   4.285
 7512SOL    HW235010   1.943   1.096   4.221
 7513SOL     OW35011   6.840   5.558   3.555
 7513SOL    HW135012   6.829   5.466   3.518
 7513SOL    HW235013   6.873   5.619   3.484
 7514SOL     OW35014   4.358   3.030   5.284
 7514SOL    HW135015   4.278   3.085   5.259
 7514SOL    HW235016   4.374   2.961   5.214
 7515SOL     OW35017   2.746   3.032   7.313
 7515SOL    HW135018   2.826   3.075   7.273
 7515SOL    HW235019   2.721   3.079   7.397
 7516SOL     OW35020   5.078   0.387   3.617
 7516SOL    HW135021   5.013   0.331   3.567
 7516SOL    HW235022   5.156   0.331   3.645
 7517SOL     OW35023   6.786   4.177   4.609
 7517SOL    HW135024   6.828   4.116   4.542
 7517SOL    HW235025   6.750   4.258   4.562
 7518SOL     OW35026   3.531   2.176   0.830
 7518SOL    HW135027   3.622   2.134   0.830
 7518SOL    HW235028   3.517   2.224   0.917
 7519SOL     OW35029   3.172   3.724   0.375
 7519SOL    HW135030   3.217   3.810   0.351
 7519SOL    HW235031   3.089   3.714   0.320
 7520SOL     OW35032   1.177   4.288   2.253
 7520SOL    HW135033   1.277   4.292   2.262
 7520SOL    HW235034   1.153   4.229   2.177
 7521SOL     OW35035   2.415   4.038   0.939
 7521SOL    HW135036   2.341   4.098   0.911
 7521SOL    HW235037   2.382   3.944   0.944
 7522SOL     OW35038   2.959   3.606   6.578
 7522SOL    HW135039   2.922   3.534   6.520
 7522SOL    HW235040   3.045   3.641   6.539
 7523SOL     OW35041   5.080   6.965   3.532
 7523SOL    HW135042   4.983   6.958   3.510
 7523SOL    HW235043   5.091   7.010   3.621
 7524SOL     OW35044   6.837   0.647   1.678
 7524SOL    HW135045   6.756   0.685   1.723
 7524SOL    HW235046   6.811   0.607   1.591
 7525SOL     OW35047   2.806   2.407   3.217
 7525SOL    HW135048   2.806   2.308   3.205
 7525SOL    HW235049   2.712   2.442   3.211
 7526SOL     OW35050   2.993   5.228   1.624
 7526SOL    HW135051   2.930   5.151   1.631
 7526SOL    HW235052   3.015   5.245   1.528
 7527SOL     OW35053   2.088   3.671   6.457
 7527SOL    HW135054   2.188   3.670   6.449
 7527SOL    HW235055   2.061   3.736   6.527
 7528SOL     OW35056   3.879   1.323   5.076
 7528SOL    HW135057   3.968   1.278   5.071
 7528SOL    HW235058   3.868   1.366   5.165
 7529SOL     OW35059   3.848   1.428   4.619
 7529SOL    HW135060   3.926   1.385   4.572
 7529SOL    HW235061   3.813   1.503   4.562
 7530SOL     OW35062   6.447   3.367   5.873
 7530SOL    HW135063   6.394   3.429   5.816
 7530SOL    HW235064   6.542   3.366   5.842
 7531SOL     OW35065   4.920   5.006   2.726
 7531SOL    HW135066   4.832   5.008   2.678
 7531SOL    HW235067   4.988   4.961   2.667
 7532SOL     OW35068   3.268   3.284   4.460
 7532SOL    HW135069   3.339   3.292   4.529
 7532SOL    HW235070   3.222   3.371   4.448
 7533SOL     OW35071   0.262   1.538   0.870
 7533SOL    HW135072   0.359   1.551   0.847
 7533SOL    HW235073   0.213   1.623   0.852
 7534SOL     OW35074   7.014   3.906   5.741
 7534SOL    HW135075   6.997   4.005   5.741
 7534SOL    HW235076   7.078   3.883   5.815
 7535SOL     OW35077   6.787   3.000   7.035
 7535SOL    HW135078   6.875   2.955   7.050
 7535SOL    HW235079   6.764   2.998   6.938
 7536SOL     OW35080   6.733   0.189   6.470
 7536SOL    HW135081   6.789   0.185   6.388
 7536SOL    HW235082   6.786   0.156   6.548
 7537SOL     OW35083   2.649   6.187   7.315
 7537SOL    HW135084   2.699   6.256   7.262
 7537SOL    HW235085   2.661   6.204   7.413
 7538SOL     OW35086   4.643   3.977   0.698
 7538SOL    HW135087   4.730   3.941   0.731
 7538SOL    HW235088   4.600   4.032   0.770
 7539SOL     OW35089   7.161   4.347   1.320
 7539SOL    HW135090   7.090   4.321   1.386
 7539SOL    HW235091   7.185   4.267   1.264
 7540SOL     OW35092   3.304   5.202   2.670
 7540SOL    HW135093   3.337   5.111   2.699
 7540SOL    HW235094   3.224   5.227   2.724
 7541SOL     OW35095   2.556   6.390   4.442
 7541SOL    HW135096   2.522   6.442   4.520
 7541SOL    HW235097   2.540   6.293   4.457
 7542SOL     OW35098   6.052   2.170   4.819
 7542SOL    HW135099   6.003   2.225   4.887
 7542SOL    HW235100   6.124   2.118   4.865
 7543SOL     OW35101   7.381   3.967   0.691
 7543SOL    HW135102   7.302   4.027   0.702
 7543SOL    HW235103   7.428   3.990   0.606
 7544SOL     OW35104   3.804   4.903   1.972
 7544SOL    HW135105   3.859   4.982   2.001
 7544SOL    HW235106   3.863   4.836   1.928
 7545SOL     OW35107   4.574   6.979   0.743
 7545SOL    HW135108   4.618   6.995   0.655
 7545SOL    HW235109   4.573   7.065   0.796
 7546SOL     OW35110   1.955   0.453   6.801
 7546SOL    HW135111   1.986   0.435   6.894
 7546SOL    HW235112   1.935   0.367   6.754
 7547SOL     OW35113   3.015   4.380   3.662
 7547SOL    HW135114   2.976   4.289   3.652
 7547SOL    HW235115   3.080   4.397   3.588
 7548SOL     OW35116   6.679   3.389   1.245
 7548SOL    HW135117   6.669   3.338   1.159
 7548SOL    HW235118   6.663   3.328   1.322
 7549SOL     OW35119   5.475   0.456   2.330
 7549SOL    HW135120   5.506   0.368   2.296
 7549SOL    HW235121   5.428   0.444   2.418
 7550SOL     OW35122   0.327   5.779   0.127
 7550SOL    HW135123   0.390   5.739   0.060
 7550SOL    HW235124   0.286   5.862   0.090
 7551SOL     OW35125   1.573   6.494   0.928
 7551SOL    HW135126   1.540   6.406   0.962
 7551SOL    HW235127   1.665   6.512   0.963
 7552SOL     OW35128   2.700   3.354   4.436
 7552SOL    HW135129   2.788   3.398   4.420
 7552SOL    HW235130   2.711   3.278   4.499
 7553SOL     OW35131   4.916   3.445   1.795
 7553SOL    HW135132   4.918   3.531   1.744
 7553SOL    HW235133   4.945   3.370   1.736
 7554SOL     OW35134   5.794   6.462   2.624
 7554SOL    HW135135   5.867   6.524   2.594
 7554SOL    HW235136   5.705   6.504   2.604
 7555SOL     OW35137   7.438   4.038   3.884
 7555SOL    HW135138   7.472   4.098   3.811
 7555SOL    HW235139   7.342   4.017   3.869
 7556SOL     OW35140   6.248   0.210   1.705
 7556SOL    HW135141   6.345   0.203   1.681
 7556SOL    HW235142   6.237   0.280   1.776
 7557SOL     OW35143   6.317   3.664   1.028
 7557SOL    HW135144   6.359   3.574   1.041
 7557SOL    HW235145   6.384   3.735   1.048
 7558SOL     OW35146   1.753   5.473   0.272
 7558SOL    HW135147   1.660   5.487   0.239
 7558SOL    HW235148   1.783   5.554   0.323
 7559SOL     OW35149   1.128   1.914   1.779
 7559SOL    HW135150   1.162   1.920   1.685
 7559SOL    HW235151   1.201   1.941   1.842
 7560SOL     OW35152   3.208   8.971   1.402
 7560SOL    HW135153   3.289   8.969   1.461
 7560SOL    HW235154   3.235   8.994   1.309
 7561SOL     OW35155   5.794   0.560   1.137
 7561SOL    HW135156   5.836   0.609   1.062
 7561SOL    HW235157   5.694   0.566   1.129
 7562SOL     OW35158   3.410   7.084   5.797
 7562SOL    HW135159   3.387   7.070   5.893
 7562SOL    HW235160   3.338   7.137   5.753
 7563SOL     OW35161   3.792   1.585   7.057
 7563SOL    HW135162   3.784   1.486   7.050
 7563SOL    HW235163   3.700   1.626   7.059
 7564SOL     OW35164   4.523   1.151   3.881
 7564SOL    HW135165   4.577   1.130   3.962
 7564SOL    HW235166   4.583   1.165   3.803
 7565SOL     OW35167   1.389   4.984   1.666
 7565SOL    HW135168   1.461   4.929   1.710
 7565SOL    HW235169   1.315   4.999   1.731
 7566SOL     OW35170   4.947   6.638   1.943
 7566SOL    HW135171   5.026   6.577   1.938
 7566SOL    HW235172   4.931   6.664   2.038
 7567SOL     OW35173   0.995   2.649   5.790
 7567SOL    HW135174   0.966   2.725   5.849
 7567SOL    HW235175   0.953   2.659   5.700
 7568SOL     OW35176   1.682   0.878   6.056
 7568SOL    HW135177   1.759   0.853   6.115
 7568SOL    HW235178   1.693   0.972   6.026
 7569SOL     OW35179   0.952   0.379   3.199
 7569SOL    HW135180   0.854   0.398   3.191
 7569SOL    HW235181   0.970   0.334   3.286
 7570SOL     OW35182   7.118   5.482   4.354
 7570SOL    HW135183   7.131   5.573   4.394
 7570SOL    HW235184   7.096   5.417   4.427
 7571SOL     OW35185   0.185   2.035   2.584
 7571SOL    HW135186   0.145   2.123   2.559
 7571SOL    HW235187   0.172   2.019   2.682
 7572SOL     OW35188   3.709   4.099   0.494
 7572SOL    HW135189   3.660   4.017   0.464
 7572SOL    HW235190   3.646   4.176   0.498
 7573SOL     OW35191   3.970   5.104   2.088
 7573SOL    HW135192   4.054   5.147   2.057
 7573SOL    HW235193   3.991   5.039   2.161
 7574SOL     OW35194   1.118   6.815   3.913
 7574SOL    HW135195   1.140   6.874   3.990
 7574SOL    HW235196   1.202   6.787   3.867
 7575SOL     OW35197   2.569   4.565   8.941
 7575SOL    HW135198   2.520   4.569   8.854
 7575SOL    HW235199   2.668   4.567   8.924
 7576SOL     OW35200   7.039   1.000   5.066
 7576SOL    HW135201   7.122   0.989   5.012
 7576SOL    HW235202   7.035   1.093   5.103
 7577SOL     OW35203   7.061   1.406   3.485
 7577SOL    HW135204   7.074   1.330   3.421
 7577SOL    HW235205   7.145   1.460   3.491
 7578SOL     OW35206   5.166   4.616   2.709
 7578SOL    HW135207   5.105   4.663   2.772
 7578SOL    HW235208   5.196   4.529   2.748
 7579SOL     OW35209   1.491   2.580   3.186
 7579SOL    HW135210   1.491   2.483   3.208
 7579SOL    HW235211   1.397   2.610   3.167
 7580SOL     OW35212   5.400   5.639   5.132
 7580SOL    HW135213   5.386   5.684   5.220
 7580SOL    HW235214   5.333   5.565   5.122
 7581SOL     OW35215   5.720   2.355   3.890
 7581SOL    HW135216   5.693   2.323   3.799
 7581SOL    HW235217   5.641   2.355   3.951
 7582SOL     OW35218   0.765   4.090   6.171
 7582SOL    HW135219   0.750   4.100   6.073
 7582SOL    HW235220   0.678   4.069   6.216
 7583SOL     OW35221   6.606   7.005   2.986
 7583SOL    HW135222   6.579   6.974   3.077
 7583SOL    HW235223   6.630   7.102   2.990
 7584SOL     OW35224   6.532   3.721   2.841
 7584SOL    HW135225   6.495   3.676   2.760
 7584SOL    HW235226   6.478   3.803   2.861
 7585SOL     OW35227   3.535   1.940   5.067
 7585SOL    HW135228   3.516   2.025   5.115
 7585SOL    HW235229   3.554   1.868   5.135
 7586SOL     OW35230   4.905   0.766   0.756
 7586SOL    HW135231   4.969   0.755   0.679
 7586SOL    HW235232   4.946   0.826   0.825
 7587SOL     OW35233   4.371   2.161   4.411
 7587SOL    HW135234   4.383   2.065   4.438
 7587SOL    HW235235   4.406   2.220   4.483
 7588SOL     OW35236   1.419   6.165   5.499
 7588SOL    HW135237   1.505   6.215   5.489
 7588SOL    HW235238   1.424   6.080   5.447
 7589SOL     OW35239   3.548   4.531   6.841
 7589SOL    HW135240   3.573   4.491   6.753
 7589SOL    HW235241   3.606   4.610   6.859
 7590SOL     OW35242   7.302   3.061   4.847
 7590SOL    HW135243   7.350   3.086   4.931
 7590SOL    HW235244   7.362   3.078   4.768
 7591SOL     OW35245   4.202   2.184   4.196
 7591SOL    HW135246   4.270   2.186   4.269
 7591SOL    HW235247   4.115   2.153   4.233
 7592SOL     OW35248   6.993   2.997   0.771
 7592SOL    HW135249   7.053   2.971   0.847
 7592SOL    HW235250   7.042   2.982   0.684
 7593SOL     OW35251   1.558   3.047   3.156
 7593SOL    HW135252   1.569   2.963   3.209
 7593SOL    HW235253   1.625   3.048   3.082
 7594SOL     OW35254   2.212   1.965   6.945
 7594SOL    HW135255   2.287   2.026   6.920
 7594SOL    HW235256   2.213   1.885   6.884
 7595SOL     OW35257   2.626   6.197   0.374
 7595SOL    HW135258   2.691   6.272   0.364
 7595SOL    HW235259   2.533   6.232   0.366
 7596SOL     OW35260   4.752   3.922   5.520
 7596SOL    HW135261   4.782   3.983   5.447
 7596SOL    HW235262   4.795   3.832   5.507
 7597SOL     OW35263   6.077   2.515   1.752
 7597SOL    HW135264   6.004   2.448   1.738
 7597SOL    HW235265   6.048   2.582   1.820
 7598SOL     OW35266   6.860   7.117   5.666
 7598SOL    HW135267   6.824   7.107   5.759
 7598SOL    HW235268   6.886   7.027   5.630
 7599SOL     OW35269   2.507   0.190   1.786
 7599SOL    HW135270   2.587   0.233   1.827
 7599SOL    HW235271   2.424   0.233   1.821
 7600SOL     OW35272   5.347   7.348   1.179
 7600SOL    HW135273   5.323   7.427   1.235
 7600SOL    HW235274   5.412   7.375   1.108
 7601SOL     OW35275   5.976   3.299   4.566
 7601SOL    HW135276   6.055   3.238   4.565
 7601SOL    HW235277   5.948   3.320   4.472
 7602SOL     OW35278   3.048   2.569   2.160
 7602SOL    HW135279   2.951   2.546   2.173
 7602SOL    HW235280   3.098   2.554   2.245
 7603SOL     OW35281   3.943   5.392   2.507
 7603SOL    HW135282   4.009   5.355   2.442
 7603SOL    HW235283   3.885   5.318   2.541
 7604SOL     OW35284   0.113   2.912   5.242
 7604SOL    HW135285   0.193   2.888   5.297
 7604SOL    HW235286   0.085   3.005   5.262
 7605SOL     OW35287   7.120   4.867   2.220
 7605SOL    HW135288   7.115   4.870   2.320
 7605SOL    HW235289   7.215   4.868   2.192
 7606SOL     OW35290   0.284   6.505   7.028
 7606SOL    HW135291   0.288   6.576   7.098
 7606SOL    HW235292   0.377   6.475   7.007
 7607SOL     OW35293   1.978   3.269   6.665
 7607SOL    HW135294   1.894   3.249   6.717
 7607SOL    HW235295   1.959   3.338   6.596
 7608SOL     OW35296   5.861   4.688   2.864
 7608SOL    HW135297   5.905   4.742   2.936
 7608SOL    HW235298   5.790   4.630   2.904
 7609SOL     OW35299   5.579   3.827   0.648
 7609SOL    HW135300   5.611   3.921   0.655
 7609SOL    HW235301   5.570   3.788   0.740
 7610SOL     OW35302   4.015   2.688   7.035
 7610SOL    HW135303   4.077   2.689   6.956
 7610SOL    HW235304   3.982   2.595   7.050
 7611SOL     OW35305   4.257   2.975   3.985
 7611SOL    HW135306   4.220   2.999   3.895
 7611SOL    HW235307   4.191   3.000   4.056
 7612SOL     OW35308   3.065   7.118   6.990
 7612SOL    HW135309   3.022   7.075   7.070
 7612SOL    HW235310   3.119   7.049   6.940
 7613SOL     OW35311   4.018   4.011   5.052
 7613SOL    HW135312   4.098   4.059   5.016
 7613SOL    HW235313   4.022   3.915   5.024
 7614SOL     OW35314   7.134   1.310   1.101
 7614SOL    HW135315   7.039   1.330   1.078
 7614SOL    HW235316   7.168   1.379   1.165
 7615SOL     OW35317   3.907   3.485   2.800
 7615SOL    HW135318   3.869   3.429   2.874
 7615SOL    HW235319   3.881   3.446   2.712
 7616SOL     OW35320   4.474   7.290   6.549
 7616SOL    HW135321   4.375   7.289   6.534
 7616SOL    HW235322   4.506   7.385   6.550
 7617SOL     OW35323   2.872   6.798   0.174
 7617SOL    HW135324   2.845   6.703   0.163
 7617SOL    HW235325   2.959   6.813   0.127
 7618SOL     OW35326   1.697   3.627   6.451
 7618SOL    HW135327   1.681   3.642   6.353
 7618SOL    HW235328   1.641   3.690   6.504
 7619SOL     OW35329   6.182   7.054   6.201
 7619SOL    HW135330   6.169   7.046   6.102
 7619SOL    HW235331   6.093   7.066   6.245
 7620SOL     OW35332   5.538   1.260   4.492
 7620SOL    HW135333   5.615   1.295   4.439
 7620SOL    HW235334   5.557   1.166   4.520
 7621SOL     OW35335   3.537   0.591   2.947
 7621SOL    HW135336   3.445   0.585   2.909
 7621SOL    HW235337   3.598   0.528   2.898
 7622SOL     OW35338   6.533   3.607   2.156
 7622SOL    HW135339   6.466   3.676   2.128
 7622SOL    HW235340   6.559   3.621   2.251
 7623SOL     OW35341   2.157   6.374   0.248
 7623SOL    HW135342   2.109   6.287   0.265
 7623SOL    HW235343   2.139   6.403   0.154
 7624SOL     OW35344   7.309   2.438   0.228
 7624SOL    HW135345   7.364   2.360   0.260
 7624SOL    HW235346   7.260   2.412   0.144
 7625SOL     OW35347   1.215   5.755   5.337
 7625SOL    HW135348   1.254   5.671   5.300
 7625SOL    HW235349   1.283   5.828   5.331
 7626SOL     OW35350   2.923   3.206   2.460
 7626SOL    HW135351   2.834   3.161   2.453
 7626SOL    HW235352   2.925   3.286   2.400
 7627SOL     OW35353   4.317   5.722   6.823
 7627SOL    HW135354   4.348   5.809   6.786
 7627SOL    HW235355   4.217   5.722   6.829
 7628SOL     OW35356   3.907   3.083   4.729
 7628SOL    HW135357   3.818   3.115   4.761
 7628SOL    HW235358   3.937   3.006   4.785
 7629SOL     OW35359   4.664   1.392   5.916
 7629SOL    HW135360   4.723   1.462   5.956
 7629SOL    HW235361   4.707   1.302   5.928
 7630SOL     OW35362   5.079   0.432   1.851
 7630SOL    HW135363   5.103   0.528   1.867
 7630SOL    HW235364   5.046   0.421   1.757
 7631SOL     OW35365   6.894   1.332   1.321
 7631SOL    HW135366   6.852   1.356   1.408
 7631SOL    HW235367   6.968   1.396   1.301
 7632SOL     OW35368   3.027   6.923   6.231
 7632SOL    HW135369   3.096   6.868   6.183
 7632SOL    HW235370   3.069   6.967   6.311
 7633SOL     OW35371   0.964   5.626   5.303
 7633SOL    HW135372   1.041   5.685   5.329
 7633SOL    HW235373   0.985   5.579   5.218
 7634SOL     OW35374   5.306   3.735   1.072
 7634SOL    HW135375   5.317   3.716   1.170
 7634SOL    HW235376   5.230   3.681   1.037
 7635SOL     OW35377   4.111   6.949   1.886
 7635SOL    HW135378   4.175   6.935   1.810
 7635SOL    HW235379   4.020   6.969   1.850
 7636SOL     OW35380   2.460   2.558   2.693
 7636SOL    HW135381   2.373   2.608   2.703
 7636SOL    HW235382   2.442   2.469   2.652
 7637SOL     OW35383   0.809   0.191   1.103
 7637SOL    HW135384   0.826   0.095   1.127
 7637SOL    HW235385   0.713   0.204   1.082
 7638SOL     OW35386   5.096   0.325   6.058
 7638SOL    HW135387   5.159   0.391   6.098
 7638SOL    HW235388   5.138   0.234   6.059
 7639SOL     OW35389   5.864   5.851   5.554
 7639SOL    HW135390   5.849   5.813   5.645
 7639SOL    HW235391   5.781   5.895   5.521
 7640SOL     OW35392   7.176   3.537   2.960
 7640SOL    HW135393   7.193   3.619   2.905
 7640SOL    HW235394   7.206   3.456   2.910
 7641SOL     OW35395   5.156   2.597   2.536
 7641SOL    HW135396   5.251   2.627   2.533
 7641SOL    HW235397   5.127   2.590   2.632
 7642SOL     OW35398   6.871   0.833   2.397
 7642SOL    HW135399   6.886   0.778   2.479
 7642SOL    HW235400   6.958   0.871   2.366
 7643SOL     OW35401   2.122   7.353   0.741
 7643SOL    HW135402   2.157   7.311   0.825
 7643SOL    HW235403   2.047   7.416   0.763
 7644SOL     OW35404   6.726   3.418   7.305
 7644SOL    HW135405   6.750   3.359   7.228
 7644SOL    HW235406   6.646   3.473   7.280
 7645SOL     OW35407   2.209   2.526   1.862
 7645SOL    HW135408   2.206   2.580   1.778
 7645SOL    HW235409   2.296   2.476   1.866
 7646SOL     OW35410   4.922   0.776   3.879
 7646SOL    HW135411   4.824   0.780   3.896
 7646SOL    HW235412   4.972   0.778   3.966
 7647SOL     OW35413   3.570   5.006   1.855
 7647SOL    HW135414   3.647   4.959   1.899
 7647SOL    HW235415   3.494   4.942   1.846
 7648SOL     OW35416   1.939   2.094   3.575
 7648SOL    HW135417   1.889   2.008   3.587
 7648SOL    HW235418   1.949   2.139   3.664
 7649SOL     OW35419   2.378   3.681   5.852
 7649SOL    HW135420   2.391   3.587   5.818
 7649SOL    HW235421   2.283   3.692   5.881
 7650SOL     OW35422   1.792   0.642   0.192
 7650SOL    HW135423   1.714   0.588   0.160
 7650SOL    HW235424   1.816   0.710   0.122
 7651SOL     OW35425   4.733   3.629   6.874
 7651SOL    HW135426   4.720   3.530   6.874
 7651SOL    HW235427   4.831   3.650   6.865
 7652SOL     OW35428   7.010   2.881   4.155
 7652SOL    HW135429   7.097   2.885   4.105
 7652SOL    HW235430   6.962   2.968   4.145
 7653SOL     OW35431   0.564   6.889   4.874
 7653SOL    HW135432   0.619   6.873   4.791
 7653SOL    HW235433   0.504   6.811   4.890
 7654SOL     OW35434   2.554   0.426   6.567
 7654SOL    HW135435   2.621   0.363   6.605
 7654SOL    HW235436   2.462   0.395   6.590
 7655SOL     OW35437   4.056   2.935   6.291
 7655SOL    HW135438   4.033   2.912   6.197
 7655SOL    HW235439   4.033   2.858   6.351
 7656SOL     OW35440   0.754   4.436   0.879
 7656SOL    HW135441   0.842   4.450   0.925
 7656SOL    HW235442   0.679   4.465   0.938
 7657SOL     OW35443   2.334   2.840   1.309
 7657SOL    HW135444   2.367   2.886   1.391
 7657SOL    HW235445   2.306   2.747   1.332
 7658SOL     OW35446   1.019   0.990   1.961
 7658SOL    HW135447   1.023   0.973   1.863
 7658SOL    HW235448   0.988   1.084   1.977
 7659SOL     OW35449   2.072   5.365   7.187
 7659SOL    HW135450   2.024   5.378   7.273
 7659SOL    HW235451   2.100   5.269   7.179
 7660SOL     OW35452   4.740   6.181   6.258
 7660SOL    HW135453   4.779   6.172   6.349
 7660SOL    HW235454   4.683   6.100   6.239
 7661SOL     OW35455   5.768   1.309   6.771
 7661SOL    HW135456   5.777   1.367   6.852
 7661SOL    HW235457   5.830   1.342   6.699
 7662SOL     OW35458   4.184   7.316   6.094
 7662SOL    HW135459   4.102   7.275   6.133
 7662SOL    HW235460   4.161   7.402   6.049
 7663SOL     OW35461   5.479   0.914   6.542
 7663SOL    HW135462   5.428   0.894   6.458
 7663SOL    HW235463   5.422   0.969   6.603
 7664SOL     OW35464   0.628   4.680   3.429
 7664SOL    HW135465   0.711   4.675   3.486
 7664SOL    HW235466   0.654   4.689   3.333
 7665SOL     OW35467   3.091   1.876   5.755
 7665SOL    HW135468   2.992   1.857   5.758
 7665SOL    HW235469   3.130   1.828   5.676
 7666SOL     OW35470   4.064   1.341   2.710
 7666SOL    HW135471   4.005   1.265   2.737
 7666SOL    HW235472   4.125   1.312   2.637
 7667SOL     OW35473   2.886   2.138   3.170
 7667SOL    HW135474   2.890   2.081   3.088
 7667SOL    HW235475   2.973   2.187   3.181
 7668SOL     OW35476   5.219   4.378   5.096
 7668SOL    HW135477   5.127   4.348   5.070
 7668SOL    HW235478   5.248   4.454   5.038
 7669SOL     OW35479   6.637   6.832   7.139
 7669SOL    HW135480   6.565   6.876   7.193
 7669SOL    HW235481   6.723   6.882   7.153
 7670SOL     OW35482   0.847   0.445   0.661
 7670SOL    HW135483   0.866   0.365   0.719
 7670SOL    HW235484   0.758   0.435   0.618
 7671SOL     OW35485   6.188   2.849   3.351
 7671SOL    HW135486   6.241   2.892   3.424
 7671SOL    HW235487   6.112   2.910   3.325
 7672SOL     OW35488   4.541   4.821   3.226
 7672SOL    HW135489   4.580   4.732   3.202
 7672SOL    HW235490   4.453   4.831   3.181
 7673SOL     OW35491   0.374   0.124   3.246
 7673SOL    HW135492   0.388   0.223   3.244
 7673SOL    HW235493   0.334   0.098   3.334
 7674SOL     OW35494   7.190   2.830   1.850
 7674SOL    HW135495   7.151   2.846   1.760
 7674SOL    HW235496   7.244   2.746   1.849
 7675SOL     OW35497   6.383   4.285   1.064
 7675SOL    HW135498   6.385   4.317   1.159
 7675SOL    HW235499   6.445   4.207   1.054
 7676SOL     OW35500   6.350   4.028   1.664
 7676SOL    HW135501   6.440   4.064   1.641
 7676SOL    HW235502   6.359   3.932   1.691
 7677SOL     OW35503   6.322   0.768   0.135
 7677SOL    HW135504   6.283   0.731   0.219
 7677SOL    HW235505   6.271   0.850   0.108
 7678SOL     OW35506   5.933   0.948   0.202
 7678SOL    HW135507   5.989   0.902   0.272
 7678SOL    HW235508   5.946   1.047   0.209
 7679SOL     OW35509   5.566   4.414   0.540
 7679SOL    HW135510   5.491   4.476   0.563
 7679SOL    HW235511   5.635   4.417   0.612
 7680SOL     OW35512   4.196   6.977   0.850
 7680SOL    HW135513   4.238   6.914   0.916
 7680SOL    HW235514   4.216   7.071   0.876
 7681SOL     OW35515   0.120   0.376   2.284
 7681SOL    HW135516   0.136   0.297   2.343
 7681SOL    HW235517   0.064   0.443   2.332
 7682SOL     OW35518   4.487   2.206   3.693
 7682SOL    HW135519   4.527   2.150   3.765
 7682SOL    HW235520   4.397   2.238   3.722
 7683SOL     OW35521   4.409   4.158   6.074
 7683SOL    HW135522   4.343   4.085   6.053
 7683SOL    HW235523   4.361   4.235   6.115
 7684SOL     OW35524   4.410   4.392   5.442
 7684SOL    HW135525   4.323   4.438   5.425
 7684SOL    HW235526   4.421   4.378   5.540
 7685SOL     OW35527   5.090   1.185   6.697
 7685SOL    HW135528   5.028   1.112   6.725
 7685SOL    HW235529   5.056   1.273   6.730
 7686SOL     OW35530   2.778   4.232   4.454
 7686SOL    HW135531   2.708   4.212   4.386
 7686SOL    HW235532   2.734   4.267   4.537
 7687SOL     OW35533   1.860   0.296   3.721
 7687SOL    HW135534   1.885   0.256   3.632
 7687SOL    HW235535   1.934   0.280   3.786
 7688SOL     OW35536   0.718   6.371   0.185
 7688SOL    HW135537   0.817   6.366   0.194
 7688SOL    HW235538   0.675   6.295   0.234
 7689SOL     OW35539   7.196   1.226   5.427
 7689SOL    HW135540   7.157   1.236   5.336
 7689SOL    HW235541   7.211   1.317   5.467
 7690SOL     OW35542   5.503   2.885   4.715
 7690SOL    HW135543   5.489   2.879   4.616
 7690SOL    HW235544   5.416   2.866   4.761
 7691SOL     OW35545   3.415   0.075   0.529
 7691SOL    HW135546   3.318   0.060   0.547
 7691SOL    HW235547   3.467   0.065   0.614
 7692SOL     OW35548   4.130   0.577   3.788
 7692SOL    HW135549   4.130   0.675   3.807
 7692SOL    HW235550   4.200   0.556   3.720
 7693SOL     OW35551   0.565   0.250   0.996
 7693SOL    HW135552   0.580   0.345   1.025
 7693SOL    HW235553   0.583   0.242   0.898
 7694SOL     OW35554   2.176   4.101   6.649
 7694SOL    HW135555   2.255   4.101   6.587
 7694SOL    HW235556   2.135   4.010   6.650
 7695SOL     OW35557   6.957   7.114   6.489
 7695SOL    HW135558   6.948   7.200   6.539
 7695SOL    HW235559   7.011   7.130   6.407
 7696SOL     OW35560   5.132   2.116   3.047
 7696SOL    HW135561   5.229   2.103   3.026
 7696SOL    HW235562   5.111   2.074   3.135
 7697SOL     OW35563   6.708   2.203   5.995
 7697SOL    HW135564   6.728   2.270   5.924
 7697SOL    HW235565   6.611   2.179   5.992
 7698SOL     OW35566   3.341   1.216   6.328
 7698SOL    HW135567   3.409   1.160   6.374
 7698SOL    HW235568   3.384   1.269   6.256
 7699SOL     OW35569   2.097   3.932   1.324
 7699SOL    HW135570   2.044   3.960   1.403
 7699SOL    HW235571   2.076   3.837   1.301
 7700SOL     OW35572   5.382   5.663   6.234
 7700SOL    HW135573   5.473   5.627   6.255
 7700SOL    HW235574   5.328   5.592   6.187
 7701SOL     OW35575   4.622   5.693   1.902
 7701SOL    HW135576   4.620   5.643   1.989
 7701SOL    HW235577   4.541   5.751   1.895
 7702SOL     OW35578   3.962   1.029   6.037
 7702SOL    HW135579   4.004   0.976   6.111
 7702SOL    HW235580   3.943   1.121   6.069
 7703SOL     OW35581   2.636   4.202   5.840
 7703SOL    HW135582   2.631   4.189   5.741
 7703SOL    HW235583   2.730   4.222   5.867
 7704SOL     OW35584   2.964   5.681   4.717
 7704SOL    HW135585   2.973   5.583   4.700
 7704SOL    HW235586   2.892   5.697   4.784
 7705SOL     OW35587   4.773   6.995   1.117
 7705SOL    HW135588   4.799   7.083   1.078
 7705SOL    HW235589   4.808   6.988   1.211
 7706SOL     OW35590   0.779   0.974   1.636
 7706SOL    HW135591   0.757   0.883   1.599
 7706SOL    HW235592   0.876   0.978   1.658
 7707SOL     OW35593   2.149   1.186   1.079
 7707SOL    HW135594   2.148   1.143   0.989
 7707SOL    HW235595   2.160   1.116   1.150
 7708SOL     OW35596   3.914   2.697   4.631
 7708SOL    HW135597   3.871   2.777   4.588
 7708SOL    HW235598   4.013   2.711   4.635
 7709SOL     OW35599   2.273   1.953   0.758
 7709SOL    HW135600   2.311   1.889   0.692
 7709SOL    HW235601   2.326   2.037   0.758
 7710SOL     OW35602   0.242   2.482   6.513
 7710SOL    HW135603   0.211   2.481   6.609
 7710SOL    HW235604   0.279   2.392   6.490
 7711SOL     OW35605   1.624   0.147   3.751
 7711SOL    HW135606   1.550   0.214   3.742
 7711SOL    HW235607   1.711   0.195   3.750
 7712SOL     OW35608   5.578   5.028   4.877
 7712SOL    HW135609   5.660   5.002   4.826
 7712SOL    HW235610   5.602   5.052   4.971
 7713SOL     OW35611   4.210   7.265   0.885
 7713SOL    HW135612   4.115   7.267   0.853
 7713SOL    HW235613   4.270   7.293   0.810
 7714SOL     OW35614   0.755   5.607   6.643
 7714SOL    HW135615   0.685   5.678   6.638
 7714SOL    HW235616   0.746   5.545   6.565
 7715SOL     OW35617   7.186   3.282   5.174
 7715SOL    HW135618   7.164   3.377   5.152
 7715SOL    HW235619   7.118   3.221   5.133
 7716SOL     OW35620   5.619   6.363   2.224
 7716SOL    HW135621   5.605   6.455   2.258
 7716SOL    HW235622   5.712   6.355   2.188
 7717SOL     OW35623   4.727   6.880   7.247
 7717SOL    HW135624   4.705   6.944   7.174
 7717SOL    HW235625   4.768   6.797   7.208
 7718SOL     OW35626   6.996   3.706   5.550
 7718SOL    HW135627   6.995   3.784   5.613
 7718SOL    HW235628   6.962   3.735   5.461
 7719SOL     OW35629   1.264   3.850   1.238
 7719SOL    HW135630   1.232   3.759   1.265
 7719SOL    HW235631   1.294   3.848   1.143
 7720SOL     OW35632   4.607   0.358   0.157
 7720SOL    HW135633   4.561   0.436   0.199
 7720SOL    HW235634   4.548   0.278   0.161
 7721SOL     OW35635   6.712   0.561   1.447
 7721SOL    HW135636   6.747   0.492   1.384
 7721SOL    HW235637   6.613   0.555   1.451
 7722SOL     OW35638   1.936   6.899   1.629
 7722SOL    HW135639   1.980   6.970   1.574
 7722SOL    HW235640   1.874   6.941   1.695
 7723SOL     OW35641   2.992   1.638   6.661
 7723SOL    HW135642   2.918   1.624   6.726
 7723SOL    HW235643   2.959   1.695   6.585
 7724SOL     OW35644   3.229   4.854   5.458
 7724SOL    HW135645   3.164   4.924   5.486
 7724SOL    HW235646   3.319   4.896   5.443
 7725SOL     OW35647   2.928   5.403   4.687
 7725SOL    HW135648   2.854   5.362   4.740
 7725SOL    HW235649   3.004   5.338   4.680
 7726SOL     OW35650   1.871   2.068   3.143
 7726SOL    HW135651   1.959   2.099   3.180
 7726SOL    HW235652   1.886   1.988   3.085
 7727SOL     OW35653   4.776   1.475   4.014
 7727SOL    HW135654   4.825   1.435   4.092
 7727SOL    HW235655   4.811   1.437   3.929
 7728SOL     OW35656   6.276   2.531   4.667
 7728SOL    HW135657   6.270   2.558   4.763
 7728SOL    HW235658   6.255   2.609   4.608
 7729SOL     OW35659   5.464   0.716   1.278
 7729SOL    HW135660   5.479   0.663   1.195
 7729SOL    HW235661   5.366   0.726   1.293
 7730SOL     OW35662   1.934   1.248   6.893
 7730SOL    HW135663   2.011   1.251   6.830
 7730SOL    HW235664   1.896   1.156   6.896
 7731SOL     OW35665   1.760   2.920   1.660
 7731SOL    HW135666   1.734   2.877   1.573
 7731SOL    HW235667   1.734   3.016   1.660
 7732SOL     OW35668   3.517   4.959   3.942
 7732SOL    HW135669   3.422   4.970   3.913
 7732SOL    HW235670   3.521   4.941   4.040
 7733SOL     OW35671   0.351   3.398   6.266
 7733SOL    HW135672   0.417   3.338   6.220
 7733SOL    HW235673   0.397   3.450   6.338
 7734SOL     OW35674   2.884   2.589   3.777
 7734SOL    HW135675   2.926   2.532   3.847
 7734SOL    HW235676   2.824   2.657   3.820
 7735SOL     OW35677   1.538   4.090   1.226
 7735SOL    HW135678   1.505   4.035   1.302
 7735SOL    HW235679   1.619   4.046   1.186
 7736SOL     OW35680   0.231   0.498   1.396
 7736SOL    HW135681   0.156   0.450   1.351
 7736SOL    HW235682   0.205   0.593   1.411
 7737SOL     OW35683   2.006   3.821   0.780
 7737SOL    HW135684   2.083   3.789   0.726
 7737SOL    HW235685   2.004   3.921   0.780
 7738SOL     OW35686   0.652   0.503   1.049
 7738SOL    HW135687   0.636   0.573   0.979
 7738SOL    HW235688   0.717   0.537   1.117
 7739SOL     OW35689   2.447   1.585   6.119
 7739SOL    HW135690   2.460   1.684   6.126
 7739SOL    HW235691   2.354   1.562   6.144
 7740SOL     OW35692   3.798   2.051   2.835
 7740SOL    HW135693   3.864   2.101   2.779
 7740SOL    HW235694   3.824   1.954   2.838
 7741SOL     OW35695   0.975   3.750   1.468
 7741SOL    HW135696   0.994   3.834   1.417
 7741SOL    HW235697   0.876   3.738   1.477
 7742SOL     OW35698   2.742   0.393   7.291
 7742SOL    HW135699   2.758   0.410   7.388
 7742SOL    HW235700   2.799   0.453   7.236
 7743SOL     OW35701   2.118   3.691   5.928
 7743SOL    HW135702   2.058   3.617   5.900
 7743SOL    HW235703   2.064   3.766   5.965
 7744SOL     OW35704   0.184   6.211   6.502
 7744SOL    HW135705   0.224   6.214   6.411
 7744SOL    HW235706   0.252   6.240   6.569
 7745SOL     OW35707   5.416   7.163   2.918
 7745SOL    HW135708   5.504   7.136   2.878
 7745SOL    HW235709   5.361   7.082   2.936
 7746SOL     OW35710   1.845   3.623   2.660
 7746SOL    HW135711   1.899   3.642   2.743
 7746SOL    HW235712   1.897   3.563   2.599
 7747SOL     OW35713   6.117   3.010   3.020
 7747SOL    HW135714   6.076   3.047   3.103
 7747SOL    HW235715   6.122   3.081   2.950
 7748SOL     OW35716   1.904   2.849   4.241
 7748SOL    HW135717   1.952   2.837   4.154
 7748SOL    HW235718   1.874   2.760   4.275
 7749SOL     OW35719   5.662   7.054   3.117
 7749SOL    HW135720   5.655   7.051   3.017
 7749SOL    HW235721   5.674   7.149   3.147
 7750SOL     OW35722   4.357   6.243   6.405
 7750SOL    HW135723   4.410   6.160   6.422
 7750SOL    HW235724   4.275   6.220   6.353
 7751SOL     OW35725   3.717   1.111   5.185
 7751SOL    HW135726   3.731   1.194   5.131
 7751SOL    HW235727   3.804   1.084   5.227
 7752SOL     OW35728   6.997   0.818   1.023
 7752SOL    HW135729   7.096   0.810   1.033
 7752SOL    HW235730   6.972   0.809   0.927
 7753SOL     OW35731   5.622   4.386   1.215
 7753SOL    HW135732   5.624   4.387   1.115
 7753SOL    HW235733   5.638   4.479   1.249
 7754SOL     OW35734   3.529   1.820   6.244
 7754SOL    HW135735   3.501   1.739   6.294
 7754SOL    HW235736   3.624   1.810   6.214
 7755SOL     OW35737   5.834   6.645   2.169
 7755SOL    HW135738   5.745   6.647   2.214
 7755SOL    HW235739   5.861   6.550   2.152
 7756SOL     OW35740   0.083   4.770   0.435
 7756SOL    HW135741   0.054   4.840   0.500
 7756SOL    HW235742   0.164   4.802   0.386
 7757SOL     OW35743   6.965   7.300   6.919
 7757SOL    HW135744   6.964   7.390   6.961
 7757SOL    HW235745   7.031   7.241   6.965
 7758SOL     OW35746   2.900   0.201   5.183
 7758SOL    HW135747   2.988   0.230   5.222
 7758SOL    HW235748   2.912   0.183   5.085
 7759SOL     OW35749   6.774   4.103   1.766
 7759SOL    HW135750   6.872   4.123   1.763
 7759SOL    HW235751   6.737   4.126   1.856
 7760SOL     OW35752   6.080   1.902   2.862
 7760SOL    HW135753   6.005   1.854   2.817
 7760SOL    HW235754   6.101   1.857   2.949
 7761SOL     OW35755   5.249   2.003   4.278
 7761SOL    HW135756   5.199   2.082   4.314
 7761SOL    HW235757   5.290   1.952   4.354
 7762SOL     OW35758   0.815   2.627   7.335
 7762SOL    HW135759   0.775   2.579   7.257
 7762SOL    HW235760   0.784   2.722   7.335
 7763SOL     OW35761   3.178   5.941   1.648
 7763SOL    HW135762   3.184   6.028   1.599
 7763SOL    HW235763   3.206   5.867   1.588
 7764SOL     OW35764   0.031   4.349   1.774
 7764SOL    HW135765   0.029   4.341   1.674
 7764SOL    HW235766   0.115   4.309   1.809
 7765SOL     OW35767   1.630   2.807   3.288
 7765SOL    HW135768   1.723   2.806   3.251
 7765SOL    HW235769   1.581   2.726   3.255
 7766SOL     OW35770   1.565   7.337   6.112
 7766SOL    HW135771   1.506   7.299   6.183
 7766SOL    HW235772   1.582   7.434   6.131
 7767SOL     OW35773   5.898   3.886   6.233
 7767SOL    HW135774   5.884   3.981   6.205
 7767SOL    HW235775   5.866   3.825   6.160
 7768SOL     OW35776   5.215   6.231   2.668
 7768SOL    HW135777   5.188   6.218   2.573
 7768SOL    HW235778   5.239   6.143   2.709
 7769SOL     OW35779   3.714   3.054   7.154
 7769SOL    HW135780   3.621   3.065   7.118
 7769SOL    HW235781   3.770   3.006   7.086
 7770SOL     OW35782   2.167   7.093   2.466
 7770SOL    HW135783   2.174   7.179   2.515
 7770SOL    HW235784   2.086   7.043   2.498
 7771SOL     OW35785   3.288   6.721   1.586
 7771SOL    HW135786   3.195   6.740   1.553
 7771SOL    HW235787   3.346   6.800   1.567
 7772SOL     OW35788   2.948   5.116   4.310
 7772SOL    HW135789   3.034   5.121   4.259
 7772SOL    HW235790   2.892   5.196   4.288
 7773SOL     OW35791   0.923   0.624   1.403
 7773SOL    HW135792   0.909   0.531   1.369
 7773SOL    HW235793   0.842   0.654   1.452
 7774SOL     OW35794   2.978   4.018   4.710
 7774SOL    HW135795   2.945   3.964   4.632
 7774SOL    HW235796   3.056   4.073   4.681
 7775SOL     OW35797   4.984   4.479   5.881
 7775SOL    HW135798   4.921   4.407   5.910
 7775SOL    HW235799   5.069   4.437   5.847
 7776SOL     OW35800   3.771   1.310   7.041
 7776SOL    HW135801   3.786   1.279   6.947
 7776SOL    HW235802   3.849   1.283   7.098
 7777SOL     OW35803   3.969   0.864   0.257
 7777SOL    HW135804   4.002   0.811   0.179
 7777SOL    HW235805   4.015   0.832   0.341
 7778SOL     OW35806   0.152   2.581   3.362
 7778SOL    HW135807   0.202   2.577   3.448
 7778SOL    HW235808   0.107   2.494   3.345
 7779SOL     OW35809   3.120   6.442   6.011
 7779SOL    HW135810   3.090   6.460   6.104
 7779SOL    HW235811   3.177   6.518   5.979
 7780SOL     OW35812   1.361   0.209   7.075
 7780SOL    HW135813   1.443   0.152   7.079
 7780SOL    HW235814   1.352   0.248   6.983
 7781SOL     OW35815   5.489   4.182   3.947
 7781SOL    HW135816   5.532   4.226   3.868
 7781SOL    HW235817   5.480   4.084   3.930
 7782SOL     OW35818   6.027   2.529   2.529
 7782SOL    HW135819   5.990   2.594   2.595
 7782SOL    HW235820   5.988   2.438   2.548
 7783SOL     OW35821   5.398   5.935   7.134
 7783SOL    HW135822   5.397   5.835   7.142
 7783SOL    HW235823   5.335   5.975   7.201
 7784SOL     OW35824   0.855   5.800   4.601
 7784SOL    HW135825   0.951   5.801   4.572
 7784SOL    HW235826   0.824   5.893   4.620
 7785SOL     OW35827   5.523   0.991   2.862
 7785SOL    HW135828   5.552   0.914   2.805
 7785SOL    HW235829   5.439   0.966   2.910
 7786SOL     OW35830   6.396   4.936   7.007
 7786SOL    HW135831   6.362   4.842   6.999
 7786SOL    HW235832   6.326   4.994   7.048
 7787SOL     OW35833   5.395   0.935   6.956
 7787SOL    HW135834   5.371   0.976   6.868
 7787SOL    HW235835   5.435   1.005   7.016
 7788SOL     OW35836   2.289   5.527   7.193
 7788SOL    HW135837   2.363   5.462   7.213
 7788SOL    HW235838   2.203   5.477   7.182
 7789SOL     OW35839   2.500   5.069   0.859
 7789SOL    HW135840   2.554   5.148   0.889
 7789SOL    HW235841   2.403   5.094   0.857
 7790SOL     OW35842   2.107   2.078   5.923
 7790SOL    HW135843   2.053   2.136   5.984
 7790SOL    HW235844   2.050   2.047   5.847
 7791SOL     OW35845   3.659   6.337   5.337
 7791SOL    HW135846   3.725   6.266   5.363
 7791SOL    HW235847   3.692   6.426   5.369
 7792SOL     OW35848   5.586   6.642   2.300
 7792SOL    HW135849   5.581   6.615   2.396
 7792SOL    HW235850   5.579   6.741   2.293
 7793SOL     OW35851   6.137   6.031   2.475
 7793SOL    HW135852   6.147   5.969   2.553
 7793SOL    HW235853   6.202   6.107   2.484
 7794SOL     OW35854   4.496   3.323   3.496
 7794SOL    HW135855   4.425   3.328   3.566
 7794SOL    HW235856   4.455   3.303   3.408
 7795SOL     OW35857   0.382   2.253   6.430
 7795SOL    HW135858   0.440   2.253   6.348
 7795SOL    HW235859   0.441   2.258   6.511
 7796SOL     OW35860   6.184   4.105   0.253
 7796SOL    HW135861   6.239   4.023   0.267
 7796SOL    HW235862   6.223   4.180   0.307
 7797SOL     OW35863   5.921   6.224   4.618
 7797SOL    HW135864   5.864   6.161   4.671
 7797SOL    HW235865   5.873   6.312   4.607
 7798SOL     OW35866   5.669   5.416   4.786
 7798SOL    HW135867   5.662   5.436   4.884
 7798SOL    HW235868   5.578   5.421   4.745
 7799SOL     OW35869   5.402   5.048   4.074
 7799SOL    HW135870   5.437   4.980   4.138
 7799SOL    HW235871   5.305   5.032   4.058
 7800SOL     OW35872   5.463   1.756   0.770
 7800SOL    HW135873   5.384   1.790   0.719
 7800SOL    HW235874   5.466   1.656   0.766
 7801SOL     OW35875   4.336   6.151   3.445
 7801SOL    HW135876   4.316   6.228   3.384
 7801SOL    HW235877   4.422   6.168   3.494
 7802SOL     OW35878   1.547   7.400   4.165
 7802SOL    HW135879   1.595   7.441   4.243
 7802SOL    HW235880   1.613   7.377   4.094
 7803SOL     OW35881   4.822   1.543   2.817
 7803SOL    HW135882   4.834   1.487   2.898
 7803SOL    HW235883   4.801   1.637   2.844
 7804SOL     OW35884   0.710   2.905   0.697
 7804SOL    HW135885   0.653   2.851   0.759
 7804SOL    HW235886   0.711   3.000   0.728
 7805SOL     OW35887   1.490   3.123   3.555
 7805SOL    HW135888   1.415   3.116   3.621
 7805SOL    HW235889   1.540   3.037   3.552
 7806SOL     OW35890   2.415   2.495   0.462
 7806SOL    HW135891   2.458   2.489   0.372
 7806SOL    HW235892   2.345   2.425   0.471
 7807SOL     OW35893   3.065   6.963   5.369
 7807SOL    HW135894   3.114   6.925   5.290
 7807SOL    HW235895   3.102   6.922   5.453
 7808SOL     OW35896   2.329   3.143   0.928
 7808SOL    HW135897   2.382   3.104   1.003
 7808SOL    HW235898   2.279   3.070   0.881
 7809SOL     OW35899   3.625   6.034   4.966
 7809SOL    HW135900   3.706   5.982   4.939
 7809SOL    HW235901   3.570   6.054   4.885
 7810SOL     OW35902   3.423   8.993   0.257
 7810SOL    HW135903   3.422   0.001   0.356
 7810SOL    HW235904   3.438   0.084   0.216
 7811SOL     OW35905   0.503   6.249   7.341
 7811SOL    HW135906   0.567   6.306   7.290
 7811SOL    HW235907   0.410   6.268   7.309
 7812SOL     OW35908   6.699   6.172   6.243
 7812SOL    HW135909   6.626   6.236   6.219
 7812SOL    HW235910   6.779   6.190   6.186
 7813SOL     OW35911   0.325   5.927   6.225
 7813SOL    HW135912   0.417   5.900   6.252
 7813SOL    HW235913   0.317   6.027   6.227
 7814SOL     OW35914   0.013   2.815   3.320
 7814SOL    HW135915   8.963   2.816   3.407
 7814SOL    HW235916   0.071   2.734   3.315
 7815SOL     OW35917   5.684   7.359   7.252
 7815SOL    HW135918   5.714   7.396   7.163
 7815SOL    HW235919   5.747   7.288   7.281
 7816SOL     OW35920   5.528   3.700   4.496
 7816SOL    HW135921   5.545   3.627   4.561
 7816SOL    HW235922   5.611   3.755   4.484
 7817SOL     OW35923   5.777   1.504   6.965
 7817SOL    HW135924   5.690   1.483   7.011
 7817SOL    HW235925   5.761   1.571   6.893
 7818SOL     OW35926   7.169   5.569   5.088
 7818SOL    HW135927   7.105   5.529   5.022
 7818SOL    HW235928   7.253   5.515   5.090
 7819SOL     OW35929   5.130   2.706   5.267
 7819SOL    HW135930   5.030   2.712   5.266
 7819SOL    HW235931   5.159   2.650   5.344
 7820SOL     OW35932   7.005   2.168   3.935
 7820SOL    HW135933   7.083   2.162   3.873
 7820SOL    HW235934   7.028   2.228   4.012
 7821SOL     OW35935   3.183   0.237   5.723
 7821SOL    HW135936   3.216   0.306   5.658
 7821SOL    HW235937   3.135   0.283   5.798
 7822SOL     OW35938   3.276   0.832   4.683
 7822SOL    HW135939   3.212   0.756   4.680
 7822SOL    HW235940   3.227   0.918   4.700
 7823SOL     OW35941   3.462   0.501   3.198
 7823SOL    HW135942   3.492   0.540   3.110
 7823SOL    HW235943   3.363   0.493   3.198
 7824SOL     OW35944   7.231   3.543   2.580
 7824SOL    HW135945   7.181   3.597   2.511
 7824SOL    HW235946   7.180   3.460   2.599
 7825SOL     OW35947   5.449   5.899   6.096
 7825SOL    HW135948   5.429   5.813   6.144
 7825SOL    HW235949   5.430   5.976   6.156
 7826SOL     OW35950   5.212   4.189   1.145
 7826SOL    HW135951   5.149   4.247   1.093
 7826SOL    HW235952   5.255   4.123   1.084
 7827SOL     OW35953   3.785   2.636   2.607
 7827SOL    HW135954   3.794   2.736   2.608
 7827SOL    HW235955   3.813   2.600   2.696
 7828SOL     OW35956   2.477   4.421   7.163
 7828SOL    HW135957   2.392   4.370   7.153
 7828SOL    HW235958   2.545   4.386   7.099
 7829SOL     OW35959   7.090   0.010   2.456
 7829SOL    HW135960   7.000   8.974   2.479
 7829SOL    HW235961   7.160   8.945   2.483
 7830SOL     OW35962   3.579   6.105   1.417
 7830SOL    HW135963   3.663   6.160   1.416
 7830SOL    HW235964   3.588   6.031   1.351
 7831SOL     OW35965   2.770   3.962   1.169
 7831SOL    HW135966   2.680   4.004   1.178
 7831SOL    HW235967   2.763   3.864   1.189
 7832SOL     OW35968   4.405   6.576   3.397
 7832SOL    HW135969   4.488   6.529   3.427
 7832SOL    HW235970   4.428   6.641   3.324
 7833SOL     OW35971   6.229   1.584   2.074
 7833SOL    HW135972   6.306   1.538   2.118
 7833SOL    HW235973   6.233   1.682   2.093
 7834SOL     OW35974   4.230   0.361   2.773
 7834SOL    HW135975   4.166   0.407   2.711
 7834SOL    HW235976   4.275   0.429   2.830
 7835SOL     OW35977   6.490   8.954   1.700
 7835SOL    HW135978   6.459   8.942   1.606
 7835SOL    HW235979   6.515   0.050   1.715
 7836SOL     OW35980   3.586   3.702   2.582
 7836SOL    HW135981   3.644   3.709   2.663
 7836SOL    HW235982   3.513   3.636   2.599
 7837SOL     OW35983   0.558   0.638   5.635
 7837SOL    HW135984   0.552   0.539   5.629
 7837SOL    HW235985   0.630   0.663   5.700
 7838SOL     OW35986   3.407   5.480   4.019
 7838SOL    HW135987   3.358   5.446   3.939
 7838SOL    HW235988   3.463   5.559   3.993
 7839SOL     OW35989   5.260   5.196   1.374
 7839SOL    HW135990   5.273   5.113   1.320
 7839SOL    HW235991   5.204   5.261   1.321
 7840SOL     OW35992   5.454   4.877   6.063
 7840SOL    HW135993   5.423   4.876   6.158
 7840SOL    HW235994   5.414   4.799   6.015
 7841SOL     OW35995   2.824   5.381   6.307
 7841SOL    HW135996   2.786   5.470   6.284
 7841SOL    HW235997   2.781   5.347   6.390
 7842SOL     OW35998   1.574   0.482   0.118
 7842SOL    HW135999   1.614   0.420   0.186
 7842SOL    HW236000   1.528   0.428   0.047
 7843SOL     OW36001   0.122   7.054   5.838
 7843SOL    HW136002   0.196   7.073   5.774
 7843SOL    HW236003   0.087   6.961   5.822
 7844SOL     OW36004   4.203   3.396   0.552
 7844SOL    HW136005   4.139   3.364   0.622
 7844SOL    HW236006   4.238   3.486   0.577
 7845SOL     OW36007   5.702   2.000   0.361
 7845SOL    HW136008   5.786   1.996   0.307
 7845SOL    HW236009   5.709   2.075   0.427
 7846SOL     OW36010   3.896   0.272   0.781
 7846SOL    HW136011   3.867   0.281   0.876
 7846SOL    HW236012   3.843   0.334   0.724
 7847SOL     OW36013   0.269   2.584   3.617
 7847SOL    HW136014   0.245   2.502   3.669
 7847SOL    HW236015   0.272   2.663   3.678
 7848SOL     OW36016   1.118   4.432   3.469
 7848SOL    HW136017   1.035   4.389   3.433
 7848SOL    HW236018   1.173   4.364   3.517
 7849SOL     OW36019   6.561   6.655   1.189
 7849SOL    HW136020   6.585   6.711   1.110
 7849SOL    HW236021   6.555   6.714   1.270
 7850SOL     OW36022   3.533   1.811   2.326
 7850SOL    HW136023   3.611   1.753   2.351
 7850SOL    HW236024   3.538   1.833   2.229
 7851SOL     OW36025   2.007   6.113   7.266
 7851SOL    HW136026   2.012   6.014   7.282
 7851SOL    HW236027   2.084   6.158   7.310
 7852SOL     OW36028   6.921   6.475   7.053
 7852SOL    HW136029   6.909   6.421   6.970
 7852SOL    HW236030   6.832   6.503   7.088
 7853SOL     OW36031   6.678   7.087   2.097
 7853SOL    HW136032   6.689   7.156   2.025
 7853SOL    HW236033   6.767   7.056   2.127
 7854SOL     OW36034   6.780   3.271   7.080
 7854SOL    HW136035   6.780   3.173   7.059
 7854SOL    HW236036   6.742   3.321   7.002
 7855SOL     OW36037   2.589   1.222   2.311
 7855SOL    HW136038   2.547   1.264   2.392
 7855SOL    HW236039   2.648   1.147   2.339
 7856SOL     OW36040   4.677   6.002   3.418
 7856SOL    HW136041   4.658   5.918   3.469
 7856SOL    HW236042   4.642   6.080   3.469
 7857SOL     OW36043   1.347   4.108   5.592
 7857SOL    HW136044   1.323   4.110   5.495
 7857SOL    HW236045   1.292   4.176   5.641
 7858SOL     OW36046   6.884   5.993   2.774
 7858SOL    HW136047   6.902   6.033   2.864
 7858SOL    HW236048   6.820   5.916   2.784
 7859SOL     OW36049   7.178   6.913   6.878
 7859SOL    HW136050   7.159   6.821   6.913
 7859SOL    HW236051   7.272   6.916   6.843
 7860SOL     OW36052   5.553   1.420   1.496
 7860SOL    HW136053   5.578   1.379   1.409
 7860SOL    HW236054   5.564   1.519   1.490
 7861SOL     OW36055   1.784   3.414   3.382
 7861SOL    HW136056   1.858   3.384   3.322
 7861SOL    HW236057   1.703   3.436   3.327
 7862SOL     OW36058   6.183   4.690   0.722
 7862SOL    HW136059   6.164   4.616   0.786
 7862SOL    HW236060   6.238   4.760   0.767
 7863SOL     OW36061   1.366   2.951   0.151
 7863SOL    HW136062   1.362   2.851   0.159
 7863SOL    HW236063   1.353   2.992   0.241
 7864SOL     OW36064   6.504   0.032   0.257
 7864SOL    HW136065   6.567   0.072   0.323
 7864SOL    HW236066   6.513   0.080   0.169
 7865SOL     OW36067   6.382   5.988   6.005
 7865SOL    HW136068   6.419   6.080   5.990
 7865SOL    HW236069   6.448   5.920   5.970
 7866SOL     OW36070   6.747   3.303   6.618
 7866SOL    HW136071   6.723   3.331   6.711
 7866SOL    HW236072   6.846   3.302   6.608
 7867SOL     OW36073   2.155   2.153   2.529
 7867SOL    HW136074   2.104   2.164   2.443
 7867SOL    HW236075   2.183   2.057   2.539
 7868SOL     OW36076   3.571   2.881   4.706
 7868SOL    HW136077   3.503   2.954   4.699
 7868SOL    HW236078   3.585   2.857   4.802
 7869SOL     OW36079   0.180   4.621   3.573
 7869SOL    HW136080   0.251   4.684   3.541
 7869SOL    HW236081   0.147   4.651   3.663
 7870SOL     OW36082   0.433   4.162   0.812
 7870SOL    HW136083   0.506   4.141   0.747
 7870SOL    HW236084   0.398   4.254   0.794
 7871SOL     OW36085   4.366   0.698   0.862
 7871SOL    HW136086   4.342   0.614   0.911
 7871SOL    HW236087   4.459   0.690   0.825
 7872SOL     OW36088   1.643   1.752   1.154
 7872SOL    HW136089   1.693   1.737   1.069
 7872SOL    HW236090   1.634   1.666   1.204
 7873SOL     OW36091   4.977   0.045   2.408
 7873SOL    HW136092   4.988   8.946   2.394
 7873SOL    HW236093   5.004   0.093   2.324
 7874SOL     OW36094   5.162   4.588   0.873
 7874SOL    HW136095   5.227   4.518   0.846
 7874SOL    HW236096   5.201   4.646   0.944
 7875SOL     OW36097   1.970   1.924   2.075
 7875SOL    HW136098   1.988   1.986   2.151
 7875SOL    HW236099   1.907   1.852   2.105
 7876SOL     OW36100   3.224   0.528   2.626
 7876SOL    HW136101   3.145   0.582   2.597
 7876SOL    HW236102   3.244   0.549   2.722
 7877SOL     OW36103   2.800   7.071   4.901
 7877SOL    HW136104   2.780   7.130   4.979
 7877SOL    HW236105   2.798   6.975   4.930
 7878SOL     OW36106   0.062   5.624   7.101
 7878SOL    HW136107   0.128   5.617   7.026
 7878SOL    HW236108   0.071   5.713   7.145
 7879SOL     OW36109   6.638   4.545   6.639
 7879SOL    HW136110   6.590   4.488   6.706
 7879SOL    HW236111   6.691   4.614   6.687
 7880SOL     OW36112   6.874   2.728   6.028
 7880SOL    HW136113   6.886   2.630   6.043
 7880SOL    HW236114   6.949   2.763   5.973
 7881SOL     OW36115   1.568   0.868   2.953
 7881SOL    HW136116   1.615   0.793   3.001
 7881SOL    HW236117   1.581   0.858   2.855
 7882SOL     OW36118   5.210   4.092   0.581
 7882SOL    HW136119   5.292   4.119   0.530
 7882SOL    HW236120   5.143   4.053   0.519
 7883SOL     OW36121   3.184   7.237   5.684
 7883SOL    HW136122   3.146   7.230   5.592
 7883SOL    HW236123   3.192   7.333   5.710
 7884SOL     OW36124   2.537   3.991   5.187
 7884SOL    HW136125   2.636   3.993   5.176
 7884SOL    HW236126   2.502   4.084   5.190
 7885SOL     OW36127   1.357   1.291   7.221
 7885SOL    HW136128   1.321   1.335   7.303
 7885SOL    HW236129   1.395   1.360   7.160
 7886SOL     OW36130   0.097   0.675   5.776
 7886SOL    HW136131   0.032   0.745   5.806
 7886SOL    HW236132   0.181   0.719   5.746
 7887SOL     OW36133   2.129   4.491   1.831
 7887SOL    HW136134   2.203   4.486   1.764
 7887SOL    HW236135   2.166   4.478   1.923
 7888SOL     OW36136   3.293   1.292   7.000
 7888SOL    HW136137   3.363   1.241   7.050
 7888SOL    HW236138   3.336   1.367   6.949
 7889SOL     OW36139   2.526   6.656   0.120
 7889SOL    HW136140   2.521   6.754   0.106
 7889SOL    HW236141   2.465   6.630   0.194
 7890SOL     OW36142   2.633   5.640   4.103
 7890SOL    HW136143   2.559   5.592   4.151
 7890SOL    HW236144   2.618   5.633   4.005
 7891SOL     OW36145   2.841   7.074   1.306
 7891SOL    HW136146   2.833   6.986   1.354
 7891SOL    HW236147   2.874   7.144   1.370
 7892SOL     OW36148   3.111   5.597   2.075
 7892SOL    HW136149   3.208   5.602   2.099
 7892SOL    HW236150   3.059   5.656   2.137
 7893SOL     OW36151   4.950   6.869   3.877
 7893SOL    HW136152   4.991   6.952   3.839
 7893SOL    HW236153   4.856   6.888   3.903
 7894SOL     OW36154   6.230   1.887   2.608
 7894SOL    HW136155   6.211   1.897   2.706
 7894SOL    HW236156   6.216   1.976   2.563
 7895SOL     OW36157   3.561   0.264   3.949
 7895SOL    HW136158   3.552   0.219   4.039
 7895SOL    HW236159   3.593   0.197   3.882
 7896SOL     OW36160   4.102   1.877   4.466
 7896SOL    HW136161   4.042   1.852   4.542
 7896SOL    HW236162   4.193   1.899   4.502
 7897SOL     OW36163   0.232   5.490   5.883
 7897SOL    HW136164   0.264   5.498   5.789
 7897SOL    HW236165   0.236   5.579   5.928
 7898SOL     OW36166   5.611   2.205   0.175
 7898SOL    HW136167   5.623   2.119   0.224
 7898SOL    HW236168   5.519   2.241   0.194
 7899SOL     OW36169   2.482   4.460   0.491
 7899SOL    HW136170   2.405   4.441   0.431
 7899SOL    HW236171   2.549   4.386   0.485
 7900SOL     OW36172   5.045   6.232   3.740
 7900SOL    HW136173   5.047   6.317   3.793
 7900SOL    HW236174   5.042   6.254   3.643
 7901SOL     OW36175   2.688   2.038   4.078
 7901SOL    HW136176   2.617   2.009   4.143
 7901SOL    HW236177   2.767   2.071   4.128
 7902SOL     OW36178   4.953   3.772   6.027
 7902SOL    HW136179   4.910   3.826   6.100
 7902SOL    HW236180   4.885   3.711   5.987
 7903SOL     OW36181   3.109   0.985   6.605
 7903SOL    HW136182   3.157   0.899   6.589
 7903SOL    HW236183   3.162   1.043   6.666
 7904SOL     OW36184   6.119   3.513   1.165
 7904SOL    HW136185   6.173   3.454   1.224
 7904SOL    HW236186   6.179   3.577   1.117
 7905SOL     OW36187   5.263   4.627   5.659
 7905SOL    HW136188   5.251   4.536   5.699
 7905SOL    HW236189   5.205   4.635   5.578
 7906SOL     OW36190   1.140   3.042   0.815
 7906SOL    HW136191   1.086   2.975   0.764
 7906SOL    HW236192   1.157   3.008   0.908
 7907SOL     OW36193   7.261   3.801   4.440
 7907SOL    HW136194   7.305   3.712   4.421
 7907SOL    HW236195   7.232   3.803   4.535
 7908SOL     OW36196   1.787   3.172   0.861
 7908SOL    HW136197   1.811   3.177   0.764
 7908SOL    HW236198   1.853   3.113   0.909
 7909SOL     OW36199   2.769   0.438   0.172
 7909SOL    HW136200   2.724   0.351   0.195
 7909SOL    HW236201   2.867   0.429   0.188
 7910SOL     OW36202   4.946   5.773   5.409
 7910SOL    HW136203   4.849   5.751   5.410
 7910SOL    HW236204   4.984   5.762   5.501
 7911SOL     OW36205   0.295   6.265   1.858
 7911SOL    HW136206   0.353   6.207   1.801
 7911SOL    HW236207   0.242   6.207   1.921
 7912SOL     OW36208   1.133   4.128   2.025
 7912SOL    HW136209   1.074   4.050   2.006
 7912SOL    HW236210   1.162   4.169   1.939
 7913SOL     OW36211   0.157   4.898   3.841
 7913SOL    HW136212   0.142   4.799   3.841
 7913SOL    HW236213   0.232   4.920   3.779
 7914SOL     OW36214   4.701   3.562   5.244
 7914SOL    HW136215   4.756   3.604   5.316
 7914SOL    HW236216   4.662   3.633   5.185
 7915SOL     OW36217   5.102   6.088   6.156
 7915SOL    HW136218   5.020   6.133   6.190
 7915SOL    HW236219   5.111   5.998   6.200
 7916SOL     OW36220   2.288   5.997   2.518
 7916SOL    HW136221   2.270   5.910   2.565
 7916SOL    HW236222   2.222   6.009   2.444
 7917SOL     OW36223   7.165   3.557   5.089
 7917SOL    HW136224   7.136   3.653   5.085
 7917SOL    HW236225   7.260   3.553   5.119
 7918SOL     OW36226   5.747   5.236   3.963
 7918SOL    HW136227   5.736   5.228   4.062
 7918SOL    HW236228   5.666   5.199   3.918
 7919SOL     OW36229   2.382   4.198   0.307
 7919SOL    HW136230   2.454   4.238   0.252
 7919SOL    HW236231   2.315   4.268   0.332
 7920SOL     OW36232   5.483   3.072   3.215
 7920SOL    HW136233   5.392   3.113   3.217
 7920SOL    HW236234   5.487   3.005   3.140
 7921SOL     OW36235   6.919   4.802   1.232
 7921SOL    HW136236   6.985   4.727   1.236
 7921SOL    HW236237   6.921   4.843   1.141
 7922SOL     OW36238   1.009   3.901   6.784
 7922SOL    HW136239   1.019   3.969   6.712
 7922SOL    HW236240   1.091   3.902   6.842
 7923SOL     OW36241   1.172   2.539   0.982
 7923SOL    HW136242   1.095   2.557   1.042
 7923SOL    HW236243   1.253   2.587   1.016
 7924SOL     OW36244   2.113   4.926   1.973
 7924SOL    HW136245   2.080   4.982   2.048
 7924SOL    HW236246   2.212   4.914   1.980
 7925SOL     OW36247   5.118   4.876   2.599
 7925SOL    HW136248   5.148   4.784   2.626
 7925SOL    HW236249   5.172   4.908   2.522
 7926SOL     OW36250   2.847   6.640   5.240
 7926SOL    HW136251   2.809   6.553   5.273
 7926SOL    HW236252   2.947   6.633   5.235
 7927SOL     OW36253   3.667   6.289   5.056
 7927SOL    HW136254   3.650   6.313   5.152
 7927SOL    HW236255   3.642   6.194   5.041
 7928SOL     OW36256   4.586   7.020   4.942
 7928SOL    HW136257   4.560   7.019   5.039
 7928SOL    HW236258   4.528   6.956   4.891
 7929SOL     OW36259   5.198   1.254   0.940
 7929SOL    HW136260   5.142   1.189   0.889
 7929SOL    HW236261   5.276   1.206   0.981
 7930SOL     OW36262   2.992   6.945   2.120
 7930SOL    HW136263   2.932   7.001   2.177
 7930SOL    HW236264   3.087   6.969   2.140
 7931SOL     OW36265   3.922   6.961   0.814
 7931SOL    HW136266   4.021   6.959   0.827
 7931SOL    HW236267   3.897   6.896   0.742
 7932SOL     OW36268   5.645   2.877   7.276
 7932SOL    HW136269   5.618   2.821   7.354
 7932SOL    HW236270   5.740   2.858   7.252
 7933SOL     OW36271   6.950   0.311   0.300
 7933SOL    HW136272   7.034   0.267   0.330
 7933SOL    HW236273   6.950   0.407   0.327
 7934SOL     OW36274   4.667   4.573   4.979
 7934SOL    HW136275   4.577   4.555   5.018
 7934SOL    HW236276   4.699   4.492   4.931
 7935SOL     OW36277   3.560   5.130   0.938
 7935SOL    HW136278   3.546   5.033   0.918
 7935SOL    HW236279   3.612   5.172   0.864
 7936SOL     OW36280   7.298   2.696   5.122
 7936SOL    HW136281   7.334   2.772   5.176
 7936SOL    HW236282   7.280   2.727   5.029
 7937SOL     OW36283   5.433   4.650   3.336
 7937SOL    HW136284   5.383   4.729   3.301
 7937SOL    HW236285   5.469   4.670   3.427
 7938SOL     OW36286   2.360   2.711   3.253
 7938SOL    HW136287   2.276   2.756   3.285
 7938SOL    HW236288   2.431   2.779   3.240
 7939SOL     OW36289   2.760   0.657   3.412
 7939SOL    HW136290   2.667   0.669   3.375
 7939SOL    HW236291   2.800   0.746   3.433
 7940SOL     OW36292   4.181   2.747   4.675
 7940SOL    HW136293   4.250   2.820   4.686
 7940SOL    HW236294   4.226   2.662   4.649
 7941SOL     OW36295   1.576   0.872   1.660
 7941SOL    HW136296   1.651   0.818   1.622
 7941SOL    HW236297   1.557   0.842   1.753
 7942SOL     OW36298   4.734   1.636   3.133
 7942SOL    HW136299   4.781   1.550   3.110
 7942SOL    HW236300   4.731   1.695   3.053
 7943SOL     OW36301   1.630   3.576   1.058
 7943SOL    HW136302   1.575   3.565   1.141
 7943SOL    HW236303   1.617   3.668   1.021
 7944SOL     OW36304   4.903   4.423   1.060
 7944SOL    HW136305   4.871   4.509   1.021
 7944SOL    HW236306   4.955   4.441   1.143
 7945SOL     OW36307   4.446   4.152   1.782
 7945SOL    HW136308   4.511   4.229   1.787
 7945SOL    HW236309   4.427   4.118   1.873
 7946SOL     OW36310   3.651   4.636   4.266
 7946SOL    HW136311   3.659   4.609   4.170
 7946SOL    HW236312   3.739   4.621   4.311
 7947SOL     OW36313   6.920   4.635   0.692
 7947SOL    HW136314   6.945   4.622   0.788
 7947SOL    HW236315   6.859   4.561   0.663
 7948SOL     OW36316   6.779   2.962   3.614
 7948SOL    HW136317   6.868   2.918   3.600
 7948SOL    HW236318   6.734   2.923   3.694
 7949SOL     OW36319   2.920   0.492   3.575
 7949SOL    HW136320   2.976   0.571   3.603
 7949SOL    HW236321   2.840   0.525   3.525
 7950SOL     OW36322   1.725   4.232   6.643
 7950SOL    HW136323   1.706   4.224   6.545
 7950SOL    HW236324   1.673   4.163   6.693
 7951SOL     OW36325   1.985   3.315   3.221
 7951SOL    HW136326   1.957   3.288   3.129
 7951SOL    HW236327   2.033   3.240   3.266
 7952SOL     OW36328   0.701   4.076   3.386
 7952SOL    HW136329   0.656   4.087   3.475
 7952SOL    HW236330   0.636   4.037   3.321
 7953SOL     OW36331   4.164   3.061   1.654
 7953SOL    HW136332   4.081   3.052   1.600
 7953SOL    HW236333   4.206   2.971   1.666
 7954SOL     OW36334   6.568   4.731   5.334
 7954SOL    HW136335   6.519   4.648   5.310
 7954SOL    HW236336   6.569   4.794   5.256
 7955SOL     OW36337   5.945   2.823   0.087
 7955SOL    HW136338   5.911   2.736   0.051
 7955SOL    HW236339   6.039   2.811   0.118
 7956SOL     OW36340   5.201   2.536   5.810
 7956SOL    HW136341   5.105   2.533   5.781
 7956SOL    HW236342   5.233   2.444   5.828
 7957SOL     OW36343   2.576   3.604   4.146
 7957SOL    HW136344   2.577   3.505   4.151
 7957SOL    HW236345   2.542   3.633   4.056
 7958SOL     OW36346   0.203   7.276   7.045
 7958SOL    HW136347   0.303   7.274   7.048
 7958SOL    HW236348   0.166   7.207   7.107
 7959SOL     OW36349   3.973   5.900   0.039
 7959SOL    HW136350   4.015   5.954   8.967
 7959SOL    HW236351   3.874   5.897   0.025
 7960SOL     OW36352   6.603   1.730   0.361
 7960SOL    HW136353   6.598   1.776   0.272
 7960SOL    HW236354   6.697   1.698   0.376
 7961SOL     OW36355   2.737   6.861   5.100
 7961SOL    HW136356   2.778   6.780   5.143
 7961SOL    HW236357   2.640   6.846   5.086
 7962SOL     OW36358   5.430   5.131   5.979
 7962SOL    HW136359   5.512   5.177   6.014
 7962SOL    HW236360   5.429   5.036   6.009
 7963SOL     OW36361   4.817   5.649   4.302
 7963SOL    HW136362   4.752   5.718   4.267
 7963SOL    HW236363   4.905   5.692   4.319
 7964SOL     OW36364   4.683   1.498   4.610
 7964SOL    HW136365   4.620   1.500   4.533
 7964SOL    HW236366   4.654   1.564   4.679
 7965SOL     OW36367   0.817   4.493   6.702
 7965SOL    HW136368   0.791   4.474   6.607
 7965SOL    HW236369   0.735   4.492   6.760
 7966SOL     OW36370   3.095   2.746   5.183
 7966SOL    HW136371   2.998   2.722   5.181
 7966SOL    HW236372   3.124   2.775   5.092
 7967SOL     OW36373   5.836   3.506   0.243
 7967SOL    HW136374   5.858   3.490   0.339
 7967SOL    HW236375   5.742   3.477   0.225
 7968SOL     OW36376   4.543   6.058   4.754
 7968SOL    HW136377   4.638   6.089   4.765
 7968SOL    HW236378   4.540   5.958   4.759
 7969SOL     OW36379   4.591   4.933   2.863
 7969SOL    HW136380   4.626   4.957   2.772
 7969SOL    HW236381   4.503   4.977   2.877
 7970SOL     OW36382   0.506   3.946   5.151
 7970SOL    HW136383   0.577   3.878   5.172
 7970SOL    HW236384   0.547   4.037   5.150
 7971SOL     OW36385   1.209   3.364   3.394
 7971SOL    HW136386   1.230   3.423   3.472
 7971SOL    HW236387   1.293   3.319   3.362
 7972SOL     OW36388   4.617   0.414   6.027
 7972SOL    HW136389   4.694   0.369   6.073
 7972SOL    HW236390   4.648   0.448   5.937
 7973SOL     OW36391   3.933   5.026   6.834
 7973SOL    HW136392   3.870   4.982   6.771
 7973SOL    HW236393   3.882   5.069   6.908
 7974SOL     OW36394   4.494   0.262   0.927
 7974SOL    HW136395   4.414   0.205   0.946
 7974SOL    HW236396   4.517   0.255   0.830
 7975SOL     OW36397   1.209   4.115   5.354
 7975SOL    HW136398   1.157   4.030   5.345
 7975SOL    HW236399   1.145   4.190   5.373
 7976SOL     OW36400   1.065   5.478   0.470
 7976SOL    HW136401   1.132   5.428   0.415
 7976SOL    HW236402   0.973   5.463   0.433
 7977SOL     OW36403   1.935   2.499   4.556
 7977SOL    HW136404   1.854   2.450   4.590
 7977SOL    HW236405   2.016   2.443   4.570
 7978SOL     OW36406   6.680   5.240   3.032
 7978SOL    HW136407   6.687   5.152   2.984
 7978SOL    HW236408   6.747   5.304   2.994
 7979SOL     OW36409   5.112   1.310   3.008
 7979SOL    HW136410   5.092   1.219   2.971
 7979SOL    HW236411   5.176   1.357   2.947
 7980SOL     OW36412   4.870   2.868   4.774
 7980SOL    HW136413   4.896   2.833   4.684
 7980SOL    HW236414   4.800   2.938   4.764
 7981SOL     OW36415   7.126   3.078   3.474
 7981SOL    HW136416   7.178   3.051   3.392
 7981SOL    HW236417   7.087   2.996   3.516
 7982SOL     OW36418   5.248   4.375   5.362
 7982SOL    HW136419   5.334   4.335   5.394
 7982SOL    HW236420   5.246   4.375   5.262
 7983SOL     OW36421   6.122   2.755   2.925
 7983SOL    HW136422   6.118   2.848   2.963
 7983SOL    HW236423   6.089   2.690   2.994
 7984SOL     OW36424   2.228   7.055   0.473
 7984SOL    HW136425   2.292   7.131   0.484
 7984SOL    HW236426   2.139   7.080   0.511
 7985SOL     OW36427   1.801   2.003   0.848
 7985SOL    HW136428   1.736   2.063   0.894
 7985SOL    HW236429   1.873   1.975   0.912
 7986SOL     OW36430   6.305   2.000   7.196
 7986SOL    HW136431   6.253   1.917   7.212
 7986SOL    HW236432   6.403   1.979   7.193
 7987SOL     OW36433   4.801   5.493   3.133
 7987SOL    HW136434   4.747   5.574   3.110
 7987SOL    HW236435   4.740   5.414   3.141
 7988SOL     OW36436   6.613   5.186   3.289
 7988SOL    HW136437   6.516   5.163   3.291
 7988SOL    HW236438   6.641   5.203   3.195
 7989SOL     OW36439   6.553   6.836   1.403
 7989SOL    HW136440   6.478   6.794   1.453
 7989SOL    HW236441   6.608   6.891   1.466
 7990SOL     OW36442   6.045   0.443   1.124
 7990SOL    HW136443   5.950   0.465   1.146
 7990SOL    HW236444   6.054   0.344   1.112
 7991SOL     OW36445   4.613   0.954   7.027
 7991SOL    HW136446   4.673   1.035   7.024
 7991SOL    HW236447   4.668   0.872   7.011
 7992SOL     OW36448   3.911   5.528   5.996
 7992SOL    HW136449   3.986   5.473   6.031
 7992SOL    HW236450   3.838   5.468   5.962
 7993SOL     OW36451   6.111   2.263   6.945
 7993SOL    HW136452   6.206   2.233   6.941
 7993SOL    HW236453   6.065   2.239   6.860
 7994SOL     OW36454   3.529   1.180   7.107
 7994SOL    HW136455   3.614   1.226   7.080
 7994SOL    HW236456   3.498   1.218   7.194
 7995SOL     OW36457   3.705   5.294   3.999
 7995SOL    HW136458   3.792   5.327   4.036
 7995SOL    HW236459   3.643   5.271   4.075
 7996SOL     OW36460   3.480   5.831   5.576
 7996SOL    HW136461   3.537   5.864   5.501
 7996SOL    HW236462   3.413   5.901   5.601
 7997SOL     OW36463   1.715   4.280   4.320
 7997SOL    HW136464   1.639   4.296   4.383
 7997SOL    HW236465   1.735   4.364   4.270
 7998SOL     OW36466   2.528   7.008   7.208
 7998SOL    HW136467   2.446   7.062   7.227
 7998SOL    HW236468   2.588   7.060   7.148
 7999SOL     OW36469   0.012   6.513   0.102
 7999SOL    HW136470   0.062   6.483   0.183
 7999SOL    HW236471   0.066   6.580   0.052
 8000SOL     OW36472   0.903   1.307   3.456
 8000SOL    HW136473   0.933   1.346   3.543
 8000SOL    HW236474   0.955   1.224   3.437
 8001SOL     OW36475   0.091   3.603   5.108
 8001SOL    HW136476   0.055   3.682   5.159
 8001SOL    HW236477   0.147   3.547   5.168
 8002SOL     OW36478   0.051   2.349   1.876
 8002SOL    HW136479   0.081   2.286   1.805
 8002SOL    HW236480   8.958   2.326   1.905
 8003SOL     OW36481   2.257   3.563   5.199
 8003SOL    HW136482   2.288   3.656   5.179
 8003SOL    HW236483   2.266   3.546   5.298
 8004SOL     OW36484   1.321   3.351   4.073
 8004SOL    HW136485   1.398   3.301   4.111
 8004SOL    HW236486   1.253   3.367   4.144
 8005SOL     OW36487   2.106   0.687   7.225
 8005SOL    HW136488   2.155   0.754   7.169
 8005SOL    HW236489   2.156   0.672   7.310
 8006SOL     OW36490   2.525   2.434   4.361
 8006SOL    HW136491   2.539   2.472   4.270
 8006SOL    HW236492   2.442   2.473   4.401
 8007SOL     OW36493   5.177   6.818   7.114
 8007SOL    HW136494   5.137   6.873   7.188
 8007SOL    HW236495   5.108   6.800   7.045
 8008SOL     OW36496   4.772   6.200   5.976
 8008SOL    HW136497   4.760   6.221   6.073
 8008SOL    HW236498   4.818   6.277   5.931
 8009SOL     OW36499   6.045   0.429   0.357
 8009SOL    HW136500   5.959   0.406   0.403
 8009SOL    HW236501   6.029   0.439   0.259
 8010SOL     OW36502   5.561   7.309   2.210
 8010SOL    HW136503   5.505   7.235   2.172
 8010SOL    HW236504   5.519   7.397   2.188
 8011SOL     OW36505   2.826   1.271   0.123
 8011SOL    HW136506   2.873   1.183   0.128
 8011SOL    HW236507   2.884   1.338   0.076
 8012SOL     OW36508   5.695   7.159   6.997
 8012SOL    HW136509   5.666   7.123   7.086
 8012SOL    HW236510   5.795   7.153   6.990
 8013SOL     OW36511   6.358   3.110   1.200
 8013SOL    HW136512   6.323   3.195   1.240
 8013SOL    HW236513   6.372   3.123   1.102
 8014SOL     OW36514   6.223   1.064   0.915
 8014SOL    HW136515   6.312   1.073   0.958
 8014SOL    HW236516   6.180   0.978   0.942
 8015SOL     OW36517   4.092   3.675   6.768
 8015SOL    HW136518   4.168   3.718   6.817
 8015SOL    HW236519   4.015   3.739   6.762
 8016SOL     OW36520   0.933   2.148   0.479
 8016SOL    HW136521   1.005   2.178   0.542
 8016SOL    HW236522   0.858   2.109   0.531
 8017SOL     OW36523   6.994   7.189   0.839
 8017SOL    HW136524   6.913   7.240   0.866
 8017SOL    HW236525   7.054   7.176   0.918
 8018SOL     OW36526   5.646   4.537   0.305
 8018SOL    HW136527   5.639   4.479   0.386
 8018SOL    HW236528   5.556   4.578   0.286
 8019SOL     OW36529   5.377   6.225   2.226
 8019SOL    HW136530   5.395   6.137   2.270
 8019SOL    HW236531   5.462   6.278   2.224
 8020SOL     OW36532   4.624   0.823   6.420
 8020SOL    HW136533   4.579   0.734   6.414
 8020SOL    HW236534   4.587   0.884   6.349
 8021SOL     OW36535   0.376   4.738   1.016
 8021SOL    HW136536   0.431   4.822   1.013
 8021SOL    HW236537   0.309   4.740   0.941
 8022SOL     OW36538   2.437   7.110   3.071
 8022SOL    HW136539   2.465   7.097   3.167
 8022SOL    HW236540   2.461   7.028   3.019
 8023SOL     OW36541   5.732   7.302   2.421
 8023SOL    HW136542   5.696   7.302   2.514
 8023SOL    HW236543   5.657   7.307   2.355
 8024SOL     OW36544   5.759   1.586   0.910
 8024SOL    HW136545   5.660   1.600   0.908
 8024SOL    HW236546   5.785   1.520   0.839
 8025SOL     OW36547   1.005   3.247   2.615
 8025SOL    HW136548   0.996   3.343   2.642
 8025SOL    HW236549   0.974   3.188   2.690
 8026SOL     OW36550   1.927   1.872   1.703
 8026SOL    HW136551   1.910   1.888   1.606
 8026SOL    HW236552   1.926   1.960   1.751
 8027SOL     OW36553   5.570   2.588   5.689
 8027SOL    HW136554   5.484   2.637   5.698
 8027SOL    HW236555   5.640   2.649   5.652
 8028SOL     OW36556   7.004   4.141   2.517
 8028SOL    HW136557   7.025   4.233   2.549
 8028SOL    HW236558   6.905   4.127   2.515
 8029SOL     OW36559   3.607   2.819   4.971
 8029SOL    HW136560   3.560   2.740   5.010
 8029SOL    HW236561   3.700   2.825   5.008
 8030SOL     OW36562   7.468   1.561   0.943
 8030SOL    HW136563   7.473   1.581   0.845
 8030SOL    HW236564   7.408   1.627   0.987
 8031SOL     OW36565   3.489   6.518   2.056
 8031SOL    HW136566   3.391   6.536   2.058
 8031SOL    HW236567   3.530   6.563   1.977
 8032SOL     OW36568   2.729   5.521   2.632
 8032SOL    HW136569   2.655   5.556   2.690
 8032SOL    HW236570   2.696   5.443   2.580
 8033SOL     OW36571   0.989   5.101   2.943
 8033SOL    HW136572   0.958   5.025   3.000
 8033SOL    HW236573   0.953   5.089   2.850
 8034SOL     OW36574   4.857   3.979   2.891
 8034SOL    HW136575   4.791   4.019   2.827
 8034SOL    HW236576   4.939   4.035   2.894
 8035SOL     OW36577   5.055   5.499   3.906
 8035SOL    HW136578   5.128   5.549   3.860
 8035SOL    HW236579   5.043   5.535   3.998
 8036SOL     OW36580   4.756   2.707   0.683
 8036SOL    HW136581   4.710   2.621   0.658
 8036SOL    HW236582   4.750   2.720   0.782
 8037SOL     OW36583   3.970   2.862   5.504
 8037SOL    HW136584   4.070   2.861   5.502
 8037SOL    HW236585   3.936   2.768   5.504
 8038SOL     OW36586   3.595   2.202   1.875
 8038SOL    HW136587   3.626   2.214   1.781
 8038SOL    HW236588   3.522   2.133   1.878
 8039SOL     OW36589   2.898   5.802   5.134
 8039SOL    HW136590   2.906   5.896   5.169
 8039SOL    HW236591   2.970   5.745   5.173
 8040SOL     OW36592   6.366   1.673   2.513
 8040SOL    HW136593   6.310   1.749   2.546
 8040SOL    HW236594   6.440   1.655   2.578
 8041SOL     OW36595   1.407   3.744   5.868
 8041SOL    HW136596   1.403   3.706   5.775
 8041SOL    HW236597   1.329   3.712   5.920
 8042SOL     OW36598   7.202   0.846   2.047
 8042SOL    HW136599   7.208   0.746   2.038
 8042SOL    HW236600   7.250   0.889   1.971
 8043SOL     OW36601   5.930   1.198   2.774
 8043SOL    HW136602   5.956   1.111   2.735
 8043SOL    HW236603   6.009   1.259   2.777
 8044SOL     OW36604   5.381   4.615   0.301
 8044SOL    HW136605   5.353   4.586   0.392
 8044SOL    HW236606   5.329   4.564   0.232
 8045SOL     OW36607   2.844   1.166   1.596
 8045SOL    HW136608   2.889   1.125   1.675
 8045SOL    HW236609   2.896   1.245   1.564
 8046SOL     OW36610   2.519   3.324   3.535
 8046SOL    HW136611   2.571   3.239   3.548
 8046SOL    HW236612   2.518   3.347   3.437
 8047SOL     OW36613   0.172   4.628   2.314
 8047SOL    HW136614   0.135   4.560   2.376
 8047SOL    HW236615   0.113   4.636   2.234
 8048SOL     OW36616   3.166   2.089   1.226
 8048SOL    HW136617   3.098   2.049   1.287
 8048SOL    HW236618   3.256   2.088   1.270
 8049SOL     OW36619   0.030   2.608   4.265
 8049SOL    HW136620   8.934   2.618   4.290
 8049SOL    HW236621   0.064   2.520   4.297
 8050SOL     OW36622   1.061   3.539   0.606
 8050SOL    HW136623   1.156   3.570   0.596
 8050SOL    HW236624   1.059   3.456   0.662
 8051SOL     OW36625   6.334   3.876   0.297
 8051SOL    HW136626   6.414   3.854   0.353
 8051SOL    HW236627   6.345   3.835   0.206
 8052SOL     OW36628   7.136   6.099   0.589
 8052SOL    HW136629   7.102   6.173   0.647
 8052SOL    HW236630   7.090   6.014   0.612
 8053SOL     OW36631   0.187   4.922   6.964
 8053SOL    HW136632   0.119   4.848   6.970
 8053SOL    HW236633   0.189   4.972   7.050
 8054SOL     OW36634   0.292   6.519   6.338
 8054SOL    HW136635   0.289   6.569   6.424
 8054SOL    HW236636   0.217   6.549   6.279
 8055SOL     OW36637   7.068   1.598   4.508
 8055SOL    HW136638   7.161   1.614   4.540
 8055SOL    HW236639   7.056   1.637   4.417
 8056SOL     OW36640   6.366   1.047   6.739
 8056SOL    HW136641   6.272   1.067   6.764
 8056SOL    HW236642   6.368   0.982   6.663
 8057SOL     OW36643   0.144   2.630   3.983
 8057SOL    HW136644   0.078   2.658   4.053
 8057SOL    HW236645   0.182   2.541   4.006
 8058SOL     OW36646   3.526   4.334   7.034
 8058SOL    HW136647   3.470   4.266   6.987
 8058SOL    HW236648   3.543   4.411   6.972
 8059SOL     OW36649   5.305   3.384   7.318
 8059SOL    HW136650   5.340   3.304   7.367
 8059SOL    HW236651   5.361   3.464   7.340
 8060SOL     OW36652   5.408   1.318   3.673
 8060SOL    HW136653   5.372   1.227   3.651
 8060SOL    HW236654   5.475   1.345   3.604
 8061SOL     OW36655   2.139   1.818   6.334
 8061SOL    HW136656   2.095   1.729   6.343
 8061SOL    HW236657   2.211   1.827   6.404
 8062SOL     OW36658   5.634   5.999   4.331
 8062SOL    HW136659   5.679   5.924   4.283
 8062SOL    HW236660   5.695   6.079   4.333
 8063SOL     OW36661   5.996   5.682   5.976
 8063SOL    HW136662   6.043   5.771   5.968
 8063SOL    HW236663   6.057   5.616   6.020
 8064SOL     OW36664   4.959   3.220   1.638
 8064SOL    HW136665   4.926   3.283   1.568
 8064SOL    HW236666   4.998   3.139   1.595
 8065SOL     OW36667   5.734   5.614   6.078
 8065SOL    HW136668   5.829   5.646   6.077
 8065SOL    HW236669   5.702   5.606   6.173
 8066SOL     OW36670   3.730   0.419   5.164
 8066SOL    HW136671   3.710   0.514   5.192
 8066SOL    HW236672   3.737   0.362   5.246
 8067SOL     OW36673   1.763   3.965   1.135
 8067SOL    HW136674   1.776   3.905   1.214
 8067SOL    HW236675   1.849   4.011   1.114
 8068SOL     OW36676   4.259   0.996   6.402
 8068SOL    HW136677   4.259   0.923   6.471
 8068SOL    HW236678   4.196   0.972   6.328
 8069SOL     OW36679   1.448   1.551   3.851
 8069SOL    HW136680   1.393   1.610   3.910
 8069SOL    HW236681   1.510   1.607   3.796
 8070SOL     OW36682   7.343   7.316   6.999
 8070SOL    HW136683   7.277   7.245   7.028
 8070SOL    HW236684   7.435   7.289   7.028
 8071SOL     OW36685   1.281   4.519   0.236
 8071SOL    HW136686   1.329   4.593   0.283
 8071SOL    HW236687   1.247   4.552   0.148
 8072SOL     OW36688   6.652   5.070   0.528
 8072SOL    HW136689   6.701   5.138   0.474
 8072SOL    HW236690   6.715   4.996   0.554
 8073SOL     OW36691   6.173   1.474   2.514
 8073SOL    HW136692   6.246   1.541   2.504
 8073SOL    HW236693   6.184   1.402   2.446
 8074SOL     OW36694   5.713   2.607   7.092
 8074SOL    HW136695   5.657   2.566   7.164
 8074SOL    HW236696   5.790   2.547   7.071
 8075SOL     OW36697   4.016   2.375   3.600
 8075SOL    HW136698   3.993   2.283   3.568
 8075SOL    HW236699   4.004   2.440   3.526
 8076SOL     OW36700   5.449   4.829   5.637
 8076SOL    HW136701   5.438   4.885   5.555
 8076SOL    HW236702   5.385   4.752   5.634
 8077SOL     OW36703   3.432   2.377   4.922
 8077SOL    HW136704   3.465   2.315   4.994
 8077SOL    HW236705   3.407   2.323   4.841
 8078SOL     OW36706   1.080   6.200   1.225
 8078SOL    HW136707   1.064   6.267   1.297
 8078SOL    HW236708   1.080   6.245   1.136
 8079SOL     OW36709   6.946   1.666   2.342
 8079SOL    HW136710   6.908   1.758   2.348
 8079SOL    HW236711   6.931   1.630   2.250
 8080SOL     OW36712   3.315   5.162   0.458
 8080SOL    HW136713   3.266   5.084   0.498
 8080SOL    HW236714   3.357   5.216   0.531
 8081SOL     OW36715   8.985   2.648   6.867
 8081SOL    HW136716   0.057   2.586   6.834
 8081SOL    HW236717   8.964   2.715   6.796
 8082SOL     OW36718   3.850   1.296   0.175
 8082SOL    HW136719   3.774   1.361   0.185
 8082SOL    HW236720   3.932   1.346   0.149
 8083SOL     OW36721   5.905   0.352   2.201
 8083SOL    HW136722   5.834   0.322   2.136
 8083SOL    HW236723   5.918   0.281   2.270
 8084SOL     OW36724   1.910   1.148   1.875
 8084SOL    HW136725   1.881   1.232   1.829
 8084SOL    HW236726   1.830   1.104   1.917
 8085SOL     OW36727   1.774   2.464   6.381
 8085SOL    HW136728   1.768   2.366   6.362
 8085SOL    HW236729   1.727   2.484   6.467
 8086SOL     OW36730   5.128   6.632   2.911
 8086SOL    HW136731   5.128   6.668   3.005
 8086SOL    HW236732   5.120   6.532   2.914
 8087SOL     OW36733   4.529   4.525   1.390
 8087SOL    HW136734   4.469   4.488   1.319
 8087SOL    HW236735   4.478   4.536   1.475
 8088SOL     OW36736   2.301   2.525   4.471
 8088SOL    HW136737   2.236   2.462   4.513
 8088SOL    HW236738   2.261   2.617   4.468
 8089SOL     OW36739   1.496   4.703   2.019
 8089SOL    HW136740   1.515   4.745   1.930
 8089SOL    HW236741   1.402   4.670   2.020
 8090SOL     OW36742   5.219   5.879   1.666
 8090SOL    HW136743   5.294   5.920   1.614
 8090SOL    HW236744   5.219   5.916   1.759
 8091SOL     OW36745   1.884   4.770   0.191
 8091SOL    HW136746   1.949   4.775   0.115
 8091SOL    HW236747   1.895   4.850   0.249
 8092SOL     OW36748   3.709   4.716   2.155
 8092SOL    HW136749   3.616   4.690   2.129
 8092SOL    HW236750   3.746   4.782   2.090
 8093SOL     OW36751   6.655   4.363   1.260
 8093SOL    HW136752   6.713   4.402   1.332
 8093SOL    HW236753   6.559   4.372   1.285
 8094SOL     OW36754   3.638   0.524   2.549
 8094SOL    HW136755   3.586   0.467   2.485
 8094SOL    HW236756   3.646   0.477   2.637
 8095SOL     OW36757   2.235   0.189   2.985
 8095SOL    HW136758   2.185   0.119   3.037
 8095SOL    HW236759   2.328   0.157   2.968
 8096SOL     OW36760   2.107   6.475   7.105
 8096SOL    HW136761   2.172   6.503   7.177
 8096SOL    HW236762   2.030   6.428   7.147
 8097SOL     OW36763   4.505   0.631   6.164
 8097SOL    HW136764   4.480   0.609   6.258
 8097SOL    HW236765   4.541   0.550   6.118
 8098SOL     OW36766   6.864   6.048   4.288
 8098SOL    HW136767   6.841   6.066   4.192
 8098SOL    HW236768   6.943   5.986   4.292
 8099SOL     OW36769   6.748   4.709   3.382
 8099SOL    HW136770   6.740   4.807   3.403
 8099SOL    HW236771   6.800   4.698   3.297
 8100SOL     OW36772   0.885   4.649   0.420
 8100SOL    HW136773   0.933   4.680   0.338
 8100SOL    HW236774   0.888   4.721   0.489
 8101SOL     OW36775   3.860   5.451   5.549
 8101SOL    HW136776   3.787   5.404   5.498
 8101SOL    HW236777   3.939   5.464   5.490
 8102SOL     OW36778   6.567   3.874   6.624
 8102SOL    HW136779   6.642   3.920   6.672
 8102SOL    HW236780   6.570   3.898   6.527
 8103SOL     OW36781   4.594   3.157   5.368
 8103SOL    HW136782   4.514   3.106   5.336
 8103SOL    HW236783   4.640   3.198   5.290
 8104SOL     OW36784   6.232   1.856   6.454
 8104SOL    HW136785   6.250   1.858   6.553
 8104SOL    HW236786   6.280   1.778   6.413
 8105SOL     OW36787   4.104   4.395   2.478
 8105SOL    HW136788   4.047   4.472   2.503
 8105SOL    HW236789   4.110   4.331   2.555
 8106SOL     OW36790   1.000   4.093   6.580
 8106SOL    HW136791   1.061   4.128   6.509
 8106SOL    HW236792   0.929   4.037   6.538
 8107SOL     OW36793   1.012   2.638   6.439
 8107SOL    HW136794   0.955   2.557   6.426
 8107SOL    HW236795   0.963   2.705   6.494
 8108SOL     OW36796   5.852   4.941   1.840
 8108SOL    HW136797   5.766   4.917   1.884
 8108SOL    HW236798   5.855   5.039   1.823
 8109SOL     OW36799   4.261   1.385   3.213
 8109SOL    HW136800   4.239   1.462   3.273
 8109SOL    HW236801   4.359   1.385   3.194
 8110SOL     OW36802   5.898   6.020   1.256
 8110SOL    HW136803   5.879   6.067   1.342
 8110SOL    HW236804   5.976   5.958   1.269
 8111SOL     OW36805   3.069   6.479   0.594
 8111SOL    HW136806   3.144   6.534   0.632
 8111SOL    HW236807   3.101   6.387   0.576
 8112SOL     OW36808   1.453   4.780   4.754
 8112SOL    HW136809   1.482   4.691   4.720
 8112SOL    HW236810   1.359   4.797   4.725
 8113SOL     OW36811   5.208   0.684   2.817
 8113SOL    HW136812   5.163   0.742   2.749
 8113SOL    HW236813   5.251   0.742   2.887
 8114SOL     OW36814   2.390   4.843   5.508
 8114SOL    HW136815   2.484   4.834   5.474
 8114SOL    HW236816   2.368   4.940   5.517
 8115SOL     OW36817   7.126   6.385   1.450
 8115SOL    HW136818   7.138   6.480   1.420
 8115SOL    HW236819   7.086   6.331   1.376
 8116SOL     OW36820   5.182   0.199   4.285
 8116SOL    HW136821   5.141   0.108   4.277
 8116SOL    HW236822   5.248   0.200   4.360
 8117SOL     OW36823   0.060   5.703   0.951
 8117SOL    HW136824   0.000   5.653   1.014
 8117SOL    HW236825   0.135   5.744   1.002
 8118SOL     OW36826   2.490   3.905   5.755
 8118SOL    HW136827   2.450   3.817   5.779
 8118SOL    HW236828   2.479   3.969   5.832
 8119SOL     OW36829   5.700   3.479   2.444
 8119SOL    HW136830   5.737   3.481   2.537
 8119SOL    HW236831   5.678   3.385   2.419
 8120SOL     OW36832   7.232   1.513   2.976
 8120SOL    HW136833   7.314   1.478   3.022
 8120SOL    HW236834   7.257   1.592   2.919
 8121SOL     OW36835   6.621   2.712   4.878
 8121SOL    HW136836   6.689   2.664   4.933
 8121SOL    HW236837   6.592   2.653   4.802
 8122SOL     OW36838   1.046   6.698   5.407
 8122SOL    HW136839   1.033   6.599   5.410
 8122SOL    HW236840   1.143   6.720   5.418
 8123SOL     OW36841   6.039   1.477   5.108
 8123SOL    HW136842   5.941   1.486   5.126
 8123SOL    HW236843   6.065   1.537   5.033
 8124SOL     OW36844   3.549   7.231   6.489
 8124SOL    HW136845   3.548   7.324   6.451
 8124SOL    HW236846   3.508   7.232   6.580
 8125SOL     OW36847   0.837   3.430   5.732
 8125SOL    HW136848   0.825   3.333   5.712
 8125SOL    HW236849   0.874   3.476   5.651
 8126SOL     OW36850   3.970   4.459   1.389
 8126SOL    HW136851   3.908   4.381   1.385
 8126SOL    HW236852   4.060   4.429   1.420
 8127SOL     OW36853   3.914   0.033   1.839
 8127SOL    HW136854   3.878   0.103   1.900
 8127SOL    HW236855   3.860   8.949   1.849
 8128SOL     OW36856   1.749   5.685   3.705
 8128SOL    HW136857   1.683   5.620   3.744
 8128SOL    HW236858   1.801   5.728   3.778
 8129SOL     OW36859   7.307   3.181   5.401
 8129SOL    HW136860   7.251   3.213   5.324
 8129SOL    HW236861   7.331   3.259   5.459
 8130SOL     OW36862   2.107   4.740   3.131
 8130SOL    HW136863   2.042   4.770   3.202
 8130SOL    HW236864   2.176   4.681   3.173
 8131SOL     OW36865   2.288   5.941   3.173
 8131SOL    HW136866   2.363   5.938   3.239
 8131SOL    HW236867   2.211   5.990   3.214
 8132SOL     OW36868   5.914   3.503   7.167
 8132SOL    HW136869   5.896   3.448   7.085
 8132SOL    HW236870   5.955   3.445   7.238
 8133SOL     OW36871   0.388   2.832   3.028
 8133SOL    HW136872   0.376   2.870   3.119
 8133SOL    HW236873   0.379   2.732   3.032
 8134SOL     OW36874   6.939   2.369   1.442
 8134SOL    HW136875   7.031   2.346   1.471
 8134SOL    HW236876   6.885   2.398   1.521
 8135SOL     OW36877   0.258   2.517   0.457
 8135SOL    HW136878   0.237   2.558   0.369
 8135SOL    HW236879   0.176   2.514   0.514
 8136SOL     OW36880   3.101   1.283   0.575
 8136SOL    HW136881   3.048   1.302   0.492
 8136SOL    HW236882   3.039   1.253   0.648
 8137SOL     OW36883   5.979   2.196   6.716
 8137SOL    HW136884   5.962   2.292   6.694
 8137SOL    HW236885   6.014   2.149   6.636
 8138SOL     OW36886   4.976   0.940   1.049
 8138SOL    HW136887   4.899   0.996   1.018
 8138SOL    HW236888   4.944   0.873   1.115
 8139SOL     OW36889   4.277   2.012   7.019
 8139SOL    HW136890   4.229   1.995   7.106
 8139SOL    HW236891   4.262   1.935   6.958
 8140SOL     OW36892   0.408   3.515   1.470
 8140SOL    HW136893   0.470   3.533   1.547
 8140SOL    HW236894   0.462   3.491   1.389
 8141SOL     OW36895   7.208   4.097   0.060
 8141SOL    HW136896   7.244   4.178   0.014
 8141SOL    HW236897   7.123   4.068   0.017
 8142SOL     OW36898   4.689   3.513   3.427
 8142SOL    HW136899   4.622   3.448   3.462
 8142SOL    HW236900   4.670   3.603   3.465
 8143SOL     OW36901   2.901   6.244   5.170
 8143SOL    HW136902   2.860   6.289   5.091
 8143SOL    HW236903   2.870   6.288   5.254
 8144SOL     OW36904   5.225   7.161   1.528
 8144SOL    HW136905   5.297   7.142   1.461
 8144SOL    HW236906   5.141   7.188   1.481
 8145SOL     OW36907   6.285   2.677   3.786
 8145SOL    HW136908   6.230   2.630   3.717
 8145SOL    HW236909   6.382   2.659   3.768
 8146SOL     OW36910   5.887   3.633   1.248
 8146SOL    HW136911   5.966   3.577   1.223
 8146SOL    HW236912   5.868   3.699   1.176
 8147SOL     OW36913   0.860   0.840   2.128
 8147SOL    HW136914   0.918   0.890   2.064
 8147SOL    HW236915   0.844   0.896   2.209
 8148SOL     OW36916   3.043   2.502   1.082
 8148SOL    HW136917   2.961   2.453   1.052
 8148SOL    HW236918   3.098   2.528   1.003
 8149SOL     OW36919   5.895   3.918   0.311
 8149SOL    HW136920   5.809   3.876   0.342
 8149SOL    HW236921   5.874   3.997   0.254
 8150SOL     OW36922   0.047   3.175   5.292
 8150SOL    HW136923   0.138   3.193   5.254
 8150SOL    HW236924   8.987   3.252   5.272
 8151SOL     OW36925   3.460   5.448   2.333
 8151SOL    HW136926   3.448   5.350   2.344
 8151SOL    HW236927   3.558   5.470   2.335
 8152SOL     OW36928   1.683   3.010   7.187
 8152SOL    HW136929   1.729   3.088   7.145
 8152SOL    HW236930   1.730   2.925   7.161
 8153SOL     OW36931   3.786   3.634   4.072
 8153SOL    HW136932   3.743   3.723   4.059
 8153SOL    HW236933   3.755   3.571   4.001
 8154SOL     OW36934   6.596   2.654   3.316
 8154SOL    HW136935   6.520   2.688   3.259
 8154SOL    HW236936   6.682   2.670   3.269
 8155SOL     OW36937   0.667   3.325   0.040
 8155SOL    HW136938   0.700   3.418   0.023
 8155SOL    HW236939   0.574   3.329   0.076
 8156SOL     OW36940   4.483   1.035   3.241
 8156SOL    HW136941   4.392   1.068   3.265
 8156SOL    HW236942   4.512   0.965   3.307
 8157SOL     OW36943   2.545   5.053   0.069
 8157SOL    HW136944   2.573   5.049   8.973
 8157SOL    HW236945   2.626   5.057   0.127
 8158SOL     OW36946   4.745   6.160   2.491
 8158SOL    HW136947   4.750   6.137   2.394
 8158SOL    HW236948   4.822   6.117   2.538
 8159SOL     OW36949   5.639   3.785   5.190
 8159SOL    HW136950   5.618   3.688   5.202
 8159SOL    HW236951   5.689   3.798   5.105
 8160SOL     OW36952   6.045   0.137   6.247
 8160SOL    HW136953   6.116   0.096   6.190
 8160SOL    HW236954   6.075   0.226   6.280
 8161SOL     OW36955   6.716   5.022   4.347
 8161SOL    HW136956   6.710   4.976   4.435
 8161SOL    HW236957   6.776   5.101   4.354
 8162SOL     OW36958   7.105   1.394   1.583
 8162SOL    HW136959   7.179   1.366   1.644
 8162SOL    HW236960   7.114   1.492   1.563
 8163SOL     OW36961   5.483   1.308   6.781
 8163SOL    HW136962   5.581   1.291   6.789
 8163SOL    HW236963   5.468   1.389   6.724
 8164SOL     OW36964   6.441   3.906   7.083
 8164SOL    HW136965   6.342   3.911   7.076
 8164SOL    HW236966   6.468   3.913   7.179
 8165SOL     OW36967   0.680   2.033   6.920
 8165SOL    HW136968   0.744   2.066   6.989
 8165SOL    HW236969   0.697   1.937   6.901
 8166SOL     OW36970   1.317   4.064   0.207
 8166SOL    HW136971   1.248   3.994   0.228
 8166SOL    HW236972   1.408   4.022   0.208
 8167SOL     OW36973   5.894   2.017   0.682
 8167SOL    HW136974   5.844   1.958   0.745
 8167SOL    HW236975   5.832   2.084   0.642
 8168SOL     OW36976   3.526   5.527   6.231
 8168SOL    HW136977   3.436   5.507   6.193
 8168SOL    HW236978   3.583   5.571   6.162
 8169SOL     OW36979   4.347   3.229   1.107
 8169SOL    HW136980   4.274   3.253   1.171
 8169SOL    HW236981   4.435   3.261   1.143
 8170SOL     OW36982   5.216   3.545   3.017
 8170SOL    HW136983   5.146   3.581   3.079
 8170SOL    HW236984   5.201   3.447   3.005
 8171SOL     OW36985   6.443   2.433   1.195
 8171SOL    HW136986   6.522   2.468   1.146
 8171SOL    HW236987   6.363   2.434   1.136
 8172SOL     OW36988   1.632   1.072   4.958
 8172SOL    HW136989   1.670   1.046   4.870
 8172SOL    HW236990   1.703   1.065   5.028
 8173SOL     OW36991   4.799   0.323   0.612
 8173SOL    HW136992   4.817   0.406   0.559
 8173SOL    HW236993   4.842   0.331   0.702
 8174SOL     OW36994   1.557   6.760   5.747
 8174SOL    HW136995   1.533   6.680   5.693
 8174SOL    HW236996   1.474   6.808   5.777
 8175SOL     OW36997   1.696   7.251   3.518
 8175SOL    HW136998   1.773   7.191   3.535
 8175SOL    HW236999   1.684   7.313   3.596
 8176SOL     OW37000   6.677   4.713   1.328
 8176SOL    HW137001   6.768   4.746   1.300
 8176SOL    HW237002   6.608   4.747   1.264
 8177SOL     OW37003   2.921   3.502   4.384
 8177SOL    HW137004   2.868   3.587   4.372
 8177SOL    HW237005   3.015   3.525   4.408
 8178SOL     OW37006   2.207   1.452   6.194
 8178SOL    HW137007   2.173   1.369   6.149
 8178SOL    HW237008   2.133   1.492   6.248
 8179SOL     OW37009   5.622   2.049   5.835
 8179SOL    HW137010   5.671   2.130   5.866
 8179SOL    HW237011   5.674   1.967   5.860
 8180SOL     OW37012   4.786   5.833   4.624
 8180SOL    HW137013   4.815   5.901   4.693
 8180SOL    HW237014   4.691   5.807   4.640
 8181SOL     OW37015   1.671   4.773   0.745
 8181SOL    HW137016   1.584   4.822   0.757
 8181SOL    HW237017   1.681   4.705   0.818
 8182SOL     OW37018   1.649   6.949   0.872
 8182SOL    HW137019   1.697   6.863   0.857
 8182SOL    HW237020   1.622   6.987   0.784
 8183SOL     OW37021   5.073   0.154   3.876
 8183SOL    HW137022   5.148   0.193   3.823
 8183SOL    HW237023   5.106   0.073   3.925
 8184SOL     OW37024   4.747   6.161   0.097
 8184SOL    HW137025   4.766   6.096   0.170
 8184SOL    HW237026   4.800   6.245   0.113
 8185SOL     OW37027   6.454   2.079   0.268
 8185SOL    HW137028   6.405   2.123   0.193
 8185SOL    HW237029   6.514   2.145   0.312
 8186SOL     OW37030   4.256   4.133   1.589
 8186SOL    HW137031   4.331   4.141   1.654
 8186SOL    HW237032   4.246   4.218   1.538
 8187SOL     OW37033   1.885   4.696   5.984
 8187SOL    HW137034   1.945   4.617   5.998
 8187SOL    HW237035   1.876   4.746   6.070
 8188SOL     OW37036   2.960   0.709   7.364
 8188SOL    HW137037   2.983   0.806   7.377
 8188SOL    HW237038   2.874   0.688   7.409
 8189SOL     OW37039   4.682   1.096   4.108
 8189SOL    HW137040   4.661   1.009   4.154
 8189SOL    HW237041   4.667   1.171   4.171
 8190SOL     OW37042   1.295   3.122   3.745
 8190SOL    HW137043   1.239   3.189   3.793
 8190SOL    HW237044   1.236   3.053   3.703
 8191SOL     OW37045   2.355   4.929   7.239
 8191SOL    HW137046   2.376   4.844   7.190
 8191SOL    HW237047   2.362   4.913   7.338
 8192SOL     OW37048   6.875   1.929   3.984
 8192SOL    HW137049   6.810   1.956   4.054
 8192SOL    HW237050   6.931   2.008   3.957
 8193SOL     OW37051   0.478   5.429   4.500
 8193SOL    HW137052   0.523   5.499   4.555
 8193SOL    HW237053   0.467   5.462   4.406
 8194SOL     OW37054   1.900   4.594   7.138
 8194SOL    HW137055   1.984   4.629   7.096
 8194SOL    HW237056   1.827   4.661   7.128
 8195SOL     OW37057   5.017   0.115   6.996
 8195SOL    HW137058   4.989   0.111   7.092
 8195SOL    HW237059   5.117   0.107   6.990
 8196SOL     OW37060   0.898   2.534   0.762
 8196SOL    HW137061   0.925   2.452   0.811
 8196SOL    HW237062   0.870   2.605   0.827
 8197SOL     OW37063   2.223   0.886   7.073
 8197SOL    HW137064   2.318   0.905   7.099
 8197SOL    HW237065   2.170   0.970   7.074
 8198SOL     OW37066   5.234   0.466   7.224
 8198SOL    HW137067   5.142   0.495   7.196
 8198SOL    HW237068   5.230   0.375   7.264
 8199SOL     OW37069   4.938   4.009   6.846
 8199SOL    HW137070   4.910   4.096   6.886
 8199SOL    HW237071   5.037   4.006   6.839
 8200SOL     OW37072   1.908   4.077   5.618
 8200SOL    HW137073   1.950   4.114   5.701
 8200SOL    HW237074   1.809   4.072   5.631
 8201SOL     OW37075   5.625   6.230   4.867
 8201SOL    HW137076   5.575   6.261   4.786
 8201SOL    HW237077   5.684   6.153   4.842
 8202SOL     OW37078   6.105   4.142   6.971
 8202SOL    HW137079   6.105   4.213   7.042
 8202SOL    HW237080   6.132   4.054   7.012
 8203SOL     OW37081   4.210   0.544   1.231
 8203SOL    HW137082   4.248   0.513   1.143
 8203SOL    HW237083   4.283   0.544   1.300
 8204SOL     OW37084   5.932   1.946   2.555
 8204SOL    HW137085   6.018   1.995   2.540
 8204SOL    HW237086   5.948   1.870   2.618
 8205SOL     OW37087   5.812   2.793   3.764
 8205SOL    HW137088   5.885   2.855   3.735
 8205SOL    HW237089   5.767   2.830   3.845
 8206SOL     OW37090   5.321   0.805   2.072
 8206SOL    HW137091   5.340   0.708   2.085
 8206SOL    HW237092   5.312   0.850   2.161
 8207SOL     OW37093   3.594   3.272   0.125
 8207SOL    HW137094   3.511   3.236   0.081
 8207SOL    HW237095   3.674   3.224   0.090
 8208SOL     OW37096   6.877   3.250   4.721
 8208SOL    HW137097   6.815   3.328   4.733
 8208SOL    HW237098   6.972   3.284   4.718
 8209SOL     OW37099   2.056   5.721   3.217
 8209SOL    HW137100   2.111   5.706   3.135
 8209SOL    HW237101   2.116   5.733   3.296
 8210SOL     OW37102   1.386   3.691   2.978
 8210SOL    HW137103   1.399   3.689   3.077
 8210SOL    HW237104   1.465   3.734   2.935
 8211SOL     OW37105   1.267   0.151   3.557
 8211SOL    HW137106   1.313   0.226   3.606
 8211SOL    HW237107   1.245   0.078   3.621
 8212SOL     OW37108   3.556   6.108   6.854
 8212SOL    HW137109   3.634   6.132   6.913
 8212SOL    HW237110   3.549   6.009   6.848
 8213SOL     OW37111   5.609   3.452   5.982
 8213SOL    HW137112   5.564   3.541   5.992
 8213SOL    HW237113   5.547   3.388   5.937
 8214SOL     OW37114   4.335   4.552   2.127
 8214SOL    HW137115   4.434   4.542   2.129
 8214SOL    HW237116   4.292   4.469   2.163
 8215SOL     OW37117   5.162   4.911   0.338
 8215SOL    HW137118   5.177   4.996   0.388
 8215SOL    HW237119   5.228   4.903   0.264
 8216SOL     OW37120   4.263   0.338   4.838
 8216SOL    HW137121   4.339   0.280   4.864
 8216SOL    HW237122   4.187   0.282   4.805
 8217SOL     OW37123   1.820   5.414   5.700
 8217SOL    HW137124   1.870   5.357   5.766
 8217SOL    HW237125   1.723   5.415   5.724
 8218SOL     OW37126   4.519   6.614   1.047
 8218SOL    HW137127   4.577   6.686   1.009
 8218SOL    HW237128   4.559   6.578   1.131
 8219SOL     OW37129   5.409   6.543   5.990
 8219SOL    HW137130   5.434   6.627   5.942
 8219SOL    HW237131   5.475   6.471   5.967
 8220SOL     OW37132   6.885   1.345   1.028
 8220SOL    HW137133   6.821   1.356   1.104
 8220SOL    HW237134   6.834   1.325   0.944
 8221SOL     OW37135   5.933   6.091   6.800
 8221SOL    HW137136   5.842   6.070   6.764
 8221SOL    HW237137   5.978   6.007   6.829
 8222SOL     OW37138   6.385   0.519   0.040
 8222SOL    HW137139   6.350   0.609   0.064
 8222SOL    HW237140   6.467   0.528   8.985
 8223SOL     OW37141   4.006   0.655   1.516
 8223SOL    HW137142   3.996   0.566   1.472
 8223SOL    HW237143   4.060   0.646   1.600
 8224SOL     OW37144   6.571   4.584   3.546
 8224SOL    HW137145   6.636   4.634   3.490
 8224SOL    HW237146   6.563   4.490   3.512
 8225SOL     OW37147   5.767   5.152   0.525
 8225SOL    HW137148   5.728   5.111   0.443
 8225SOL    HW237149   5.829   5.226   0.498
 8226SOL     OW37150   0.328   4.217   5.591
 8226SOL    HW137151   0.247   4.165   5.617
 8226SOL    HW237152   0.409   4.158   5.593
 8227SOL     OW37153   2.818   5.613   4.309
 8227SOL    HW137154   2.753   5.639   4.237
 8227SOL    HW237155   2.768   5.586   4.391
 8228SOL     OW37156   1.395   3.419   0.744
 8228SOL    HW137157   1.378   3.479   0.666
 8228SOL    HW237158   1.491   3.423   0.769
 8229SOL     OW37159   0.453   5.838   5.154
 8229SOL    HW137160   0.466   5.933   5.126
 8229SOL    HW237161   0.516   5.779   5.102
 8230SOL     OW37162   4.782   0.281   4.229
 8230SOL    HW137163   4.804   0.285   4.131
 8230SOL    HW237164   4.803   0.369   4.271
 8231SOL     OW37165   4.239   3.272   2.483
 8231SOL    HW137166   4.182   3.189   2.485
 8231SOL    HW237167   4.211   3.333   2.557
 8232SOL     OW37168   4.330   5.725   5.398
 8232SOL    HW137169   4.372   5.724   5.488
 8232SOL    HW237170   4.245   5.672   5.400
 8233SOL     OW37171   1.056   1.214   2.995
 8233SOL    HW137172   0.963   1.225   3.029
 8233SOL    HW237173   1.120   1.213   3.073
 8234SOL     OW37174   2.130   5.916   5.959
 8234SOL    HW137175   2.201   5.921   5.889
 8234SOL    HW237176   2.147   5.837   6.019
 8235SOL     OW37177   5.270   5.355   6.390
 8235SOL    HW137178   5.277   5.437   6.448
 8235SOL    HW237179   5.245   5.382   6.297
 8236SOL     OW37180   2.249   3.528   1.285
 8236SOL    HW137181   2.299   3.498   1.366
 8236SOL    HW237182   2.277   3.472   1.207
 8237SOL     OW37183   5.504   0.454   6.225
 8237SOL    HW137184   5.579   0.461   6.290
 8237SOL    HW237185   5.486   0.358   6.203
 8238SOL     OW37186   7.153   2.446   5.507
 8238SOL    HW137187   7.235   2.457   5.564
 8238SOL    HW237188   7.147   2.351   5.476
 8239SOL     OW37189   6.764   2.542   5.038
 8239SOL    HW137190   6.709   2.529   5.121
 8239SOL    HW237191   6.860   2.555   5.063
 8240SOL     OW37192   0.513   3.187   6.732
 8240SOL    HW137193   0.482   3.170   6.825
 8240SOL    HW237194   0.447   3.149   6.667
 8241SOL     OW37195   0.820   5.025   3.827
 8241SOL    HW137196   0.818   4.925   3.815
 8241SOL    HW237197   0.732   5.063   3.801
 8242SOL     OW37198   5.634   2.701   3.314
 8242SOL    HW137199   5.589   2.664   3.233
 8242SOL    HW237200   5.723   2.740   3.288
 8243SOL     OW37201   2.811   1.564   6.859
 8243SOL    HW137202   2.807   1.601   6.952
 8243SOL    HW237203   2.799   1.465   6.862
 8244SOL     OW37204   4.040   5.733   6.844
 8244SOL    HW137205   4.012   5.645   6.883
 8244SOL    HW237206   4.007   5.740   6.750
 8245SOL     OW37207   3.768   2.167   5.639
 8245SOL    HW137208   3.791   2.085   5.586
 8245SOL    HW237209   3.680   2.153   5.685
 8246SOL     OW37210   3.681   3.480   3.865
 8246SOL    HW137211   3.582   3.474   3.881
 8246SOL    HW237212   3.703   3.443   3.775
 8247SOL     OW37213   4.285   1.275   6.393
 8247SOL    HW137214   4.381   1.302   6.390
 8247SOL    HW237215   4.278   1.176   6.403
 8248SOL     OW37216   6.688   2.705   0.319
 8248SOL    HW137217   6.766   2.743   0.369
 8248SOL    HW237218   6.720   2.636   0.255
 8249SOL     OW37219   6.237   0.859   5.870
 8249SOL    HW137220   6.219   0.789   5.801
 8249SOL    HW237221   6.333   0.886   5.866
 8250SOL     OW37222   5.075   1.090   3.431
 8250SOL    HW137223   4.981   1.056   3.441
 8250SOL    HW237224   5.074   1.177   3.381
 8251SOL     OW37225   6.351   7.057   6.927
 8251SOL    HW137226   6.415   6.982   6.912
 8251SOL    HW237227   6.270   7.023   6.976
 8252SOL     OW37228   6.647   3.295   2.402
 8252SOL    HW137229   6.627   3.209   2.449
 8252SOL    HW237230   6.719   3.344   2.451
 8253SOL     OW37231   2.357   0.395   1.223
 8253SOL    HW137232   2.264   0.421   1.195
 8253SOL    HW237233   2.375   0.431   1.314
 8254SOL     OW37234   0.802   3.929   6.480
 8254SOL    HW137235   0.718   3.958   6.435
 8254SOL    HW237236   0.840   3.850   6.433
 8255SOL     OW37237   7.069   3.161   6.153
 8255SOL    HW137238   6.991   3.161   6.215
 8255SOL    HW237239   7.043   3.119   6.066
 8256SOL     OW37240   4.012   3.138   6.580
 8256SOL    HW137241   4.034   3.122   6.676
 8256SOL    HW237242   4.095   3.130   6.525
 8257SOL     OW37243   6.339   6.265   0.867
 8257SOL    HW137244   6.321   6.205   0.788
 8257SOL    HW237245   6.415   6.326   0.846
 8258SOL     OW37246   2.046   4.506   6.844
 8258SOL    HW137247   2.111   4.430   6.844
 8258SOL    HW237248   2.077   4.577   6.907
 8259SOL     OW37249   1.285   4.019   6.213
 8259SOL    HW137250   1.193   3.985   6.192
 8259SOL    HW237251   1.337   3.947   6.259
 8260SOL     OW37252   4.952   1.977   2.083
 8260SOL    HW137253   5.018   2.001   2.155
 8260SOL    HW237254   4.981   2.019   1.997
 8261SOL     OW37255   5.011   2.348   1.775
 8261SOL    HW137256   4.929   2.402   1.791
 8261SOL    HW237257   5.084   2.379   1.836
 8262SOL     OW37258   1.315   3.304   0.400
 8262SOL    HW137259   1.230   3.317   0.452
 8262SOL    HW237260   1.335   3.206   0.392
 8263SOL     OW37261   6.621   2.182   4.386
 8263SOL    HW137262   6.665   2.148   4.469
 8263SOL    HW237263   6.521   2.172   4.395
 8264SOL     OW37264   1.932   5.646   6.527
 8264SOL    HW137265   1.921   5.645   6.428
 8264SOL    HW237266   1.898   5.732   6.564
 8265SOL     OW37267   3.702   5.895   0.024
 8265SOL    HW137268   3.618   5.928   8.979
 8265SOL    HW237269   3.679   5.861   0.115
 8266SOL     OW37270   6.875   4.186   5.517
 8266SOL    HW137271   6.897   4.126   5.440
 8266SOL    HW237272   6.844   4.275   5.483
 8267SOL     OW37273   7.096   1.838   0.144
 8267SOL    HW137274   7.160   1.911   0.169
 8267SOL    HW237275   7.035   1.819   0.221
 8268SOL     OW37276   5.881   0.165   4.031
 8268SOL    HW137277   5.905   0.098   3.961
 8268SOL    HW237278   5.782   0.180   4.031
 8269SOL     OW37279   0.955   3.903   2.329
 8269SOL    HW137280   1.054   3.898   2.340
 8269SOL    HW237281   0.921   3.987   2.372
 8270SOL     OW37282   2.178   1.178   3.121
 8270SOL    HW137283   2.244   1.252   3.114
 8270SOL    HW237284   2.101   1.195   3.059
 8271SOL     OW37285   0.710   2.493   7.119
 8271SOL    HW137286   0.787   2.495   7.055
 8271SOL    HW237287   0.688   2.398   7.140
 8272SOL     OW37288   7.167   0.150   6.265
 8272SOL    HW137289   7.069   0.159   6.247
 8272SOL    HW237290   7.218   0.164   6.180
 8273SOL     OW37291   1.341   1.990   1.943
 8273SOL    HW137292   1.319   2.084   1.915
 8273SOL    HW237293   1.440   1.976   1.937
 8274SOL     OW37294   5.649   2.258   3.642
 8274SOL    HW137295   5.646   2.342   3.589
 8274SOL    HW237296   5.604   2.184   3.591
 8275SOL     OW37297   2.396   0.097   5.634
 8275SOL    HW137298   2.399   8.998   5.646
 8275SOL    HW237299   2.406   0.142   5.723
 8276SOL     OW37300   4.562   4.240   4.943
 8276SOL    HW137301   4.634   4.283   4.888
 8276SOL    HW237302   4.520   4.308   5.002
 8277SOL     OW37303   2.039   3.586   3.155
 8277SOL    HW137304   2.027   3.488   3.167
 8277SOL    HW237305   2.071   3.626   3.242
 8278SOL     OW37306   5.550   1.761   4.343
 8278SOL    HW137307   5.472   1.788   4.400
 8278SOL    HW237308   5.587   1.841   4.297
 8279SOL     OW37309   6.452   5.427   5.755
 8279SOL    HW137310   6.429   5.464   5.845
 8279SOL    HW237311   6.386   5.356   5.731
 8280SOL     OW37312   2.842   2.088   2.422
 8280SOL    HW137313   2.911   2.092   2.350
 8280SOL    HW237314   2.856   2.165   2.485
 8281SOL     OW37315   3.405   2.858   4.366
 8281SOL    HW137316   3.503   2.870   4.354
 8281SOL    HW237317   3.361   2.844   4.277
 8282SOL     OW37318   3.902   3.549   2.045
 8282SOL    HW137319   3.901   3.468   1.986
 8282SOL    HW237320   3.812   3.562   2.085
 8283SOL     OW37321   6.655   3.053   3.373
 8283SOL    HW137322   6.688   3.016   3.460
 8283SOL    HW237323   6.576   3.113   3.391
 8284SOL     OW37324   3.145   1.991   7.211
 8284SOL    HW137325   3.139   2.074   7.156
 8284SOL    HW237326   3.060   1.940   7.205
 8285SOL     OW37327   1.675   3.472   4.205
 8285SOL    HW137328   1.618   3.391   4.189
 8285SOL    HW237329   1.711   3.505   4.119
 8286SOL     OW37330   6.562   5.800   5.903
 8286SOL    HW137331   6.586   5.753   5.818
 8286SOL    HW237332   6.638   5.793   5.968
 8287SOL     OW37333   5.824   2.583   0.009
 8287SOL    HW137334   5.817   2.494   8.964
 8287SOL    HW237335   5.738   2.603   0.057
 8288SOL     OW37336   5.046   6.562   6.158
 8288SOL    HW137337   5.084   6.524   6.074
 8288SOL    HW237338   5.107   6.633   6.193
 8289SOL     OW37339   6.746   4.044   2.472
 8289SOL    HW137340   6.762   4.074   2.378
 8289SOL    HW237341   6.657   3.998   2.477
 8290SOL     OW37342   2.733   5.253   7.348
 8290SOL    HW137343   2.644   5.286   7.316
 8290SOL    HW237344   2.805   5.308   7.307
 8291SOL     OW37345   0.217   1.889   2.080
 8291SOL    HW137346   0.247   1.925   2.168
 8291SOL    HW237347   0.250   1.796   2.069
 8292SOL     OW37348   2.431   0.816   0.941
 8292SOL    HW137349   2.408   0.834   1.037
 8292SOL    HW237350   2.498   0.742   0.936
 8293SOL     OW37351   2.824   2.292   1.734
 8293SOL    HW137352   2.783   2.206   1.763
 8293SOL    HW237353   2.764   2.335   1.666
 8294SOL     OW37354   5.510   2.619   3.085
 8294SOL    HW137355   5.424   2.580   3.118
 8294SOL    HW237356   5.553   2.556   3.020
 8295SOL     OW37357   0.708   3.380   5.178
 8295SOL    HW137358   0.702   3.383   5.078
 8295SOL    HW237359   0.633   3.432   5.218
 8296SOL     OW37360   0.131   2.964   1.104
 8296SOL    HW137361   0.186   2.931   1.182
 8296SOL    HW237362   0.169   2.927   1.019
 8297SOL     OW37363   5.757   4.945   4.286
 8297SOL    HW137364   5.757   5.038   4.322
 8297SOL    HW237365   5.836   4.931   4.228
 8298SOL     OW37366   7.313   3.147   6.018
 8298SOL    HW137367   7.236   3.155   6.081
 8298SOL    HW237368   7.315   3.054   5.979
 8299SOL     OW37369   6.857   6.991   7.190
 8299SOL    HW137370   6.851   7.046   7.272
 8299SOL    HW237371   6.946   6.945   7.187
 8300SOL     OW37372   4.312   0.897   1.043
 8300SOL    HW137373   4.333   0.829   0.972
 8300SOL    HW237374   4.225   0.875   1.085
 8301SOL     OW37375   1.410   2.222   5.276
 8301SOL    HW137376   1.448   2.133   5.248
 8301SOL    HW237377   1.457   2.295   5.225
 8302SOL     OW37378   3.392   5.686   2.758
 8302SOL    HW137379   3.482   5.728   2.763
 8302SOL    HW237380   3.397   5.602   2.705
 8303SOL     OW37381   7.128   0.658   2.803
 8303SOL    HW137382   7.057   0.632   2.738
 8303SOL    HW237383   7.169   0.576   2.843
 8304SOL     OW37384   0.162   6.352   4.465
 8304SOL    HW137385   0.081   6.322   4.415
 8304SOL    HW237386   0.153   6.449   4.489
 8305SOL     OW37387   4.701   5.664   2.376
 8305SOL    HW137388   4.793   5.673   2.339
 8305SOL    HW237389   4.673   5.751   2.417
 8306SOL     OW37390   6.893   4.724   3.140
 8306SOL    HW137391   6.821   4.722   3.071
 8306SOL    HW237392   6.973   4.674   3.106
 8307SOL     OW37393   5.599   0.987   5.964
 8307SOL    HW137394   5.680   0.971   6.021
 8307SOL    HW237395   5.628   0.999   5.869
 8308SOL     OW37396   3.184   4.830   6.266
 8308SOL    HW137397   3.223   4.749   6.310
 8308SOL    HW237398   3.245   4.863   6.194
 8309SOL     OW37399   7.339   2.945   4.426
 8309SOL    HW137400   7.368   2.854   4.398
 8309SOL    HW237401   7.251   2.939   4.474
 8310SOL     OW37402   5.261   4.836   4.761
 8310SOL    HW137403   5.293   4.745   4.733
 8310SOL    HW237404   5.293   4.856   4.853
 8311SOL     OW37405   2.252   5.196   0.829
 8311SOL    HW137406   2.315   5.270   0.806
 8311SOL    HW237407   2.176   5.195   0.765
 8312SOL     OW37408   7.286   4.177   6.977
 8312SOL    HW137409   7.226   4.143   7.050
 8312SOL    HW237410   7.235   4.240   6.919
 8313SOL     OW37411   6.811   0.386   5.074
 8313SOL    HW137412   6.723   0.425   5.049
 8313SOL    HW237413   6.802   0.333   5.158
 8314SOL     OW37414   5.689   3.062   2.384
 8314SOL    HW137415   5.599   3.017   2.384
 8314SOL    HW237416   5.743   3.028   2.461
 8315SOL     OW37417   6.433   4.637   1.459
 8315SOL    HW137418   6.374   4.715   1.481
 8315SOL    HW237419   6.518   4.670   1.418
 8316SOL     OW37420   0.296   4.992   4.614
 8316SOL    HW137421   0.220   4.943   4.657
 8316SOL    HW237422   0.344   5.046   4.682
 8317SOL     OW37423   0.399   3.171   7.003
 8317SOL    HW137424   0.346   3.255   7.012
 8317SOL    HW237425   0.346   3.094   7.040
 8318SOL     OW37426   5.310   3.956   2.849
 8318SOL    HW137427   5.386   4.000   2.898
 8318SOL    HW237428   5.323   3.857   2.849
 8319SOL     OW37429   5.916   2.830   2.306
 8319SOL    HW137430   6.012   2.838   2.331
 8319SOL    HW237431   5.892   2.903   2.242
 8320SOL     OW37432   4.440   0.366   5.168
 8320SOL    HW137433   4.369   0.425   5.130
 8320SOL    HW237434   4.404   0.317   5.247
 8321SOL     OW37435   4.725   6.880   3.078
 8321SOL    HW137436   4.738   6.803   3.015
 8321SOL    HW237437   4.693   6.960   3.027
 8322SOL     OW37438   3.520   1.648   7.036
 8322SOL    HW137439   3.447   1.715   7.036
 8322SOL    HW237440   3.500   1.575   6.971
 8323SOL     OW37441   6.689   2.748   7.114
 8323SOL    HW137442   6.712   2.844   7.100
 8323SOL    HW237443   6.615   2.741   7.181
 8324SOL     OW37444   5.408   2.539   3.825
 8324SOL    HW137445   5.329   2.592   3.856
 8324SOL    HW237446   5.400   2.522   3.727
 8325SOL     OW37447   3.732   5.492   2.329
 8325SOL    HW137448   3.750   5.427   2.255
 8325SOL    HW237449   3.801   5.481   2.400
 8326SOL     OW37450   6.672   0.623   0.379
 8326SOL    HW137451   6.657   0.721   0.364
 8326SOL    HW237452   6.665   0.603   0.477
 8327SOL     OW37453   7.198   3.526   5.850
 8327SOL    HW137454   7.233   3.433   5.838
 8327SOL    HW237455   7.229   3.562   5.938
 8328SOL     OW37456   6.219   6.556   0.406
 8328SOL    HW137457   6.313   6.529   0.428
 8328SOL    HW237458   6.170   6.478   0.368
 8329SOL     OW37459   3.255   2.054   2.452
 8329SOL    HW137460   3.259   1.958   2.482
 8329SOL    HW237461   3.347   2.088   2.435
 8330SOL     OW37462   0.984   4.200   4.930
 8330SOL    HW137463   0.937   4.180   5.016
 8330SOL    HW237464   1.018   4.293   4.931
 8331SOL     OW37465   2.276   0.153   1.464
 8331SOL    HW137466   2.373   0.163   1.486
 8331SOL    HW237467   2.266   0.130   1.367
 8332SOL     OW37468   6.964   4.582   0.962
 8332SOL    HW137469   6.873   4.546   0.984
 8332SOL    HW237470   7.019   4.587   1.045
 8333SOL     OW37471   2.250   0.671   3.183
 8333SOL    HW137472   2.217   0.753   3.138
 8333SOL    HW237473   2.215   0.590   3.136
 8334SOL     OW37474   5.647   3.926   1.433
 8334SOL    HW137475   5.659   3.846   1.374
 8334SOL    HW237476   5.677   4.008   1.384
 8335SOL     OW37477   3.540   1.041   2.431
 8335SOL    HW137478   3.512   0.948   2.458
 8335SOL    HW237479   3.639   1.050   2.441
 8336SOL     OW37480   7.281   4.152   5.739
 8336SOL    HW137481   7.325   4.218   5.801
 8336SOL    HW237482   7.183   4.152   5.754
 8337SOL     OW37483   2.107   1.618   1.192
 8337SOL    HW137484   2.036   1.564   1.239
 8337SOL    HW237485   2.084   1.626   1.095
 8338SOL     OW37486   1.952   2.386   2.180
 8338SOL    HW137487   2.015   2.465   2.178
 8338SOL    HW237488   1.858   2.419   2.190
 8339SOL     OW37489   7.148   7.121   7.053
 8339SOL    HW137490   7.154   7.052   6.981
 8339SOL    HW237491   7.136   7.076   7.141
 8340SOL     OW37492   1.172   2.777   2.627
 8340SOL    HW137493   1.218   2.691   2.649
 8340SOL    HW237494   1.076   2.771   2.654
 8341SOL     OW37495   2.419   6.456   1.629
 8341SOL    HW137496   2.448   6.549   1.649
 8341SOL    HW237497   2.325   6.443   1.661
 8342SOL     OW37498   6.131   3.060   6.846
 8342SOL    HW137499   6.039   3.076   6.810
 8342SOL    HW237500   6.134   2.973   6.894
 8343SOL     OW37501   4.933   3.055   2.343
 8343SOL    HW137502   4.864   3.063   2.272
 8343SOL    HW237503   5.006   3.122   2.326
 8344SOL     OW37504   4.230   6.889   6.351
 8344SOL    HW137505   4.146   6.882   6.297
 8344SOL    HW237506   4.279   6.972   6.325
 8345SOL     OW37507   4.533   7.192   2.524
 8345SOL    HW137508   4.454   7.230   2.573
 8345SOL    HW237509   4.609   7.180   2.589
 8346SOL     OW37510   1.828   1.650   1.825
 8346SOL    HW137511   1.857   1.737   1.786
 8346SOL    HW237512   1.821   1.659   1.924
 8347SOL     OW37513   3.423   0.537   0.554
 8347SOL    HW137514   3.390   0.568   0.464
 8347SOL    HW237515   3.485   0.606   0.591
 8348SOL     OW37516   1.629   2.180   0.973
 8348SOL    HW137517   1.540   2.135   0.985
 8348SOL    HW237518   1.673   2.191   1.062
 8349SOL     OW37519   6.637   3.034   0.076
 8349SOL    HW137520   6.602   2.989   8.994
 8349SOL    HW237521   6.737   3.027   0.078
 8350SOL     OW37522   1.680   2.352   2.862
 8350SOL    HW137523   1.607   2.365   2.794
 8350SOL    HW237524   1.657   2.275   2.921
 8351SOL     OW37525   0.625   1.129   0.710
 8351SOL    HW137526   0.615   1.215   0.761
 8351SOL    HW237527   0.719   1.120   0.678
 8352SOL     OW37528   3.522   0.181   6.375
 8352SOL    HW137529   3.503   0.225   6.463
 8352SOL    HW237530   3.554   0.250   6.309
 8353SOL     OW37531   7.158   3.275   4.717
 8353SOL    HW137532   7.189   3.191   4.762
 8353SOL    HW237533   7.220   3.297   4.641
 8354SOL     OW37534   0.419   5.147   4.794
 8354SOL    HW137535   0.386   5.202   4.870
 8354SOL    HW237536   0.518   5.135   4.802
 8355SOL     OW37537   4.599   0.526   2.539
 8355SOL    HW137538   4.532   0.577   2.593
 8355SOL    HW237539   4.552   0.459   2.481
 8356SOL     OW37540   2.957   0.822   1.992
 8356SOL    HW137541   3.004   0.739   1.963
 8356SOL    HW237542   3.025   0.894   2.009
 8357SOL     OW37543   2.040   4.587   2.281
 8357SOL    HW137544   1.955   4.537   2.262
 8357SOL    HW237545   2.025   4.685   2.267
 8358SOL     OW37546   4.923   0.079   6.616
 8358SOL    HW137547   4.979   0.160   6.602
 8358SOL    HW237548   4.860   0.095   6.692
 8359SOL     OW37549   4.172   3.645   3.498
 8359SOL    HW137550   4.115   3.571   3.533
 8359SOL    HW237551   4.128   3.687   3.418
 8360SOL     OW37552   4.390   1.301   4.834
 8360SOL    HW137553   4.326   1.338   4.767
 8360SOL    HW237554   4.369   1.205   4.852
 8361SOL     OW37555   4.974   2.281   3.335
 8361SOL    HW137556   4.955   2.358   3.275
 8361SOL    HW237557   4.922   2.291   3.420
 8362SOL     OW37558   4.968   4.964   6.908
 8362SOL    HW137559   4.999   5.058   6.917
 8362SOL    HW237560   5.045   4.905   6.882
 8363SOL     OW37561   6.083   4.325   2.040
 8363SOL    HW137562   6.077   4.249   1.976
 8363SOL    HW237563   6.000   4.381   2.033
 8364SOL     OW37564   4.674   6.886   3.941
 8364SOL    HW137565   4.656   6.791   3.968
 8364SOL    HW237566   4.624   6.948   4.001
 8365SOL     OW37567   1.504   4.326   4.065
 8365SOL    HW137568   1.444   4.255   4.029
 8365SOL    HW237569   1.459   4.373   4.141
 8366SOL     OW37570   3.905   6.385   4.723
 8366SOL    HW137571   3.916   6.485   4.723
 8366SOL    HW237572   3.809   6.362   4.738
 8367SOL     OW37573   5.515   5.767   5.856
 8367SOL    HW137574   5.615   5.760   5.849
 8367SOL    HW237575   5.492   5.811   5.943
 8368SOL     OW37576   0.002   1.964   6.191
 8368SOL    HW137577   0.049   1.887   6.148
 8368SOL    HW237578   0.069   2.030   6.226
 8369SOL     OW37579   7.301   3.890   2.360
 8369SOL    HW137580   7.392   3.855   2.339
 8369SOL    HW237581   7.237   3.814   2.366
 8370SOL     OW37582   2.134   1.144   3.390
 8370SOL    HW137583   2.218   1.168   3.439
 8370SOL    HW237584   2.148   1.156   3.292
 8371SOL     OW37585   4.945   5.078   2.996
 8371SOL    HW137586   4.861   5.049   3.043
 8371SOL    HW237587   4.935   5.061   2.898
 8372SOL     OW37588   4.592   0.022   2.356
 8372SOL    HW137589   4.571   8.931   2.391
 8372SOL    HW237590   4.513   0.058   2.306
 8373SOL     OW37591   3.128   5.668   5.226
 8373SOL    HW137592   3.186   5.668   5.308
 8373SOL    HW237593   3.097   5.574   5.208
 8374SOL     OW37594   6.833   1.871   4.406
 8374SOL    HW137595   6.770   1.794   4.416
 8374SOL    HW237596   6.811   1.941   4.475
 8375SOL     OW37597   0.585   2.894   5.348
 8375SOL    HW137598   0.663   2.925   5.401
 8375SOL    HW237599   0.616   2.830   5.277
 8376SOL     OW37600   4.872   3.153   3.219
 8376SOL    HW137601   4.860   3.091   3.296
 8376SOL    HW237602   4.850   3.105   3.134
 8377SOL     OW37603   7.208   2.271   1.775
 8377SOL    HW137604   7.285   2.298   1.833
 8377SOL    HW237605   7.138   2.343   1.777
 8378SOL     OW37606   2.920   1.818   6.448
 8378SOL    HW137607   2.938   1.899   6.504
 8378SOL    HW237608   2.828   1.823   6.409
 8379SOL     OW37609   4.826   2.525   1.877
 8379SOL    HW137610   4.758   2.592   1.847
 8379SOL    HW237611   4.879   2.564   1.953
 8380SOL     OW37612   0.725   2.888   7.355
 8380SOL    HW137613   0.644   2.890   7.297
 8380SOL    HW237614   0.781   2.970   7.337
 8381SOL     OW37615   4.009   3.603   5.048
 8381SOL    HW137616   3.936   3.642   5.104
 8381SOL    HW237617   4.094   3.603   5.100
 8382SOL     OW37618   3.339   1.339   5.051
 8382SOL    HW137619   3.318   1.244   5.030
 8382SOL    HW237620   3.273   1.399   5.004
 8383SOL     OW37621   5.144   6.767   4.395
 8383SOL    HW137622   5.116   6.859   4.369
 8383SOL    HW237623   5.228   6.771   4.450
 8384SOL     OW37624   3.184   3.560   6.047
 8384SOL    HW137625   3.193   3.638   6.109
 8384SOL    HW237626   3.110   3.501   6.078
 8385SOL     OW37627   3.050   6.817   1.471
 8385SOL    HW137628   3.076   6.910   1.499
 8385SOL    HW237629   2.951   6.811   1.461
 8386SOL     OW37630   0.634   0.630   1.796
 8386SOL    HW137631   0.550   0.578   1.784
 8386SOL    HW237632   0.625   0.689   1.877
 8387SOL     OW37633   5.871   1.764   2.759
 8387SOL    HW137634   5.871   1.677   2.809
 8387SOL    HW237635   5.777   1.796   2.748
 8388SOL     OW37636   0.953   6.187   4.453
 8388SOL    HW137637   1.023   6.127   4.414
 8388SOL    HW237638   0.903   6.138   4.524
 8389SOL     OW37639   0.059   4.396   3.715
 8389SOL    HW137640   0.007   4.311   3.706
 8389SOL    HW237641   0.087   4.427   3.624
 8390SOL     OW37642   2.895   3.922   0.182
 8390SOL    HW137643   2.811   3.936   0.131
 8390SOL    HW237644   2.912   3.824   0.195
 8391SOL     OW37645   6.378   4.178   2.040
 8391SOL    HW137646   6.305   4.142   1.983
 8391SOL    HW237647   6.374   4.278   2.042
 8392SOL     OW37648   5.777   1.387   0.710
 8392SOL    HW137649   5.840   1.324   0.666
 8392SOL    HW237650   5.704   1.335   0.754
 8393SOL     OW37651   3.856   3.116   1.863
 8393SOL    HW137652   3.911   3.035   1.885
 8393SOL    HW237653   3.768   3.111   1.910
 8394SOL     OW37654   3.067   3.398   6.932
 8394SOL    HW137655   3.100   3.403   7.027
 8394SOL    HW237656   3.035   3.488   6.904
 8395SOL     OW37657   5.750   3.987   1.692
 8395SOL    HW137658   5.711   3.954   1.606
 8395SOL    HW237659   5.685   3.969   1.766
 8396SOL     OW37660   4.760   0.724   6.971
 8396SOL    HW137661   4.720   0.674   6.894
 8396SOL    HW237662   4.857   0.740   6.953
 8397SOL     OW37663   4.890   2.982   2.943
 8397SOL    HW137664   4.803   2.954   2.904
 8397SOL    HW237665   4.908   3.077   2.918
 8398SOL     OW37666   4.416   2.360   3.334
 8398SOL    HW137667   4.332   2.308   3.327
 8398SOL    HW237668   4.492   2.305   3.299
 8399SOL     OW37669   6.658   7.182   3.538
 8399SOL    HW137670   6.754   7.192   3.567
 8399SOL    HW237671   6.637   7.251   3.469
 8400SOL     OW37672   4.275   5.218   6.526
 8400SOL    HW137673   4.279   5.121   6.501
 8400SOL    HW237674   4.367   5.253   6.543
 8401SOL     OW37675   6.794   2.633   5.381
 8401SOL    HW137676   6.760   2.723   5.409
 8401SOL    HW237677   6.722   2.584   5.333
 8402SOL     OW37678   6.314   4.461   1.991
 8402SOL    HW137679   6.232   4.410   2.014
 8402SOL    HW237680   6.289   4.549   1.951
 8403SOL     OW37681   6.393   2.868   1.304
 8403SOL    HW137682   6.461   2.820   1.248
 8403SOL    HW237683   6.379   2.960   1.267
 8404SOL     OW37684   5.933   2.705   2.723
 8404SOL    HW137685   5.994   2.730   2.798
 8404SOL    HW237686   5.879   2.625   2.749
 8405SOL     OW37687   5.244   7.207   2.170
 8405SOL    HW137688   5.282   7.116   2.155
 8405SOL    HW237689   5.265   7.238   2.262
 8406SOL     OW37690   6.414   0.635   6.246
 8406SOL    HW137691   6.480   0.594   6.309
 8406SOL    HW237692   6.368   0.563   6.195
 8407SOL     OW37693   5.430   0.204   6.150
 8407SOL    HW137694   5.346   0.154   6.129
 8407SOL    HW237695   5.506   0.165   6.099
 8408SOL     OW37696   5.342   2.771   3.301
 8408SOL    HW137697   5.318   2.683   3.260
 8408SOL    HW237698   5.441   2.776   3.314
 8409SOL     OW37699   7.254   4.579   2.937
 8409SOL    HW137700   7.308   4.610   2.858
 8409SOL    HW237701   7.166   4.544   2.905
 8410SOL     OW37702   1.341   2.701   1.434
 8410SOL    HW137703   1.379   2.790   1.460
 8410SOL    HW237704   1.250   2.714   1.394
 8411SOL     OW37705   3.062   5.522   6.297
 8411SOL    HW137706   2.979   5.465   6.291
 8411SOL    HW237707   3.099   5.518   6.390
 8412SOL     OW37708   6.711   0.107   2.328
 8412SOL    HW137709   6.756   0.191   2.356
 8412SOL    HW237710   6.634   0.088   2.389
 8413SOL     OW37711   2.342   4.569   3.735
 8413SOL    HW137712   2.391   4.586   3.649
 8413SOL    HW237713   2.258   4.624   3.737
 8414SOL     OW37714   6.430   3.890   4.553
 8414SOL    HW137715   6.343   3.907   4.599
 8414SOL    HW237716   6.500   3.868   4.621
 8415SOL     OW37717   3.703   6.316   5.776
 8415SOL    HW137718   3.765   6.341   5.702
 8415SOL    HW237719   3.711   6.218   5.794
 8416SOL     OW37720   3.955   3.358   6.222
 8416SOL    HW137721   4.053   3.377   6.236
 8416SOL    HW237722   3.909   3.355   6.311
 8417SOL     OW37723   3.420   7.002   0.664
 8417SOL    HW137724   3.473   7.004   0.579
 8417SOL    HW237725   3.440   6.917   0.714
 8418SOL     OW37726   2.882   4.540   1.476
 8418SOL    HW137727   2.816   4.471   1.507
 8418SOL    HW237728   2.975   4.509   1.495
 8419SOL     OW37729   1.813   2.611   4.343
 8419SOL    HW137730   1.772   2.540   4.285
 8419SOL    HW237731   1.869   2.568   4.413
 8420SOL     OW37732   5.503   5.852   4.991
 8420SOL    HW137733   5.519   5.926   5.057
 8420SOL    HW237734   5.458   5.776   5.038
 8421SOL     OW37735   3.819   1.737   2.000
 8421SOL    HW137736   3.735   1.785   2.027
 8421SOL    HW237737   3.795   1.654   1.949
 8422SOL     OW37738   5.200   3.672   5.978
 8422SOL    HW137739   5.196   3.615   5.896
 8422SOL    HW237740   5.110   3.714   5.994
 8423SOL     OW37741   5.866   1.544   1.455
 8423SOL    HW137742   5.845   1.542   1.357
 8423SOL    HW237743   5.878   1.451   1.489
 8424SOL     OW37744   5.261   3.703   6.816
 8424SOL    HW137745   5.284   3.662   6.904
 8424SOL    HW237746   5.328   3.674   6.747
 8425SOL     OW37747   4.867   1.759   2.444
 8425SOL    HW137748   4.883   1.836   2.506
 8425SOL    HW237749   4.825   1.684   2.496
 8426SOL     OW37750   1.546   2.205   6.439
 8426SOL    HW137751   1.499   2.151   6.509
 8426SOL    HW237752   1.482   2.271   6.399
 8427SOL     OW37753   4.278   2.627   5.734
 8427SOL    HW137754   4.366   2.592   5.767
 8427SOL    HW237755   4.276   2.727   5.743
 8428SOL     OW37756   7.169   2.808   5.597
 8428SOL    HW137757   7.124   2.758   5.523
 8428SOL    HW237758   7.126   2.785   5.684
 8429SOL     OW37759   6.570   5.678   1.480
 8429SOL    HW137760   6.476   5.702   1.503
 8429SOL    HW237761   6.625   5.761   1.469
 8430SOL     OW37762   5.722   5.429   5.881
 8430SOL    HW137763   5.804   5.443   5.825
 8430SOL    HW237764   5.715   5.503   5.948
 8431SOL     OW37765   0.390   4.350   5.353
 8431SOL    HW137766   0.363   4.298   5.433
 8431SOL    HW237767   0.309   4.386   5.307
 8432SOL     OW37768   0.162   2.607   5.312
 8432SOL    HW137769   0.070   2.643   5.298
 8432SOL    HW237770   0.221   2.679   5.347
 8433SOL     OW37771   1.338   7.138   5.718
 8433SOL    HW137772   1.415   7.166   5.774
 8433SOL    HW237773   1.315   7.042   5.738
 8434SOL     OW37774   6.867   1.697   4.700
 8434SOL    HW137775   6.939   1.661   4.639
 8434SOL    HW237776   6.908   1.764   4.763
 8435SOL     OW37777   6.757   2.989   6.765
 8435SOL    HW137778   6.702   3.028   6.691
 8435SOL    HW237779   6.854   3.000   6.744
 8436SOL     OW37780   3.687   0.146   1.341
 8436SOL    HW137781   3.713   0.124   1.435
 8436SOL    HW237782   3.744   0.095   1.277
 8437SOL     OW37783   2.302   2.240   4.796
 8437SOL    HW137784   2.384   2.271   4.747
 8437SOL    HW237785   2.299   2.284   4.886
 8438SOL     OW37786   4.345   5.369   2.849
 8438SOL    HW137787   4.255   5.387   2.808
 8438SOL    HW237788   4.393   5.455   2.861
 8439SOL     OW37789   0.955   2.599   1.131
 8439SOL    HW137790   0.905   2.648   1.061
 8439SOL    HW237791   0.891   2.555   1.194
 8440SOL     OW37792   3.140   2.732   6.609
 8440SOL    HW137793   3.049   2.741   6.650
 8440SOL    HW237794   3.188   2.655   6.650
 8441SOL     OW37795   5.689   4.383   6.071
 8441SOL    HW137796   5.719   4.426   5.986
 8441SOL    HW237797   5.741   4.299   6.086
 8442SOL     OW37798   4.471   6.409   5.099
 8442SOL    HW137799   4.424   6.492   5.071
 8442SOL    HW237800   4.436   6.331   5.047
 8443SOL     OW37801   1.556   3.384   5.707
 8443SOL    HW137802   1.511   3.396   5.618
 8443SOL    HW237803   1.622   3.458   5.721
 8444SOL     OW37804   6.910   6.972   0.690
 8444SOL    HW137805   6.953   7.051   0.734
 8444SOL    HW237806   6.908   6.896   0.754
 8445SOL     OW37807   2.998   4.122   4.047
 8445SOL    HW137808   2.988   4.105   4.146
 8445SOL    HW237809   3.001   4.220   4.031
 8446SOL     OW37810   5.539   0.702   4.031
 8446SOL    HW137811   5.584   0.657   4.108
 8446SOL    HW237812   5.606   0.757   3.981
 8447SOL     OW37813   2.577   6.145   0.639
 8447SOL    HW137814   2.596   6.170   0.544
 8447SOL    HW237815   2.479   6.141   0.654
 8448SOL     OW37816   3.810   4.812   3.624
 8448SOL    HW137817   3.755   4.799   3.707
 8448SOL    HW237818   3.897   4.764   3.634
 8449SOL     OW37819   1.273   0.795   4.422
 8449SOL    HW137820   1.313   0.846   4.498
 8449SOL    HW237821   1.267   0.698   4.446
 8450SOL     OW37822   1.755   3.024   2.958
 8450SOL    HW137823   1.799   2.939   2.986
 8450SOL    HW237824   1.749   3.028   2.859
 8451SOL     OW37825   6.190   7.204   2.283
 8451SOL    HW137826   6.128   7.159   2.219
 8451SOL    HW237827   6.284   7.176   2.263
 8452SOL     OW37828   3.236   3.776   5.495
 8452SOL    HW137829   3.146   3.803   5.529
 8452SOL    HW237830   3.258   3.684   5.527
 8453SOL     OW37831   5.207   6.763   2.232
 8453SOL    HW137832   5.261   6.696   2.182
 8453SOL    HW237833   5.243   6.855   2.213
 8454SOL     OW37834   2.413   0.488   1.483
 8454SOL    HW137835   2.337   0.461   1.542
 8454SOL    HW237836   2.451   0.574   1.515
 8455SOL     OW37837   2.192   7.345   3.464
 8455SOL    HW137838   2.238   7.264   3.499
 8455SOL    HW237839   2.259   7.416   3.445
 8456SOL     OW37840   1.976   4.562   1.295
 8456SOL    HW137841   1.897   4.616   1.321
 8456SOL    HW237842   1.946   4.474   1.257
 8457SOL     OW37843   4.400   2.059   3.478
 8457SOL    HW137844   4.435   2.116   3.552
 8457SOL    HW237845   4.336   2.112   3.422
 8458SOL     OW37846   5.216   5.641   4.749
 8458SOL    HW137847   5.267   5.726   4.736
 8458SOL    HW237848   5.127   5.649   4.703
 8459SOL     OW37849   1.618   6.966   6.517
 8459SOL    HW137850   1.668   7.051   6.534
 8459SOL    HW237851   1.605   6.917   6.603
 8460SOL     OW37852   6.947   0.449   6.027
 8460SOL    HW137853   6.876   0.471   6.094
 8460SOL    HW237854   6.933   0.357   5.992
 8461SOL     OW37855   6.648   3.236   4.131
 8461SOL    HW137856   6.611   3.203   4.218
 8461SOL    HW237857   6.685   3.328   4.143
 8462SOL     OW37858   3.584   1.742   2.766
 8462SOL    HW137859   3.555   1.836   2.748
 8462SOL    HW237860   3.519   1.678   2.725
 8463SOL     OW37861   1.959   3.442   2.475
 8463SOL    HW137862   2.024   3.501   2.427
 8463SOL    HW237863   1.881   3.422   2.416
 8464SOL     OW37864   1.868   7.343   0.428
 8464SOL    HW137865   1.798   7.407   0.458
 8464SOL    HW237866   1.878   7.348   0.328
 8465SOL     OW37867   3.687   5.223   0.713
 8465SOL    HW137868   3.707   5.309   0.667
 8465SOL    HW237869   3.728   5.147   0.661
 8466SOL     OW37870   3.755   3.745   0.236
 8466SOL    HW137871   3.731   3.667   0.178
 8466SOL    HW237872   3.799   3.712   0.320
 8467SOL     OW37873   4.637   0.211   3.797
 8467SOL    HW137874   4.691   0.136   3.759
 8467SOL    HW237875   4.680   0.244   3.880
 8468SOL     OW37876   1.109   3.787   7.151
 8468SOL    HW137877   1.152   3.830   7.230
 8468SOL    HW237878   1.056   3.708   7.181
 8469SOL     OW37879   2.750   1.451   2.243
 8469SOL    HW137880   2.716   1.501   2.163
 8469SOL    HW237881   2.693   1.370   2.258
 8470SOL     OW37882   2.679   2.232   0.248
 8470SOL    HW137883   2.752   2.270   0.191
 8470SOL    HW237884   2.642   2.149   0.204
 8471SOL     OW37885   5.682   4.503   3.001
 8471SOL    HW137886   5.660   4.462   2.912
 8471SOL    HW237887   5.621   4.467   3.071
 8472SOL     OW37888   3.325   2.969   1.100
 8472SOL    HW137889   3.290   2.936   1.187
 8472SOL    HW237890   3.254   3.024   1.055
 8473SOL     OW37891   6.668   0.265   6.098
 8473SOL    HW137892   6.580   0.242   6.141
 8473SOL    HW237893   6.654   0.341   6.035
 8474SOL     OW37894   0.823   3.161   4.349
 8474SOL    HW137895   0.792   3.222   4.276
 8474SOL    HW237896   0.746   3.103   4.379
 8475SOL     OW37897   0.327   4.036   5.341
 8475SOL    HW137898   0.386   4.038   5.422
 8475SOL    HW237899   0.377   3.996   5.264
 8476SOL     OW37900   3.009   1.950   3.793
 8476SOL    HW137901   3.085   1.886   3.807
 8476SOL    HW237902   2.981   1.949   3.697
 8477SOL     OW37903   1.253   3.502   2.490
 8477SOL    HW137904   1.179   3.514   2.556
 8477SOL    HW237905   1.320   3.575   2.501
 8478SOL     OW37906   5.653   0.022   3.789
 8478SOL    HW137907   5.633   0.099   3.849
 8478SOL    HW237908   5.751   0.004   3.788
 8479SOL     OW37909   1.035   6.351   0.578
 8479SOL    HW137910   1.062   6.339   0.482
 8479SOL    HW237911   0.939   6.382   0.582
 8480SOL     OW37912   1.457   3.048   1.459
 8480SOL    HW137913   1.379   3.039   1.520
 8480SOL    HW237914   1.425   3.072   1.367
 8481SOL     OW37915   5.056   1.801   4.868
 8481SOL    HW137916   5.093   1.881   4.916
 8481SOL    HW237917   5.126   1.730   4.862
 8482SOL     OW37918   5.678   2.028   2.265
 8482SOL    HW137919   5.744   1.957   2.289
 8482SOL    HW237920   5.658   2.023   2.167
 8483SOL     OW37921   0.467   6.247   6.031
 8483SOL    HW137922   0.422   6.272   5.945
 8483SOL    HW237923   0.552   6.298   6.040
 8484SOL     OW37924   1.993   4.780   3.901
 8484SOL    HW137925   2.036   4.768   3.811
 8484SOL    HW237926   1.913   4.839   3.892
 8485SOL     OW37927   5.595   3.685   3.003
 8485SOL    HW137928   5.553   3.735   3.079
 8485SOL    HW237929   5.695   3.690   3.009
 8486SOL     OW37930   3.735   7.038   3.515
 8486SOL    HW137931   3.731   7.044   3.415
 8486SOL    HW237932   3.809   6.978   3.542
 8487SOL     OW37933   4.562   4.892   5.633
 8487SOL    HW137934   4.659   4.873   5.623
 8487SOL    HW237935   4.548   4.958   5.706
 8488SOL     OW37936   1.085   5.490   7.136
 8488SOL    HW137937   1.039   5.473   7.049
 8488SOL    HW237938   1.037   5.443   7.210
 8489SOL     OW37939   0.939   0.242   1.761
 8489SOL    HW137940   0.907   0.329   1.798
 8489SOL    HW237941   0.979   0.257   1.670
 8490SOL     OW37942   0.382   3.459   2.164
 8490SOL    HW137943   0.440   3.507   2.229
 8490SOL    HW237944   0.365   3.517   2.084
 8491SOL     OW37945   3.175   3.367   1.904
 8491SOL    HW137946   3.247   3.305   1.933
 8491SOL    HW237947   3.149   3.426   1.980
 8492SOL     OW37948   4.498   4.408   2.740
 8492SOL    HW137949   4.434   4.437   2.668
 8492SOL    HW237950   4.588   4.447   2.722
 8493SOL     OW37951   6.432   0.763   3.178
 8493SOL    HW137952   6.405   0.843   3.231
 8493SOL    HW237953   6.510   0.785   3.120
 8494SOL     OW37954   6.404   1.032   3.261
 8494SOL    HW137955   6.341   1.040   3.183
 8494SOL    HW237956   6.494   1.069   3.235
 8495SOL     OW37957   5.893   4.232   0.579
 8495SOL    HW137958   5.962   4.172   0.619
 8495SOL    HW237959   5.923   4.260   0.488
 8496SOL     OW37960   4.823   1.130   5.155
 8496SOL    HW137961   4.746   1.156   5.213
 8496SOL    HW237962   4.809   1.038   5.118
 8497SOL     OW37963   6.928   0.574   1.932
 8497SOL    HW137964   6.903   0.575   1.835
 8497SOL    HW237965   6.922   0.667   1.969
 8498SOL     OW37966   0.112   4.059   5.645
 8498SOL    HW137967   0.042   4.119   5.607
 8498SOL    HW237968   0.111   3.971   5.598
 8499SOL     OW37969   2.360   1.776   0.578
 8499SOL    HW137970   2.441   1.722   0.553
 8499SOL    HW237971   2.283   1.750   0.519
 8500SOL     OW37972   2.853   1.414   6.074
 8500SOL    HW137973   2.754   1.406   6.063
 8500SOL    HW237974   2.892   1.324   6.092
 8501SOL     OW37975   7.047   2.190   4.547
 8501SOL    HW137976   7.076   2.098   4.522
 8501SOL    HW237977   7.097   2.219   4.628
 8502SOL     OW37978   6.185   2.630   7.342
 8502SOL    HW137979   6.197   2.701   7.412
 8502SOL    HW237980   6.201   2.669   7.251
 8503SOL     OW37981   3.890   0.495   3.662
 8503SOL    HW137982   3.974   0.516   3.712
 8503SOL    HW237983   3.859   0.576   3.614
 8504SOL     OW37984   3.313   2.822   4.110
 8504SOL    HW137985   3.233   2.764   4.129
 8504SOL    HW237986   3.346   2.803   4.018
 8505SOL     OW37987   4.336   2.928   7.198
 8505SOL    HW137988   4.287   2.845   7.228
 8505SOL    HW237989   4.320   2.942   7.100
 8506SOL     OW37990   2.588   6.917   6.155
 8506SOL    HW137991   2.523   6.876   6.092
 8506SOL    HW237992   2.625   7.001   6.115
 8507SOL     OW37993   0.210   0.875   1.701
 8507SOL    HW137994   0.154   0.937   1.756
 8507SOL    HW237995   0.305   0.878   1.733
 8508SOL     OW37996   2.361   5.711   5.620
 8508SOL    HW137997   2.396   5.751   5.535
 8508SOL    HW237998   2.283   5.653   5.600
 8509SOL     OW37999   4.055   5.103   6.165
 8509SOL    HW138000   4.150   5.076   6.185
 8509SOL    HW238001   3.998   5.021   6.159
 8510SOL     OW38002   5.380   6.741   3.769
 8510SOL    HW138003   5.463   6.685   3.766
 8510SOL    HW238004   5.327   6.727   3.686
 8511SOL     OW38005   5.787   3.736   2.650
 8511SOL    HW138006   5.800   3.639   2.671
 8511SOL    HW238007   5.871   3.786   2.674
 8512SOL     OW38008   0.510   3.530   5.302
 8512SOL    HW138009   0.413   3.514   5.288
 8512SOL    HW238010   0.528   3.546   5.399
 8513SOL     OW38011   6.299   4.946   0.311
 8513SOL    HW138012   6.380   4.940   0.252
 8513SOL    HW238013   6.243   4.865   0.299
 8514SOL     OW38014   3.937   2.640   5.991
 8514SOL    HW138015   3.939   2.739   6.003
 8514SOL    HW238016   3.992   2.597   6.062
 8515SOL     OW38017   1.985   2.318   6.919
 8515SOL    HW138018   1.945   2.232   6.952
 8515SOL    HW238019   2.055   2.299   6.851
 8516SOL     OW38020   5.041   1.429   0.253
 8516SOL    HW138021   5.002   1.509   0.208
 8516SOL    HW238022   4.970   1.361   0.269
 8517SOL     OW38023   0.921   3.810   4.937
 8517SOL    HW138024   0.986   3.790   4.863
 8517SOL    HW238025   0.843   3.748   4.930
 8518SOL     OW38026   2.534   5.004   0.594
 8518SOL    HW138027   2.518   5.020   0.691
 8518SOL    HW238028   2.527   4.907   0.574
 8519SOL     OW38029   1.811   0.549   5.763
 8519SOL    HW138030   1.910   0.566   5.757
 8519SOL    HW238031   1.795   0.450   5.763
 8520SOL     OW38032   2.223   6.284   1.932
 8520SOL    HW138033   2.165   6.203   1.931
 8520SOL    HW238034   2.198   6.344   1.857
 8521SOL     OW38035   6.071   1.871   1.500
 8521SOL    HW138036   6.089   1.967   1.479
 8521SOL    HW238037   6.105   1.850   1.592
 8522SOL     OW38038   2.804   3.515   1.842
 8522SOL    HW138039   2.727   3.513   1.907
 8522SOL    HW238040   2.821   3.422   1.809
 8523SOL     OW38041   2.238   6.427   1.315
 8523SOL    HW138042   2.231   6.524   1.339
 8523SOL    HW238043   2.334   6.401   1.305
 8524SOL     OW38044   0.710   4.603   4.424
 8524SOL    HW138045   0.620   4.583   4.463
 8524SOL    HW238046   0.727   4.701   4.427
 8525SOL     OW38047   5.062   2.525   4.041
 8525SOL    HW138048   5.115   2.586   3.982
 8525SOL    HW238049   5.015   2.457   3.985
 8526SOL     OW38050   0.941   4.469   5.206
 8526SOL    HW138051   0.939   4.554   5.258
 8526SOL    HW238052   0.973   4.487   5.113
 8527SOL     OW38053   6.281   0.604   6.557
 8527SOL    HW138054   6.311   0.509   6.541
 8527SOL    HW238055   6.248   0.613   6.651
 8528SOL     OW38056   5.739   0.366   2.709
 8528SOL    HW138057   5.661   0.426   2.729
 8528SOL    HW238058   5.820   0.422   2.692
 8529SOL     OW38059   1.969   5.264   5.875
 8529SOL    HW138060   2.015   5.178   5.896
 8529SOL    HW238061   1.959   5.318   5.959
 8530SOL     OW38062   3.080   1.350   1.567
 8530SOL    HW138063   3.122   1.398   1.644
 8530SOL    HW238064   3.106   1.396   1.482
 8531SOL     OW38065   2.653   7.107   1.114
 8531SOL    HW138066   2.714   7.099   1.193
 8531SOL    HW238067   2.597   7.024   1.107
 8532SOL     OW38068   1.425   2.634   5.826
 8532SOL    HW138069   1.510   2.623   5.775
 8532SOL    HW238070   1.347   2.621   5.765
 8533SOL     OW38071   3.612   1.854   5.783
 8533SOL    HW138072   3.558   1.821   5.860
 8533SOL    HW238073   3.600   1.953   5.775
 8534SOL     OW38074   5.323   5.161   7.144
 8534SOL    HW138075   5.311   5.203   7.054
 8534SOL    HW238076   5.347   5.065   7.133
 8535SOL     OW38077   0.140   3.670   3.695
 8535SOL    HW138078   0.164   3.690   3.790
 8535SOL    HW238079   0.224   3.663   3.640
 8536SOL     OW38080   7.066   3.189   1.536
 8536SOL    HW138081   6.986   3.238   1.570
 8536SOL    HW238082   7.062   3.185   1.436
 8537SOL     OW38083   5.651   0.845   0.998
 8537SOL    HW138084   5.736   0.859   0.946
 8537SOL    HW238085   5.662   0.881   1.091
 8538SOL     OW38086   2.948   2.104   6.865
 8538SOL    HW138087   2.900   2.029   6.912
 8538SOL    HW238088   3.023   2.136   6.923
 8539SOL     OW38089   6.619   2.601   6.900
 8539SOL    HW138090   6.646   2.658   6.977
 8539SOL    HW238091   6.622   2.654   6.816
 8540SOL     OW38092   2.779   3.227   3.174
 8540SOL    HW138093   2.833   3.174   3.239
 8540SOL    HW238094   2.836   3.253   3.096
 8541SOL     OW38095   2.911   2.402   6.541
 8541SOL    HW138096   2.865   2.369   6.459
 8541SOL    HW238097   3.009   2.413   6.523
 8542SOL     OW38098   3.292   2.606   4.807
 8542SOL    HW138099   3.341   2.528   4.847
 8542SOL    HW238100   3.314   2.613   4.710
 8543SOL     OW38101   4.083   4.954   2.298
 8543SOL    HW138102   4.152   4.883   2.282
 8543SOL    HW238103   4.128   5.041   2.314
 8544SOL     OW38104   3.044   5.226   1.352
 8544SOL    HW138105   3.139   5.221   1.323
 8544SOL    HW238106   2.998   5.139   1.333
 8545SOL     OW38107   2.656   4.800   5.441
 8545SOL    HW138108   2.717   4.862   5.392
 8545SOL    HW238109   2.684   4.796   5.537
 8546SOL     OW38110   5.460   6.734   6.631
 8546SOL    HW138111   5.389   6.669   6.658
 8546SOL    HW238112   5.508   6.700   6.551
 8547SOL     OW38113   1.761   4.411   3.311
 8547SOL    HW138114   1.858   4.404   3.335
 8547SOL    HW238115   1.740   4.348   3.236
 8548SOL     OW38116   0.743   5.439   6.429
 8548SOL    HW138117   0.812   5.367   6.428
 8548SOL    HW238118   0.692   5.437   6.342
 8549SOL     OW38119   3.421   7.105   1.785
 8549SOL    HW138120   3.362   7.170   1.738
 8549SOL    HW238121   3.421   7.018   1.736
 8550SOL     OW38122   3.781   7.235   1.553
 8550SOL    HW138123   3.746   7.144   1.534
 8550SOL    HW238124   3.875   7.243   1.521
 8551SOL     OW38125   0.889   3.522   3.032
 8551SOL    HW138126   0.984   3.534   3.001
 8551SOL    HW238127   0.851   3.611   3.056
 8552SOL     OW38128   2.969   6.939   0.605
 8552SOL    HW138129   3.046   6.977   0.656
 8552SOL    HW238130   2.948   6.847   0.641
 8553SOL     OW38131   5.734   6.909   3.332
 8553SOL    HW138132   5.719   6.811   3.318
 8553SOL    HW238133   5.717   6.957   3.246
 8554SOL     OW38134   6.445   1.787   0.579
 8554SOL    HW138135   6.394   1.867   0.548
 8554SOL    HW238136   6.505   1.755   0.506
 8555SOL     OW38137   4.900   3.078   1.900
 8555SOL    HW138138   4.945   3.142   1.838
 8555SOL    HW238139   4.823   3.035   1.854
 8556SOL     OW38140   6.744   1.825   6.206
 8556SOL    HW138141   6.669   1.879   6.244
 8556SOL    HW238142   6.811   1.805   6.277
 8557SOL     OW38143   2.508   2.015   1.984
 8557SOL    HW138144   2.554   1.944   2.036
 8557SOL    HW238145   2.421   2.038   2.028
 8558SOL     OW38146   1.430   3.116   4.368
 8558SOL    HW138147   1.469   3.151   4.283
 8558SOL    HW238148   1.501   3.070   4.421
 8559SOL     OW38149   2.888   1.646   1.829
 8559SOL    HW138150   2.795   1.631   1.862
 8559SOL    HW238151   2.944   1.565   1.847
 8560SOL     OW38152   5.557   4.298   4.188
 8560SOL    HW138153   5.541   4.396   4.193
 8560SOL    HW238154   5.527   4.263   4.099
 8561SOL     OW38155   2.708   1.276   0.548
 8561SOL    HW138156   2.749   1.258   0.637
 8561SOL    HW238157   2.780   1.301   0.483
 8562SOL     OW38158   0.793   1.974   6.456
 8562SOL    HW138159   0.778   2.034   6.377
 8562SOL    HW238160   0.790   2.029   6.540
 8563SOL     OW38161   4.072   0.760   1.110
 8563SOL    HW138162   4.111   0.687   1.166
 8563SOL    HW238163   4.039   0.722   1.024
 8564SOL     OW38164   5.479   3.981   7.251
 8564SOL    HW138165   5.430   4.058   7.210
 8564SOL    HW238166   5.549   3.949   7.188
 8565SOL     OW38167   4.182   4.947   2.687
 8565SOL    HW138168   4.093   4.956   2.732
 8565SOL    HW238169   4.172   4.965   2.589
 8566SOL     OW38170   3.896   6.323   0.373
 8566SOL    HW138171   3.905   6.226   0.396
 8566SOL    HW238172   3.981   6.371   0.394
 8567SOL     OW38173   6.544   1.111   7.142
 8567SOL    HW138174   6.525   1.204   7.110
 8567SOL    HW238175   6.466   1.079   7.197
 8568SOL     OW38176   7.023   2.175   0.321
 8568SOL    HW138177   7.109   2.126   0.307
 8568SOL    HW238178   6.948   2.124   0.277
 8569SOL     OW38179   5.292   6.002   2.809
 8569SOL    HW138180   5.351   5.948   2.748
 8569SOL    HW238181   5.228   5.941   2.856
 8570SOL     OW38182   7.214   3.770   4.709
 8570SOL    HW138183   7.147   3.831   4.750
 8570SOL    HW238184   7.199   3.677   4.741
 8571SOL     OW38185   6.321   5.687   4.474
 8571SOL    HW138186   6.278   5.700   4.384
 8571SOL    HW238187   6.279   5.749   4.540
 8572SOL     OW38188   5.082   3.315   5.776
 8572SOL    HW138189   5.031   3.401   5.765
 8572SOL    HW238190   5.068   3.280   5.868
 8573SOL     OW38191   6.044   6.636   5.647
 8573SOL    HW138192   6.108   6.563   5.620
 8573SOL    HW238193   5.951   6.608   5.624
 8574SOL     OW38194   6.242   2.422   1.001
 8574SOL    HW138195   6.151   2.382   1.000
 8574SOL    HW238196   6.277   2.430   0.908
 8575SOL     OW38197   5.623   5.561   6.330
 8575SOL    HW138198   5.636   5.588   6.426
 8575SOL    HW238199   5.657   5.467   6.318
 8576SOL     OW38200   2.739   6.417   5.635
 8576SOL    HW138201   2.654   6.391   5.681
 8576SOL    HW238202   2.817   6.396   5.693
 8577SOL     OW38203   4.963   0.077   7.282
 8577SOL    HW138204   4.925   0.136   7.353
 8577SOL    HW238205   4.922   8.986   7.289
 8578SOL     OW38206   3.836   6.312   7.215
 8578SOL    HW138207   3.919   6.334   7.266
 8578SOL    HW238208   3.774   6.390   7.216
 8579SOL     OW38209   4.133   4.144   2.042
 8579SOL    HW138210   4.161   4.230   2.085
 8579SOL    HW238211   4.106   4.162   1.947
 8580SOL     OW38212   6.466   2.807   0.180
 8580SOL    HW138213   6.496   2.882   0.122
 8580SOL    HW238214   6.544   2.773   0.233
 8581SOL     OW38215   2.586   2.602   2.937
 8581SOL    HW138216   2.546   2.570   2.850
 8581SOL    HW238217   2.589   2.702   2.937
 8582SOL     OW38218   0.950   5.444   6.907
 8582SOL    HW138219   0.864   5.494   6.919
 8582SOL    HW238220   0.931   5.350   6.880
 8583SOL     OW38221   1.475   1.478   7.058
 8583SOL    HW138222   1.571   1.494   7.084
 8583SOL    HW238223   1.472   1.439   6.966
 8584SOL     OW38224   3.648   5.797   5.794
 8584SOL    HW138225   3.727   5.742   5.764
 8584SOL    HW238226   3.585   5.808   5.717
 8585SOL     OW38227   3.780   0.397   5.888
 8585SOL    HW138228   3.819   0.400   5.795
 8585SOL    HW238229   3.812   0.315   5.935
 8586SOL     OW38230   0.883   4.841   5.842
 8586SOL    HW138231   0.975   4.802   5.831
 8586SOL    HW238232   0.815   4.772   5.820
 8587SOL     OW38233   1.940   2.185   0.137
 8587SOL    HW138234   1.909   2.134   0.217
 8587SOL    HW238235   1.977   2.274   0.165
 8588SOL     OW38236   3.973   0.780   5.093
 8588SOL    HW138237   3.878   0.805   5.113
 8588SOL    HW238238   3.988   0.684   5.117
 8589SOL     OW38239   3.580   5.336   3.755
 8589SOL    HW138240   3.616   5.322   3.847
 8589SOL    HW238241   3.638   5.289   3.688
 8590SOL     OW38242   4.451   4.361   5.712
 8590SOL    HW138243   4.510   4.402   5.781
 8590SOL    HW238244   4.483   4.269   5.691
 8591SOL     OW38245   3.510   6.812   6.668
 8591SOL    HW138246   3.508   6.868   6.585
 8591SOL    HW238247   3.559   6.861   6.740
 8592SOL     OW38248   3.882   4.216   6.445
 8592SOL    HW138249   3.871   4.226   6.544
 8592SOL    HW238250   3.818   4.147   6.411
 8593SOL     OW38251   4.298   2.731   3.113
 8593SOL    HW138252   4.340   2.765   3.029
 8593SOL    HW238253   4.266   2.809   3.168
 8594SOL     OW38254   6.335   1.540   7.293
 8594SOL    HW138255   6.302   1.509   7.382
 8594SOL    HW238256   6.303   1.478   7.221
 8595SOL     OW38257   6.941   0.572   0.394
 8595SOL    HW138258   6.952   0.534   0.486
 8595SOL    HW238259   6.845   0.593   0.377
 8596SOL     OW38260   4.181   1.141   5.910
 8596SOL    HW138261   4.107   1.087   5.950
 8596SOL    HW238262   4.211   1.211   5.976
 8597SOL     OW38263   6.309   1.063   0.489
 8597SOL    HW138264   6.343   0.976   0.527
 8597SOL    HW238265   6.382   1.131   0.494
 8598SOL     OW38266   2.861   1.654   1.353
 8598SOL    HW138267   2.832   1.563   1.324
 8598SOL    HW238268   2.805   1.723   1.307
 8599SOL     OW38269   4.941   6.868   0.160
 8599SOL    HW138270   4.913   6.960   0.190
 8599SOL    HW238271   4.964   6.813   0.240
 8600SOL     OW38272   1.514   2.204   4.490
 8600SOL    HW138273   1.452   2.132   4.521
 8600SOL    HW238274   1.521   2.201   4.390
 8601SOL     OW38275   5.375   2.410   1.776
 8601SOL    HW138276   5.300   2.441   1.833
 8601SOL    HW238277   5.433   2.347   1.827
 8602SOL     OW38278   4.578   4.564   5.318
 8602SOL    HW138279   4.536   4.490   5.370
 8602SOL    HW238280   4.678   4.558   5.327
 8603SOL     OW38281   8.964   6.869   6.124
 8603SOL    HW138282   0.013   6.947   6.162
 8603SOL    HW238283   0.005   6.784   6.158
 8604SOL     OW38284   6.240   3.255   2.076
 8604SOL    HW138285   6.241   3.157   2.060
 8604SOL    HW238286   6.326   3.283   2.119
 8605SOL     OW38287   2.959   5.776   2.218
 8605SOL    HW138288   2.916   5.742   2.302
 8605SOL    HW238289   2.989   5.870   2.232
 8606SOL     OW38290   3.693   0.692   3.983
 8606SOL    HW138291   3.594   0.694   3.973
 8606SOL    HW238292   3.727   0.600   3.960
 8607SOL     OW38293   3.011   4.077   5.358
 8607SOL    HW138294   3.081   4.146   5.376
 8607SOL    HW238295   3.006   4.013   5.435
 8608SOL     OW38296   5.027   1.909   6.160
 8608SOL    HW138297   5.093   1.984   6.158
 8608SOL    HW238298   4.959   1.923   6.089
 8609SOL     OW38299   3.887   4.448   5.147
 8609SOL    HW138300   3.839   4.362   5.128
 8609SOL    HW238301   3.942   4.473   5.067
 8610SOL     OW38302   1.005   5.666   6.733
 8610SOL    HW138303   0.917   5.649   6.688
 8610SOL    HW238304   1.021   5.596   6.802
 8611SOL     OW38305   1.700   6.064   6.485
 8611SOL    HW138306   1.605   6.080   6.457
 8611SOL    HW238307   1.740   6.150   6.517
 8612SOL     OW38308   1.142   4.390   6.981
 8612SOL    HW138309   1.144   4.323   7.055
 8612SOL    HW238310   1.093   4.352   6.903
 8613SOL     OW38311   1.874   0.776   6.227
 8613SOL    HW138312   1.796   0.720   6.256
 8613SOL    HW238313   1.956   0.747   6.276
 8614SOL     OW38314   3.705   0.422   6.650
 8614SOL    HW138315   3.613   0.392   6.623
 8614SOL    HW238316   3.703   0.459   6.742
 8615SOL     OW38317   1.481   4.237   7.217
 8615SOL    HW138318   1.501   4.313   7.156
 8615SOL    HW238319   1.556   4.224   7.281
 8616SOL     OW38320   0.015   2.799   0.683
 8616SOL    HW138321   8.940   2.820   0.746
 8616SOL    HW238322   8.984   2.808   0.589
 8617SOL     OW38323   6.119   5.180   1.803
 8617SOL    HW138324   6.167   5.244   1.743
 8617SOL    HW238325   6.021   5.199   1.801
 8618SOL     OW38326   2.660   7.296   2.140
 8618SOL    HW138327   2.647   7.304   2.041
 8618SOL    HW238328   2.572   7.281   2.185
 8619SOL     OW38329   7.270   0.826   1.030
 8619SOL    HW138330   7.301   0.799   1.121
 8619SOL    HW238331   7.284   0.924   1.018
 8620SOL     OW38332   0.573   1.319   0.232
 8620SOL    HW138333   0.618   1.366   0.308
 8620SOL    HW238334   0.629   1.240   0.205
 8621SOL     OW38335   5.391   6.273   1.505
 8621SOL    HW138336   5.339   6.313   1.580
 8621SOL    HW238337   5.367   6.319   1.419
 8622SOL     OW38338   3.209   4.198   4.329
 8622SOL    HW138339   3.205   4.292   4.364
 8622SOL    HW238340   3.117   4.159   4.327
 8623SOL     OW38341   6.390   7.189   4.773
 8623SOL    HW138342   6.375   7.127   4.850
 8623SOL    HW238343   6.336   7.272   4.785
 8624SOL     OW38344   3.551   3.071   2.391
 8624SOL    HW138345   3.509   3.010   2.459
 8624SOL    HW238346   3.516   3.164   2.405
 8625SOL     OW38347   4.906   6.389   5.830
 8625SOL    HW138348   4.917   6.370   5.732
 8625SOL    HW238349   4.992   6.426   5.866
 8626SOL     OW38350   2.994   2.486   3.023
 8626SOL    HW138351   3.004   2.585   3.036
 8626SOL    HW238352   2.915   2.454   3.076
 8627SOL     OW38353   5.763   2.642   1.386
 8627SOL    HW138354   5.831   2.642   1.313
 8627SOL    HW238355   5.758   2.551   1.428
 8628SOL     OW38356   2.249   1.323   2.055
 8628SOL    HW138357   2.340   1.327   2.096
 8628SOL    HW238358   2.198   1.406   2.078
 8629SOL     OW38359   7.166   6.334   7.122
 8629SOL    HW138360   7.075   6.377   7.119
 8629SOL    HW238361   7.189   6.312   7.217
 8630SOL     OW38362   3.191   7.348   0.195
 8630SOL    HW138363   3.110   7.302   0.231
 8630SOL    HW238364   3.270   7.324   0.251
 8631SOL     OW38365   3.961   1.186   1.040
 8631SOL    HW138366   3.885   1.244   1.013
 8631SOL    HW238367   3.926   1.104   1.086
 8632SOL     OW38368   6.933   2.679   6.870
 8632SOL    HW138369   6.992   2.656   6.794
 8632SOL    HW238370   6.845   2.633   6.859
 8633SOL     OW38371   3.877   2.805   5.082
 8633SOL    HW138372   3.898   2.877   5.148
 8633SOL    HW238373   3.927   2.822   4.997
 8634SOL     OW38374   5.029   7.170   3.084
 8634SOL    HW138375   5.117   7.216   3.098
 8634SOL    HW238376   5.034   7.112   3.003
 8635SOL     OW38377   5.836   1.947   6.543
 8635SOL    HW138378   5.861   1.850   6.541
 8635SOL    HW238379   5.916   2.002   6.517
 8636SOL     OW38380   6.452   4.255   3.650
 8636SOL    HW138381   6.374   4.196   3.631
 8636SOL    HW238382   6.501   4.274   3.564
 8637SOL     OW38383   5.240   0.609   6.583
 8637SOL    HW138384   5.283   0.519   6.571
 8637SOL    HW238385   5.259   0.643   6.675
 8638SOL     OW38386   4.884   0.682   6.551
 8638SOL    HW138387   4.956   0.655   6.488
 8638SOL    HW238388   4.827   0.752   6.509
 8639SOL     OW38389   1.448   0.276   5.793
 8639SOL    HW138390   1.384   0.215   5.839
 8639SOL    HW238391   1.428   0.371   5.817
 8640SOL     OW38392   6.175   0.657   6.798
 8640SOL    HW138393   6.097   0.716   6.780
 8640SOL    HW238394   6.245   0.708   6.847
 8641SOL     OW38395   3.815   3.134   0.037
 8641SOL    HW138396   3.827   3.136   8.938
 8641SOL    HW238397   3.904   3.128   0.082
 8642SOL     OW38398   5.708   2.181   5.460
 8642SOL    HW138399   5.670   2.094   5.493
 8642SOL    HW238400   5.651   2.256   5.493
 8643SOL     OW38401   4.343   2.965   4.753
 8643SOL    HW138402   4.392   3.041   4.710
 8643SOL    HW238403   4.287   3.000   4.828
 8644SOL     OW38404   4.093   3.331   3.195
 8644SOL    HW138405   4.038   3.256   3.159
 8644SOL    HW238406   4.110   3.398   3.122
 8645SOL     OW38407   0.241   4.208   7.013
 8645SOL    HW138408   0.155   4.202   6.963
 8645SOL    HW238409   0.292   4.289   6.982
 8646SOL     OW38410   3.351   3.927   2.218
 8646SOL    HW138411   3.360   3.925   2.318
 8646SOL    HW238412   3.270   3.876   2.191
 8647SOL     OW38413   4.009   6.356   5.324
 8647SOL    HW138414   3.993   6.447   5.285
 8647SOL    HW238415   3.985   6.286   5.257
 8648SOL     OW38416   0.952   3.484   6.553
 8648SOL    HW138417   0.950   3.389   6.585
 8648SOL    HW238418   0.933   3.545   6.629
 8649SOL     OW38419   1.735   3.917   4.807
 8649SOL    HW138420   1.750   3.844   4.873
 8649SOL    HW238421   1.760   3.884   4.715
 8650SOL     OW38422   0.659   1.822   2.785
 8650SOL    HW138423   0.562   1.801   2.786
 8650SOL    HW238424   0.704   1.769   2.712
 8651SOL     OW38425   0.104   3.361   2.934
 8651SOL    HW138426   0.137   3.411   3.014
 8651SOL    HW238427   0.116   3.263   2.948
 8652SOL     OW38428   6.710   5.207   6.861
 8652SOL    HW138429   6.769   5.285   6.883
 8652SOL    HW238430   6.767   5.127   6.840
 8653SOL     OW38431   1.015   0.075   7.354
 8653SOL    HW138432   0.920   0.074   7.322
 8653SOL    HW238433   1.020   0.118   7.444
 8654SOL     OW38434   1.049   0.961   1.690
 8654SOL    HW138435   1.069   0.884   1.630
 8654SOL    HW238436   1.125   1.026   1.687
 8655SOL     OW38437   0.624   2.439   2.898
 8655SOL    HW138438   0.546   2.486   2.939
 8655SOL    HW238439   0.686   2.408   2.970
 8656SOL     OW38440   3.213   2.867   1.851
 8656SOL    HW138441   3.134   2.824   1.894
 8656SOL    HW238442   3.189   2.960   1.823
 8657SOL     OW38443   2.124   3.260   0.548
 8657SOL    HW138444   2.185   3.297   0.617
 8657SOL    HW238445   2.141   3.163   0.536
 8658SOL     OW38446   3.171   6.211   1.571
 8658SOL    HW138447   3.241   6.242   1.636
 8658SOL    HW238448   3.081   6.238   1.604
 8659SOL     OW38449   0.519   3.687   4.340
 8659SOL    HW138450   0.468   3.651   4.418
 8659SOL    HW238451   0.495   3.783   4.326
 8660SOL     OW38452   3.962   1.093   1.815
 8660SOL    HW138453   3.890   1.048   1.763
 8660SOL    HW238454   3.952   1.071   1.912
 8661SOL     OW38455   4.207   1.201   2.517
 8661SOL    HW138456   4.189   1.117   2.569
 8661SOL    HW238457   4.304   1.207   2.496
 8662SOL     OW38458   5.185   3.449   4.226
 8662SOL    HW138459   5.208   3.442   4.129
 8662SOL    HW238460   5.233   3.527   4.266
 8663SOL     OW38461   5.998   5.561   1.340
 8663SOL    HW138462   5.980   5.540   1.244
 8663SOL    HW238463   5.927   5.520   1.397
 8664SOL     OW38464   2.520   0.931   6.031
 8664SOL    HW138465   2.494   0.841   6.068
 8664SOL    HW238466   2.589   0.972   6.091
 8665SOL     OW38467   3.569   4.136   0.146
 8665SOL    HW138468   3.503   4.078   0.098
 8665SOL    HW238469   3.660   4.094   0.141
 8666SOL     OW38470   0.303   1.464   3.644
 8666SOL    HW138471   0.348   1.401   3.707
 8666SOL    HW238472   0.246   1.413   3.579
 8667SOL     OW38473   1.060   3.981   3.596
 8667SOL    HW138474   1.071   3.920   3.518
 8667SOL    HW238475   0.966   3.973   3.632
 8668SOL     OW38476   2.150   1.241   6.731
 8668SOL    HW138477   2.138   1.210   6.637
 8668SOL    HW238478   2.227   1.192   6.772
 8669SOL     OW38479   6.611   5.075   3.928
 8669SOL    HW138480   6.549   5.018   3.876
 8669SOL    HW238481   6.648   5.147   3.869
 8670SOL     OW38482   3.011   2.683   5.609
 8670SOL    HW138483   2.939   2.631   5.656
 8670SOL    HW238484   3.076   2.619   5.568
 8671SOL     OW38485   0.451   6.862   0.679
 8671SOL    HW138486   0.550   6.866   0.688
 8671SOL    HW238487   0.412   6.953   0.690
 8672SOL     OW38488   1.513   4.422   7.016
 8672SOL    HW138489   1.546   4.508   6.976
 8672SOL    HW238490   1.416   4.411   6.995
 8673SOL     OW38491   3.333   4.859   5.823
 8673SOL    HW138492   3.406   4.856   5.756
 8673SOL    HW238493   3.276   4.777   5.815
 8674SOL     OW38494   1.032   1.640   2.522
 8674SOL    HW138495   1.014   1.542   2.517
 8674SOL    HW238496   1.127   1.656   2.548
 8675SOL     OW38497   4.634   0.388   6.898
 8675SOL    HW138498   4.535   0.389   6.905
 8675SOL    HW238499   4.664   0.460   6.835
 8676SOL     OW38500   4.353   1.184   1.413
 8676SOL    HW138501   4.294   1.121   1.464
 8676SOL    HW238502   4.342   1.168   1.315
 8677SOL     OW38503   6.996   2.845   2.057
 8677SOL    HW138504   7.026   2.913   2.123
 8677SOL    HW238505   7.066   2.832   1.987
 8678SOL     OW38506   1.694   4.936   4.158
 8678SOL    HW138507   1.658   4.844   4.173
 8678SOL    HW238508   1.751   4.963   4.236
 8679SOL     OW38509   2.389   2.835   5.728
 8679SOL    HW138510   2.473   2.780   5.719
 8679SOL    HW238511   2.414   2.931   5.743
 8680SOL     OW38512   2.418   5.059   6.236
 8680SOL    HW138513   2.337   5.016   6.275
 8680SOL    HW238514   2.500   5.009   6.266
 8681SOL     OW38515   2.625   5.907   6.672
 8681SOL    HW138516   2.617   5.990   6.617
 8681SOL    HW238517   2.609   5.929   6.769
 8682SOL     OW38518   3.531   0.068   0.776
 8682SOL    HW138519   3.603   0.001   0.791
 8682SOL    HW238520   3.548   0.149   0.832
 8683SOL     OW38521   2.923   1.161   6.150
 8683SOL    HW138522   2.991   1.135   6.219
 8683SOL    HW238523   2.839   1.109   6.164
 8684SOL     OW38524   4.512   2.520   1.166
 8684SOL    HW138525   4.482   2.562   1.081
 8684SOL    HW238526   4.608   2.544   1.183
 8685SOL     OW38527   3.469   5.042   4.419
 8685SOL    HW138528   3.435   4.958   4.461
 8685SOL    HW238529   3.425   5.121   4.461
 8686SOL     OW38530   2.182   4.116   4.274
 8686SOL    HW138531   2.085   4.114   4.250
 8686SOL    HW238532   2.194   4.159   4.363
 8687SOL     OW38533   4.701   0.027   4.984
 8687SOL    HW138534   4.620   8.970   4.995
 8687SOL    HW238535   4.769   8.979   4.929
 8688SOL     OW38536   5.548   2.714   5.241
 8688SOL    HW138537   5.539   2.615   5.252
 8688SOL    HW238538   5.529   2.759   5.328
 8689SOL     OW38539   7.107   5.800   5.220
 8689SOL    HW138540   7.023   5.779   5.271
 8689SOL    HW238541   7.132   5.721   5.164
 8690SOL     OW38542   3.465   3.414   1.329
 8690SOL    HW138543   3.392   3.383   1.268
 8690SOL    HW238544   3.427   3.436   1.419
 8691SOL     OW38545   5.586   1.431   3.858
 8691SOL    HW138546   5.671   1.459   3.813
 8691SOL    HW238547   5.526   1.387   3.792
 8692SOL     OW38548   1.185   2.670   0.733
 8692SOL    HW138549   1.109   2.729   0.708
 8692SOL    HW238550   1.161   2.616   0.814
 8693SOL     OW38551   5.314   4.593   4.940
 8693SOL    HW138552   5.396   4.545   4.909
 8693SOL    HW238553   5.339   4.685   4.971
 8694SOL     OW38554   6.543   2.401   7.100
 8694SOL    HW138555   6.601   2.325   7.130
 8694SOL    HW238556   6.595   2.458   7.036
 8695SOL     OW38557   5.422   7.132   1.338
 8695SOL    HW138558   5.518   7.126   1.363
 8695SOL    HW238559   5.408   7.211   1.278
 8696SOL     OW38560   0.255   2.807   3.798
 8696SOL    HW138561   0.300   2.883   3.846
 8696SOL    HW238562   0.217   2.743   3.865
 8697SOL     OW38563   3.436   1.791   5.986
 8697SOL    HW138564   3.476   1.798   6.078
 8697SOL    HW238565   3.350   1.841   5.983
 8698SOL     OW38566   4.150   6.695   5.741
 8698SOL    HW138567   4.201   6.767   5.694
 8698SOL    HW238568   4.181   6.688   5.836
 8699SOL     OW38569   5.690   2.872   4.001
 8699SOL    HW138570   5.767   2.885   4.063
 8699SOL    HW238571   5.641   2.788   4.025
 8700SOL     OW38572   6.678   5.065   2.289
 8700SOL    HW138573   6.728   5.150   2.305
 8700SOL    HW238574   6.741   4.995   2.255
 8701SOL     OW38575   6.332   0.148   5.413
 8701SOL    HW138576   6.309   0.051   5.415
 8701SOL    HW238577   6.366   0.176   5.503
 8702SOL     OW38578   0.533   3.242   2.063
 8702SOL    HW138579   0.476   3.312   2.106
 8702SOL    HW238580   0.519   3.155   2.110
 8703SOL     OW38581   0.804   4.376   2.345
 8703SOL    HW138582   0.735   4.417   2.286
 8703SOL    HW238583   0.811   4.428   2.431
 8704SOL     OW38584   4.742   6.557   3.193
 8704SOL    HW138585   4.749   6.548   3.093
 8704SOL    HW238586   4.809   6.625   3.225
 8705SOL     OW38587   0.986   7.016   6.883
 8705SOL    HW138588   1.054   7.088   6.897
 8705SOL    HW238589   0.899   7.057   6.855
 8706SOL     OW38590   5.664   7.230   6.726
 8706SOL    HW138591   5.631   7.144   6.687
 8706SOL    HW238592   5.688   7.215   6.822
 8707SOL     OW38593   3.056   4.557   1.100
 8707SOL    HW138594   3.089   4.626   1.164
 8707SOL    HW238595   3.064   4.592   1.006
 8708SOL     OW38596   7.090   3.040   2.225
 8708SOL    HW138597   7.135   3.115   2.176
 8708SOL    HW238598   7.068   3.069   2.318
 8709SOL     OW38599   5.607   4.800   6.801
 8709SOL    HW138600   5.551   4.732   6.754
 8709SOL    HW238601   5.700   4.765   6.812
 8710SOL     OW38602   0.050   4.469   6.933
 8710SOL    HW138603   0.051   4.531   6.854
 8710SOL    HW238604   0.020   4.378   6.905
 8711SOL     OW38605   1.592   2.858   1.878
 8711SOL    HW138606   1.589   2.765   1.914
 8711SOL    HW238607   1.652   2.861   1.799
 8712SOL     OW38608   6.658   0.894   6.537
 8712SOL    HW138609   6.677   0.972   6.598
 8712SOL    HW238610   6.698   0.912   6.447
 8713SOL     OW38611   0.510   4.571   0.305
 8713SOL    HW138612   0.415   4.556   0.331
 8713SOL    HW238613   0.571   4.529   0.373
 8714SOL     OW38614   1.296   5.367   2.294
 8714SOL    HW138615   1.285   5.403   2.386
 8714SOL    HW238616   1.273   5.269   2.293
 8715SOL     OW38617   0.582   0.832   2.614
 8715SOL    HW138618   0.511   0.858   2.679
 8715SOL    HW238619   0.567   0.877   2.526
 8716SOL     OW38620   7.275   1.371   2.649
 8716SOL    HW138621   7.197   1.325   2.692
 8716SOL    HW238622   7.251   1.467   2.632
 8717SOL     OW38623   5.912   6.640   6.842
 8717SOL    HW138624   5.945   6.630   6.936
 8717SOL    HW238625   5.987   6.618   6.779
 8718SOL     OW38626   0.679   3.696   1.201
 8718SOL    HW138627   0.771   3.723   1.173
 8718SOL    HW238628   0.613   3.726   1.132
 8719SOL     OW38629   5.876   6.852   1.708
 8719SOL    HW138630   5.867   6.947   1.678
 8719SOL    HW238631   5.862   6.848   1.807
 8720SOL     OW38632   2.096   2.988   2.707
 8720SOL    HW138633   2.064   3.082   2.708
 8720SOL    HW238634   2.019   2.926   2.693
 8721SOL     OW38635   1.405   3.446   5.484
 8721SOL    HW138636   1.436   3.536   5.517
 8721SOL    HW238637   1.311   3.454   5.452
 8722SOL     OW38638   1.094   2.185   1.401
 8722SOL    HW138639   1.026   2.216   1.335
 8722SOL    HW238640   1.072   2.093   1.431
 8723SOL     OW38641   3.041   5.655   1.298
 8723SOL    HW138642   2.979   5.576   1.296
 8723SOL    HW238643   2.991   5.736   1.327
 8724SOL     OW38644   0.926   3.666   0.124
 8724SOL    HW138645   0.930   3.618   0.212
 8724SOL    HW238646   0.836   3.652   0.083
 8725SOL     OW38647   5.248   3.387   3.958
 8725SOL    HW138648   5.183   3.405   3.885
 8725SOL    HW238649   5.250   3.289   3.978
 8726SOL     OW38650   2.174   5.169   3.862
 8726SOL    HW138651   2.188   5.198   3.767
 8726SOL    HW238652   2.242   5.213   3.920
 8727SOL     OW38653   6.916   1.073   6.874
 8727SOL    HW138654   6.946   1.156   6.921
 8727SOL    HW238655   6.994   1.031   6.828
 8728SOL     OW38656   6.428   3.230   3.417
 8728SOL    HW138657   6.445   3.299   3.487
 8728SOL    HW238658   6.392   3.274   3.334
 8729SOL     OW38659   0.442   2.736   1.112
 8729SOL    HW138660   0.513   2.730   1.183
 8729SOL    HW238661   0.485   2.729   1.022
 8730SOL     OW38662   3.809   6.927   4.290
 8730SOL    HW138663   3.737   6.932   4.221
 8730SOL    HW238664   3.821   7.017   4.332
 8731SOL     OW38665   5.614   0.407   4.417
 8731SOL    HW138666   5.584   0.437   4.507
 8731SOL    HW238667   5.688   0.340   4.427
 8732SOL     OW38668   4.676   7.154   1.631
 8732SOL    HW138669   4.758   7.190   1.677
 8732SOL    HW238670   4.687   7.055   1.616
 8733SOL     OW38671   3.171   6.655   1.273
 8733SOL    HW138672   3.242   6.715   1.235
 8733SOL    HW238673   3.117   6.706   1.340
 8734SOL     OW38674   4.232   6.746   3.545
 8734SOL    HW138675   4.289   6.678   3.499
 8734SOL    HW238676   4.290   6.806   3.601
 8735SOL     OW38677   4.484   3.119   6.282
 8735SOL    HW138678   4.480   3.213   6.250
 8735SOL    HW238679   4.566   3.105   6.336
 8736SOL     OW38680   4.798   1.010   6.532
 8736SOL    HW138681   4.733   0.957   6.478
 8736SOL    HW238682   4.802   1.104   6.496
 8737SOL     OW38683   3.881   5.145   7.096
 8737SOL    HW138684   3.898   5.059   7.144
 8737SOL    HW238685   3.850   5.214   7.162
 8738SOL     OW38686   4.873   7.288   1.785
 8738SOL    HW138687   4.952   7.275   1.845
 8738SOL    HW238688   4.800   7.335   1.834
 8739SOL     OW38689   3.964   1.433   6.715
 8739SOL    HW138690   3.899   1.359   6.732
 8739SOL    HW238691   4.053   1.394   6.693
 8740SOL     OW38692   4.796   4.459   6.643
 8740SOL    HW138693   4.707   4.482   6.604
 8740SOL    HW238694   4.812   4.361   6.636
 8741SOL     OW38695   5.860   3.697   3.062
 8741SOL    HW138696   5.944   3.654   3.030
 8741SOL    HW238697   5.844   3.673   3.158
 8742SOL     OW38698   7.029   2.837   3.590
 8742SOL    HW138699   7.075   2.810   3.675
 8742SOL    HW238700   7.017   2.756   3.533
 8743SOL     OW38701   0.658   4.616   0.082
 8743SOL    HW138702   0.602   4.601   0.164
 8743SOL    HW238703   0.657   4.534   0.025
 8744SOL     OW38704   5.921   5.347   0.404
 8744SOL    HW138705   5.869   5.377   0.324
 8744SOL    HW238706   5.990   5.280   0.376
 8745SOL     OW38707   3.644   4.256   6.159
 8745SOL    HW138708   3.690   4.343   6.143
 8745SOL    HW238709   3.644   4.202   6.074
 8746SOL     OW38710   7.261   5.235   7.101
 8746SOL    HW138711   7.199   5.254   7.025
 8746SOL    HW238712   7.301   5.144   7.089
 8747SOL     OW38713   3.137   0.363   7.208
 8747SOL    HW138714   3.213   0.424   7.229
 8747SOL    HW238715   3.119   0.302   7.285
 8748SOL     OW38716   3.935   7.242   0.838
 8748SOL    HW138717   3.913   7.145   0.831
 8748SOL    HW238718   3.893   7.280   0.921
 8749SOL     OW38719   1.868   3.695   2.968
 8749SOL    HW138720   1.801   3.621   2.968
 8749SOL    HW238721   1.942   3.674   3.032
 8750SOL     OW38722   0.033   2.529   0.614
 8750SOL    HW138723   0.052   2.621   0.650
 8750SOL    HW238724   8.937   2.507   0.627
 8751SOL     OW38725   6.703   4.641   2.674
 8751SOL    HW138726   6.719   4.643   2.576
 8751SOL    HW238727   6.693   4.547   2.705
 8752SOL     OW38728   5.797   6.462   4.558
 8752SOL    HW138729   5.826   6.536   4.619
 8752SOL    HW238730   5.829   6.482   4.465
 8753SOL     OW38731   2.585   1.666   1.669
 8753SOL    HW138732   2.605   1.759   1.640
 8753SOL    HW238733   2.517   1.668   1.742
 8754SOL     OW38734   4.365   7.152   3.880
 8754SOL    HW138735   4.424   7.126   3.956
 8754SOL    HW238736   4.398   7.237   3.840
 8755SOL     OW38737   2.367   5.221   2.069
 8755SOL    HW138738   2.435   5.269   2.013
 8755SOL    HW238739   2.372   5.123   2.051
 8756SOL     OW38740   5.274   4.654   7.125
 8756SOL    HW138741   5.334   4.575   7.141
 8756SOL    HW238742   5.236   4.648   7.033
 8757SOL     OW38743   2.487   1.657   7.130
 8757SOL    HW138744   2.481   1.601   7.212
 8757SOL    HW238745   2.428   1.618   7.059
 8758SOL     OW38746   3.019   0.119   0.094
 8758SOL    HW138747   3.007   0.115   8.994
 8758SOL    HW238748   3.070   0.039   0.124
 8759SOL     OW38749   2.217   2.309   0.411
 8759SOL    HW138750   2.156   2.356   0.347
 8759SOL    HW238751   2.225   2.213   0.384
 8760SOL     OW38752   5.959   6.566   3.282
 8760SOL    HW138753   5.972   6.479   3.234
 8760SOL    HW238754   6.013   6.637   3.236
 8761SOL     OW38755   1.087   1.622   3.859
 8761SOL    HW138756   1.159   1.652   3.921
 8761SOL    HW238757   1.006   1.679   3.871
 8762SOL     OW38758   5.755   1.961   1.742
 8762SOL    HW138759   5.839   2.011   1.723
 8762SOL    HW238760   5.763   1.867   1.708
 8763SOL     OW38761   4.040   1.541   7.188
 8763SOL    HW138762   4.031   1.443   7.207
 8763SOL    HW238763   3.954   1.575   7.149
 8764SOL     OW38764   0.990   8.987   1.406
 8764SOL    HW138765   0.954   8.921   1.472
 8764SOL    HW238766   0.995   0.078   1.449
 8765SOL     OW38767   4.472   3.488   6.317
 8765SOL    HW138768   4.379   3.458   6.295
 8765SOL    HW238769   4.481   3.498   6.416
 8766SOL     OW38770   6.128   0.374   6.364
 8766SOL    HW138771   6.207   0.357   6.424
 8766SOL    HW238772   6.050   0.403   6.419
 8767SOL     OW38773   3.691   1.867   1.012
 8767SOL    HW138774   3.767   1.825   1.063
 8767SOL    HW238775   3.611   1.874   1.072
 8768SOL     OW38776   4.551   6.389   6.268
 8768SOL    HW138777   4.477   6.347   6.320
 8768SOL    HW238778   4.628   6.326   6.262
 8769SOL     OW38779   3.615   0.837   3.343
 8769SOL    HW138780   3.626   0.819   3.245
 8769SOL    HW238781   3.521   0.867   3.361
 8770SOL     OW38782   2.893   4.132   1.536
 8770SOL    HW138783   2.922   4.147   1.442
 8770SOL    HW238784   2.957   4.178   1.598
 8771SOL     OW38785   0.724   2.006   0.617
 8771SOL    HW138786   0.637   2.003   0.567
 8771SOL    HW238787   0.782   1.930   0.587
 8772SOL     OW38788   5.581   3.407   0.219
 8772SOL    HW138789   5.553   3.433   0.311
 8772SOL    HW238790   5.544   3.473   0.153
 8773SOL     OW38791   6.740   2.000   2.541
 8773SOL    HW138792   6.669   2.059   2.580
 8773SOL    HW238793   6.755   1.921   2.600
 8774SOL     OW38794   4.112   1.990   7.242
 8774SOL    HW138795   4.023   1.999   7.197
 8774SOL    HW238796   4.115   1.904   7.293
 8775SOL     OW38797   2.781   4.053   3.887
 8775SOL    HW138798   2.707   4.009   3.938
 8775SOL    HW238799   2.859   4.068   3.949
 8776SOL     OW38800   6.365   3.517   6.531
 8776SOL    HW138801   6.334   3.611   6.541
 8776SOL    HW238802   6.297   3.465   6.479
 8777SOL     OW38803   5.307   7.292   2.435
 8777SOL    HW138804   5.213   7.324   2.428
 8777SOL    HW238805   5.363   7.360   2.482
 8778SOL     OW38806   6.341   3.135   5.979
 8778SOL    HW138807   6.373   3.223   5.945
 8778SOL    HW238808   6.300   3.083   5.904
 8779SOL     OW38809   3.311   5.354   3.009
 8779SOL    HW138810   3.238   5.311   2.955
 8779SOL    HW238811   3.296   5.452   3.012
 8780SOL     OW38812   5.046   3.230   6.033
 8780SOL    HW138813   5.025   3.142   6.076
 8780SOL    HW238814   5.128   3.268   6.074
 8781SOL     OW38815   5.467   1.211   2.716
 8781SOL    HW138816   5.397   1.267   2.761
 8781SOL    HW238817   5.486   1.130   2.771
 8782SOL     OW38818   7.328   3.104   4.202
 8782SOL    HW138819   7.262   3.175   4.227
 8782SOL    HW238820   7.344   3.045   4.281
 8783SOL     OW38821   2.436   3.549   0.860
 8783SOL    HW138822   2.534   3.549   0.839
 8783SOL    HW238823   2.389   3.486   0.798
 8784SOL     OW38824   2.360   0.675   5.702
 8784SOL    HW138825   2.388   0.639   5.613
 8784SOL    HW238826   2.411   0.758   5.722
 8785SOL     OW38827   1.043   1.115   4.589
 8785SOL    HW138828   1.012   1.209   4.585
 8785SOL    HW238829   1.072   1.085   4.498
 8786SOL     OW38830   5.504   4.218   6.430
 8786SOL    HW138831   5.439   4.231   6.506
 8786SOL    HW238832   5.502   4.122   6.401
 8787SOL     OW38833   6.577   4.849   7.207
 8787SOL    HW138834   6.649   4.792   7.169
 8787SOL    HW238835   6.521   4.887   7.134
 8788SOL     OW38836   3.349   4.946   6.083
 8788SOL    HW138837   3.345   4.911   5.990
 8788SOL    HW238838   3.316   5.041   6.084
 8789SOL     OW38839   4.075   6.383   0.011
 8789SOL    HW138840   3.998   6.422   0.062
 8789SOL    HW238841   4.155   6.443   0.021
 8790SOL     OW38842   6.865   6.891   0.047
 8790SOL    HW138843   6.912   6.976   0.070
 8790SOL    HW238844   6.846   6.840   0.130
 8791SOL     OW38845   6.099   5.834   1.283
 8791SOL    HW138846   6.127   5.803   1.193
 8791SOL    HW238847   6.060   5.757   1.334
 8792SOL     OW38848   0.913   1.250   1.985
 8792SOL    HW138849   0.863   1.274   1.902
 8792SOL    HW238850   0.953   1.333   2.024
 8793SOL     OW38851   2.345   3.343   6.336
 8793SOL    HW138852   2.272   3.365   6.271
 8793SOL    HW238853   2.306   3.311   6.422
 8794SOL     OW38854   6.003   7.147   2.921
 8794SOL    HW138855   5.957   7.224   2.966
 8794SOL    HW238856   6.096   7.138   2.957
 8795SOL     OW38857   4.000   4.051   2.966
 8795SOL    HW138858   3.947   4.018   2.888
 8795SOL    HW238859   4.098   4.046   2.945
 8796SOL     OW38860   4.116   1.718   5.622
 8796SOL    HW138861   4.178   1.667   5.682
 8796SOL    HW238862   4.025   1.719   5.662
 8797SOL     OW38863   1.174   1.842   6.368
 8797SOL    HW138864   1.252   1.780   6.377
 8797SOL    HW238865   1.091   1.788   6.356
 8798SOL     OW38866   3.490   6.689   3.587
 8798SOL    HW138867   3.577   6.643   3.569
 8798SOL    HW238868   3.415   6.624   3.575
 8799SOL     OW38869   5.944   3.893   2.437
 8799SOL    HW138870   5.957   3.896   2.536
 8799SOL    HW238871   6.024   3.931   2.391
 8800SOL     OW38872   5.210   5.472   6.135
 8800SOL    HW138873   5.154   5.542   6.091
 8800SOL    HW238874   5.199   5.385   6.087
 8801SOL     OW38875   7.296   4.327   8.932
 8801SOL    HW138876   7.392   4.303   8.924
 8801SOL    HW238877   7.287   4.419   8.971
 8802SOL     OW38878   4.783   3.904   6.205
 8802SOL    HW138879   4.748   3.993   6.177
 8802SOL    HW238880   4.710   3.836   6.198
 8803SOL     OW38881   3.526   3.860   6.234
 8803SOL    HW138882   3.462   3.906   6.173
 8803SOL    HW238883   3.554   3.773   6.193
 8804SOL     OW38884   0.168   3.386   1.533
 8804SOL    HW138885   0.256   3.423   1.502
 8804SOL    HW238886   0.132   3.325   1.462
 8805SOL     OW38887   5.666   5.100   0.018
 8805SOL    HW138888   5.707   5.078   8.929
 8805SOL    HW238889   5.576   5.141   0.003
 8806SOL     OW38890   2.732   2.941   6.646
 8806SOL    HW138891   2.699   2.987   6.563
 8806SOL    HW238892   2.655   2.928   6.710
 8807SOL     OW38893   5.082   2.045   4.581
 8807SOL    HW138894   5.088   2.112   4.508
 8807SOL    HW238895   5.155   2.061   4.647
 8808SOL     OW38896   6.461   4.004   0.748
 8808SOL    HW138897   6.483   4.027   0.843
 8808SOL    HW238898   6.447   3.906   0.739
 8809SOL     OW38899   5.664   7.359   6.059
 8809SOL    HW138900   5.724   7.346   6.138
 8809SOL    HW238901   5.717   7.350   5.975
 8810SOL     OW38902   0.278   2.022   3.565
 8810SOL    HW138903   0.372   1.995   3.585
 8810SOL    HW238904   0.221   1.941   3.557
 8811SOL     OW38905   4.619   2.213   3.232
 8811SOL    HW138906   4.644   2.134   3.287
 8811SOL    HW238907   4.676   2.216   3.150
 8812SOL     OW38908   4.276   6.504   0.720
 8812SOL    HW138909   4.301   6.540   0.630
 8812SOL    HW238910   4.358   6.473   0.768
 8813SOL     OW38911   4.650   3.765   3.533
 8813SOL    HW138912   4.699   3.813   3.605
 8813SOL    HW238913   4.552   3.771   3.549
 8814SOL     OW38914   5.269   0.691   6.848
 8814SOL    HW138915   5.298   0.607   6.894
 8814SOL    HW238916   5.316   0.769   6.889
 8815SOL     OW38917   5.629   5.664   1.495
 8815SOL    HW138918   5.665   5.753   1.525
 8815SOL    HW238919   5.654   5.649   1.399
 8816SOL     OW38920   3.179   4.569   4.038
 8816SOL    HW138921   3.107   4.503   4.016
 8816SOL    HW238922   3.268   4.524   4.032
 8817SOL     OW38923   7.100   3.447   3.210
 8817SOL    HW138924   7.181   3.465   3.264
 8817SOL    HW238925   7.110   3.489   3.120
 8818SOL     OW38926   0.688   5.126   4.812
 8818SOL    HW138927   0.759   5.131   4.882
 8818SOL    HW238928   0.712   5.184   4.735
 8819SOL     OW38929   5.190   2.765   3.568
 8819SOL    HW138930   5.255   2.812   3.626
 8819SOL    HW238931   5.172   2.820   3.486
 8820SOL     OW38932   1.914   7.093   3.539
 8820SOL    HW138933   2.009   7.124   3.532
 8820SOL    HW238934   1.912   6.995   3.558
 8821SOL     OW38935   4.339   2.454   6.206
 8821SOL    HW138936   4.402   2.518   6.162
 8821SOL    HW238937   4.378   2.362   6.204
 8822SOL     OW38938   6.818   6.514   0.812
 8822SOL    HW138939   6.866   6.448   0.871
 8822SOL    HW238940   6.743   6.468   0.765
 8823SOL     OW38941   1.574   4.365   0.671
 8823SOL    HW138942   1.601   4.302   0.598
 8823SOL    HW238943   1.502   4.426   0.639
 8824SOL     OW38944   3.244   5.238   2.004
 8824SOL    HW138945   3.205   5.276   2.089
 8824SOL    HW238946   3.201   5.150   1.984
 8825SOL     OW38947   3.129   6.218   6.378
 8825SOL    HW138948   3.216   6.203   6.331
 8825SOL    HW238949   3.139   6.196   6.475
 8826SOL     OW38950   0.799   1.241   3.088
 8826SOL    HW138951   0.733   1.239   3.013
 8826SOL    HW238952   0.772   1.176   3.158
 8827SOL     OW38953   0.852   6.296   7.004
 8827SOL    HW138954   0.799   6.333   7.080
 8827SOL    HW238955   0.946   6.328   7.011
 8828SOL     OW38956   0.920   3.277   6.225
 8828SOL    HW138957   0.905   3.322   6.137
 8828SOL    HW238958   0.989   3.328   6.277
 8829SOL     OW38959   3.248   4.668   4.300
 8829SOL    HW138960   3.232   4.584   4.351
 8829SOL    HW238961   3.217   4.656   4.205
 8830SOL     OW38962   3.463   5.635   4.534
 8830SOL    HW138963   3.399   5.688   4.478
 8830SOL    HW238964   3.529   5.589   4.474
 8831SOL     OW38965   2.240   1.965   7.221
 8831SOL    HW138966   2.231   1.968   7.121
 8831SOL    HW238967   2.236   2.059   7.257
 8832SOL     OW38968   2.316   0.993   6.681
 8832SOL    HW138969   2.276   0.912   6.722
 8832SOL    HW238970   2.416   0.985   6.682
 8833SOL     OW38971   5.046   2.551   2.792
 8833SOL    HW138972   4.993   2.490   2.733
 8833SOL    HW238973   5.069   2.503   2.877
 8834SOL     OW38974   2.467   2.379   7.387
 8834SOL    HW138975   2.509   2.396   7.298
 8834SOL    HW238976   2.507   2.441   7.454
 8835SOL     OW38977   0.137   4.457   5.243
 8835SOL    HW138978   0.047   4.486   5.211
 8835SOL    HW238979   0.180   4.531   5.295
 8836SOL     OW38980   5.653   7.038   2.822
 8836SOL    HW138981   5.738   6.992   2.847
 8836SOL    HW238982   5.602   6.981   2.757
 8837SOL     OW38983   3.998   0.741   2.885
 8837SOL    HW138984   3.952   0.738   2.796
 8837SOL    HW238985   4.090   0.777   2.875
 8838SOL     OW38986   3.870   0.539   2.393
 8838SOL    HW138987   3.879   0.638   2.383
 8838SOL    HW238988   3.784   0.518   2.441
 8839SOL     OW38989   4.170   6.023   1.092
 8839SOL    HW138990   4.219   5.951   1.141
 8839SOL    HW238991   4.089   5.984   1.048
 8840SOL     OW38992   4.488   5.564   6.363
 8840SOL    HW138993   4.582   5.548   6.330
 8840SOL    HW238994   4.489   5.571   6.462
 8841SOL     OW38995   0.373   4.225   4.952
 8841SOL    HW138996   0.386   4.184   4.861
 8841SOL    HW238997   0.287   4.274   4.955
 8842SOL     OW38998   5.310   1.322   4.359
 8842SOL    HW138999   5.386   1.297   4.419
 8842SOL    HW239000   5.327   1.412   4.319
 8843SOL     OW39001   1.669   0.459   6.954
 8843SOL    HW139002   1.611   0.496   7.027
 8843SOL    HW239003   1.760   0.500   6.961
 8844SOL     OW39004   2.629   0.831   3.117
 8844SOL    HW139005   2.584   0.788   3.195
 8844SOL    HW239006   2.588   0.799   3.032
 8845SOL     OW39007   0.202   1.256   2.292
 8845SOL    HW139008   0.147   1.297   2.365
 8845SOL    HW239009   0.143   1.208   2.228
 8846SOL     OW39010   3.667   0.516   6.913
 8846SOL    HW139011   3.617   0.435   6.943
 8846SOL    HW239012   3.712   0.559   6.991
 8847SOL     OW39013   5.905   3.599   5.109
 8847SOL    HW139014   5.839   3.525   5.121
 8847SOL    HW239015   5.866   3.670   5.051
 8848SOL     OW39016   3.545   2.015   2.738
 8848SOL    HW139017   3.482   2.088   2.766
 8848SOL    HW239018   3.636   2.033   2.775
 8849SOL     OW39019   5.411   5.448   4.690
 8849SOL    HW139020   5.393   5.353   4.716
 8849SOL    HW239021   5.337   5.506   4.722
 8850SOL     OW39022   1.558   3.061   5.265
 8850SOL    HW139023   1.499   3.008   5.204
 8850SOL    HW239024   1.502   3.112   5.330
 8851SOL     OW39025   5.785   7.331   5.814
 8851SOL    HW139026   5.755   7.385   5.735
 8851SOL    HW239027   5.885   7.334   5.821
 8852SOL     OW39028   0.807   5.079   0.186
 8852SOL    HW139029   0.835   5.138   0.110
 8852SOL    HW239030   0.795   4.986   0.153
 8853SOL     OW39031   5.778   4.409   3.565
 8853SOL    HW139032   5.857   4.392   3.624
 8853SOL    HW239033   5.788   4.499   3.522
 8854SOL     OW39034   2.225   5.261   3.613
 8854SOL    HW139035   2.303   5.205   3.585
 8854SOL    HW239036   2.237   5.355   3.579
 8855SOL     OW39037   4.317   0.500   3.585
 8855SOL    HW139038   4.404   0.543   3.559
 8855SOL    HW239039   4.264   0.481   3.503
 8856SOL     OW39040   6.699   3.175   5.621
 8856SOL    HW139041   6.788   3.132   5.603
 8856SOL    HW239042   6.708   3.239   5.697
 8857SOL     OW39043   2.501   2.878   0.761
 8857SOL    HW139044   2.513   2.812   0.687
 8857SOL    HW239045   2.404   2.884   0.785
 8858SOL     OW39046   4.853   7.228   0.993
 8858SOL    HW139047   4.924   7.254   1.058
 8858SOL    HW239048   4.890   7.229   0.901
 8859SOL     OW39049   1.533   3.207   6.355
 8859SOL    HW139050   1.523   3.119   6.309
 8859SOL    HW239051   1.629   3.222   6.378
 8860SOL     OW39052   5.910   4.581   4.430
 8860SOL    HW139053   5.958   4.591   4.343
 8860SOL    HW239054   5.852   4.499   4.427
 8861SOL     OW39055   1.411   3.728   0.167
 8861SOL    HW139056   1.352   3.665   0.216
 8861SOL    HW239057   1.497   3.683   0.144
 8862SOL     OW39058   2.928   5.474   0.290
 8862SOL    HW139059   3.018   5.436   0.312
 8862SOL    HW239060   2.929   5.514   0.199
 8863SOL     OW39061   1.590   7.172   0.211
 8863SOL    HW139062   1.560   7.253   0.261
 8863SOL    HW239063   1.582   7.092   0.270
 8864SOL     OW39064   6.214   6.849   6.650
 8864SOL    HW139065   6.300   6.850   6.702
 8864SOL    HW239066   6.235   6.859   6.553
 8865SOL     OW39067   1.682   2.597   2.981
 8865SOL    HW139068   1.686   2.506   2.940
 8865SOL    HW239069   1.613   2.598   3.054
 8866SOL     OW39070   5.763   1.611   4.421
 8866SOL    HW139071   5.761   1.517   4.386
 8866SOL    HW239072   5.682   1.660   4.387
 8867SOL     OW39073   6.952   7.137   0.125
 8867SOL    HW139074   6.980   7.205   0.058
 8867SOL    HW239075   6.868   7.167   0.171
 8868SOL     OW39076   4.704   7.011   0.505
 8868SOL    HW139077   4.720   7.098   0.458
 8868SOL    HW239078   4.788   6.981   0.549
 8869SOL     OW39079   0.735   3.328   4.141
 8869SOL    HW139080   0.796   3.275   4.082
 8869SOL    HW239081   0.666   3.374   4.085
 8870SOL     OW39082   1.141   5.028   1.809
 8870SOL    HW139083   1.156   5.126   1.820
 8870SOL    HW239084   1.082   4.995   1.883
 8871SOL     OW39085   0.549   3.456   6.668
 8871SOL    HW139086   0.544   3.360   6.696
 8871SOL    HW239087   0.591   3.509   6.741
 8872SOL     OW39088   4.095   1.718   2.007
 8872SOL    HW139089   3.995   1.715   2.010
 8872SOL    HW239090   4.132   1.641   2.060
 8873SOL     OW39091   0.981   6.519   6.379
 8873SOL    HW139092   0.989   6.553   6.285
 8873SOL    HW239093   1.071   6.496   6.414
 8874SOL     OW39094   3.319   2.655   5.301
 8874SOL    HW139095   3.383   2.635   5.227
 8874SOL    HW239096   3.233   2.690   5.262
 8875SOL     OW39097   2.040   4.190   5.834
 8875SOL    HW139098   1.965   4.240   5.876
 8875SOL    HW239099   2.098   4.151   5.905
 8876SOL     OW39100   5.331   6.475   2.636
 8876SOL    HW139101   5.271   6.529   2.577
 8876SOL    HW239102   5.296   6.382   2.644
 8877SOL     OW39103   3.578   2.668   7.005
 8877SOL    HW139104   3.597   2.723   6.923
 8877SOL    HW239105   3.611   2.575   6.991
 8878SOL     OW39106   3.522   1.064   6.468
 8878SOL    HW139107   3.608   1.071   6.417
 8878SOL    HW239108   3.513   0.972   6.506
 8879SOL     OW39109   5.759   0.651   6.816
 8879SOL    HW139110   5.834   0.707   6.782
 8879SOL    HW239111   5.713   0.699   6.891
 8880SOL     OW39112   5.788   3.234   1.823
 8880SOL    HW139113   5.826   3.175   1.750
 8880SOL    HW239114   5.851   3.235   1.900
 8881SOL     OW39115   1.615   4.349   1.286
 8881SOL    HW139116   1.585   4.259   1.256
 8881SOL    HW239117   1.562   4.378   1.366
 8882SOL     OW39118   2.186   4.974   1.709
 8882SOL    HW139119   2.237   5.061   1.705
 8882SOL    HW239120   2.145   4.964   1.800
 8883SOL     OW39121   6.490   5.065   4.190
 8883SOL    HW139122   6.529   5.078   4.098
 8883SOL    HW239123   6.564   5.042   4.253
 8884SOL     OW39124   0.241   5.726   6.672
 8884SOL    HW139125   0.309   5.713   6.600
 8884SOL    HW239126   0.202   5.818   6.664
 8885SOL     OW39127   5.229   2.288   2.605
 8885SOL    HW139128   5.213   2.192   2.584
 8885SOL    HW239129   5.147   2.341   2.585
 8886SOL     OW39130   3.848   5.904   4.869
 8886SOL    HW139131   3.854   5.908   4.769
 8886SOL    HW239132   3.927   5.950   4.909
 8887SOL     OW39133   7.335   5.239   5.632
 8887SOL    HW139134   7.416   5.218   5.577
 8887SOL    HW239135   7.359   5.235   5.729
 8888SOL     OW39136   4.587   5.461   3.795
 8888SOL    HW139137   4.684   5.438   3.786
 8888SOL    HW239138   4.543   5.395   3.857
 8889SOL     OW39139   2.417   5.174   1.273
 8889SOL    HW139140   2.469   5.089   1.274
 8889SOL    HW239141   2.338   5.165   1.212
 8890SOL     OW39142   2.960   3.148   6.910
 8890SOL    HW139143   2.995   3.240   6.925
 8890SOL    HW239144   2.954   3.130   6.812
 8891SOL     OW39145   5.678   5.029   0.289
 8891SOL    HW139146   5.665   5.055   0.194
 8891SOL    HW239147   5.589   5.020   0.334
 8892SOL     OW39148   2.962   0.378   1.952
 8892SOL    HW139149   2.985   0.322   1.873
 8892SOL    HW239150   2.904   0.454   1.923
 8893SOL     OW39151   1.110   6.179   7.370
 8893SOL    HW139152   1.025   6.130   7.386
 8893SOL    HW239153   1.172   6.163   7.446
 8894SOL     OW39154   2.358   4.180   3.495
 8894SOL    HW139155   2.458   4.183   3.486
 8894SOL    HW239156   2.331   4.228   3.578
 8895SOL     OW39157   2.298   6.243   0.882
 8895SOL    HW139158   2.366   6.201   0.942
 8895SOL    HW239159   2.279   6.336   0.913
 8896SOL     OW39160   6.536   2.018   1.063
 8896SOL    HW139161   6.561   1.987   0.971
 8896SOL    HW239162   6.599   2.089   1.093
 8897SOL     OW39163   2.686   3.245   4.874
 8897SOL    HW139164   2.702   3.194   4.959
 8897SOL    HW239165   2.591   3.277   4.872
 8898SOL     OW39166   2.561   0.785   1.724
 8898SOL    HW139167   2.512   0.872   1.732
 8898SOL    HW239168   2.549   0.732   1.809
 8899SOL     OW39169   1.930   5.667   5.708
 8899SOL    HW139170   1.903   5.713   5.792
 8899SOL    HW239171   1.883   5.578   5.702
 8900SOL     OW39172   3.182   5.901   2.456
 8900SOL    HW139173   3.137   5.956   2.386
 8900SOL    HW239174   3.185   5.805   2.426
 8901SOL     OW39175   2.665   7.148   4.672
 8901SOL    HW139176   2.572   7.144   4.708
 8901SOL    HW239177   2.729   7.120   4.743
 8902SOL     OW39178   6.382   0.806   6.911
 8902SOL    HW139179   6.388   0.898   6.873
 8902SOL    HW239180   6.474   0.767   6.920
 8903SOL     OW39181   4.187   6.776   4.341
 8903SOL    HW139182   4.129   6.761   4.262
 8903SOL    HW239183   4.243   6.695   4.358
 8904SOL     OW39184   4.715   6.462   6.582
 8904SOL    HW139185   4.621   6.493   6.591
 8904SOL    HW239186   4.763   6.520   6.515
 8905SOL     OW39187   0.707   6.810   4.654
 8905SOL    HW139188   0.725   6.712   4.652
 8905SOL    HW239189   0.710   6.846   4.560
 8906SOL     OW39190   5.486   5.452   2.342
 8906SOL    HW139191   5.451   5.410   2.258
 8906SOL    HW239192   5.410   5.468   2.405
 8907SOL     OW39193   6.532   2.232   1.609
 8907SOL    HW139194   6.452   2.172   1.602
 8907SOL    HW239195   6.579   2.235   1.521
 8908SOL     OW39196   6.832   3.113   4.951
 8908SOL    HW139197   6.850   3.152   4.861
 8908SOL    HW239198   6.917   3.076   4.990
 8909SOL     OW39199   6.894   6.769   0.874
 8909SOL    HW139200   6.873   6.675   0.848
 8909SOL    HW239201   6.980   6.770   0.925
 8910SOL     OW39202   1.219   0.657   1.756
 8910SOL    HW139203   1.259   0.565   1.763
 8910SOL    HW239204   1.208   0.696   1.847
 8911SOL     OW39205   0.352   3.747   0.564
 8911SOL    HW139206   0.366   3.804   0.645
 8911SOL    HW239207   0.287   3.674   0.587
 8912SOL     OW39208   4.532   5.242   2.668
 8912SOL    HW139209   4.556   5.307   2.597
 8912SOL    HW239210   4.468   5.284   2.733
 8913SOL     OW39211   5.097   2.394   3.020
 8913SOL    HW139212   5.023   2.430   3.076
 8913SOL    HW239213   5.099   2.294   3.027
 8914SOL     OW39214   5.801   4.102   0.102
 8914SOL    HW139215   5.886   4.153   0.088
 8914SOL    HW239216   5.796   4.026   0.038
 8915SOL     OW39217   4.262   7.188   4.719
 8915SOL    HW139218   4.320   7.268   4.702
 8915SOL    HW239219   4.183   7.191   4.658
 8916SOL     OW39220   6.039   5.700   3.384
 8916SOL    HW139221   6.109   5.640   3.344
 8916SOL    HW239222   5.995   5.753   3.312
 8917SOL     OW39223   7.251   4.602   5.288
 8917SOL    HW139224   7.181   4.531   5.298
 8917SOL    HW239225   7.264   4.622   5.191
 8918SOL     OW39226   3.767   4.916   5.506
 8918SOL    HW139227   3.818   4.835   5.538
 8918SOL    HW239228   3.715   4.955   5.582
 8919SOL     OW39229   3.988   5.538   5.119
 8919SOL    HW139230   3.939   5.576   5.040
 8919SOL    HW239231   3.963   5.442   5.131
 8920SOL     OW39232   1.034   2.351   5.415
 8920SOL    HW139233   1.095   2.293   5.470
 8920SOL    HW239234   1.087   2.410   5.356
 8921SOL     OW39235   0.250   3.944   3.171
 8921SOL    HW139236   0.180   3.966   3.239
 8921SOL    HW239237   0.220   3.864   3.118
 8922SOL     OW39238   1.114   4.290   2.689
 8922SOL    HW139239   1.164   4.251   2.611
 8922SOL    HW239240   1.143   4.385   2.702
 8923SOL     OW39241   3.104   4.674   7.080
 8923SOL    HW139242   3.113   4.746   7.149
 8923SOL    HW239243   3.182   4.677   7.018
 8924SOL     OW39244   3.009   3.460   1.171
 8924SOL    HW139245   2.933   3.399   1.196
 8924SOL    HW239246   2.978   3.522   1.099
 8925SOL     OW39247   0.386   0.828   5.264
 8925SOL    HW139248   0.372   0.926   5.270
 8925SOL    HW239249   0.480   0.806   5.291
 8926SOL     OW39250   6.062   3.748   3.336
 8926SOL    HW139251   5.968   3.715   3.339
 8926SOL    HW239252   6.122   3.680   3.379
 8927SOL     OW39253   5.704   3.242   6.140
 8927SOL    HW139254   5.680   3.324   6.089
 8927SOL    HW239255   5.677   3.161   6.089
 8928SOL     OW39256   4.853   4.234   4.215
 8928SOL    HW139257   4.870   4.325   4.178
 8928SOL    HW239258   4.815   4.242   4.308
 8929SOL     OW39259   1.833   3.889   0.222
 8929SOL    HW139260   1.844   3.987   0.240
 8929SOL    HW239261   1.855   3.837   0.304
 8930SOL     OW39262   0.907   2.178   5.899
 8930SOL    HW139263   0.920   2.218   5.989
 8930SOL    HW239264   0.995   2.147   5.862
 8931SOL     OW39265   4.622   4.355   1.829
 8931SOL    HW139266   4.620   4.451   1.802
 8931SOL    HW239267   4.676   4.346   1.913
 8932SOL     OW39268   1.640   2.849   1.418
 8932SOL    HW139269   1.644   2.835   1.319
 8932SOL    HW239270   1.577   2.924   1.439
 8933SOL     OW39271   4.146   0.440   7.256
 8933SOL    HW139272   4.162   0.456   7.353
 8933SOL    HW239273   4.108   0.349   7.243
 8934SOL     OW39274   2.115   2.853   7.328
 8934SOL    HW139275   2.018   2.856   7.303
 8934SOL    HW239276   2.162   2.786   7.271
 8935SOL     OW39277   6.738   7.182   7.031
 8935SOL    HW139278   6.779   7.107   7.083
 8935SOL    HW239279   6.809   7.227   6.977
 8936SOL     OW39280   4.820   5.933   6.013
 8936SOL    HW139281   4.860   5.887   5.933
 8936SOL    HW239282   4.809   6.030   5.993
 8937SOL     OW39283   1.259   4.113   4.241
 8937SOL    HW139284   1.296   4.110   4.334
 8937SOL    HW239285   1.187   4.183   4.236
 8938SOL     OW39286   0.429   5.873   1.579
 8938SOL    HW139287   0.380   5.892   1.493
 8938SOL    HW239288   0.436   5.958   1.632
 8939SOL     OW39289   4.527   1.500   3.268
 8939SOL    HW139290   4.596   1.556   3.222
 8939SOL    HW239291   4.572   1.437   3.331
 8940SOL     OW39292   2.498   2.714   7.179
 8940SOL    HW139293   2.541   2.785   7.122
 8940SOL    HW239294   2.400   2.712   7.161
 8941SOL     OW39295   2.742   1.899   3.851
 8941SOL    HW139296   2.708   1.946   3.933
 8941SOL    HW239297   2.840   1.916   3.841
 8942SOL     OW39298   3.560   5.613   4.920
 8942SOL    HW139299   3.519   5.691   4.874
 8942SOL    HW239300   3.561   5.628   5.019
 8943SOL     OW39301   0.109   4.061   6.301
 8943SOL    HW139302   0.134   3.973   6.340
 8943SOL    HW239303   0.107   4.130   6.373
 8944SOL     OW39304   5.623   3.722   6.841
 8944SOL    HW139305   5.710   3.746   6.797
 8944SOL    HW239306   5.557   3.696   6.770
 8945SOL     OW39307   0.320   1.149   1.216
 8945SOL    HW139308   0.322   1.093   1.133
 8945SOL    HW239309   0.225   1.168   1.240
 8946SOL     OW39310   0.171   1.769   3.131
 8946SOL    HW139311   0.108   1.783   3.207
 8946SOL    HW239312   0.212   1.678   3.137
 8947SOL     OW39313   2.625   0.099   4.845
 8947SOL    HW139314   2.714   0.114   4.887
 8947SOL    HW239315   2.573   0.032   4.898
 8948SOL     OW39316   5.583   6.338   5.947
 8948SOL    HW139317   5.664   6.337   5.888
 8948SOL    HW239318   5.529   6.256   5.929
 8949SOL     OW39319   1.015   5.524   5.057
 8949SOL    HW139320   0.988   5.594   4.991
 8949SOL    HW239321   1.014   5.434   5.012
 8950SOL     OW39322   5.556   0.514   0.505
 8950SOL    HW139323   5.567   0.570   0.587
 8950SOL    HW239324   5.636   0.455   0.494
 8951SOL     OW39325   2.560   5.162   5.695
 8951SOL    HW139326   2.524   5.148   5.788
 8951SOL    HW239327   2.490   5.137   5.628
 8952SOL     OW39328   4.406   0.852   5.809
 8952SOL    HW139329   4.405   0.944   5.770
 8952SOL    HW239330   4.499   0.817   5.810
 8953SOL     OW39331   4.953   0.833   5.439
 8953SOL    HW139332   4.989   0.819   5.532
 8953SOL    HW239333   5.029   0.853   5.378
 8954SOL     OW39334   1.175   7.052   0.743
 8954SOL    HW139335   1.215   7.085   0.829
 8954SOL    HW239336   1.239   6.988   0.700
 8955SOL     OW39337   6.242   2.338   3.345
 8955SOL    HW139338   6.340   2.352   3.329
 8955SOL    HW239339   6.196   2.426   3.354
 8956SOL     OW39340   5.429   0.776   6.012
 8956SOL    HW139341   5.477   0.693   5.986
 8956SOL    HW239342   5.487   0.855   5.993
 8957SOL     OW39343   4.706   6.128   5.249
 8957SOL    HW139344   4.647   6.101   5.325
 8957SOL    HW239345   4.756   6.211   5.273
 8958SOL     OW39346   3.564   3.865   0.404
 8958SOL    HW139347   3.556   3.785   0.464
 8958SOL    HW239348   3.622   3.842   0.326
 8959SOL     OW39349   3.447   5.477   5.300
 8959SOL    HW139350   3.502   5.544   5.250
 8959SOL    HW239351   3.385   5.525   5.362
 8960SOL     OW39352   7.079   3.794   3.652
 8960SOL    HW139353   7.111   3.833   3.566
 8960SOL    HW239354   7.078   3.695   3.645
 8961SOL     OW39355   4.172   2.381   3.999
 8961SOL    HW139356   4.179   2.317   4.075
 8961SOL    HW239357   4.253   2.440   3.997
 8962SOL     OW39358   4.226   1.132   6.838
 8962SOL    HW139359   4.194   1.166   6.926
 8962SOL    HW239360   4.219   1.205   6.770
 8963SOL     OW39361   1.602   1.878   7.071
 8963SOL    HW139362   1.660   1.825   7.009
 8963SOL    HW239363   1.646   1.886   7.160
 8964SOL     OW39364   0.635   4.257   2.030
 8964SOL    HW139365   0.733   4.249   2.049
 8964SOL    HW239366   0.591   4.168   2.045
 8965SOL     OW39367   3.428   0.269   7.309
 8965SOL    HW139368   3.464   0.256   7.402
 8965SOL    HW239369   3.406   0.180   7.270
 8966SOL     OW39370   2.784   2.305   6.297
 8966SOL    HW139371   2.749   2.249   6.222
 8966SOL    HW239372   2.757   2.400   6.282
 8967SOL     OW39373   2.072   3.793   4.916
 8967SOL    HW139374   2.092   3.866   4.980
 8967SOL    HW239375   2.112   3.815   4.827
 8968SOL     OW39376   7.178   4.246   5.117
 8968SOL    HW139377   7.193   4.149   5.139
 8968SOL    HW239378   7.266   4.291   5.104
 8969SOL     OW39379   4.589   1.194   0.548
 8969SOL    HW139380   4.617   1.285   0.517
 8969SOL    HW239381   4.507   1.202   0.604
 8970SOL     OW39382   1.774   2.923   0.600
 8970SOL    HW139383   1.812   3.015   0.599
 8970SOL    HW239384   1.794   2.877   0.514
 8971SOL     OW39385   6.815   2.643   1.755
 8971SOL    HW139386   6.787   2.683   1.842
 8971SOL    HW239387   6.792   2.706   1.681
 8972SOL     OW39388   2.838   4.379   1.106
 8972SOL    HW139389   2.807   4.362   1.012
 8972SOL    HW239390   2.908   4.451   1.104
 8973SOL     OW39391   0.154   0.978   6.347
 8973SOL    HW139392   0.161   0.880   6.367
 8973SOL    HW239393   0.103   0.991   6.262
 8974SOL     OW39394   5.624   5.205   3.116
 8974SOL    HW139395   5.614   5.118   3.165
 8974SOL    HW239396   5.602   5.192   3.020
 8975SOL     OW39397   3.131   2.838   3.785
 8975SOL    HW139398   3.112   2.777   3.709
 8975SOL    HW239399   3.226   2.827   3.814
 8976SOL     OW39400   4.572   0.338   3.275
 8976SOL    HW139401   4.551   0.351   3.179
 8976SOL    HW239402   4.498   0.288   3.319
 8977SOL     OW39403   5.641   2.775   0.785
 8977SOL    HW139404   5.684   2.762   0.696
 8977SOL    HW239405   5.582   2.856   0.783
 8978SOL     OW39406   5.151   1.594   3.942
 8978SOL    HW139407   5.249   1.609   3.957
 8978SOL    HW239408   5.102   1.599   4.029
 8979SOL     OW39409   4.938   4.347   2.677
 8979SOL    HW139410   4.999   4.357   2.756
 8979SOL    HW239411   4.947   4.254   2.640
 8980SOL     OW39412   1.640   3.584   0.135
 8980SOL    HW139413   1.728   3.615   0.170
 8980SOL    HW239414   1.647   3.570   0.036
 8981SOL     OW39415   7.050   5.935   2.552
 8981SOL    HW139416   6.974   5.936   2.487
 8981SOL    HW239417   7.016   5.958   2.643
 8982SOL     OW39418   5.089   0.365   6.870
 8982SOL    HW139419   5.063   0.280   6.916
 8982SOL    HW239420   5.183   0.388   6.893
 8983SOL     OW39421   6.229   5.153   3.541
 8983SOL    HW139422   6.240   5.151   3.641
 8983SOL    HW239423   6.142   5.111   3.517
 8984SOL     OW39424   6.081   1.750   3.091
 8984SOL    HW139425   6.022   1.757   3.171
 8984SOL    HW239426   6.094   1.653   3.067
 8985SOL     OW39427   4.013   4.357   6.254
 8985SOL    HW139428   3.977   4.322   6.167
 8985SOL    HW239429   3.969   4.309   6.330
 8986SOL     OW39430   1.382   1.722   7.130
 8986SOL    HW139431   1.451   1.787   7.099
 8986SOL    HW239432   1.410   1.629   7.106
 8987SOL     OW39433   6.198   4.689   1.888
 8987SOL    HW139434   6.194   4.763   1.822
 8987SOL    HW239435   6.118   4.693   1.948
 8988SOL     OW39436   2.458   5.130   3.547
 8988SOL    HW139437   2.491   5.162   3.458
 8988SOL    HW239438   2.522   5.157   3.618
 8989SOL     OW39439   1.711   3.605   6.161
 8989SOL    HW139440   1.691   3.664   6.083
 8989SOL    HW239441   1.810   3.603   6.177
 8990SOL     OW39442   3.209   7.328   5.228
 8990SOL    HW139443   3.206   7.254   5.160
 8990SOL    HW239444   3.159   7.300   5.309
 8991SOL     OW39445   6.608   5.640   5.683
 8991SOL    HW139446   6.550   5.561   5.700
 8991SOL    HW239447   6.612   5.659   5.585
 8992SOL     OW39448   6.002   6.913   4.372
 8992SOL    HW139449   5.912   6.869   4.368
 8992SOL    HW239450   6.015   6.953   4.463
 8993SOL     OW39451   4.866   4.071   2.008
 8993SOL    HW139452   4.882   4.035   1.916
 8993SOL    HW239453   4.938   4.038   2.069
 8994SOL     OW39454   1.526   1.160   3.547
 8994SOL    HW139455   1.474   1.235   3.588
 8994SOL    HW239456   1.497   1.147   3.452
 8995SOL     OW39457   0.807   3.025   5.454
 8995SOL    HW139458   0.820   3.066   5.364
 8995SOL    HW239459   0.895   2.990   5.487
 8996SOL     OW39460   0.507   4.367   4.630
 8996SOL    HW139461   0.465   4.282   4.663
 8996SOL    HW239462   0.588   4.346   4.575
 8997SOL     OW39463   1.864   4.954   1.133
 8997SOL    HW139464   1.870   5.053   1.118
 8997SOL    HW239465   1.956   4.915   1.133
 8998SOL     OW39466   6.425   5.119   1.585
 8998SOL    HW139467   6.512   5.147   1.545
 8998SOL    HW239468   6.438   5.099   1.682
 8999SOL     OW39469   5.754   1.826   5.907
 8999SOL    HW139470   5.743   1.738   5.861
 8999SOL    HW239471   5.768   1.811   6.005
 9000SOL     OW39472   0.532   3.580   5.571
 9000SOL    HW139473   0.604   3.606   5.637
 9000SOL    HW239474   0.460   3.649   5.573
 9001SOL     OW39475   3.978   1.662   6.863
 9001SOL    HW139476   3.975   1.584   6.800
 9001SOL    HW239477   3.912   1.648   6.936
 9002SOL     OW39478   7.067   0.206   5.415
 9002SOL    HW139479   7.083   0.280   5.481
 9002SOL    HW239480   6.969   0.200   5.396
 9003SOL     OW39481   4.867   5.948   0.575
 9003SOL    HW139482   4.923   5.899   0.642
 9003SOL    HW239483   4.883   6.046   0.583
 9004SOL     OW39484   1.315   2.215   1.231
 9004SOL    HW139485   1.351   2.302   1.265
 9004SOL    HW239486   1.233   2.191   1.282
 9005SOL     OW39487   2.149   2.820   1.094
 9005SOL    HW139488   2.095   2.742   1.125
 9005SOL    HW239489   2.218   2.843   1.164
 9006SOL     OW39490   4.460   5.714   6.133
 9006SOL    HW139491   4.458   5.643   6.063
 9006SOL    HW239492   4.463   5.671   6.223
 9007SOL     OW39493   4.782   6.200   4.989
 9007SOL    HW139494   4.750   6.171   5.079
 9007SOL    HW239495   4.760   6.297   4.975
 9008SOL     OW39496   0.916   0.573   2.145
 9008SOL    HW139497   0.904   0.672   2.139
 9008SOL    HW239498   0.849   0.534   2.208
 9009SOL     OW39499   6.156   6.472   2.854
 9009SOL    HW139500   6.206   6.388   2.874
 9009SOL    HW239501   6.058   6.457   2.871
 9010SOL     OW39502   2.616   4.312   6.212
 9010SOL    HW139503   2.562   4.344   6.134
 9010SOL    HW239504   2.710   4.344   6.202
 9011SOL     OW39505   5.984   5.203   3.826
 9011SOL    HW139506   5.894   5.207   3.869
 9011SOL    HW239507   5.981   5.253   3.739
 9012SOL     OW39508   1.727   5.364   4.685
 9012SOL    HW139509   1.800   5.327   4.627
 9012SOL    HW239510   1.647   5.304   4.681
 9013SOL     OW39511   3.999   1.979   6.265
 9013SOL    HW139512   3.922   1.962   6.327
 9013SOL    HW239513   4.019   2.077   6.264
 9014SOL     OW39514   3.374   6.819   5.717
 9014SOL    HW139515   3.407   6.908   5.749
 9014SOL    HW239516   3.286   6.831   5.671
 9015SOL     OW39517   3.316   5.362   4.246
 9015SOL    HW139518   3.236   5.312   4.213
 9015SOL    HW239519   3.353   5.419   4.173
 9016SOL     OW39520   3.261   7.101   2.470
 9016SOL    HW139521   3.279   7.186   2.521
 9016SOL    HW239522   3.309   7.026   2.515
 9017SOL     OW39523   4.259   1.487   1.763
 9017SOL    HW139524   4.242   1.585   1.753
 9017SOL    HW239525   4.325   1.471   1.837
 9018SOL     OW39526   1.130   3.084   6.267
 9018SOL    HW139527   1.170   3.128   6.348
 9018SOL    HW239528   1.047   3.132   6.240
 9019SOL     OW39529   4.954   3.474   3.513
 9019SOL    HW139530   4.858   3.492   3.488
 9019SOL    HW239531   5.001   3.433   3.435
 9020SOL     OW39532   4.635   7.301   4.140
 9020SOL    HW139533   4.668   7.341   4.226
 9020SOL    HW239534   4.643   7.369   4.067
 9021SOL     OW39535   1.577   6.905   6.244
 9021SOL    HW139536   1.647   6.845   6.207
 9021SOL    HW239537   1.591   6.917   6.342
 9022SOL     OW39538   1.069   6.762   6.808
 9022SOL    HW139539   1.038   6.856   6.821
 9022SOL    HW239540   1.049   6.709   6.891
 9023SOL     OW39541   4.388   0.233   3.659
 9023SOL    HW139542   4.368   0.331   3.648
 9023SOL    HW239543   4.472   0.223   3.712
 9024SOL     OW39544   7.264   1.862   4.243
 9024SOL    HW139545   7.344   1.803   4.250
 9024SOL    HW239546   7.181   1.807   4.237
 9025SOL     OW39547   4.628   1.161   1.398
 9025SOL    HW139548   4.529   1.155   1.411
 9025SOL    HW239549   4.664   1.236   1.454
 9026SOL     OW39550   7.351   3.740   3.477
 9026SOL    HW139551   7.410   3.722   3.555
 9026SOL    HW239552   7.342   3.657   3.422
 9027SOL     OW39553   2.641   4.063   2.764
 9027SOL    HW139554   2.637   3.968   2.794
 9027SOL    HW239555   2.642   4.066   2.664
 9028SOL     OW39556   1.915   2.503   2.704
 9028SOL    HW139557   1.983   2.434   2.728
 9028SOL    HW239558   1.825   2.472   2.735
 9029SOL     OW39559   1.938   6.685   1.442
 9029SOL    HW139560   1.909   6.747   1.515
 9029SOL    HW239561   1.859   6.637   1.405
 9030SOL     OW39562   6.942   2.962   1.151
 9030SOL    HW139563   6.869   3.010   1.102
 9030SOL    HW239564   7.017   2.943   1.088
 9031SOL     OW39565   4.421   6.997   4.585
 9031SOL    HW139566   4.372   7.066   4.639
 9031SOL    HW239567   4.396   7.005   4.489
 9032SOL     OW39568   5.286   5.643   2.137
 9032SOL    HW139569   5.274   5.669   2.233
 9032SOL    HW239570   5.214   5.685   2.082
 9033SOL     OW39571   2.635   5.331   1.212
 9033SOL    HW139572   2.558   5.280   1.250
 9033SOL    HW239573   2.629   5.330   1.112
 9034SOL     OW39574   1.767   2.467   5.874
 9034SOL    HW139575   1.721   2.463   5.963
 9034SOL    HW239576   1.804   2.377   5.851
 9035SOL     OW39577   7.415   0.354   4.882
 9035SOL    HW139578   7.394   0.389   4.973
 9035SOL    HW239579   7.485   0.411   4.839
 9036SOL     OW39580   2.437   5.501   4.247
 9036SOL    HW139581   2.381   5.485   4.166
 9036SOL    HW239582   2.480   5.415   4.275
 9037SOL     OW39583   5.601   6.376   4.268
 9037SOL    HW139584   5.553   6.428   4.338
 9037SOL    HW239585   5.675   6.323   4.309
 9038SOL     OW39586   5.913   3.186   0.365
 9038SOL    HW139587   5.923   3.098   0.412
 9038SOL    HW239588   5.864   3.173   0.279
 9039SOL     OW39589   3.557   0.854   0.262
 9039SOL    HW139590   3.625   0.792   0.302
 9039SOL    HW239591   3.593   0.894   0.178
 9040SOL     OW39592   0.132   5.381   7.204
 9040SOL    HW139593   0.060   5.314   7.217
 9040SOL    HW239594   0.092   5.468   7.173
 9041SOL     OW39595   2.368   0.878   1.201
 9041SOL    HW139596   2.463   0.876   1.232
 9041SOL    HW239597   2.317   0.945   1.255
 9042SOL     OW39598   2.533   3.758   3.400
 9042SOL    HW139599   2.596   3.836   3.396
 9042SOL    HW239600   2.575   3.684   3.452
 9043SOL     OW39601   5.779   0.072   6.239
 9043SOL    HW139602   5.877   0.090   6.230
 9043SOL    HW239603   5.754   0.069   6.336
 9044SOL     OW39604   4.690   0.596   6.734
 9044SOL    HW139605   4.766   0.605   6.670
 9044SOL    HW239606   4.622   0.667   6.714
 9045SOL     OW39607   5.914   4.815   2.623
 9045SOL    HW139608   5.998   4.771   2.593
 9045SOL    HW239609   5.882   4.774   2.708
 9046SOL     OW39610   6.074   7.022   4.890
 9046SOL    HW139611   6.170   7.015   4.919
 9046SOL    HW239612   6.026   7.086   4.950
 9047SOL     OW39613   0.359   5.207   0.414
 9047SOL    HW139614   0.320   5.126   0.371
 9047SOL    HW239615   0.286   5.268   0.445
 9048SOL     OW39616   6.331   6.619   3.692
 9048SOL    HW139617   6.398   6.622   3.765
 9048SOL    HW239618   6.239   6.618   3.731
 9049SOL     OW39619   0.442   5.124   0.821
 9049SOL    HW139620   0.494   5.107   0.737
 9049SOL    HW239621   0.434   5.223   0.836
 9050SOL     OW39622   1.561   2.309   7.069
 9050SOL    HW139623   1.560   2.349   6.977
 9050SOL    HW239624   1.506   2.225   7.070
 9051SOL     OW39625   2.876   0.712   3.070
 9051SOL    HW139626   2.794   0.768   3.083
 9051SOL    HW239627   2.868   0.630   3.126
 9052SOL     OW39628   0.001   0.225   1.778
 9052SOL    HW139629   0.001   0.152   1.846
 9052SOL    HW239630   8.982   0.187   1.688
 9053SOL     OW39631   0.728   7.104   6.818
 9053SOL    HW139632   0.656   7.052   6.863
 9053SOL    HW239633   0.697   7.131   6.727
 9054SOL     OW39634   0.385   0.916   2.780
 9054SOL    HW139635   0.400   0.981   2.855
 9054SOL    HW239636   0.287   0.901   2.769
 9055SOL     OW39637   1.999   7.165   0.585
 9055SOL    HW139638   2.043   7.227   0.650
 9055SOL    HW239639   1.941   7.217   0.523
 9056SOL     OW39640   4.597   3.735   1.291
 9056SOL    HW139641   4.625   3.805   1.225
 9056SOL    HW239642   4.498   3.735   1.300
 9057SOL     OW39643   6.390   2.988   5.077
 9057SOL    HW139644   6.311   2.954   5.027
 9057SOL    HW239645   6.431   3.064   5.028
 9058SOL     OW39646   1.870   5.823   5.934
 9058SOL    HW139647   1.965   5.853   5.933
 9058SOL    HW239648   1.814   5.889   5.983
 9059SOL     OW39649   2.372   5.911   1.133
 9059SOL    HW139650   2.385   5.906   1.232
 9059SOL    HW239651   2.403   6.000   1.100
 9060SOL     OW39652   0.369   1.924   5.622
 9060SOL    HW139653   0.425   1.842   5.635
 9060SOL    HW239654   0.372   1.979   5.706
 9061SOL     OW39655   5.278   2.956   1.767
 9061SOL    HW139656   5.194   2.905   1.751
 9061SOL    HW239657   5.255   3.046   1.804
 9062SOL     OW39658   2.515   5.366   5.242
 9062SOL    HW139659   2.426   5.326   5.265
 9062SOL    HW239660   2.537   5.437   5.309
 9063SOL     OW39661   4.112   2.605   0.292
 9063SOL    HW139662   4.097   2.580   0.387
 9063SOL    HW239663   4.088   2.527   0.233
 9064SOL     OW39664   7.282   6.771   6.581
 9064SOL    HW139665   7.319   6.782   6.488
 9064SOL    HW239666   7.191   6.812   6.585
 9065SOL     OW39667   6.136   7.229   0.152
 9065SOL    HW139668   6.190   7.302   0.111
 9065SOL    HW239669   6.190   7.182   0.221
 9066SOL     OW39670   4.006   0.903   5.524
 9066SOL    HW139671   4.083   0.839   5.523
 9066SOL    HW239672   4.028   0.981   5.581
 9067SOL     OW39673   3.350   7.035   6.060
 9067SOL    HW139674   3.398   7.063   6.143
 9067SOL    HW239675   3.304   6.947   6.076
 9068SOL     OW39676   4.236   2.179   1.496
 9068SOL    HW139677   4.288   2.223   1.423
 9068SOL    HW239678   4.272   2.210   1.585
 9069SOL     OW39679   5.218   6.342   7.051
 9069SOL    HW139680   5.180   6.326   7.142
 9069SOL    HW239681   5.254   6.435   7.045
 9070SOL     OW39682   1.058   6.307   0.966
 9070SOL    HW139683   1.035   6.237   0.899
 9070SOL    HW239684   0.998   6.387   0.953
 9071SOL     OW39685   2.139   5.573   0.585
 9071SOL    HW139686   2.171   5.666   0.603
 9071SOL    HW239687   2.216   5.514   0.561
 9072SOL     OW39688   1.274   1.116   1.666
 9072SOL    HW139689   1.312   1.066   1.588
 9072SOL    HW239690   1.237   1.204   1.634
 9073SOL     OW39691   6.089   3.462   2.752
 9073SOL    HW139692   6.122   3.525   2.682
 9073SOL    HW239693   6.096   3.504   2.842
 9074SOL     OW39694   5.077   7.005   4.796
 9074SOL    HW139695   4.995   6.959   4.830
 9074SOL    HW239696   5.149   6.938   4.781
 9075SOL     OW39697   1.056   2.960   5.547
 9075SOL    HW139698   1.125   2.889   5.532
 9075SOL    HW239699   1.050   2.980   5.645
 9076SOL     OW39700   3.566   6.668   6.034
 9076SOL    HW139701   3.479   6.662   5.985
 9076SOL    HW239702   3.639   6.694   5.971
 9077SOL     OW39703   4.169   6.439   1.145
 9077SOL    HW139704   4.217   6.365   1.098
 9077SOL    HW239705   4.142   6.509   1.079
 9078SOL     OW39706   6.995   1.560   2.591
 9078SOL    HW139707   6.961   1.592   2.502
 9078SOL    HW239708   7.090   1.590   2.604
 9079SOL     OW39709   5.333   3.042   6.067
 9079SOL    HW139710   5.431   3.035   6.048
 9079SOL    HW239711   5.314   3.129   6.112
 9080SOL     OW39712   3.598   6.956   2.804
 9080SOL    HW139713   3.539   7.006   2.867
 9080SOL    HW239714   3.651   6.888   2.855
 9081SOL     OW39715   3.878   7.336   0.130
 9081SOL    HW139716   3.864   7.273   0.053
 9081SOL    HW239717   3.943   7.296   0.194
 9082SOL     OW39718   2.342   3.947   0.418
 9082SOL    HW139719   2.334   3.883   0.342
 9082SOL    HW239720   2.361   4.039   0.382
 9083SOL     OW39721   7.000   7.359   8.966
 9083SOL    HW139722   6.958   7.403   0.046
 9083SOL    HW239723   7.091   7.396   8.951
 9084SOL     OW39724   4.122   0.882   6.780
 9084SOL    HW139725   4.163   0.973   6.788
 9084SOL    HW239726   4.191   0.813   6.799
 9085SOL     OW39727   5.871   1.292   1.575
 9085SOL    HW139728   5.858   1.194   1.556
 9085SOL    HW239729   5.810   1.319   1.650
 9086SOL     OW39730   5.703   1.356   2.739
 9086SOL    HW139731   5.785   1.298   2.736
 9086SOL    HW239732   5.622   1.300   2.721
 9087SOL     OW39733   6.205   3.325   6.861
 9087SOL    HW139734   6.190   3.227   6.874
 9087SOL    HW239735   6.153   3.355   6.781
 9088SOL     OW39736   4.995   4.766   2.863
 9088SOL    HW139737   4.974   4.849   2.812
 9088SOL    HW239738   4.909   4.721   2.890
 9089SOL     OW39739   1.125   3.425   6.348
 9089SOL    HW139740   1.069   3.462   6.423
 9089SOL    HW239741   1.190   3.495   6.318
 9090SOL     OW39742   2.221   5.621   6.481
 9090SOL    HW139743   2.123   5.629   6.497
 9090SOL    HW239744   2.251   5.692   6.417
 9091SOL     OW39745   1.715   2.971   6.008
 9091SOL    HW139746   1.660   3.012   5.935
 9091SOL    HW239747   1.751   2.884   5.977
 9092SOL     OW39748   6.939   2.463   6.025
 9092SOL    HW139749   7.025   2.484   5.979
 9092SOL    HW239750   6.954   2.385   6.087
 9093SOL     OW39751   5.227   4.976   0.771
 9093SOL    HW139752   5.319   4.990   0.807
 9093SOL    HW239753   5.224   4.890   0.719
 9094SOL     OW39754   2.902   6.566   1.820
 9094SOL    HW139755   2.828   6.502   1.803
 9094SOL    HW239756   2.988   6.528   1.787
 9095SOL     OW39757   0.403   1.122   2.971
 9095SOL    HW139758   0.319   1.173   2.955
 9095SOL    HW239759   0.480   1.172   2.933
 9096SOL     OW39760   0.876   5.111   5.018
 9096SOL    HW139761   0.822   5.161   5.085
 9096SOL    HW239762   0.918   5.031   5.061
 9097SOL     OW39763   3.672   3.181   4.816
 9097SOL    HW139764   3.583   3.152   4.782
 9097SOL    HW239765   3.675   3.169   4.915
 9098SOL     OW39766   0.925   2.678   2.723
 9098SOL    HW139767   0.900   2.604   2.660
 9098SOL    HW239768   0.967   2.640   2.805
 9099SOL     OW39769   1.713   4.553   3.627
 9099SOL    HW139770   1.673   4.637   3.592
 9099SOL    HW239771   1.660   4.474   3.596
 9100SOL     OW39772   0.815   6.854   5.440
 9100SOL    HW139773   0.896   6.800   5.418
 9100SOL    HW239774   0.813   6.936   5.383
 9101SOL     OW39775   2.229   4.303   7.125
 9101SOL    HW139776   2.144   4.258   7.154
 9101SOL    HW239777   2.233   4.303   7.025
 9102SOL     OW39778   4.379   0.543   7.138
 9102SOL    HW139779   4.375   0.643   7.137
 9102SOL    HW239780   4.298   0.508   7.185
 9103SOL     OW39781   2.207   4.922   3.993
 9103SOL    HW139782   2.132   4.863   3.962
 9103SOL    HW239783   2.198   5.012   3.950
 9104SOL     OW39784   5.350   2.767   0.961
 9104SOL    HW139785   5.440   2.740   0.925
 9104SOL    HW239786   5.297   2.811   0.888
 9105SOL     OW39787   1.021   5.581   1.989
 9105SOL    HW139788   1.110   5.542   2.013
 9105SOL    HW239789   0.950   5.534   2.042
 9106SOL     OW39790   4.640   1.775   3.663
 9106SOL    HW139791   4.681   1.691   3.629
 9106SOL    HW239792   4.708   1.849   3.660
 9107SOL     OW39793   1.021   3.576   1.903
 9107SOL    HW139794   0.993   3.627   1.984
 9107SOL    HW239795   1.107   3.528   1.921
 9108SOL     OW39796   6.070   5.220   4.542
 9108SOL    HW139797   6.138   5.275   4.591
 9108SOL    HW239798   5.982   5.226   4.589
 9109SOL     OW39799   6.958   3.481   5.721
 9109SOL    HW139800   6.952   3.552   5.651
 9109SOL    HW239801   7.036   3.499   5.781
 9110SOL     OW39802   7.348   6.535   7.062
 9110SOL    HW139803   7.299   6.451   7.086
 9110SOL    HW239804   7.444   6.513   7.046
 9111SOL     OW39805   2.927   1.660   0.146
 9111SOL    HW139806   2.959   1.577   0.102
 9111SOL    HW239807   2.933   1.649   0.246
 9112SOL     OW39808   2.484   6.706   1.718
 9112SOL    HW139809   2.458   6.705   1.814
 9112SOL    HW239810   2.577   6.741   1.708
 9113SOL     OW39811   6.301   3.896   2.629
 9113SOL    HW139812   6.379   3.899   2.567
 9113SOL    HW239813   6.258   3.986   2.632
 9114SOL     OW39814   5.783   1.758   6.171
 9114SOL    HW139815   5.788   1.659   6.156
 9114SOL    HW239816   5.864   1.788   6.222
 9115SOL     OW39817   3.923   5.533   2.039
 9115SOL    HW139818   3.883   5.568   1.954
 9115SOL    HW239819   3.866   5.458   2.073
 9116SOL     OW39820   3.811   2.911   2.635
 9116SOL    HW139821   3.796   2.997   2.587
 9116SOL    HW239822   3.908   2.901   2.658
 9117SOL     OW39823   7.243   4.855   7.275
 9117SOL    HW139824   7.276   4.895   7.360
 9117SOL    HW239825   7.314   4.863   7.204
 9118SOL     OW39826   2.437   3.460   3.774
 9118SOL    HW139827   2.465   3.394   3.705
 9118SOL    HW239828   2.378   3.415   3.842
 9119SOL     OW39829   0.785   5.745   2.370
 9119SOL    HW139830   0.839   5.829   2.366
 9119SOL    HW239831   0.731   5.735   2.286
 9120SOL     OW39832   3.535   5.247   1.988
 9120SOL    HW139833   3.547   5.158   1.946
 9120SOL    HW239834   3.437   5.264   2.004
 9121SOL     OW39835   5.872   5.936   2.678
 9121SOL    HW139836   5.870   5.924   2.579
 9121SOL    HW239837   5.901   5.850   2.721
 9122SOL     OW39838   5.406   4.848   4.997
 9122SOL    HW139839   5.469   4.892   4.932
 9122SOL    HW239840   5.418   4.889   5.087
 9123SOL     OW39841   3.704   5.800   7.093
 9123SOL    HW139842   3.672   5.817   7.186
 9123SOL    HW239843   3.792   5.845   7.079
 9124SOL     OW39844   5.858   6.984   3.945
 9124SOL    HW139845   5.880   6.891   3.974
 9124SOL    HW239846   5.941   7.029   3.913
 9125SOL     OW39847   3.277   1.073   4.990
 9125SOL    HW139848   3.355   1.036   4.940
 9125SOL    HW239849   3.237   1.002   5.046
 9126SOL     OW39850   4.642   2.408   3.856
 9126SOL    HW139851   4.632   2.343   3.780
 9126SOL    HW239852   4.551   2.435   3.889
 9127SOL     OW39853   4.992   6.505   4.583
 9127SOL    HW139854   4.996   6.426   4.522
 9127SOL    HW239855   4.901   6.548   4.576
 9128SOL     OW39856   3.893   3.418   2.529
 9128SOL    HW139857   3.852   3.491   2.474
 9128SOL    HW239858   3.992   3.430   2.532
 9129SOL     OW39859   5.840   7.122   1.657
 9129SOL    HW139860   5.925   7.174   1.668
 9129SOL    HW239861   5.788   7.126   1.742
 9130SOL     OW39862   3.518   5.273   6.380
 9130SOL    HW139863   3.447   5.293   6.447
 9130SOL    HW239864   3.540   5.355   6.328
 9131SOL     OW39865   6.870   4.276   6.469
 9131SOL    HW139866   6.861   4.269   6.569
 9131SOL    HW239867   6.787   4.316   6.431
 9132SOL     OW39868   1.562   4.553   4.635
 9132SOL    HW139869   1.621   4.606   4.574
 9132SOL    HW239870   1.527   4.473   4.586
 9133SOL     OW39871   3.599   0.353   6.171
 9133SOL    HW139872   3.629   0.447   6.156
 9133SOL    HW239873   3.662   0.290   6.126
 9134SOL     OW39874   5.267   3.956   2.339
 9134SOL    HW139875   5.271   3.989   2.433
 9134SOL    HW239876   5.263   3.856   2.339
 9135SOL     OW39877   0.910   2.653   5.530
 9135SOL    HW139878   0.852   2.573   5.517
 9135SOL    HW239879   0.945   2.684   5.442
 9136SOL     OW39880   7.095   5.003   6.923
 9136SOL    HW139881   7.190   4.979   6.946
 9136SOL    HW239882   7.088   5.102   6.908
 9137SOL     OW39883   3.540   2.525   6.113
 9137SOL    HW139884   3.612   2.474   6.067
 9137SOL    HW239885   3.581   2.587   6.181
 9138SOL     OW39886   5.157   6.607   2.463
 9138SOL    HW139887   5.183   6.675   2.394
 9138SOL    HW239888   5.104   6.534   2.420
 9139SOL     OW39889   1.886   6.341   7.199
 9139SOL    HW139890   1.803   6.356   7.254
 9139SOL    HW239891   1.927   6.254   7.225
 9140SOL     OW39892   2.920   1.676   6.011
 9140SOL    HW139893   2.878   1.713   5.928
 9140SOL    HW239894   2.885   1.584   6.027
 9141SOL     OW39895   3.276   5.480   6.127
 9141SOL    HW139896   3.264   5.502   6.030
 9141SOL    HW239897   3.193   5.504   6.177
 9142SOL     OW39898   4.804   0.375   6.478
 9142SOL    HW139899   4.799   0.456   6.420
 9142SOL    HW239900   4.894   0.371   6.523
 9143SOL     OW39901   3.691   6.437   1.087
 9143SOL    HW139902   3.768   6.392   1.132
 9143SOL    HW239903   3.633   6.369   1.043
 9144SOL     OW39904   6.638   3.531   6.504
 9144SOL    HW139905   6.681   3.444   6.529
 9144SOL    HW239906   6.539   3.522   6.510
 9145SOL     OW39907   0.913   4.294   6.275
 9145SOL    HW139908   0.996   4.257   6.317
 9145SOL    HW239909   0.856   4.218   6.242
 9146SOL     OW39910   0.759   4.024   1.807
 9146SOL    HW139911   0.685   3.957   1.817
 9146SOL    HW239912   0.838   3.994   1.861
 9147SOL     OW39913   5.885   0.261   3.354
 9147SOL    HW139914   5.966   0.301   3.312
 9147SOL    HW239915   5.809   0.261   3.288
 9148SOL     OW39916   6.178   4.642   7.279
 9148SOL    HW139917   6.172   4.697   7.362
 9148SOL    HW239918   6.241   4.565   7.294
 9149SOL     OW39919   2.846   3.668   3.144
 9149SOL    HW139920   2.749   3.644   3.148
 9149SOL    HW239921   2.880   3.684   3.237
 9150SOL     OW39922   7.246   0.603   1.568
 9150SOL    HW139923   7.304   0.557   1.635
 9150SOL    HW239924   7.185   0.667   1.616
 9151SOL     OW39925   1.502   3.658   4.351
 9151SOL    HW139926   1.545   3.591   4.290
 9151SOL    HW239927   1.527   3.637   4.445
 9152SOL     OW39928   6.333   6.729   3.310
 9152SOL    HW139929   6.327   6.641   3.358
 9152SOL    HW239930   6.251   6.742   3.255
 9153SOL     OW39931   1.786   7.276   6.833
 9153SOL    HW139932   1.858   7.214   6.865
 9153SOL    HW239933   1.751   7.244   6.745
 9154SOL     OW39934   0.122   6.322   2.140
 9154SOL    HW139935   0.027   6.314   2.169
 9154SOL    HW239936   0.130   6.389   2.067
 9155SOL     OW39937   6.975   0.456   6.373
 9155SOL    HW139938   6.897   0.502   6.331
 9155SOL    HW239939   7.058   0.482   6.325
 9156SOL     OW39940   4.785   4.405   0.173
 9156SOL    HW139941   4.718   4.474   0.146
 9156SOL    HW239942   4.875   4.448   0.184
 9157SOL     OW39943   1.204   1.356   2.646
 9157SOL    HW139944   1.193   1.403   2.734
 9157SOL    HW239945   1.256   1.413   2.583
 9158SOL     OW39946   5.964   4.757   2.020
 9158SOL    HW139947   5.919   4.817   1.954
 9158SOL    HW239948   6.017   4.813   2.085
 9159SOL     OW39949   6.433   3.458   6.787
 9159SOL    HW139950   6.416   3.480   6.691
 9159SOL    HW239951   6.357   3.404   6.823
 9160SOL     OW39952   0.911   3.641   6.772
 9160SOL    HW139953   0.816   3.639   6.805
 9160SOL    HW239954   0.945   3.735   6.776
 9161SOL     OW39955   5.289   0.115   6.981
 9161SOL    HW139956   5.354   0.117   6.905
 9161SOL    HW239957   5.337   0.132   7.066
 9162SOL     OW39958   3.367   1.944   4.653
 9162SOL    HW139959   3.445   1.926   4.713
 9162SOL    HW239960   3.378   1.894   4.568
 9163SOL     OW39961   0.910   4.678   1.561
 9163SOL    HW139962   0.866   4.750   1.507
 9163SOL    HW239963   0.981   4.719   1.618
 9164SOL     OW39964   5.915   2.281   2.562
 9164SOL    HW139965   5.824   2.253   2.531
 9164SOL    HW239966   5.983   2.215   2.530
 9165SOL     OW39967   1.960   6.652   6.963
 9165SOL    HW139968   2.023   6.590   7.010
 9165SOL    HW239969   2.011   6.725   6.919
 9166SOL     OW39970   3.747   1.363   2.769
 9166SOL    HW139971   3.739   1.385   2.672
 9166SOL    HW239972   3.803   1.432   2.814
 9167SOL     OW39973   5.510   2.133   3.894
 9167SOL    HW139974   5.518   2.038   3.924
 9167SOL    HW239975   5.525   2.138   3.795
 9168SOL     OW39976   5.678   1.231   0.434
 9168SOL    HW139977   5.673   1.328   0.413
 9168SOL    HW239978   5.763   1.211   0.483
 9169SOL     OW39979   3.635   0.367   3.570
 9169SOL    HW139980   3.706   0.429   3.603
 9169SOL    HW239981   3.546   0.414   3.572
 9170SOL     OW39982   2.815   5.347   4.209
 9170SOL    HW139983   2.841   5.440   4.235
 9170SOL    HW239984   2.729   5.322   4.254
 9171SOL     OW39985   4.945   3.845   0.512
 9171SOL    HW139986   4.974   3.917   0.449
 9171SOL    HW239987   4.942   3.758   0.463
 9172SOL     OW39988   3.913   3.914   1.812
 9172SOL    HW139989   3.974   3.855   1.864
 9172SOL    HW239990   3.844   3.953   1.873
 9173SOL     OW39991   0.374   2.973   3.263
 9173SOL    HW139992   0.462   3.019   3.274
 9173SOL    HW239993   0.331   2.960   3.352
 9174SOL     OW39994   3.993   6.661   4.724
 9174SOL    HW139995   4.091   6.650   4.711
 9174SOL    HW239996   3.953   6.708   4.646
 9175SOL     OW39997   2.520   6.874   1.075
 9175SOL    HW139998   2.447   6.903   1.012
 9175SOL    HW239999   2.479   6.830   1.155
 9176SOL     OW40000   2.735   6.245   6.192
 9176SOL    HW140001   2.791   6.177   6.240
 9176SOL    HW240002   2.746   6.334   6.236
 9177SOL     OW40003   4.344   6.552   1.342
 9177SOL    HW140004   4.433   6.513   1.321
 9177SOL    HW240005   4.275   6.514   1.279
 9178SOL     OW40006   0.711   3.851   4.039
 9178SOL    HW140007   0.770   3.812   4.109
 9178SOL    HW240008   0.627   3.798   4.032
 9179SOL     OW40009   2.635   2.316   2.028
 9179SOL    HW140010   2.675   2.228   2.006
 9179SOL    HW240011   2.564   2.305   2.098
 9180SOL     OW40012   3.275   2.517   6.705
 9180SOL    HW140013   3.251   2.459   6.627
 9180SOL    HW240014   3.370   2.546   6.697
 9181SOL     OW40015   4.419   4.827   6.051
 9181SOL    HW140016   4.437   4.730   6.068
 9181SOL    HW240017   4.505   4.872   6.026
 9182SOL     OW40018   2.162   4.755   4.227
 9182SOL    HW140019   2.175   4.822   4.154
 9182SOL    HW240020   2.227   4.680   4.216
 9183SOL     OW40021   6.032   3.076   3.569
 9183SOL    HW140022   6.130   3.058   3.577
 9183SOL    HW240023   6.001   3.052   3.477
 9184SOL     OW40024   5.730   5.611   0.735
 9184SOL    HW140025   5.659   5.681   0.729
 9184SOL    HW240026   5.688   5.522   0.754
 9185SOL     OW40027   0.941   5.044   6.735
 9185SOL    HW140028   1.011   5.068   6.667
 9185SOL    HW240029   0.984   5.037   6.825
 9186SOL     OW40030   3.827   7.089   2.724
 9186SOL    HW140031   3.741   7.042   2.741
 9186SOL    HW240032   3.893   7.065   2.795
 9187SOL     OW40033   3.681   5.368   1.780
 9187SOL    HW140034   3.627   5.350   1.863
 9187SOL    HW240035   3.658   5.299   1.711
 9188SOL     OW40036   0.941   6.684   3.741
 9188SOL    HW140037   0.901   6.751   3.679
 9188SOL    HW240038   0.998   6.731   3.809
 9189SOL     OW40039   6.465   2.806   3.526
 9189SOL    HW140040   6.515   2.770   3.447
 9189SOL    HW240041   6.486   2.750   3.607
 9190SOL     OW40042   3.445   0.340   6.594
 9190SOL    HW140043   3.407   0.321   6.685
 9190SOL    HW240044   3.378   0.390   6.539
 9191SOL     OW40045   0.390   1.058   1.862
 9191SOL    HW140046   0.448   1.098   1.791
 9191SOL    HW240047   0.296   1.088   1.849
 9192SOL     OW40048   6.249   6.683   4.042
 9192SOL    HW140049   6.341   6.668   4.006
 9192SOL    HW240050   6.204   6.755   3.989
 9193SOL     OW40051   5.125   5.852   3.642
 9193SOL    HW140052   5.171   5.928   3.689
 9193SOL    HW240053   5.030   5.848   3.673
 9194SOL     OW40054   6.717   3.641   4.380
 9194SOL    HW140055   6.643   3.594   4.429
 9194SOL    HW240056   6.692   3.738   4.369
 9195SOL     OW40057   1.332   5.256   0.832
 9195SOL    HW140058   1.432   5.264   0.828
 9195SOL    HW240059   1.291   5.333   0.783
 9196SOL     OW40060   1.689   4.033   5.985
 9196SOL    HW140061   1.690   3.939   5.952
 9196SOL    HW240062   1.597   4.071   5.975
 9197SOL     OW40063   2.804   4.505   0.305
 9197SOL    HW140064   2.832   4.573   0.238
 9197SOL    HW240065   2.721   4.459   0.273
 9198SOL     OW40066   4.399   7.269   5.637
 9198SOL    HW140067   4.335   7.240   5.566
 9198SOL    HW240068   4.472   7.324   5.596
 9199SOL     OW40069   0.783   2.493   1.314
 9199SOL    HW140070   0.717   2.568   1.319
 9199SOL    HW240071   0.844   2.497   1.392
 9200SOL     OW40072   1.649   0.765   3.606
 9200SOL    HW140073   1.703   0.695   3.653
 9200SOL    HW240074   1.611   0.727   3.522
 9201SOL     OW40075   1.096   3.641   4.155
 9201SOL    HW140076   1.169   3.698   4.194
 9201SOL    HW240077   1.079   3.668   4.060
 9202SOL     OW40078   0.067   2.723   2.456
 9202SOL    HW140079   0.075   2.638   2.404
 9202SOL    HW240080   8.990   2.776   2.422
 9203SOL     OW40081   6.105   0.265   2.031
 9203SOL    HW140082   6.165   0.325   1.979
 9203SOL    HW240083   6.042   0.320   2.085
 9204SOL     OW40084   3.869   3.354   6.484
 9204SOL    HW140085   3.923   3.275   6.513
 9204SOL    HW240086   3.811   3.384   6.560
 9205SOL     OW40087   6.096   0.283   1.490
 9205SOL    HW140088   6.146   0.262   1.574
 9205SOL    HW240089   6.149   0.347   1.435
 9206SOL     OW40090   4.111   6.086   7.200
 9206SOL    HW140091   4.104   6.177   7.241
 9206SOL    HW240092   4.203   6.073   7.164
 9207SOL     OW40093   2.143   0.904   3.066
 9207SOL    HW140094   2.175   0.991   3.102
 9207SOL    HW240095   2.119   0.916   2.969
 9208SOL     OW40096   4.918   6.868   6.689
 9208SOL    HW140097   4.933   6.965   6.704
 9208SOL    HW240098   4.843   6.855   6.625
 9209SOL     OW40099   0.604   4.465   6.875
 9209SOL    HW140100   0.505   4.471   6.888
 9209SOL    HW240101   0.632   4.369   6.882
 9210SOL     OW40102   5.653   1.783   0.545
 9210SOL    HW140103   5.668   1.864   0.488
 9210SOL    HW240104   5.597   1.807   0.624
 9211SOL     OW40105   6.553   2.632   3.735
 9211SOL    HW140106   6.618   2.599   3.667
 9211SOL    HW240107   6.594   2.709   3.786
 9212SOL     OW40108   6.740   7.217   0.280
 9212SOL    HW140109   6.741   7.146   0.351
 9212SOL    HW240110   6.646   7.243   0.260
 9213SOL     OW40111   2.495   3.847   1.481
 9213SOL    HW140112   2.476   3.807   1.391
 9213SOL    HW240113   2.594   3.852   1.495
 9214SOL     OW40114   5.467   2.851   1.605
 9214SOL    HW140115   5.403   2.901   1.663
 9214SOL    HW240116   5.432   2.759   1.588
 9215SOL     OW40117   2.443   4.019   4.855
 9215SOL    HW140118   2.374   3.988   4.920
 9215SOL    HW240119   2.512   3.947   4.842
 9216SOL     OW40120   2.339   5.122   5.529
 9216SOL    HW140121   2.332   5.144   5.431
 9216SOL    HW240122   2.274   5.179   5.580
 9217SOL     OW40123   1.327   6.705   5.449
 9217SOL    HW140124   1.403   6.750   5.402
 9217SOL    HW240125   1.363   6.638   5.514
 9218SOL     OW40126   6.697   2.016   6.958
 9218SOL    HW140127   6.772   1.954   6.983
 9218SOL    HW240128   6.709   2.104   7.003
 9219SOL     OW40129   6.420   5.874   2.765
 9219SOL    HW140130   6.441   5.969   2.741
 9219SOL    HW240131   6.334   5.847   2.721
 9220SOL     OW40132   6.486   4.954   3.504
 9220SOL    HW140133   6.584   4.956   3.487
 9220SOL    HW240134   6.439   5.008   3.434
 9221SOL     OW40135   2.980   5.168   5.916
 9221SOL    HW140136   2.975   5.163   6.016
 9221SOL    HW240137   3.075   5.156   5.887
 9222SOL     OW40138   4.292   1.564   4.210
 9222SOL    HW140139   4.273   1.522   4.122
 9222SOL    HW240140   4.341   1.650   4.196
 9223SOL     OW40141   0.994   6.067   4.857
 9223SOL    HW140142   1.089   6.037   4.848
 9223SOL    HW240143   0.970   6.075   4.954
 9224SOL     OW40144   7.219   3.215   3.696
 9224SOL    HW140145   7.186   3.170   3.613
 9224SOL    HW240146   7.270   3.297   3.671
 9225SOL     OW40147   4.240   3.308   1.555
 9225SOL    HW140148   4.220   3.218   1.593
 9225SOL    HW240149   4.176   3.375   1.593
 9226SOL     OW40150   4.728   0.143   1.572
 9226SOL    HW140151   4.820   0.120   1.603
 9226SOL    HW240152   4.733   0.203   1.492
 9227SOL     OW40153   5.811   4.970   4.741
 9227SOL    HW140154   5.803   4.906   4.664
 9227SOL    HW240155   5.822   5.063   4.707
 9228SOL     OW40156   0.983   0.692   6.278
 9228SOL    HW140157   1.003   0.737   6.191
 9228SOL    HW240158   0.889   0.659   6.277
 9229SOL     OW40159   6.580   4.894   2.672
 9229SOL    HW140160   6.543   4.904   2.580
 9229SOL    HW240161   6.615   4.801   2.685
 9230SOL     OW40162   6.366   3.762   1.743
 9230SOL    HW140163   6.457   3.726   1.719
 9230SOL    HW240164   6.296   3.706   1.699
 9231SOL     OW40165   2.533   5.688   1.126
 9231SOL    HW140166   2.524   5.635   1.210
 9231SOL    HW240167   2.473   5.768   1.131
 9232SOL     OW40168   6.107   4.604   4.855
 9232SOL    HW140169   6.094   4.703   4.858
 9232SOL    HW240170   6.075   4.568   4.767
 9233SOL     OW40171   6.266   4.437   2.912
 9233SOL    HW140172   6.191   4.460   2.850
 9233SOL    HW240173   6.260   4.341   2.939
 9234SOL     OW40174   5.668   1.083   1.808
 9234SOL    HW140175   5.581   1.040   1.833
 9234SOL    HW240176   5.653   1.182   1.795
 9235SOL     OW40177   5.154   0.083   3.426
 9235SOL    HW140178   5.203   0.042   3.503
 9235SOL    HW240179   5.073   0.029   3.406
 9236SOL     OW40180   2.573   6.014   6.932
 9236SOL    HW140181   2.606   5.982   7.021
 9236SOL    HW240182   2.473   6.012   6.931
 9237SOL     OW40183   5.069   6.903   8.915
 9237SOL    HW140184   5.102   6.997   8.908
 9237SOL    HW240185   5.023   6.891   0.003
 9238SOL     OW40186   0.356   5.509   3.776
 9238SOL    HW140187   0.320   5.573   3.708
 9238SOL    HW240188   0.326   5.417   3.754
 9239SOL     OW40189   0.764   0.094   7.238
 9239SOL    HW140190   0.784   0.050   7.151
 9239SOL    HW240191   0.714   0.179   7.222
 9240SOL     OW40192   1.105   0.094   7.094
 9240SOL    HW140193   1.200   0.126   7.093
 9240SOL    HW240194   1.074   0.086   7.189
 9241SOL     OW40195   5.356   5.384   2.101
 9241SOL    HW140196   5.280   5.328   2.068
 9241SOL    HW240197   5.324   5.479   2.111
 9242SOL     OW40198   1.108   3.386   4.255
 9242SOL    HW140199   1.018   3.344   4.255
 9242SOL    HW240200   1.101   3.481   4.224
 9243SOL     OW40201   4.731   6.852   5.251
 9243SOL    HW140202   4.657   6.918   5.237
 9243SOL    HW240203   4.731   6.822   5.346
 9244SOL     OW40204   3.543   4.165   3.450
 9244SOL    HW140205   3.603   4.096   3.490
 9244SOL    HW240206   3.457   4.168   3.502
 9245SOL     OW40207   0.891   2.085   7.087
 9245SOL    HW140208   0.920   1.989   7.086
 9245SOL    HW240209   0.897   2.120   7.180
 9246SOL     OW40210   7.010   4.826   7.125
 9246SOL    HW140211   7.022   4.893   7.052
 9246SOL    HW240212   7.082   4.839   7.194
 9247SOL     OW40213   6.073   6.662   6.250
 9247SOL    HW140214   6.045   6.732   6.316
 9247SOL    HW240215   6.048   6.572   6.285
 9248SOL     OW40216   4.259   2.481   0.919
 9248SOL    HW140217   4.210   2.513   1.000
 9248SOL    HW240218   4.343   2.534   0.908
 9249SOL     OW40219   1.053   4.229   0.783
 9249SOL    HW140220   1.044   4.308   0.844
 9249SOL    HW240221   1.110   4.255   0.704
 9250SOL     OW40222   2.174   5.109   7.138
 9250SOL    HW140223   2.238   5.046   7.182
 9250SOL    HW240224   2.118   5.058   7.073
 9251SOL     OW40225   6.541   5.474   3.121
 9251SOL    HW140226   6.571   5.382   3.099
 9251SOL    HW240227   6.515   5.478   3.218
 9252SOL     OW40228   4.669   4.153   6.153
 9252SOL    HW140229   4.666   4.173   6.250
 9252SOL    HW240230   4.577   4.151   6.115
 9253SOL     OW40231   6.046   4.224   0.059
 9253SOL    HW140232   6.093   4.172   0.129
 9253SOL    HW240233   6.107   4.241   8.982
 9254SOL     OW40234   4.732   1.515   2.145
 9254SOL    HW140235   4.677   1.497   2.226
 9254SOL    HW240236   4.751   1.613   2.139
 9255SOL     OW40237   5.223   4.239   3.954
 9255SOL    HW140238   5.319   4.211   3.958
 9255SOL    HW240239   5.169   4.182   4.017
 9256SOL     OW40240   1.277   1.089   2.665
 9256SOL    HW140241   1.258   1.186   2.646
 9256SOL    HW240242   1.330   1.082   2.749
 9257SOL     OW40243   2.522   4.726   0.523
 9257SOL    HW140244   2.552   4.763   0.435
 9257SOL    HW240245   2.506   4.628   0.515
 9258SOL     OW40246   1.776   4.101   2.745
 9258SOL    HW140247   1.848   4.052   2.792
 9258SOL    HW240248   1.773   4.073   2.649
 9259SOL     OW40249   6.045   3.250   1.456
 9259SOL    HW140250   6.000   3.184   1.515
 9259SOL    HW240251   6.009   3.341   1.474
 9260SOL     OW40252   7.203   2.299   1.505
 9260SOL    HW140253   7.248   2.225   1.455
 9260SOL    HW240254   7.207   2.280   1.603
 9261SOL     OW40255   6.949   1.889   4.891
 9261SOL    HW140256   6.916   1.983   4.886
 9261SOL    HW240257   6.926   1.850   4.980
 9262SOL     OW40258   6.113   2.818   6.969
 9262SOL    HW140259   6.034   2.824   7.030
 9262SOL    HW240260   6.182   2.758   7.009
 9263SOL     OW40261   6.915   3.503   3.925
 9263SOL    HW140262   6.874   3.507   4.016
 9263SOL    HW240263   6.943   3.408   3.905
 9264SOL     OW40264   0.464   2.610   7.142
 9264SOL    HW140265   0.553   2.565   7.137
 9264SOL    HW240266   0.425   2.599   7.233
 9265SOL     OW40267   2.477   5.633   0.867
 9265SOL    HW140268   2.501   5.640   0.964
 9265SOL    HW240269   2.552   5.669   0.812
 9266SOL     OW40270   5.936   6.316   4.117
 9266SOL    HW140271   5.900   6.247   4.055
 9266SOL    HW240272   6.019   6.355   4.078
 9267SOL     OW40273   0.179   5.028   0.819
 9267SOL    HW140274   0.275   5.055   0.814
 9267SOL    HW240275   0.149   5.031   0.914
 9268SOL     OW40276   4.612   0.771   0.007
 9268SOL    HW140277   4.653   0.856   0.038
 9268SOL    HW240278   4.674   0.695   0.027
 9269SOL     OW40279   1.115   2.760   3.451
 9269SOL    HW140280   1.118   2.662   3.430
 9269SOL    HW240281   1.123   2.812   3.365
 9270SOL     OW40282   1.161   4.831   3.256
 9270SOL    HW140283   1.202   4.741   3.250
 9270SOL    HW240284   1.169   4.866   3.349
 9271SOL     OW40285   2.340   7.004   4.599
 9271SOL    HW140286   2.363   7.060   4.679
 9271SOL    HW240287   2.293   6.921   4.630
 9272SOL     OW40288   7.198   0.581   2.005
 9272SOL    HW140289   7.223   0.542   2.094
 9272SOL    HW240290   7.103   0.556   1.984
 9273SOL     OW40291   5.366   2.938   7.275
 9273SOL    HW140292   5.319   2.962   7.190
 9273SOL    HW240293   5.461   2.915   7.254
 9274SOL     OW40294   2.332   4.917   0.201
 9274SOL    HW140295   2.348   4.820   0.180
 9274SOL    HW240296   2.404   4.972   0.160
 9275SOL     OW40297   1.646   1.409   0.618
 9275SOL    HW140298   1.622   1.315   0.592
 9275SOL    HW240299   1.712   1.407   0.693
 9276SOL     OW40300   6.080   3.667   0.879
 9276SOL    HW140301   6.086   3.660   0.779
 9276SOL    HW240302   6.172   3.675   0.917
 9277SOL     OW40303   4.157   0.751   2.559
 9277SOL    HW140304   4.135   0.760   2.461
 9277SOL    HW240305   4.139   0.838   2.605
 9278SOL     OW40306   2.684   0.181   0.243
 9278SOL    HW140307   2.635   0.131   0.314
 9278SOL    HW240308   2.769   0.134   0.221
 9279SOL     OW40309   2.009   6.582   5.836
 9279SOL    HW140310   1.910   6.571   5.851
 9279SOL    HW240311   2.059   6.540   5.911
 9280SOL     OW40312   2.680   3.443   5.780
 9280SOL    HW140313   2.580   3.455   5.782
 9280SOL    HW240314   2.706   3.394   5.697
 9281SOL     OW40315   1.405   4.087   0.592
 9281SOL    HW140316   1.333   4.154   0.575
 9281SOL    HW240317   1.490   4.117   0.549
 9282SOL     OW40318   0.252   3.752   1.421
 9282SOL    HW140319   0.273   3.770   1.325
 9282SOL    HW240320   0.312   3.679   1.455
 9283SOL     OW40321   5.351   0.189   4.503
 9283SOL    HW140322   5.269   0.218   4.553
 9283SOL    HW240323   5.430   0.192   4.564
 9284SOL     OW40324   6.382   6.280   7.321
 9284SOL    HW140325   6.336   6.282   7.232
 9284SOL    HW240326   6.357   6.196   7.369
 9285SOL     OW40327   1.259   0.811   1.138
 9285SOL    HW140328   1.253   0.799   1.237
 9285SOL    HW240329   1.273   0.723   1.094
 9286SOL     OW40330   4.594   5.154   3.477
 9286SOL    HW140331   4.616   5.247   3.506
 9286SOL    HW240332   4.499   5.150   3.447
 9287SOL     OW40333   1.988   4.187   7.198
 9287SOL    HW140334   1.968   4.090   7.197
 9287SOL    HW240335   1.913   4.237   7.155
 9288SOL     OW40336   5.862   3.512   2.081
 9288SOL    HW140337   5.833   3.567   2.003
 9288SOL    HW240338   5.856   3.566   2.165
 9289SOL     OW40339   4.724   1.010   0.105
 9289SOL    HW140340   4.717   1.099   0.059
 9289SOL    HW240341   4.668   1.012   0.188
 9290SOL     OW40342   1.980   3.474   5.817
 9290SOL    HW140343   2.034   3.500   5.736
 9290SOL    HW240344   1.990   3.376   5.833
 9291SOL     OW40345   1.531   0.053   0.317
 9291SOL    HW140346   1.465   8.981   0.341
 9291SOL    HW240347   1.481   0.136   0.292
 9292SOL     OW40348   2.234   4.227   0.864
 9292SOL    HW140349   2.203   4.268   0.950
 9292SOL    HW240350   2.276   4.297   0.806
 9293SOL     OW40351   1.799   4.011   2.042
 9293SOL    HW140352   1.761   4.048   1.957
 9293SOL    HW240353   1.851   3.928   2.022
 9294SOL     OW40354   1.967   2.764   5.713
 9294SOL    HW140355   1.935   2.744   5.806
 9294SOL    HW240356   1.944   2.858   5.689
 9295SOL     OW40357   1.526   4.522   5.085
 9295SOL    HW140358   1.429   4.542   5.077
 9295SOL    HW240359   1.577   4.608   5.095
 9296SOL     OW40360   4.470   1.498   4.418
 9296SOL    HW140361   4.425   1.542   4.495
 9296SOL    HW240362   4.412   1.507   4.336
 9297SOL     OW40363   3.577   4.144   4.393
 9297SOL    HW140364   3.577   4.108   4.486
 9297SOL    HW240365   3.553   4.241   4.395
 9298SOL     OW40366   5.037   7.191   5.008
 9298SOL    HW140367   5.060   7.142   4.923
 9298SOL    HW240368   5.010   7.124   5.077
 9299SOL     OW40369   6.634   5.288   5.591
 9299SOL    HW140370   6.576   5.338   5.655
 9299SOL    HW240371   6.583   5.271   5.506
 9300SOL     OW40372   4.247   4.606   1.863
 9300SOL    HW140373   4.285   4.588   1.954
 9300SOL    HW240374   4.162   4.657   1.872
 9301SOL     OW40375   4.438   3.489   5.297
 9301SOL    HW140376   4.536   3.496   5.275
 9301SOL    HW240377   4.418   3.544   5.377
 9302SOL     OW40378   0.228   2.680   2.668
 9302SOL    HW140379   0.168   2.696   2.590
 9302SOL    HW240380   0.231   2.762   2.725
 9303SOL     OW40381   2.928   2.086   0.651
 9303SOL    HW140382   2.855   2.138   0.606
 9303SOL    HW240383   3.001   2.149   0.680
 9304SOL     OW40384   7.319   2.832   0.107
 9304SOL    HW140385   7.256   2.762   0.073
 9304SOL    HW240386   7.276   2.883   0.180
 9305SOL     OW40387   0.583   3.923   5.805
 9305SOL    HW140388   0.621   3.831   5.793
 9305SOL    HW240389   0.522   3.925   5.884
 9306SOL     OW40390   6.729   7.206   2.665
 9306SOL    HW140391   6.733   7.107   2.684
 9306SOL    HW240392   6.670   7.222   2.586
 9307SOL     OW40393   6.182   0.713   5.054
 9307SOL    HW140394   6.129   0.715   4.969
 9307SOL    HW240395   6.278   0.727   5.034
 9308SOL     OW40396   2.557   2.552   4.114
 9308SOL    HW140397   2.504   2.529   4.033
 9308SOL    HW240398   2.561   2.652   4.124
 9309SOL     OW40399   6.138   6.995   2.471
 9309SOL    HW140400   6.158   7.074   2.413
 9309SOL    HW240401   6.099   6.921   2.416
 9310SOL     OW40402   2.871   2.970   4.232
 9310SOL    HW140403   2.914   2.924   4.310
 9310SOL    HW240404   2.907   2.932   4.147
 9311SOL     OW40405   2.821   7.108   2.270
 9311SOL    HW140406   2.770   7.179   2.222
 9311SOL    HW240407   2.757   7.037   2.302
 9312SOL     OW40408   7.349   3.012   2.840
 9312SOL    HW140409   7.447   2.989   2.833
 9312SOL    HW240410   7.338   3.110   2.826
 9313SOL     OW40411   2.145   6.608   5.595
 9313SOL    HW140412   2.233   6.652   5.615
 9313SOL    HW240413   2.089   6.606   5.678
 9314SOL     OW40414   6.018   7.305   4.610
 9314SOL    HW140415   5.991   7.336   4.520
 9314SOL    HW240416   6.033   7.206   4.608
 9315SOL     OW40417   1.805   3.227   6.374
 9315SOL    HW140418   1.848   3.310   6.409
 9315SOL    HW240419   1.846   3.202   6.287
 9316SOL     OW40420   1.170   4.904   3.867
 9316SOL    HW140421   1.237   4.840   3.827
 9316SOL    HW240422   1.143   4.970   3.797
 9317SOL     OW40423   6.186   3.647   2.570
 9317SOL    HW140424   6.164   3.642   2.473
 9317SOL    HW240425   6.212   3.741   2.594
 9318SOL     OW40426   2.961   1.909   1.879
 9318SOL    HW140427   2.880   1.966   1.864
 9318SOL    HW240428   2.937   1.813   1.869
 9319SOL     OW40429   3.668   0.612   0.361
 9319SOL    HW140430   3.734   0.548   0.322
 9319SOL    HW240431   3.578   0.594   0.323
 9320SOL     OW40432   1.594   4.816   1.782
 9320SOL    HW140433   1.680   4.840   1.825
 9320SOL    HW240434   1.610   4.749   1.710
 9321SOL     OW40435   3.881   0.547   6.472
 9321SOL    HW140436   3.816   0.505   6.535
 9321SOL    HW240437   3.974   0.519   6.496
 9322SOL     OW40438   4.665   5.206   1.706
 9322SOL    HW140439   4.749   5.230   1.656
 9322SOL    HW240440   4.586   5.247   1.659
 9323SOL     OW40441   4.906   0.983   3.695
 9323SOL    HW140442   4.979   1.043   3.727
 9323SOL    HW240443   4.909   0.897   3.746
 9324SOL     OW40444   0.515   3.782   0.330
 9324SOL    HW140445   0.601   3.809   0.374
 9324SOL    HW240446   0.444   3.771   0.400
 9325SOL     OW40447   5.094   6.277   7.294
 9325SOL    HW140448   5.060   6.311   7.381
 9325SOL    HW240449   5.017   6.256   7.234
 9326SOL     OW40450   1.578   3.043   2.398
 9326SOL    HW140451   1.602   3.128   2.446
 9326SOL    HW240452   1.493   3.007   2.436
 9327SOL     OW40453   3.213   2.517   5.514
 9327SOL    HW140454   3.256   2.563   5.437
 9327SOL    HW240455   3.277   2.513   5.591
 9328SOL     OW40456   7.167   6.780   0.983
 9328SOL    HW140457   7.208   6.802   1.072
 9328SOL    HW240458   7.223   6.818   0.910
 9329SOL     OW40459   5.851   2.913   2.563
 9329SOL    HW140460   5.873   2.839   2.627
 9329SOL    HW240461   5.868   2.882   2.469
 9330SOL     OW40462   2.220   6.218   7.396
 9330SOL    HW140463   2.287   6.254   7.331
 9330SOL    HW240464   2.257   6.134   7.438
 9331SOL     OW40465   6.841   1.960   5.982
 9331SOL    HW140466   6.813   1.913   6.065
 9331SOL    HW240467   6.804   2.053   5.982
 9332SOL     OW40468   2.589   2.651   5.707
 9332SOL    HW140469   2.536   2.566   5.709
 9332SOL    HW240470   2.686   2.629   5.718
 9333SOL     OW40471   3.773   3.630   2.394
 9333SOL    HW140472   3.702   3.659   2.459
 9333SOL    HW240473   3.730   3.606   2.307
 9334SOL     OW40474   4.731   2.561   3.401
 9334SOL    HW140475   4.750   2.636   3.464
 9334SOL    HW240476   4.644   2.579   3.353
 9335SOL     OW40477   2.740   0.308   1.336
 9335SOL    HW140478   2.814   0.360   1.378
 9335SOL    HW240479   2.673   0.284   1.406
 9336SOL     OW40480   5.140   5.774   3.376
 9336SOL    HW140481   5.082   5.693   3.363
 9336SOL    HW240482   5.143   5.797   3.473
 9337SOL     OW40483   3.353   7.233   2.036
 9337SOL    HW140484   3.419   7.309   2.031
 9337SOL    HW240485   3.364   7.174   1.957
 9338SOL     OW40486   0.808   3.824   5.422
 9338SOL    HW140487   0.761   3.789   5.341
 9338SOL    HW240488   0.785   3.921   5.435
 9339SOL     OW40489   6.587   3.947   6.356
 9339SOL    HW140490   6.676   3.973   6.319
 9339SOL    HW240491   6.564   3.854   6.328
 9340SOL     OW40492   3.831   3.357   5.159
 9340SOL    HW140493   3.905   3.382   5.222
 9340SOL    HW240494   3.870   3.337   5.069
 9341SOL     OW40495   1.570   1.995   5.208
 9341SOL    HW140496   1.563   2.029   5.115
 9341SOL    HW240497   1.642   2.045   5.257
 9342SOL     OW40498   0.832   6.876   3.575
 9342SOL    HW140499   0.896   6.946   3.546
 9342SOL    HW240500   0.739   6.912   3.570
 9343SOL     OW40501   2.440   7.089   4.362
 9343SOL    HW140502   2.505   7.164   4.378
 9343SOL    HW240503   2.402   7.059   4.449
 9344SOL     OW40504   0.422   2.086   6.989
 9344SOL    HW140505   0.519   2.083   6.965
 9344SOL    HW240506   0.412   2.090   7.088
 9345SOL     OW40507   4.158   3.441   2.680
 9345SOL    HW140508   4.242   3.466   2.728
 9345SOL    HW240509   4.079   3.466   2.736
 9346SOL     OW40510   4.300   4.598   5.708
 9346SOL    HW140511   4.345   4.510   5.724
 9346SOL    HW240512   4.342   4.643   5.629
 9347SOL     OW40513   2.473   5.866   1.385
 9347SOL    HW140514   2.468   5.766   1.388
 9347SOL    HW240515   2.485   5.902   1.478
 9348SOL     OW40516   1.027   0.080   4.262
 9348SOL    HW140517   0.963   0.156   4.272
 9348SOL    HW240518   1.080   0.070   4.346
 9349SOL     OW40519   2.463   5.071   5.022
 9349SOL    HW140520   2.559   5.071   4.994
 9349SOL    HW240521   2.419   5.156   4.993
 9350SOL     OW40522   0.342   3.368   0.825
 9350SOL    HW140523   0.351   3.375   0.924
 9350SOL    HW240524   0.298   3.281   0.801
 9351SOL     OW40525   0.941   7.173   6.044
 9351SOL    HW140526   0.911   7.263   6.012
 9351SOL    HW240527   0.901   7.154   6.134
 9352SOL     OW40528   2.660   4.600   5.247
 9352SOL    HW140529   2.656   4.678   5.309
 9352SOL    HW240530   2.614   4.522   5.288
 9353SOL     OW40531   0.618   5.374   7.052
 9353SOL    HW140532   0.657   5.454   7.006
 9353SOL    HW240533   0.530   5.399   7.093
 9354SOL     OW40534   4.052   1.362   4.432
 9354SOL    HW140535   4.070   1.297   4.359
 9354SOL    HW240536   4.052   1.455   4.396
 9355SOL     OW40537   3.785   2.216   1.075
 9355SOL    HW140538   3.757   2.307   1.047
 9355SOL    HW240539   3.797   2.158   0.994
 9356SOL     OW40540   3.609   0.884   5.077
 9356SOL    HW140541   3.644   0.971   5.113
 9356SOL    HW240542   3.560   0.901   4.992
 9357SOL     OW40543   0.959   1.457   3.680
 9357SOL    HW140544   1.008   1.505   3.753
 9357SOL    HW240545   0.860   1.464   3.696
 9358SOL     OW40546   1.985   7.059   1.990
 9358SOL    HW140547   2.015   7.100   2.076
 9358SOL    HW240548   2.002   6.960   1.992
 9359SOL     OW40549   3.446   1.877   1.151
 9359SOL    HW140550   3.365   1.865   1.094
 9359SOL    HW240551   3.442   1.965   1.198
 9360SOL     OW40552   0.594   3.270   5.859
 9360SOL    HW140553   0.539   3.281   5.776
 9360SOL    HW240554   0.679   3.223   5.836
 9361SOL     OW40555   6.655   4.197   1.997
 9361SOL    HW140556   6.563   4.163   2.017
 9361SOL    HW240557   6.647   4.289   1.957
 9362SOL     OW40558   1.797   5.235   3.504
 9362SOL    HW140559   1.792   5.334   3.511
 9362SOL    HW240560   1.837   5.197   3.587
 9363SOL     OW40561   2.793   2.408   4.152
 9363SOL    HW140562   2.787   2.355   4.236
 9363SOL    HW240563   2.708   2.460   4.138
 9364SOL     OW40564   7.141   3.273   1.010
 9364SOL    HW140565   7.160   3.367   0.982
 9364SOL    HW240566   7.226   3.227   1.033
 9365SOL     OW40567   3.105   1.077   6.341
 9365SOL    HW140568   3.097   1.055   6.438
 9365SOL    HW240569   3.188   1.129   6.325
 9366SOL     OW40570   4.913   2.324   3.916
 9366SOL    HW140571   4.914   2.235   3.961
 9366SOL    HW240572   4.819   2.349   3.894
 9367SOL     OW40573   2.122   0.309   3.353
 9367SOL    HW140574   2.209   0.260   3.362
 9367SOL    HW240575   2.050   0.259   3.401
 9368SOL     OW40576   5.077   7.024   4.320
 9368SOL    HW140577   5.105   6.995   4.228
 9368SOL    HW240578   5.096   7.122   4.331
 9369SOL     OW40579   0.957   6.409   3.710
 9369SOL    HW140580   0.916   6.391   3.621
 9369SOL    HW240581   0.951   6.507   3.730
 9370SOL     OW40582   4.268   7.151   1.563
 9370SOL    HW140583   4.343   7.163   1.498
 9370SOL    HW240584   4.182   7.176   1.520
 9371SOL     OW40585   4.034   0.432   2.196
 9371SOL    HW140586   3.967   0.462   2.265
 9371SOL    HW240587   4.020   0.485   2.112
 9372SOL     OW40588   4.532   5.783   4.745
 9372SOL    HW140589   4.433   5.775   4.742
 9372SOL    HW240590   4.570   5.715   4.807
 9373SOL     OW40591   3.025   6.054   0.739
 9373SOL    HW140592   3.059   6.011   0.823
 9373SOL    HW240593   2.940   6.008   0.711
 9374SOL     OW40594   5.955   5.572   0.569
 9374SOL    HW140595   5.944   5.490   0.513
 9374SOL    HW240596   5.873   5.586   0.624
 9375SOL     OW40597   4.787   5.708   7.314
 9375SOL    HW140598   4.779   5.652   7.397
 9375SOL    HW240599   4.738   5.664   7.239
 9376SOL     OW40600   7.195   4.347   0.537
 9376SOL    HW140601   7.225   4.301   0.454
 9376SOL    HW240602   7.110   4.397   0.519
 9377SOL     OW40603   1.470   4.929   4.982
 9377SOL    HW140604   1.457   4.882   4.895
 9377SOL    HW240605   1.541   4.882   5.035
 9378SOL     OW40606   2.482   5.590   1.386
 9378SOL    HW140607   2.435   5.507   1.416
 9378SOL    HW240608   2.575   5.591   1.422
 9379SOL     OW40609   0.709   1.422   6.978
 9379SOL    HW140610   0.631   1.483   6.965
 9379SOL    HW240611   0.677   1.332   7.007
 9380SOL     OW40612   4.872   5.263   1.533
 9380SOL    HW140613   4.871   5.233   1.438
 9380SOL    HW240614   4.960   5.241   1.575
 9381SOL     OW40615   5.601   3.607   1.250
 9381SOL    HW140616   5.579   3.549   1.171
 9381SOL    HW240617   5.700   3.605   1.266
 9382SOL     OW40618   1.492   1.877   3.095
 9382SOL    HW140619   1.560   1.850   3.163
 9382SOL    HW240620   1.442   1.796   3.064
 9383SOL     OW40621   0.025   0.315   1.305
 9383SOL    HW140622   0.024   0.274   1.396
 9383SOL    HW240623   0.047   0.245   1.237
 9384SOL     OW40624   0.857   0.248   2.223
 9384SOL    HW140625   0.822   0.319   2.284
 9384SOL    HW240626   0.795   0.238   2.145
 9385SOL     OW40627   0.056   5.469   1.840
 9385SOL    HW140628   0.114   5.392   1.813
 9385SOL    HW240629   0.086   5.502   1.930
 9386SOL     OW40630   1.923   0.167   3.480
 9386SOL    HW140631   1.932   0.080   3.528
 9386SOL    HW240632   1.863   0.155   3.401
 9387SOL     OW40633   4.031   7.079   2.117
 9387SOL    HW140634   4.075   7.037   2.038
 9387SOL    HW240635   3.954   7.022   2.146
 9388SOL     OW40636   4.309   2.825   1.691
 9388SOL    HW140637   4.386   2.868   1.738
 9388SOL    HW240638   4.334   2.805   1.597
 9389SOL     OW40639   4.382   0.036   1.323
 9389SOL    HW140640   4.382   8.952   1.377
 9389SOL    HW240641   4.344   0.111   1.377
 9390SOL     OW40642   5.094   1.900   0.011
 9390SOL    HW140643   5.114   1.954   8.929
 9390SOL    HW240644   5.176   1.851   0.040
 9391SOL     OW40645   6.791   0.695   6.675
 9391SOL    HW140646   6.735   0.756   6.620
 9391SOL    HW240647   6.757   0.693   6.769
 9392SOL     OW40648   5.391   1.554   4.250
 9392SOL    HW140649   5.449   1.623   4.293
 9392SOL    HW240650   5.393   1.566   4.151
 9393SOL     OW40651   4.282   2.721   2.655
 9393SOL    HW140652   4.334   2.737   2.571
 9393SOL    HW240653   4.234   2.633   2.648
 9394SOL     OW40654   2.269   1.538   0.884
 9394SOL    HW140655   2.290   1.480   0.963
 9394SOL    HW240656   2.180   1.583   0.898
 9395SOL     OW40657   7.104   4.379   2.612
 9395SOL    HW140658   7.124   4.457   2.554
 9395SOL    HW240659   7.187   4.327   2.628
 9396SOL     OW40660   6.793   0.867   5.862
 9396SOL    HW140661   6.874   0.844   5.809
 9396SOL    HW240662   6.751   0.950   5.824
 9397SOL     OW40663   6.947   6.340   0.976
 9397SOL    HW140664   6.980   6.248   0.999
 9397SOL    HW240665   7.003   6.408   1.024
 9398SOL     OW40666   6.678   6.522   3.261
 9398SOL    HW140667   6.708   6.617   3.263
 9398SOL    HW240668   6.709   6.475   3.343
 9399SOL     OW40669   1.872   0.668   0.938
 9399SOL    HW140670   1.899   0.749   0.885
 9399SOL    HW240671   1.834   0.600   0.876
 9400SOL     OW40672   2.326   5.331   5.892
 9400SOL    HW140673   2.372   5.246   5.917
 9400SOL    HW240674   2.268   5.361   5.969
 9401SOL     OW40675   7.198   5.949   6.527
 9401SOL    HW140676   7.278   5.999   6.561
 9401SOL    HW240677   7.147   6.007   6.464
 9402SOL     OW40678   5.811   5.471   1.701
 9402SOL    HW140679   5.795   5.451   1.604
 9402SOL    HW240680   5.763   5.555   1.726
 9403SOL     OW40681   2.962   4.666   5.625
 9403SOL    HW140682   2.895   4.734   5.656
 9403SOL    HW240683   2.978   4.678   5.527
 9404SOL     OW40684   0.718   2.292   5.736
 9404SOL    HW140685   0.792   2.247   5.787
 9404SOL    HW240686   0.649   2.324   5.800
 9405SOL     OW40687   1.797   6.730   0.781
 9405SOL    HW140688   1.854   6.671   0.838
 9405SOL    HW240689   1.855   6.796   0.733
 9406SOL     OW40690   1.996   5.503   0.129
 9406SOL    HW140691   1.903   5.486   0.162
 9406SOL    HW240692   2.033   5.584   0.174
 9407SOL     OW40693   2.491   1.379   6.811
 9407SOL    HW140694   2.521   1.291   6.849
 9407SOL    HW240695   2.537   1.395   6.724
 9408SOL     OW40696   2.439   2.378   1.844
 9408SOL    HW140697   2.420   2.290   1.802
 9408SOL    HW240698   2.513   2.369   1.910
 9409SOL     OW40699   6.285   1.395   3.175
 9409SOL    HW140700   6.254   1.414   3.268
 9409SOL    HW240701   6.215   1.424   3.110
 9410SOL     OW40702   3.254   5.745   1.461
 9410SOL    HW140703   3.178   5.697   1.418
 9410SOL    HW240704   3.299   5.803   1.394
 9411SOL     OW40705   6.068   7.297   5.836
 9411SOL    HW140706   6.073   7.203   5.872
 9411SOL    HW240707   6.069   7.293   5.736
 9412SOL     OW40708   6.137   1.117   7.086
 9412SOL    HW140709   6.047   1.106   7.128
 9412SOL    HW240710   6.206   1.073   7.143
 9413SOL     OW40711   4.372   0.556   2.903
 9413SOL    HW140712   4.395   0.618   2.828
 9413SOL    HW240713   4.365   0.607   2.988
 9414SOL     OW40714   6.070   2.090   6.477
 9414SOL    HW140715   6.101   2.173   6.431
 9414SOL    HW240716   6.135   2.016   6.458
 9415SOL     OW40717   2.032   2.468   6.520
 9415SOL    HW140718   1.954   2.466   6.457
 9415SOL    HW240719   2.100   2.533   6.486
 9416SOL     OW40720   2.720   2.047   1.808
 9416SOL    HW140721   2.702   2.000   1.721
 9416SOL    HW240722   2.645   2.029   1.872
 9417SOL     OW40723   0.396   3.854   6.532
 9417SOL    HW140724   0.461   3.915   6.486
 9417SOL    HW240725   0.315   3.843   6.475
 9418SOL     OW40726   4.579   3.120   0.607
 9418SOL    HW140727   4.679   3.122   0.606
 9418SOL    HW240728   4.548   3.081   0.694
 9419SOL     OW40729   7.067   5.219   5.679
 9419SOL    HW140730   7.074   5.207   5.778
 9419SOL    HW240731   7.159   5.229   5.640
 9420SOL     OW40732   3.601   5.373   3.026
 9420SOL    HW140733   3.636   5.460   3.059
 9420SOL    HW240734   3.501   5.374   3.030
 9421SOL     OW40735   5.874   6.885   1.289
 9421SOL    HW140736   5.880   6.814   1.360
 9421SOL    HW240737   5.926   6.855   1.209
 9422SOL     OW40738   0.514   3.785   4.793
 9422SOL    HW140739   0.541   3.846   4.719
 9422SOL    HW240740   0.440   3.827   4.845
 9423SOL     OW40741   3.201   1.752   5.537
 9423SOL    HW140742   3.165   1.660   5.521
 9423SOL    HW240743   3.300   1.746   5.551
 9424SOL     OW40744   3.370   6.896   7.099
 9424SOL    HW140745   3.363   6.977   7.156
 9424SOL    HW240746   3.332   6.916   7.008
 9425SOL     OW40747   1.126   2.693   6.191
 9425SOL    HW140748   1.079   2.668   6.276
 9425SOL    HW240749   1.192   2.766   6.210
 9426SOL     OW40750   0.244   3.325   5.740
 9426SOL    HW140751   0.180   3.353   5.668
 9426SOL    HW240752   0.332   3.301   5.698
 9427SOL     OW40753   3.921   6.188   5.123
 9427SOL    HW140754   3.977   6.140   5.056
 9427SOL    HW240755   3.845   6.234   5.076
 9428SOL     OW40756   2.943   6.324   5.817
 9428SOL    HW140757   2.990   6.382   5.883
 9428SOL    HW240758   3.004   6.251   5.787
 9429SOL     OW40759   4.520   2.524   5.831
 9429SOL    HW140760   4.522   2.571   5.919
 9429SOL    HW240761   4.506   2.426   5.846
 9430SOL     OW40762   4.303   6.705   2.994
 9430SOL    HW140763   4.277   6.609   2.983
 9430SOL    HW240764   4.372   6.712   3.066
 9431SOL     OW40765   2.456   4.459   2.165
 9431SOL    HW140766   2.361   4.439   2.144
 9431SOL    HW240767   2.515   4.418   2.096
 9432SOL     OW40768   5.467   5.358   5.808
 9432SOL    HW140769   5.447   5.273   5.857
 9432SOL    HW240770   5.562   5.385   5.825
 9433SOL     OW40771   0.947   1.895   2.463
 9433SOL    HW140772   0.978   1.802   2.483
 9433SOL    HW240773   0.854   1.908   2.495
 9434SOL     OW40774   3.792   1.944   6.443
 9434SOL    HW140775   3.751   1.854   6.460
 9434SOL    HW240776   3.747   2.012   6.501
 9435SOL     OW40777   5.392   6.806   4.517
 9435SOL    HW140778   5.358   6.803   4.611
 9435SOL    HW240779   5.411   6.900   4.491
 9436SOL     OW40780   3.234   2.510   2.395
 9436SOL    HW140781   3.208   2.444   2.465
 9436SOL    HW240782   3.325   2.487   2.360
 9437SOL     OW40783   6.303   3.112   3.829
 9437SOL    HW140784   6.260   3.202   3.818
 9437SOL    HW240785   6.301   3.064   3.741
 9438SOL     OW40786   2.582   4.330   4.637
 9438SOL    HW140787   2.518   4.267   4.593
 9438SOL    HW240788   2.571   4.325   4.737
 9439SOL     OW40789   1.607   2.806   6.892
 9439SOL    HW140790   1.610   2.817   6.793
 9439SOL    HW240791   1.549   2.877   6.932
 9440SOL     OW40792   2.021   1.113   5.604
 9440SOL    HW140793   2.009   1.140   5.699
 9440SOL    HW240794   2.109   1.146   5.571
 9441SOL     OW40795   4.545   4.155   0.894
 9441SOL    HW140796   4.469   4.145   0.958
 9441SOL    HW240797   4.629   4.174   0.944
 9442SOL     OW40798   4.147   1.716   0.904
 9442SOL    HW140799   4.119   1.631   0.858
 9442SOL    HW240800   4.152   1.701   1.002
 9443SOL     OW40801   6.096   6.739   2.887
 9443SOL    HW140802   6.122   6.643   2.880
 9443SOL    HW240803   6.149   6.793   2.823
 9444SOL     OW40804   5.545   4.469   6.909
 9444SOL    HW140805   5.639   4.440   6.928
 9444SOL    HW240806   5.492   4.464   6.993
 9445SOL     OW40807   5.739   0.975   6.478
 9445SOL    HW140808   5.642   0.960   6.500
 9445SOL    HW240809   5.770   0.904   6.414
 9446SOL     OW40810   1.733   5.568   5.330
 9446SOL    HW140811   1.821   5.616   5.338
 9446SOL    HW240812   1.684   5.602   5.250
 9447SOL     OW40813   6.612   1.090   2.175
 9447SOL    HW140814   6.643   0.996   2.159
 9447SOL    HW240815   6.513   1.092   2.185
 9448SOL     OW40816   3.252   1.563   6.697
 9448SOL    HW140817   3.262   1.514   6.610
 9448SOL    HW240818   3.162   1.606   6.701
 9449SOL     OW40819   2.407   4.042   4.583
 9449SOL    HW140820   2.346   4.115   4.551
 9449SOL    HW240821   2.415   4.048   4.683
 9450SOL     OW40822   7.010   4.374   7.346
 9450SOL    HW140823   7.107   4.358   7.326
 9450SOL    HW240824   7.001   4.452   7.409
 9451SOL     OW40825   2.050   5.008   3.487
 9451SOL    HW140826   2.010   5.038   3.574
 9451SOL    HW240827   2.047   5.083   3.421
 9452SOL     OW40828   0.678   2.700   5.173
 9452SOL    HW140829   0.639   2.622   5.221
 9452SOL    HW240830   0.758   2.671   5.120
 9453SOL     OW40831   1.064   1.329   0.511
 9453SOL    HW140832   1.150   1.322   0.561
 9453SOL    HW240833   1.082   1.359   0.418
 9454SOL     OW40834   5.232   4.357   2.808
 9454SOL    HW140835   5.294   4.338   2.732
 9454SOL    HW240836   5.278   4.338   2.895
 9455SOL     OW40837   4.716   1.188   3.680
 9455SOL    HW140838   4.770   1.262   3.719
 9455SOL    HW240839   4.770   1.104   3.679
 9456SOL     OW40840   1.604   0.175   0.659
 9456SOL    HW140841   1.663   0.135   0.589
 9456SOL    HW240842   1.573   0.265   0.628
 9457SOL     OW40843   2.583   6.746   0.613
 9457SOL    HW140844   2.551   6.827   0.663
 9457SOL    HW240845   2.614   6.772   0.522
 9458SOL     OW40846   0.240   2.875   1.339
 9458SOL    HW140847   0.292   2.802   1.382
 9458SOL    HW240848   0.178   2.916   1.406
 9459SOL     OW40849   1.027   6.131   0.742
 9459SOL    HW140850   1.037   6.214   0.688
 9459SOL    HW240851   0.994   6.056   0.684
 9460SOL     OW40852   7.084   0.988   2.629
 9460SOL    HW140853   7.054   0.949   2.716
 9460SOL    HW240854   7.149   0.926   2.584
 9461SOL     OW40855   6.254   6.212   2.862
 9461SOL    HW140856   6.163   6.185   2.832
 9461SOL    HW240857   6.259   6.210   2.962
 9462SOL     OW40858   3.873   4.213   4.094
 9462SOL    HW140859   3.949   4.189   4.032
 9462SOL    HW240860   3.854   4.136   4.154
 9463SOL     OW40861   4.915   6.777   0.847
 9463SOL    HW140862   4.823   6.782   0.884
 9463SOL    HW240863   4.980   6.753   0.920
 9464SOL     OW40864   6.686   1.477   2.872
 9464SOL    HW140865   6.779   1.494   2.905
 9464SOL    HW240866   6.636   1.425   2.941
 9465SOL     OW40867   6.000   6.172   5.547
 9465SOL    HW140868   6.013   6.097   5.482
 9465SOL    HW240869   5.923   6.228   5.518
 9466SOL     OW40870   5.600   3.929   6.082
 9466SOL    HW140871   5.577   3.985   6.003
 9466SOL    HW240872   5.673   3.865   6.059
 9467SOL     OW40873   1.125   1.355   6.954
 9467SOL    HW140874   1.120   1.281   7.021
 9467SOL    HW240875   1.180   1.325   6.876
 9468SOL     OW40876   0.537   3.526   5.970
 9468SOL    HW140877   0.561   3.432   5.948
 9468SOL    HW240878   0.592   3.588   5.915
 9469SOL     OW40879   0.775   2.135   6.685
 9469SOL    HW140880   0.737   2.095   6.768
 9469SOL    HW240881   0.864   2.176   6.705
 9470SOL     OW40882   5.540   6.690   6.917
 9470SOL    HW140883   5.595   6.610   6.893
 9470SOL    HW240884   5.520   6.742   6.834
 9471SOL     OW40885   2.689   5.454   5.047
 9471SOL    HW140886   2.609   5.423   5.099
 9471SOL    HW240887   2.771   5.445   5.103
 9472SOL     OW40888   6.308   3.775   6.627
 9472SOL    HW140889   6.266   3.852   6.580
 9472SOL    HW240890   6.404   3.795   6.645
 9473SOL     OW40891   0.900   5.144   4.063
 9473SOL    HW140892   0.844   5.227   4.063
 9473SOL    HW240893   0.876   5.088   3.984
 9474SOL     OW40894   5.876   6.914   5.342
 9474SOL    HW140895   5.953   6.962   5.298
 9474SOL    HW240896   5.801   6.906   5.277
 9475SOL     OW40897   2.183   4.087   6.051
 9475SOL    HW140898   2.276   4.073   6.016
 9475SOL    HW240899   2.188   4.136   6.138
 9476SOL     OW40900   7.045   2.488   1.739
 9476SOL    HW140901   7.106   2.538   1.677
 9476SOL    HW240902   6.963   2.542   1.757
 9477SOL     OW40903   1.042   2.311   0.885
 9477SOL    HW140904   1.102   2.381   0.923
 9477SOL    HW240905   1.074   2.286   0.794
 9478SOL     OW40906   1.931   0.193   0.184
 9478SOL    HW140907   1.918   0.100   0.152
 9478SOL    HW240908   1.995   0.241   0.123
 9479SOL     OW40909   4.475   5.340   2.057
 9479SOL    HW140910   4.503   5.427   2.097
 9479SOL    HW240911   4.556   5.285   2.036
 9480SOL     OW40912   2.597   7.333   1.872
 9480SOL    HW140913   2.517   7.272   1.867
 9480SOL    HW240914   2.570   7.425   1.844
 9481SOL     OW40915   6.013   5.003   3.458
 9481SOL    HW140916   5.914   4.989   3.465
 9481SOL    HW240917   6.039   5.012   3.362
 9482SOL     OW40918   4.787   3.009   1.412
 9482SOL    HW140919   4.880   2.998   1.445
 9482SOL    HW240920   4.788   3.057   1.325
 9483SOL     OW40921   0.430   1.049   7.164
 9483SOL    HW140922   0.496   1.103   7.112
 9483SOL    HW240923   0.408   0.965   7.114
 9484SOL     OW40924   1.560   2.424   5.166
 9484SOL    HW140925   1.626   2.409   5.093
 9484SOL    HW240926   1.527   2.518   5.163
 9485SOL     OW40927   1.822   2.601   5.260
 9485SOL    HW140928   1.787   2.692   5.282
 9485SOL    HW240929   1.785   2.534   5.323
 9486SOL     OW40930   5.074   1.743   2.259
 9486SOL    HW140931   5.010   1.741   2.336
 9486SOL    HW240932   5.026   1.720   2.175
 9487SOL     OW40933   3.918   6.626   7.206
 9487SOL    HW140934   3.997   6.640   7.267
 9487SOL    HW240935   3.949   6.583   7.122
 9488SOL     OW40936   2.334   5.935   5.777
 9488SOL    HW140937   2.411   5.955   5.838
 9488SOL    HW240938   2.352   5.851   5.727
 9489SOL     OW40939   6.717   3.258   6.093
 9489SOL    HW140940   6.777   3.244   6.171
 9489SOL    HW240941   6.654   3.180   6.085
 9490SOL     OW40942   1.252   0.126   5.924
 9490SOL    HW140943   1.159   0.125   5.887
 9490SOL    HW240944   1.285   0.032   5.933
 9491SOL     OW40945   1.663   2.007   6.759
 9491SOL    HW140946   1.688   2.011   6.856
 9491SOL    HW240947   1.746   1.998   6.704
 9492SOL     OW40948   1.564   2.146   3.924
 9492SOL    HW140949   1.557   2.148   4.024
 9492SOL    HW240950   1.554   2.238   3.887
 9493SOL     OW40951   6.941   0.556   2.629
 9493SOL    HW140952   6.854   0.603   2.642
 9493SOL    HW240953   6.930   0.458   2.645
 9494SOL     OW40954   1.258   2.363   5.824
 9494SOL    HW140955   1.254   2.427   5.748
 9494SOL    HW240956   1.206   2.400   5.902
 9495SOL     OW40957   0.929   4.552   4.247
 9495SOL    HW140958   0.849   4.576   4.301
 9495SOL    HW240959   0.938   4.614   4.169
 9496SOL     OW40960   2.958   2.669   0.122
 9496SOL    HW140961   3.013   2.618   0.188
 9496SOL    HW240962   2.935   2.758   0.159
 9497SOL     OW40963   1.335   2.689   0.240
 9497SOL    HW140964   1.240   2.666   0.261
 9497SOL    HW240965   1.388   2.605   0.227
 9498SOL     OW40966   1.440   3.490   7.221
 9498SOL    HW140967   1.375   3.456   7.154
 9498SOL    HW240968   1.498   3.415   7.253
 9499SOL     OW40969   3.755   1.417   2.497
 9499SOL    HW140970   3.757   1.511   2.463
 9499SOL    HW240971   3.833   1.367   2.460
 9500SOL     OW40972   2.958   6.183   0.373
 9500SOL    HW140973   3.033   6.188   0.439
 9500SOL    HW240974   2.906   6.268   0.374
 9501SOL     OW40975   2.954   3.106   6.639
 9501SOL    HW140976   2.962   3.126   6.541
 9501SOL    HW240977   2.880   3.041   6.653
 9502SOL     OW40978   5.505   4.848   4.239
 9502SOL    HW140979   5.501   4.749   4.222
 9502SOL    HW240980   5.600   4.876   4.251
 9503SOL     OW40981   1.647   2.590   5.663
 9503SOL    HW140982   1.694   2.539   5.735
 9503SOL    HW240983   1.654   2.539   5.576
 9504SOL     OW40984   7.347   2.921   5.867
 9504SOL    HW140985   7.353   2.954   5.773
 9504SOL    HW240986   7.434   2.881   5.894
 9505SOL     OW40987   2.705   4.651   3.508
 9505SOL    HW140988   2.756   4.614   3.431
 9505SOL    HW240989   2.762   4.651   3.590
 9506SOL     OW40990   6.405   6.864   0.302
 9506SOL    HW140991   6.468   6.786   0.302
 9506SOL    HW240992   6.340   6.855   0.227
 9507SOL     OW40993   7.093   3.822   5.077
 9507SOL    HW140994   7.142   3.886   5.137
 9507SOL    HW240995   7.074   3.866   4.989
 9508SOL     OW40996   1.867   3.963   6.849
 9508SOL    HW140997   1.860   3.882   6.907
 9508SOL    HW240998   1.898   4.041   6.904
 9509SOL     OW40999   4.749   1.478   0.750
 9509SOL    HW141000   4.655   1.513   0.743
 9509SOL    HW241001   4.781   1.485   0.844
 9510SOL     OW41002   1.650   2.491   6.117
 9510SOL    HW141003   1.557   2.526   6.110
 9510SOL    HW241004   1.677   2.484   6.213
 9511SOL     OW41005   6.104   0.875   0.411
 9511SOL    HW141006   6.149   0.786   0.400
 9511SOL    HW241007   6.172   0.944   0.435
 9512SOL     OW41008   3.290   3.230   6.243
 9512SOL    HW141009   3.236   3.230   6.159
 9512SOL    HW241010   3.304   3.135   6.273
 9513SOL     OW41011   4.763   7.242   7.358
 9513SOL    HW141012   4.811   7.206   7.278
 9513SOL    HW241013   4.828   7.254   7.433
 9514SOL     OW41014   1.336   4.916   6.551
 9514SOL    HW141015   1.346   4.851   6.626
 9514SOL    HW241016   1.364   4.873   6.465
 9515SOL     OW41017   5.772   4.907   0.658
 9515SOL    HW141018   5.781   4.994   0.609
 9515SOL    HW241019   5.685   4.864   0.635
 9516SOL     OW41020   7.163   2.367   0.003
 9516SOL    HW141021   7.222   2.311   8.946
 9516SOL    HW241022   7.076   2.320   0.018
 9517SOL     OW41023   6.209   4.166   2.961
 9517SOL    HW141024   6.134   4.154   3.026
 9517SOL    HW241025   6.262   4.082   2.955
 9518SOL     OW41026   3.514   0.984   0.559
 9518SOL    HW141027   3.532   0.987   0.460
 9518SOL    HW241028   3.451   1.057   0.584
 9519SOL     OW41029   1.750   3.084   3.726
 9519SOL    HW141030   1.805   3.146   3.671
 9519SOL    HW241031   1.714   3.011   3.668
 9520SOL     OW41032   5.920   4.425   4.008
 9520SOL    HW141033   5.888   4.337   4.041
 9520SOL    HW241034   5.841   4.486   3.995
 9521SOL     OW41035   7.292   8.963   5.083
 9521SOL    HW141036   7.374   8.924   5.123
 9521SOL    HW241037   7.312   8.998   4.992
 9522SOL     OW41038   6.267   6.721   6.993
 9522SOL    HW141039   6.354   6.754   6.955
 9522SOL    HW241040   6.211   6.799   7.020
 9523SOL     OW41041   0.389   7.067   5.404
 9523SOL    HW141042   0.305   7.049   5.351
 9523SOL    HW241043   0.433   7.149   5.368
 9524SOL     OW41044   3.858   5.635   5.742
 9524SOL    HW141045   3.896   5.602   5.829
 9524SOL    HW241046   3.854   5.559   5.677
 9525SOL     OW41047   3.688   6.055   2.864
 9525SOL    HW141048   3.623   6.071   2.938
 9525SOL    HW241049   3.780   6.047   2.902
 9526SOL     OW41050   4.552   0.837   2.062
 9526SOL    HW141051   4.467   0.828   2.114
 9526SOL    HW241052   4.620   0.775   2.098
 9527SOL     OW41053   3.872   2.590   5.492
 9527SOL    HW141054   3.924   2.525   5.436
 9527SOL    HW241055   3.905   2.586   5.586
 9528SOL     OW41056   0.069   4.631   2.769
 9528SOL    HW141057   0.081   4.725   2.735
 9528SOL    HW241058   0.136   4.571   2.724
 9529SOL     OW41059   1.736   6.554   1.300
 9529SOL    HW141060   1.741   6.472   1.358
 9529SOL    HW241061   1.765   6.531   1.207
 9530SOL     OW41062   4.959   3.548   5.732
 9530SOL    HW141063   4.896   3.586   5.800
 9530SOL    HW241064   4.907   3.511   5.656
 9531SOL     OW41065   3.102   2.611   3.610
 9531SOL    HW141066   3.081   2.568   3.522
 9531SOL    HW241067   3.024   2.599   3.672
 9532SOL     OW41068   1.467   3.939   1.894
 9532SOL    HW141069   1.538   4.005   1.871
 9532SOL    HW241070   1.430   3.958   1.985
 9533SOL     OW41071   1.753   3.590   5.720
 9533SOL    HW141072   1.776   3.610   5.624
 9533SOL    HW241073   1.831   3.547   5.764
 9534SOL     OW41074   2.498   4.392   5.982
 9534SOL    HW141075   2.453   4.463   5.928
 9534SOL    HW241076   2.546   4.329   5.921
 9535SOL     OW41077   0.409   4.582   7.142
 9535SOL    HW141078   0.417   4.503   7.202
 9535SOL    HW241079   0.377   4.552   7.052
 9536SOL     OW41080   3.960   3.467   6.885
 9536SOL    HW141081   4.007   3.543   6.840
 9536SOL    HW241082   3.876   3.447   6.835
 9537SOL     OW41083   7.108   1.656   1.519
 9537SOL    HW141084   7.021   1.694   1.487
 9537SOL    HW241085   7.131   1.697   1.607
 9538SOL     OW41086   5.837   0.634   1.886
 9538SOL    HW141087   5.862   0.637   1.983
 9538SOL    HW241088   5.744   0.668   1.874
 9539SOL     OW41089   2.031   4.963   6.943
 9539SOL    HW141090   2.052   4.998   6.852
 9539SOL    HW241091   1.936   4.986   6.967
 9540SOL     OW41092   4.085   6.563   4.974
 9540SOL    HW141093   4.034   6.598   4.895
 9540SOL    HW241094   4.025   6.559   5.054
 9541SOL     OW41095   5.295   2.075   4.772
 9541SOL    HW141096   5.353   1.994   4.763
 9541SOL    HW241097   5.352   2.158   4.769
 9542SOL     OW41098   3.458   2.120   1.290
 9542SOL    HW141099   3.551   2.085   1.290
 9542SOL    HW241100   3.450   2.194   1.357
 9543SOL     OW41101   4.574   6.211   3.566
 9543SOL    HW141102   4.605   6.298   3.527
 9543SOL    HW241103   4.584   6.213   3.665
 9544SOL     OW41104   0.150   6.654   5.334
 9544SOL    HW141105   0.100   6.711   5.268
 9544SOL    HW241106   0.103   6.567   5.345
 9545SOL     OW41107   5.745   4.493   5.819
 9545SOL    HW141108   5.711   4.586   5.815
 9545SOL    HW241109   5.845   4.494   5.818
 9546SOL     OW41110   1.768   5.104   6.965
 9546SOL    HW141111   1.679   5.062   6.948
 9546SOL    HW241112   1.772   5.137   7.060
 9547SOL     OW41113   0.921   6.126   2.006
 9547SOL    HW141114   0.924   6.061   2.082
 9547SOL    HW241115   1.006   6.122   1.955
 9548SOL     OW41116   1.200   4.948   4.127
 9548SOL    HW141117   1.132   5.013   4.160
 9548SOL    HW241118   1.193   4.941   4.027
 9549SOL     OW41119   4.875   1.394   3.768
 9549SOL    HW141120   4.832   1.459   3.706
 9549SOL    HW241121   4.974   1.398   3.758
 9550SOL     OW41122   0.712   3.163   0.785
 9550SOL    HW141123   0.772   3.212   0.848
 9550SOL    HW241124   0.657   3.229   0.733
 9551SOL     OW41125   2.578   3.618   3.166
 9551SOL    HW141126   2.552   3.670   3.247
 9551SOL    HW241127   2.516   3.640   3.091
 9552SOL     OW41128   6.256   4.463   3.742
 9552SOL    HW141129   6.342   4.414   3.755
 9552SOL    HW241130   6.263   4.554   3.783
 9553SOL     OW41131   0.616   4.082   0.586
 9553SOL    HW141132   0.682   4.153   0.613
 9553SOL    HW241133   0.555   4.119   0.515
 9554SOL     OW41134   4.844   1.829   3.302
 9554SOL    HW141135   4.807   1.757   3.243
 9554SOL    HW241136   4.769   1.887   3.335
 9555SOL     OW41137   3.500   3.919   5.055
 9555SOL    HW141138   3.537   3.841   5.004
 9555SOL    HW241139   3.431   3.966   4.999
 9556SOL     OW41140   4.843   4.643   4.776
 9556SOL    HW141141   4.776   4.655   4.849
 9556SOL    HW241142   4.838   4.720   4.713
 9557SOL     OW41143   1.238   4.899   5.597
 9557SOL    HW141144   1.306   4.904   5.524
 9557SOL    HW241145   1.250   4.975   5.660
 9558SOL     OW41146   2.550   6.448   2.520
 9558SOL    HW141147   2.521   6.353   2.524
 9558SOL    HW241148   2.620   6.465   2.590
 9559SOL     OW41149   2.680   3.563   3.520
 9559SOL    HW141150   2.632   3.476   3.528
 9559SOL    HW241151   2.701   3.599   3.611
 9560SOL     OW41152   6.425   3.163   5.611
 9560SOL    HW141153   6.524   3.158   5.617
 9560SOL    HW241154   6.397   3.254   5.580
 9561SOL     OW41155   5.192   0.546   0.214
 9561SOL    HW141156   5.239   0.580   0.295
 9561SOL    HW241157   5.259   0.524   0.143
 9562SOL     OW41158   3.127   2.592   4.412
 9562SOL    HW141159   3.213   2.598   4.462
 9562SOL    HW241160   3.081   2.506   4.436
 9563SOL     OW41161   1.692   6.699   6.932
 9563SOL    HW141162   1.791   6.685   6.941
 9563SOL    HW241163   1.644   6.617   6.962
 9564SOL     OW41164   2.405   3.753   1.237
 9564SOL    HW141165   2.346   3.676   1.260
 9564SOL    HW241166   2.389   3.781   1.142
 9565SOL     OW41167   1.223   0.795   2.001
 9565SOL    HW141168   1.238   0.774   2.098
 9565SOL    HW241169   1.153   0.865   1.992
 9566SOL     OW41170   2.250   1.910   6.091
 9566SOL    HW141171   2.191   1.970   6.037
 9566SOL    HW241172   2.202   1.880   6.173
 9567SOL     OW41173   7.248   5.862   3.112
 9567SOL    HW141174   7.267   5.922   3.034
 9567SOL    HW241175   7.334   5.823   3.146
 9568SOL     OW41176   4.937   6.695   2.225
 9568SOL    HW141177   5.028   6.734   2.233
 9568SOL    HW241178   4.886   6.711   2.309
 9569SOL     OW41179   4.872   2.938   2.587
 9569SOL    HW141180   4.950   2.897   2.634
 9569SOL    HW241181   4.901   2.971   2.497
 9570SOL     OW41182   2.431   4.660   3.489
 9570SOL    HW141183   2.396   4.754   3.498
 9570SOL    HW241184   2.531   4.662   3.492
 9571SOL     OW41185   0.411   3.934   4.287
 9571SOL    HW141186   0.341   3.941   4.216
 9571SOL    HW241187   0.461   4.020   4.293
 9572SOL     OW41188   2.917   3.704   1.687
 9572SOL    HW141189   2.855   3.778   1.660
 9572SOL    HW241190   2.870   3.641   1.747
 9573SOL     OW41191   5.133   1.220   6.421
 9573SOL    HW141192   5.124   1.205   6.520
 9573SOL    HW241193   5.157   1.134   6.376
 9574SOL     OW41194   3.244   0.081   1.122
 9574SOL    HW141195   3.228   0.163   1.067
 9574SOL    HW241196   3.159   0.029   1.130
 9575SOL     OW41197   2.734   3.939   3.362
 9575SOL    HW141198   2.724   3.958   3.264
 9575SOL    HW241199   2.805   3.870   3.376
 9576SOL     OW41200   3.174   3.281   6.701
 9576SOL    HW141201   3.102   3.216   6.674
 9576SOL    HW241202   3.143   3.334   6.779
 9577SOL     OW41203   6.132   2.123   3.215
 9577SOL    HW141204   6.171   2.042   3.259
 9577SOL    HW241205   6.170   2.205   3.257
 9578SOL     OW41206   6.057   4.870   4.833
 9578SOL    HW141207   5.965   4.904   4.813
 9578SOL    HW241208   6.124   4.927   4.784
 9579SOL     OW41209   5.387   6.874   6.134
 9579SOL    HW141210   5.324   6.831   6.198
 9579SOL    HW241211   5.336   6.906   6.054
 9580SOL     OW41212   3.331   1.729   0.253
 9580SOL    HW141213   3.337   1.767   0.161
 9580SOL    HW241214   3.318   1.802   0.319
 9581SOL     OW41215   1.218   2.652   3.160
 9581SOL    HW141216   1.185   2.597   3.237
 9581SOL    HW241217   1.197   2.748   3.176
 9582SOL     OW41218   2.201   3.327   1.950
 9582SOL    HW141219   2.278   3.320   2.014
 9582SOL    HW241220   2.164   3.236   1.932
 9583SOL     OW41221   1.608   1.151   0.523
 9583SOL    HW141222   1.663   1.085   0.573
 9583SOL    HW241223   1.522   1.108   0.495
 9584SOL     OW41224   4.485   4.811   6.924
 9584SOL    HW141225   4.574   4.853   6.946
 9584SOL    HW241226   4.414   4.881   6.926
 9585SOL     OW41227   6.224   6.843   0.092
 9585SOL    HW141228   6.137   6.890   0.109
 9585SOL    HW241229   6.211   6.745   0.102
 9586SOL     OW41230   1.229   6.514   6.766
 9586SOL    HW141231   1.176   6.598   6.778
 9586SOL    HW241232   1.326   6.537   6.754
 9587SOL     OW41233   1.724   5.427   4.382
 9587SOL    HW141234   1.803   5.373   4.410
 9587SOL    HW241235   1.671   5.453   4.463
 9588SOL     OW41236   0.926   3.109   2.838
 9588SOL    HW141237   1.007   3.076   2.887
 9588SOL    HW241238   0.868   3.032   2.813
 9589SOL     OW41239   1.157   1.545   7.151
 9589SOL    HW141240   1.221   1.619   7.129
 9589SOL    HW241241   1.151   1.482   7.074
 9590SOL     OW41242   4.742   6.374   0.771
 9590SOL    HW141243   4.645   6.388   0.789
 9590SOL    HW241244   4.783   6.326   0.849
 9591SOL     OW41245   5.190   0.420   4.127
 9591SOL    HW141246   5.176   0.345   4.191
 9591SOL    HW241247   5.169   0.389   4.035
 9592SOL     OW41248   2.142   6.159   3.912
 9592SOL    HW141249   2.083   6.110   3.848
 9592SOL    HW241250   2.175   6.243   3.869
 9593SOL     OW41251   6.017   3.700   0.192
 9593SOL    HW141252   5.986   3.788   0.229
 9593SOL    HW241253   5.944   3.632   0.203
 9594SOL     OW41254   6.252   5.347   1.630
 9594SOL    HW141255   6.259   5.421   1.563
 9594SOL    HW241256   6.318   5.275   1.607
 9595SOL     OW41257   4.902   2.821   4.501
 9595SOL    HW141258   4.937   2.871   4.422
 9595SOL    HW241259   4.827   2.761   4.473
 9596SOL     OW41260   3.656   1.563   5.453
 9596SOL    HW141261   3.711   1.514   5.385
 9596SOL    HW241262   3.681   1.532   5.545
 9597SOL     OW41263   1.022   3.095   5.004
 9597SOL    HW141264   1.078   3.177   4.991
 9597SOL    HW241265   1.024   3.040   4.921
 9598SOL     OW41266   6.405   1.372   1.511
 9598SOL    HW141267   6.307   1.370   1.531
 9598SOL    HW241268   6.433   1.466   1.489
 9599SOL     OW41269   7.108   4.036   7.165
 9599SOL    HW141270   7.036   4.083   7.114
 9599SOL    HW241271   7.110   3.939   7.139
 9600SOL     OW41272   5.787   2.534   4.877
 9600SOL    HW141273   5.772   2.448   4.829
 9600SOL    HW241274   5.775   2.611   4.814
 9601SOL     OW41275   1.618   3.825   2.898
 9601SOL    HW141276   1.620   3.831   2.798
 9601SOL    HW241277   1.705   3.788   2.931
 9602SOL     OW41278   4.013   5.758   3.610
 9602SOL    HW141279   3.994   5.795   3.701
 9602SOL    HW241280   4.112   5.746   3.599
 9603SOL     OW41281   4.856   4.551   5.180
 9603SOL    HW141282   4.939   4.556   5.124
 9603SOL    HW241283   4.778   4.585   5.127
 9604SOL     OW41284   4.613   1.420   5.458
 9604SOL    HW141285   4.684   1.475   5.415
 9604SOL    HW241286   4.607   1.331   5.413
 9605SOL     OW41287   2.414   3.259   5.550
 9605SOL    HW141288   2.475   3.248   5.472
 9605SOL    HW241289   2.428   3.185   5.616
 9606SOL     OW41290   5.278   3.884   0.320
 9606SOL    HW141291   5.189   3.920   0.290
 9606SOL    HW241292   5.336   3.870   0.240
 9607SOL     OW41293   5.283   1.404   2.810
 9607SOL    HW141294   5.364   1.455   2.837
 9607SOL    HW241295   5.249   1.439   2.723
 9608SOL     OW41296   7.141   0.827   6.252
 9608SOL    HW141297   7.091   0.894   6.196
 9608SOL    HW241298   7.098   0.820   6.342
 9609SOL     OW41299   1.005   4.737   0.182
 9609SOL    HW141300   1.036   4.658   0.129
 9609SOL    HW241301   0.928   4.781   0.135
 9610SOL     OW41302   6.515   4.880   2.401
 9610SOL    HW141303   6.561   4.793   2.380
 9610SOL    HW241304   6.565   4.956   2.361
 9611SOL     OW41305   1.776   6.235   0.339
 9611SOL    HW141306   1.822   6.176   0.272
 9611SOL    HW241307   1.844   6.269   0.405
 9612SOL     OW41308   1.328   2.477   1.998
 9612SOL    HW141309   1.333   2.444   2.092
 9612SOL    HW241310   1.245   2.531   1.986
 9613SOL     OW41311   4.977   7.148   2.643
 9613SOL    HW141312   5.013   7.095   2.719
 9613SOL    HW241313   5.001   7.244   2.655
 9614SOL     OW41314   5.977   3.331   0.068
 9614SOL    HW141315   6.058   3.312   0.123
 9614SOL    HW241316   5.927   3.408   0.107
 9615SOL     OW41317   3.199   5.348   1.751
 9615SOL    HW141318   3.217   5.314   1.844
 9615SOL    HW241319   3.119   5.301   1.714
 9616SOL     OW41320   4.710   3.189   5.750
 9616SOL    HW141321   4.779   3.157   5.686
 9616SOL    HW241322   4.644   3.248   5.703
 9617SOL     OW41323   3.850   1.174   3.594
 9617SOL    HW141324   3.801   1.142   3.513
 9617SOL    HW241325   3.942   1.202   3.568
 9618SOL     OW41326   1.137   2.873   6.706
 9618SOL    HW141327   1.213   2.858   6.643
 9618SOL    HW241328   1.163   2.941   6.774
 9619SOL     OW41329   6.583   1.597   1.073
 9619SOL    HW141330   6.569   1.695   1.090
 9619SOL    HW241331   6.496   1.549   1.089
 9620SOL     OW41332   1.652   2.888   3.552
 9620SOL    HW141333   1.637   2.868   3.455
 9620SOL    HW241334   1.708   2.816   3.593
 9621SOL     OW41335   4.846   4.856   6.679
 9621SOL    HW141336   4.859   4.903   6.592
 9621SOL    HW241337   4.876   4.915   6.754
 9622SOL     OW41338   4.476   5.718   3.777
 9622SOL    HW141339   4.515   5.629   3.799
 9622SOL    HW241340   4.466   5.771   3.862
 9623SOL     OW41341   1.214   3.919   3.820
 9623SOL    HW141342   1.163   3.959   3.743
 9623SOL    HW241343   1.255   3.992   3.874
 9624SOL     OW41344   3.170   4.467   0.735
 9624SOL    HW141345   3.161   4.554   0.784
 9624SOL    HW241346   3.079   4.433   0.711
 9625SOL     OW41347   5.795   1.703   1.669
 9625SOL    HW141348   5.846   1.679   1.751
 9625SOL    HW241349   5.828   1.649   1.591
 9626SOL     OW41350   3.209   4.127   4.602
 9626SOL    HW141351   3.220   4.151   4.506
 9626SOL    HW241352   3.263   4.045   4.623
 9627SOL     OW41353   2.691   8.981   3.482
 9627SOL    HW141354   2.787   0.002   3.461
 9627SOL    HW241355   2.634   0.002   3.403
 9628SOL     OW41356   0.290   4.182   4.439
 9628SOL    HW141357   0.312   4.170   4.536
 9628SOL    HW241358   0.212   4.125   4.415
 9629SOL     OW41359   2.068   3.653   4.569
 9629SOL    HW141360   2.095   3.631   4.475
 9629SOL    HW241361   2.123   3.730   4.602
 9630SOL     OW41362   2.547   0.370   3.494
 9630SOL    HW141363   2.521   0.461   3.528
 9630SOL    HW241364   2.584   0.317   3.570
 9631SOL     OW41365   2.327   3.821   5.145
 9631SOL    HW141366   2.251   3.883   5.126
 9631SOL    HW241367   2.410   3.875   5.161
 9632SOL     OW41368   7.358   0.462   5.393
 9632SOL    HW141369   7.429   0.529   5.412
 9632SOL    HW241370   7.334   0.465   5.296
 9633SOL     OW41371   2.549   5.707   7.043
 9633SOL    HW141372   2.469   5.741   6.992
 9633SOL    HW241373   2.588   5.782   7.097
 9634SOL     OW41374   6.101   6.255   1.498
 9634SOL    HW141375   6.159   6.193   1.445
 9634SOL    HW241376   6.009   6.217   1.504
 9635SOL     OW41377   6.734   2.554   2.784
 9635SOL    HW141378   6.645   2.531   2.744
 9635SOL    HW241379   6.785   2.612   2.722
 9636SOL     OW41380   6.038   4.608   4.186
 9636SOL    HW141381   6.133   4.634   4.166
 9636SOL    HW241382   6.009   4.538   4.122
 9637SOL     OW41383   3.782   5.499   4.667
 9637SOL    HW141384   3.723   5.422   4.692
 9637SOL    HW241385   3.817   5.542   4.751
 9638SOL     OW41386   3.145   4.042   0.115
 9638SOL    HW141387   3.209   4.008   0.184
 9638SOL    HW241388   3.054   4.005   0.133
 9639SOL     OW41389   5.450   7.361   5.880
 9639SOL    HW141390   5.461   7.300   5.802
 9639SOL    HW241391   5.524   7.345   5.946
 9640SOL     OW41392   0.603   2.433   2.623
 9640SOL    HW141393   0.507   2.440   2.595
 9640SOL    HW241394   0.609   2.438   2.723
 9641SOL     OW41395   6.006   5.966   5.353
 9641SOL    HW141396   5.945   5.962   5.273
 9641SOL    HW241397   5.966   5.914   5.428
 9642SOL     OW41398   0.164   1.256   2.883
 9642SOL    HW141399   0.157   1.199   2.801
 9642SOL    HW241400   0.222   1.335   2.863
 9643SOL     OW41401   5.549   0.539   5.964
 9643SOL    HW141402   5.568   0.462   5.903
 9643SOL    HW241403   5.546   0.508   6.059
 9644SOL     OW41404   2.231   4.423   0.372
 9644SOL    HW141405   2.171   4.447   0.448
 9644SOL    HW241406   2.194   4.461   0.287
 9645SOL     OW41407   1.985   3.893   6.082
 9645SOL    HW141408   1.900   3.933   6.048
 9645SOL    HW241409   2.060   3.958   6.071
 9646SOL     OW41410   4.790   3.330   5.982
 9646SOL    HW141411   4.881   3.296   6.007
 9646SOL    HW241412   4.755   3.276   5.906
 9647SOL     OW41413   2.368   0.748   6.433
 9647SOL    HW141414   2.440   0.738   6.502
 9647SOL    HW241415   2.409   0.742   6.342
 9648SOL     OW41416   1.370   7.089   6.528
 9648SOL    HW141417   1.459   7.051   6.505
 9648SOL    HW241418   1.316   7.021   6.579
 9649SOL     OW41419   5.334   4.670   5.931
 9649SOL    HW141420   5.310   4.683   5.834
 9649SOL    HW241421   5.384   4.584   5.941
 9650SOL     OW41422   2.202   4.932   6.363
 9650SOL    HW141423   2.119   4.982   6.390
 9650SOL    HW241424   2.225   4.865   6.434
 9651SOL     OW41425   2.460   5.485   6.486
 9651SOL    HW141426   2.528   5.555   6.506
 9651SOL    HW241427   2.368   5.525   6.492
 9652SOL     OW41428   5.647   4.231   1.561
 9652SOL    HW141429   5.688   4.168   1.628
 9652SOL    HW241430   5.680   4.207   1.470
 9653SOL     OW41431   5.503   3.439   3.863
 9653SOL    HW141432   5.412   3.412   3.892
 9653SOL    HW241433   5.543   3.368   3.806
 9654SOL     OW41434   3.440   5.804   4.753
 9654SOL    HW141435   3.453   5.744   4.673
 9654SOL    HW241436   3.342   5.811   4.773
 9655SOL     OW41437   6.979   4.289   1.511
 9655SOL    HW141438   6.987   4.256   1.605
 9655SOL    HW241439   6.900   4.349   1.504
 9656SOL     OW41440   3.280   4.795   2.536
 9656SOL    HW141441   3.372   4.760   2.518
 9656SOL    HW241442   3.258   4.866   2.469
 9657SOL     OW41443   6.274   4.737   4.109
 9657SOL    HW141444   6.259   4.833   4.130
 9657SOL    HW241445   6.270   4.723   4.010
 9658SOL     OW41446   4.767   5.994   0.318
 9658SOL    HW141447   4.674   6.021   0.338
 9658SOL    HW241448   4.814   5.968   0.403
 9659SOL     OW41449   6.286   4.878   1.521
 9659SOL    HW141450   6.214   4.875   1.591
 9659SOL    HW241451   6.344   4.957   1.536
 9660SOL     OW41452   1.855   2.029   0.344
 9660SOL    HW141453   1.852   2.067   0.437
 9660SOL    HW241454   1.832   1.932   0.347
 9661SOL     OW41455   3.469   1.194   3.425
 9661SOL    HW141456   3.428   1.103   3.416
 9661SOL    HW241457   3.397   1.262   3.436
 9662SOL     OW41458   6.535   1.448   5.959
 9662SOL    HW141459   6.593   1.529   5.973
 9662SOL    HW241460   6.526   1.431   5.861
 9663SOL     OW41461   5.123   0.476   2.654
 9663SOL    HW141462   5.148   0.539   2.728
 9663SOL    HW241463   5.029   0.494   2.625
 9664SOL     OW41464   6.030   6.773   2.319
 9664SOL    HW141465   5.958   6.724   2.270
 9664SOL    HW241466   6.119   6.754   2.276
 9665SOL     OW41467   2.648   5.304   0.933
 9665SOL    HW141468   2.719   5.373   0.943
 9665SOL    HW241469   2.582   5.334   0.864
 9666SOL     OW41470   5.352   6.866   1.322
 9666SOL    HW141471   5.359   6.964   1.306
 9666SOL    HW241472   5.415   6.840   1.396
 9667SOL     OW41473   6.822   1.364   2.662
 9667SOL    HW141474   6.883   1.433   2.622
 9667SOL    HW241475   6.765   1.406   2.732
 9668SOL     OW41476   3.806   3.991   0.136
 9668SOL    HW141477   3.788   3.901   0.177
 9668SOL    HW241478   3.890   4.029   0.175
 9669SOL     OW41479   0.076   1.721   0.324
 9669SOL    HW141480   0.081   1.630   0.283
 9669SOL    HW241481   0.025   1.716   0.410
 9670SOL     OW41482   0.493   3.685   4.068
 9670SOL    HW141483   0.527   3.601   4.027
 9670SOL    HW241484   0.502   3.679   4.167
 9671SOL     OW41485   7.090   5.273   6.888
 9671SOL    HW141486   7.152   5.335   6.839
 9671SOL    HW241487   7.001   5.317   6.900
 9672SOL     OW41488   5.087   7.006   2.431
 9672SOL    HW141489   5.045   7.045   2.512
 9672SOL    HW241490   5.039   7.038   2.349
 9673SOL     OW41491   7.156   2.937   0.983
 9673SOL    HW141492   7.204   2.850   0.973
 9673SOL    HW241493   7.221   3.007   1.013
 9674SOL     OW41494   3.866   1.811   5.261
 9674SOL    HW141495   3.773   1.779   5.245
 9674SOL    HW241496   3.903   1.849   5.177
 9675SOL     OW41497   2.347   2.551   2.263
 9675SOL    HW141498   2.261   2.574   2.217
 9675SOL    HW241499   2.396   2.636   2.285
 9676SOL     OW41500   4.477   0.203   4.947
 9676SOL    HW141501   4.472   0.260   5.029
 9676SOL    HW241502   4.562   0.150   4.949
 9677SOL     OW41503   2.572   5.024   4.194
 9677SOL    HW141504   2.587   4.961   4.271
 9677SOL    HW241505   2.537   4.973   4.116
 9678SOL     OW41506   0.881   0.143   5.414
 9678SOL    HW141507   0.856   0.184   5.326
 9678SOL    HW241508   0.800   0.137   5.471
 9679SOL     OW41509   4.314   0.699   6.818
 9679SOL    HW141510   4.328   0.604   6.847
 9679SOL    HW241511   4.394   0.729   6.765
 9680SOL     OW41512   4.128   3.693   0.380
 9680SOL    HW141513   4.190   3.667   0.454
 9680SOL    HW241514   4.180   3.698   0.294
 9681SOL     OW41515   5.896   1.095   7.212
 9681SOL    HW141516   5.847   1.176   7.246
 9681SOL    HW241517   5.838   1.015   7.221
 9682SOL     OW41518   6.908   3.759   5.279
 9682SOL    HW141519   6.972   3.770   5.203
 9682SOL    HW241520   6.842   3.687   5.257
 9683SOL     OW41521   6.118   0.935   5.211
 9683SOL    HW141522   6.148   0.863   5.148
 9683SOL    HW241523   6.097   1.017   5.158
 9684SOL     OW41524   2.410   3.682   2.961
 9684SOL    HW141525   2.390   3.605   2.899
 9684SOL    HW241526   2.326   3.709   3.008
 9685SOL     OW41527   0.098   7.289   1.620
 9685SOL    HW141528   0.041   7.296   1.538
 9685SOL    HW241529   0.194   7.279   1.592
 9686SOL     OW41530   3.123   3.171   5.508
 9686SOL    HW141531   3.125   3.074   5.534
 9686SOL    HW241532   3.048   3.186   5.444
 9687SOL     OW41533   6.032   3.390   6.650
 9687SOL    HW141534   5.937   3.359   6.641
 9687SOL    HW241535   6.080   3.376   6.563
 9688SOL     OW41536   1.614   1.754   5.334
 9688SOL    HW141537   1.592   1.835   5.280
 9688SOL    HW241538   1.539   1.689   5.327
 9689SOL     OW41539   2.848   1.221   4.065
 9689SOL    HW141540   2.915   1.273   4.118
 9689SOL    HW241541   2.782   1.180   4.126
 9690SOL     OW41542   5.336   6.714   4.037
 9690SOL    HW141543   5.350   6.735   3.940
 9690SOL    HW241544   5.314   6.617   4.048
 9691SOL     OW41545   1.579   3.418   0.373
 9691SOL    HW141546   1.583   3.476   0.291
 9691SOL    HW241547   1.486   3.386   0.387
 9692SOL     OW41548   5.175   6.174   5.904
 9692SOL    HW141549   5.272   6.150   5.892
 9692SOL    HW241550   5.142   6.138   5.991
 9693SOL     OW41551   1.908   4.968   0.381
 9693SOL    HW141552   1.887   5.063   0.359
 9693SOL    HW241553   2.005   4.959   0.404
 9694SOL     OW41554   3.613   6.204   3.504
 9694SOL    HW141555   3.700   6.190   3.551
 9694SOL    HW241556   3.613   6.153   3.418
 9695SOL     OW41557   5.179   3.275   2.971
 9695SOL    HW141558   5.090   3.255   2.932
 9695SOL    HW241559   5.191   3.221   3.055
 9696SOL     OW41560   1.932   6.829   3.599
 9696SOL    HW141561   1.891   6.738   3.589
 9696SOL    HW241562   1.995   6.828   3.677
 9697SOL     OW41563   5.504   3.050   3.896
 9697SOL    HW141564   5.574   2.993   3.938
 9697SOL    HW241565   5.547   3.118   3.836
 9698SOL     OW41566   7.012   3.332   3.451
 9698SOL    HW141567   7.051   3.240   3.451
 9698SOL    HW241568   7.024   3.375   3.362
 9699SOL     OW41569   5.550   1.435   7.097
 9699SOL    HW141570   5.564   1.464   7.192
 9699SOL    HW241571   5.452   1.435   7.077
 9700SOL     OW41572   4.240   3.018   2.991
 9700SOL    HW141573   4.310   2.967   2.941
 9700SOL    HW241574   4.150   2.991   2.957
 9701SOL     OW41575   2.398   6.700   5.652
 9701SOL    HW141576   2.480   6.674   5.601
 9701SOL    HW241577   2.396   6.650   5.739
 9702SOL     OW41578   2.754   3.472   0.333
 9702SOL    HW141579   2.698   3.397   0.298
 9702SOL    HW241580   2.819   3.436   0.400
 9703SOL     OW41581   6.205   5.908   4.610
 9703SOL    HW141582   6.249   5.933   4.523
 9703SOL    HW241583   6.193   5.989   4.666
 9704SOL     OW41584   2.287   7.274   6.163
 9704SOL    HW141585   2.264   7.339   6.236
 9704SOL    HW241586   2.204   7.250   6.113
 9705SOL     OW41587   1.614   3.825   0.950
 9705SOL    HW141588   1.672   3.884   1.006
 9705SOL    HW241589   1.657   3.812   0.861
 9706SOL     OW41590   0.841   0.967   7.116
 9706SOL    HW141591   0.879   0.945   7.026
 9706SOL    HW241592   0.785   0.891   7.148
 9707SOL     OW41593   5.796   3.746   6.019
 9707SOL    HW141594   5.868   3.772   5.955
 9707SOL    HW241595   5.790   3.646   6.023
 9708SOL     OW41596   4.651   6.858   4.499
 9708SOL    HW141597   4.702   6.902   4.426
 9708SOL    HW241598   4.578   6.919   4.530
 9709SOL     OW41599   1.682   4.235   3.110
 9709SOL    HW141600   1.775   4.207   3.088
 9709SOL    HW241601   1.651   4.303   3.044
 9710SOL     OW41602   1.783   4.489   6.764
 9710SOL    HW141603   1.877   4.489   6.797
 9710SOL    HW241604   1.762   4.400   6.724
 9711SOL     OW41605   2.256   4.572   3.290
 9711SOL    HW141606   2.196   4.501   3.329
 9711SOL    HW241607   2.324   4.598   3.357
 9712SOL     OW41608   5.060   3.627   1.405
 9712SOL    HW141609   5.023   3.697   1.343
 9712SOL    HW241610   5.158   3.618   1.390
 9713SOL     OW41611   1.603   6.435   6.522
 9713SOL    HW141612   1.688   6.385   6.534
 9713SOL    HW241613   1.563   6.412   6.433
 9714SOL     OW41614   3.407   3.427   2.159
 9714SOL    HW141615   3.316   3.469   2.155
 9714SOL    HW241616   3.408   3.347   2.099
 9715SOL     OW41617   1.470   5.738   0.629
 9715SOL    HW141618   1.500   5.831   0.607
 9715SOL    HW241619   1.384   5.743   0.681
 9716SOL     OW41620   4.939   2.090   4.062
 9716SOL    HW141621   4.932   2.133   4.152
 9716SOL    HW241622   5.011   2.020   4.065
 9717SOL     OW41623   2.910   3.129   6.366
 9717SOL    HW141624   2.957   3.070   6.301
 9717SOL    HW241625   2.815   3.098   6.377
 9718SOL     OW41626   2.777   4.797   4.966
 9718SOL    HW141627   2.816   4.801   4.874
 9718SOL    HW241628   2.832   4.737   5.023
 9719SOL     OW41629   4.199   0.706   5.517
 9719SOL    HW141630   4.206   0.688   5.615
 9719SOL    HW241631   4.290   0.724   5.479
 9720SOL     OW41632   0.518   3.950   3.221
 9720SOL    HW141633   0.418   3.950   3.211
 9720SOL    HW241634   0.561   3.960   3.132
 9721SOL     OW41635   4.852   2.859   7.118
 9721SOL    HW141636   4.757   2.879   7.143
 9721SOL    HW241637   4.913   2.922   7.166
 9722SOL     OW41638   4.376   3.901   7.115
 9722SOL    HW141639   4.332   3.911   7.025
 9722SOL    HW241640   4.334   3.965   7.180
 9723SOL     OW41641   1.898   4.536   2.700
 9723SOL    HW141642   1.965   4.579   2.760
 9723SOL    HW241643   1.807   4.574   2.719
 9724SOL     OW41644   0.564   2.460   0.188
 9724SOL    HW141645   0.484   2.434   0.133
 9724SOL    HW241646   0.569   2.559   0.195
 9725SOL     OW41647   7.163   3.295   6.380
 9725SOL    HW141648   7.136   3.254   6.293
 9725SOL    HW241649   7.221   3.375   6.362
 9726SOL     OW41650   1.491   1.621   0.714
 9726SOL    HW141651   1.524   1.538   0.670
 9726SOL    HW241652   1.562   1.691   0.711
 9727SOL     OW41653   2.100   3.875   5.598
 9727SOL    HW141654   2.186   3.924   5.585
 9727SOL    HW241655   2.025   3.940   5.603
 9728SOL     OW41656   7.332   6.728   7.256
 9728SOL    HW141657   7.402   6.798   7.245
 9728SOL    HW241658   7.342   6.659   7.184
 9729SOL     OW41659   5.631   4.472   1.885
 9729SOL    HW141660   5.594   4.383   1.913
 9729SOL    HW241661   5.570   4.545   1.917
 9730SOL     OW41662   5.006   6.446   6.890
 9730SOL    HW141663   5.078   6.399   6.940
 9730SOL    HW241664   4.917   6.415   6.923
 9731SOL     OW41665   2.357   3.318   5.137
 9731SOL    HW141666   2.284   3.252   5.153
 9731SOL    HW241667   2.325   3.410   5.158
 9732SOL     OW41668   1.997   6.011   3.740
 9732SOL    HW141669   1.939   5.944   3.787
 9732SOL    HW241670   1.994   5.994   3.641
 9733SOL     OW41671   3.986   5.760   5.532
 9733SOL    HW141672   3.938   5.727   5.613
 9733SOL    HW241673   4.041   5.685   5.494
 9734SOL     OW41674   1.140   1.150   7.138
 9734SOL    HW141675   1.222   1.193   7.176
 9734SOL    HW241676   1.078   1.126   7.212
 9735SOL     OW41677   1.448   5.072   4.178
 9735SOL    HW141678   1.529   5.018   4.154
 9735SOL    HW241679   1.366   5.020   4.156
 9736SOL     OW41680   0.776   4.047   1.196
 9736SOL    HW141681   0.806   4.060   1.101
 9736SOL    HW241682   0.856   4.035   1.255
 9737SOL     OW41683   6.557   2.539   4.675
 9737SOL    HW141684   6.599   2.581   4.595
 9737SOL    HW241685   6.459   2.527   4.659
 9738SOL     OW41686   2.930   0.531   7.148
 9738SOL    HW141687   3.008   0.469   7.156
 9738SOL    HW241688   2.943   0.609   7.210
 9739SOL     OW41689   3.069   0.647   1.551
 9739SOL    HW141690   2.978   0.679   1.579
 9739SOL    HW241691   3.060   0.560   1.503
 9740SOL     OW41692   1.998   5.945   3.476
 9740SOL    HW141693   1.903   5.915   3.471
 9740SOL    HW241694   2.019   6.002   3.396
 9741SOL     OW41695   2.915   6.499   2.289
 9741SOL    HW141696   2.896   6.406   2.258
 9741SOL    HW241697   2.935   6.557   2.210
 9742SOL     OW41698   6.093   1.003   2.395
 9742SOL    HW141699   6.187   0.984   2.366
 9742SOL    HW241700   6.030   0.963   2.328
 9743SOL     OW41701   7.196   1.973   2.193
 9743SOL    HW141702   7.219   1.916   2.272
 9743SOL    HW241703   7.108   2.018   2.208
 9744SOL     OW41704   6.844   4.888   0.591
 9744SOL    HW141705   6.934   4.922   0.564
 9744SOL    HW241706   6.853   4.796   0.629
 9745SOL     OW41707   6.162   4.132   2.687
 9745SOL    HW141708   6.114   4.204   2.638
 9745SOL    HW241709   6.179   4.161   2.781
 9746SOL     OW41710   7.194   2.409   0.850
 9746SOL    HW141711   7.120   2.379   0.789
 9746SOL    HW241712   7.274   2.434   0.796
 9747SOL     OW41713   3.603   4.357   5.335
 9747SOL    HW141714   3.595   4.258   5.319
 9747SOL    HW241715   3.572   4.406   5.253
 9748SOL     OW41716   6.252   5.981   0.129
 9748SOL    HW141717   6.339   5.972   0.177
 9748SOL    HW241718   6.193   5.904   0.153
 9749SOL     OW41719   5.865   4.497   2.036
 9749SOL    HW141720   5.897   4.592   2.035
 9749SOL    HW241721   5.787   4.488   1.975
 9750SOL     OW41722   0.973   1.956   2.198
 9750SOL    HW141723   0.957   1.937   2.295
 9750SOL    HW241724   0.885   1.966   2.151
 9751SOL     OW41725   6.845   1.911   2.309
 9751SOL    HW141726   6.781   1.917   2.232
 9751SOL    HW241727   6.804   1.953   2.390
 9752SOL     OW41728   3.158   2.251   5.528
 9752SOL    HW141729   3.174   2.349   5.518
 9752SOL    HW241730   3.153   2.209   5.437
 9753SOL     OW41731   7.339   2.913   2.271
 9753SOL    HW141732   7.371   2.920   2.176
 9753SOL    HW241733   7.245   2.945   2.277
 9754SOL     OW41734   4.958   1.655   0.095
 9754SOL    HW141735   5.000   1.745   0.085
 9754SOL    HW241736   4.966   1.604   0.010
 9755SOL     OW41737   4.663   1.828   4.550
 9755SOL    HW141738   4.701   1.792   4.465
 9755SOL    HW241739   4.736   1.868   4.605
 9756SOL     OW41740   5.880   3.289   3.651
 9756SOL    HW141741   5.940   3.210   3.635
 9756SOL    HW241742   5.933   3.361   3.696
 9757SOL     OW41743   4.203   7.248   6.456
 9757SOL    HW141744   4.137   7.303   6.405
 9757SOL    HW241745   4.259   7.196   6.392
 9758SOL     OW41746   1.625   0.881   5.508
 9758SOL    HW141747   1.647   0.785   5.529
 9758SOL    HW241748   1.571   0.884   5.425
 9759SOL     OW41749   5.690   7.179   4.025
 9759SOL    HW141750   5.683   7.245   3.950
 9759SOL    HW241751   5.749   7.103   3.997
 9760SOL     OW41752   4.732   7.328   4.640
 9760SOL    HW141753   4.711   7.354   4.546
 9760SOL    HW241754   4.815   7.271   4.640
 9761SOL     OW41755   4.534   6.624   7.058
 9761SOL    HW141756   4.568   6.661   6.971
 9761SOL    HW241757   4.464   6.685   7.095
 9762SOL     OW41758   1.482   4.558   5.478
 9762SOL    HW141759   1.538   4.485   5.518
 9762SOL    HW241760   1.492   4.557   5.379
 9763SOL     OW41761   4.841   3.833   3.328
 9763SOL    HW141762   4.777   3.795   3.395
 9763SOL    HW241763   4.852   3.931   3.344
 9764SOL     OW41764   0.063   6.655   0.475
 9764SOL    HW141765   8.999   6.625   0.546
 9764SOL    HW241766   0.012   6.700   0.401
 9765SOL     OW41767   2.501   6.133   4.505
 9765SOL    HW141768   2.508   6.093   4.597
 9765SOL    HW241769   2.453   6.070   4.445
 9766SOL     OW41770   5.385   3.823   1.771
 9766SOL    HW141771   5.302   3.836   1.827
 9766SOL    HW241772   5.367   3.854   1.678
 9767SOL     OW41773   3.227   3.642   4.717
 9767SOL    HW141774   3.257   3.652   4.812
 9767SOL    HW241775   3.127   3.651   4.713
 9768SOL     OW41776   6.041   1.138   5.049
 9768SOL    HW141777   6.031   1.238   5.048
 9768SOL    HW241778   5.994   1.099   4.969
 9769SOL     OW41779   4.545   1.354   6.385
 9769SOL    HW141780   4.566   1.319   6.477
 9769SOL    HW241781   4.603   1.308   6.318
 9770SOL     OW41782   2.509   2.323   4.634
 9770SOL    HW141783   2.557   2.400   4.677
 9770SOL    HW241784   2.489   2.346   4.539
 9771SOL     OW41785   1.297   3.951   1.677
 9771SOL    HW141786   1.361   3.942   1.753
 9771SOL    HW241787   1.222   3.885   1.688
 9772SOL     OW41788   4.286   4.364   6.215
 9772SOL    HW141789   4.187   4.361   6.232
 9772SOL    HW241790   4.335   4.350   6.302
 9773SOL     OW41791   4.139   1.094   0.811
 9773SOL    HW141792   4.099   1.136   0.892
 9773SOL    HW241793   4.209   1.154   0.773
 9774SOL     OW41794   5.747   0.064   6.521
 9774SOL    HW141795   5.839   0.097   6.543
 9774SOL    HW241796   5.729   8.980   6.571
 9775SOL     OW41797   4.331   5.392   7.135
 9775SOL    HW141798   4.243   5.362   7.098
 9775SOL    HW241799   4.341   5.490   7.120
 9776SOL     OW41800   3.333   3.012   2.209
 9776SOL    HW141801   3.240   3.008   2.245
 9776SOL    HW241802   3.395   3.049   2.278
 9777SOL     OW41803   1.693   4.609   0.963
 9777SOL    HW141804   1.622   4.538   0.964
 9777SOL    HW241805   1.671   4.678   1.032
 9778SOL     OW41806   5.792   3.492   1.720
 9778SOL    HW141807   5.784   3.400   1.756
 9778SOL    HW241808   5.702   3.537   1.722
 9779SOL     OW41809   3.771   1.500   1.857
 9779SOL    HW141810   3.855   1.450   1.878
 9779SOL    HW241811   3.756   1.498   1.758
 9780SOL     OW41812   2.943   2.554   1.482
 9780SOL    HW141813   2.995   2.491   1.425
 9780SOL    HW241814   2.995   2.639   1.494
 9781SOL     OW41815   7.157   3.150   1.801
 9781SOL    HW141816   7.132   3.178   1.708
 9781SOL    HW241817   7.166   3.051   1.805
 9782SOL     OW41818   1.692   5.858   4.089
 9782SOL    HW141819   1.716   5.783   4.150
 9782SOL    HW241820   1.675   5.941   4.143
 9783SOL     OW41821   1.437   4.301   0.270
 9783SOL    HW141822   1.377   4.381   0.270
 9783SOL    HW241823   1.382   4.218   0.257
 9784SOL     OW41824   0.510   1.600   0.767
 9784SOL    HW141825   0.552   1.689   0.786
 9784SOL    HW241826   0.489   1.593   0.670
 9785SOL     OW41827   2.467   6.965   5.648
 9785SOL    HW141828   2.565   6.979   5.634
 9785SOL    HW241829   2.447   6.867   5.652
 9786SOL     OW41830   0.872   3.199   1.194
 9786SOL    HW141831   0.797   3.205   1.260
 9786SOL    HW241832   0.955   3.238   1.234
 9787SOL     OW41833   7.037   4.916   5.879
 9787SOL    HW141834   7.082   5.004   5.896
 9787SOL    HW241835   6.939   4.926   5.894
 9788SOL     OW41836   6.998   4.963   3.247
 9788SOL    HW141837   6.950   4.889   3.200
 9788SOL    HW241838   7.047   4.925   3.326
 9789SOL     OW41839   6.953   6.802   1.466
 9789SOL    HW141840   6.865   6.787   1.509
 9789SOL    HW241841   6.942   6.859   1.384
 9790SOL     OW41842   1.937   4.766   5.543
 9790SOL    HW141843   1.934   4.838   5.473
 9790SOL    HW241844   1.936   4.807   5.634
 9791SOL     OW41845   3.850   4.200   3.661
 9791SOL    HW141846   3.857   4.251   3.575
 9791SOL    HW241847   3.802   4.114   3.645
 9792SOL     OW41848   4.053   3.410   5.320
 9792SOL    HW141849   4.034   3.402   5.418
 9792SOL    HW241850   4.091   3.501   5.301
 9793SOL     OW41851   5.134   2.899   6.827
 9793SOL    HW141852   5.117   2.807   6.790
 9793SOL    HW241853   5.087   2.966   6.770
 9794SOL     OW41854   3.513   4.759   5.130
 9794SOL    HW141855   3.494   4.857   5.133
 9794SOL    HW241856   3.605   4.742   5.168
 9795SOL     OW41857   4.942   7.016   5.199
 9795SOL    HW141858   4.969   7.067   5.281
 9795SOL    HW241859   4.869   6.951   5.223
 9796SOL     OW41860   4.451   6.812   4.787
 9796SOL    HW141861   4.443   6.877   4.712
 9796SOL    HW241862   4.542   6.773   4.788
 9797SOL     OW41863   2.831   2.532   5.761
 9797SOL    HW141864   2.892   2.533   5.840
 9797SOL    HW241865   2.794   2.440   5.749
 9798SOL     OW41866   4.961   1.511   5.654
 9798SOL    HW141867   4.895   1.576   5.617
 9798SOL    HW241868   4.974   1.436   5.588
 9799SOL     OW41869   6.047   6.187   5.812
 9799SOL    HW141870   6.037   6.179   5.713
 9799SOL    HW241871   6.123   6.248   5.834
 9800SOL     OW41872   6.837   0.107   2.084
 9800SOL    HW141873   6.849   0.016   2.044
 9800SOL    HW241874   6.777   0.099   2.164
 9801SOL     OW41875   0.908   2.201   3.884
 9801SOL    HW141876   0.860   2.286   3.865
 9801SOL    HW241877   0.986   2.192   3.823
 9802SOL     OW41878   3.795   4.368   4.340
 9802SOL    HW141879   3.696   4.377   4.333
 9802SOL    HW241880   3.832   4.336   4.252
 9803SOL     OW41881   0.168   7.161   6.591
 9803SOL    HW141882   0.265   7.172   6.570
 9803SOL    HW241883   0.114   7.214   6.527
 9804SOL     OW41884   2.586   4.856   4.421
 9804SOL    HW141885   2.679   4.882   4.446
 9804SOL    HW241886   2.560   4.772   4.470
 9805SOL     OW41887   1.424   2.067   6.648
 9805SOL    HW141888   1.513   2.047   6.690
 9805SOL    HW241889   1.360   1.993   6.669
 9806SOL     OW41890   1.057   5.109   3.716
 9806SOL    HW141891   1.090   5.183   3.775
 9806SOL    HW241892   0.966   5.081   3.744
 9807SOL     OW41893   4.887   4.222   3.115
 9807SOL    HW141894   4.911   4.315   3.087
 9807SOL    HW241895   4.794   4.201   3.086
 9808SOL     OW41896   5.786   3.320   4.764
 9808SOL    HW141897   5.859   3.312   4.696
 9808SOL    HW241898   5.775   3.232   4.811
 9809SOL     OW41899   5.302   6.599   7.010
 9809SOL    HW141900   5.393   6.627   6.980
 9809SOL    HW241901   5.257   6.675   7.057
 9810SOL     OW41902   5.449   3.679   3.988
 9810SOL    HW141903   5.366   3.655   4.040
 9810SOL    HW241904   5.480   3.599   3.936
 9811SOL     OW41905   2.398   2.371   1.276
 9811SOL    HW141906   2.430   2.330   1.361
 9811SOL    HW241907   2.384   2.300   1.207
 9812SOL     OW41908   6.496   2.413   0.086
 9812SOL    HW141909   6.489   2.462   8.999
 9812SOL    HW241910   6.433   2.454   0.152
 9813SOL     OW41911   3.326   1.793   2.507
 9813SOL    HW141912   3.337   1.712   2.564
 9813SOL    HW241913   3.395   1.793   2.434
 9814SOL     OW41914   6.267   1.660   0.742
 9814SOL    HW141915   6.338   1.703   0.686
 9814SOL    HW241916   6.206   1.731   0.778
 9815SOL     OW41917   2.359   5.023   4.443
 9815SOL    HW141918   2.440   4.964   4.431
 9815SOL    HW241919   2.337   5.067   4.356
 9816SOL     OW41920   1.630   2.451   1.233
 9816SOL    HW141921   1.612   2.481   1.139
 9816SOL    HW241922   1.673   2.361   1.232
 9817SOL     OW41923   4.781   6.400   1.922
 9817SOL    HW141924   4.683   6.410   1.905
 9817SOL    HW241925   4.826   6.489   1.911
 9818SOL     OW41926   6.255   7.148   3.039
 9818SOL    HW141927   6.304   7.107   2.962
 9818SOL    HW241928   6.312   7.217   3.083
 9819SOL     OW41929   2.538   7.006   4.113
 9819SOL    HW141930   2.572   6.916   4.140
 9819SOL    HW241931   2.502   7.054   4.194
 9820SOL     OW41932   1.388   3.794   3.645
 9820SOL    HW141933   1.404   3.874   3.586
 9820SOL    HW241934   1.331   3.821   3.723
 9821SOL     OW41935   3.639   6.320   4.780
 9821SOL    HW141936   3.647   6.323   4.880
 9821SOL    HW241937   3.579   6.244   4.754
 9822SOL     OW41938   5.436   1.837   4.744
 9822SOL    HW141939   5.525   1.799   4.719
 9822SOL    HW241940   5.384   1.769   4.797
 9823SOL     OW41941   2.777   4.920   7.093
 9823SOL    HW141942   2.861   4.901   7.144
 9823SOL    HW241943   2.737   4.833   7.062
 9824SOL     OW41944   2.241   4.279   5.654
 9824SOL    HW141945   2.244   4.377   5.637
 9824SOL    HW241946   2.167   4.259   5.718
 9825SOL     OW41947   1.526   0.580   7.160
 9825SOL    HW141948   1.481   0.504   7.207
 9825SOL    HW241949   1.521   0.662   7.217
 9826SOL     OW41950   4.681   3.960   2.190
 9826SOL    HW141951   4.740   4.002   2.121
 9826SOL    HW241952   4.647   4.030   2.252
 9827SOL     OW41953   1.952   6.106   4.822
 9827SOL    HW141954   2.004   6.151   4.750
 9827SOL    HW241955   2.012   6.089   4.901
 9828SOL     OW41956   0.542   3.613   2.325
 9828SOL    HW141957   0.502   3.627   2.415
 9828SOL    HW241958   0.590   3.695   2.296
 9829SOL     OW41959   6.736   7.258   1.884
 9829SOL    HW141960   6.680   7.298   1.812
 9829SOL    HW241961   6.778   7.174   1.851
 9830SOL     OW41962   4.334   5.170   3.393
 9830SOL    HW141963   4.275   5.100   3.353
 9830SOL    HW241964   4.353   5.241   3.325
 9831SOL     OW41965   3.959   0.428   3.287
 9831SOL    HW141966   3.983   0.366   3.362
 9831SOL    HW241967   3.860   0.423   3.271
 9832SOL     OW41968   1.391   0.258   1.554
 9832SOL    HW141969   1.442   0.172   1.555
 9832SOL    HW241970   1.384   0.291   1.460
 9833SOL     OW41971   1.678   4.605   1.604
 9833SOL    HW141972   1.765   4.616   1.651
 9833SOL    HW241973   1.691   4.620   1.506
 9834SOL     OW41974   3.538   2.574   0.252
 9834SOL    HW141975   3.530   2.633   0.171
 9834SOL    HW241976   3.607   2.612   0.313
 9835SOL     OW41977   6.118   0.978   6.085
 9835SOL    HW141978   6.152   0.935   6.001
 9835SOL    HW241979   6.173   0.948   6.162
 9836SOL     OW41980   2.651   1.780   6.788
 9836SOL    HW141981   2.629   1.832   6.870
 9836SOL    HW241982   2.707   1.701   6.814
 9837SOL     OW41983   7.015   3.044   6.709
 9837SOL    HW141984   7.011   3.135   6.668
 9837SOL    HW241985   7.110   3.023   6.733
 9838SOL     OW41986   6.602   4.176   3.863
 9838SOL    HW141987   6.551   4.199   3.780
 9838SOL    HW241988   6.568   4.230   3.940
 9839SOL     OW41989   0.204   6.928   2.683
 9839SOL    HW141990   0.287   6.894   2.727
 9839SOL    HW241991   0.202   6.897   2.588
 9840SOL     OW41992   7.212   6.327   0.044
 9840SOL    HW141993   7.222   6.258   0.116
 9840SOL    HW241994   7.273   6.404   0.063
 9841SOL     OW41995   5.739   2.748   4.719
 9841SOL    HW141996   5.652   2.795   4.737
 9841SOL    HW241997   5.765   2.762   4.624
 9842SOL     OW41998   6.972   0.471   6.653
 9842SOL    HW141999   6.975   0.454   6.555
 9842SOL    HW242000   6.906   0.544   6.673
 9843SOL     OW42001   0.485   3.869   6.797
 9843SOL    HW142002   0.444   3.861   6.706
 9843SOL    HW242003   0.574   3.914   6.790
 9844SOL     OW42004   3.961   0.780   5.909
 9844SOL    HW142005   3.889   0.724   5.951
 9844SOL    HW242006   3.956   0.874   5.945
 9845SOL     OW42007   3.737   2.937   0.522
 9845SOL    HW142008   3.814   2.973   0.575
 9845SOL    HW242009   3.699   3.011   0.466
 9846SOL     OW42010   6.136   5.608   3.804
 9846SOL    HW142011   6.057   5.592   3.745
 9846SOL    HW242012   6.167   5.703   3.794
 9847SOL     OW42013   1.312   1.518   1.760
 9847SOL    HW142014   1.320   1.579   1.839
 9847SOL    HW242015   1.361   1.557   1.682
 9848SOL     OW42016   5.661   6.331   1.500
 9848SOL    HW142017   5.566   6.300   1.510
 9848SOL    HW242018   5.662   6.429   1.480
 9849SOL     OW42019   2.322   4.480   1.624
 9849SOL    HW142020   2.300   4.578   1.620
 9849SOL    HW242021   2.339   4.446   1.532
 9850SOL     OW42022   5.679   7.247   0.614
 9850SOL    HW142023   5.622   7.231   0.533
 9850SOL    HW242024   5.763   7.193   0.607
 9851SOL     OW42025   6.894   2.486   5.592
 9851SOL    HW142026   6.850   2.536   5.517
 9851SOL    HW242027   6.991   2.473   5.571
 9852SOL     OW42028   3.619   3.363   5.829
 9852SOL    HW142029   3.656   3.352   5.922
 9852SOL    HW242030   3.525   3.394   5.835
 9853SOL     OW42031   2.888   2.571   1.772
 9853SOL    HW142032   2.867   2.476   1.795
 9853SOL    HW242033   2.911   2.578   1.675
 9854SOL     OW42034   4.375   6.567   0.468
 9854SOL    HW142035   4.368   6.656   0.423
 9854SOL    HW242036   4.468   6.532   0.460
 9855SOL     OW42037   2.171   1.759   1.946
 9855SOL    HW142038   2.112   1.832   1.980
 9855SOL    HW242039   2.158   1.749   1.848
 9856SOL     OW42040   3.191   3.552   4.443
 9856SOL    HW142041   3.248   3.593   4.372
 9856SOL    HW242042   3.211   3.596   4.531
 9857SOL     OW42043   2.750   6.445   2.711
 9857SOL    HW142044   2.821   6.468   2.778
 9857SOL    HW242045   2.720   6.351   2.726
 9858SOL     OW42046   0.209   2.390   4.103
 9858SOL    HW142047   0.231   2.307   4.053
 9858SOL    HW242048   0.172   2.366   4.193
 9859SOL     OW42049   2.840   3.567   1.449
 9859SOL    HW142050   2.879   3.629   1.518
 9859SOL    HW242051   2.819   3.618   1.366
 9860SOL     OW42052   5.957   3.012   3.306
 9860SOL    HW142053   5.887   3.082   3.289
 9860SOL    HW242054   5.924   2.924   3.272
 9861SOL     OW42055   7.157   0.557   6.189
 9861SOL    HW142056   7.095   0.527   6.117
 9861SOL    HW242057   7.150   0.656   6.199
 9862SOL     OW42058   5.638   5.331   7.379
 9862SOL    HW142059   5.546   5.357   7.349
 9862SOL    HW242060   5.705   5.388   7.332
 9863SOL     OW42061   0.040   7.281   6.811
 9863SOL    HW142062   0.092   7.242   6.735
 9863SOL    HW242063   0.095   7.276   6.894
 9864SOL     OW42064   4.731   6.767   5.508
 9864SOL    HW142065   4.719   6.671   5.533
 9864SOL    HW242066   4.696   6.825   5.581
 9865SOL     OW42067   5.973   2.143   5.381
 9865SOL    HW142068   5.954   2.097   5.295
 9865SOL    HW242069   5.887   2.165   5.427
 9866SOL     OW42070   3.546   2.105   6.230
 9866SOL    HW142071   3.636   2.143   6.213
 9866SOL    HW242072   3.552   2.005   6.235
 9867SOL     OW42073   2.897   4.580   3.315
 9867SOL    HW142074   2.972   4.542   3.261
 9867SOL    HW242075   2.912   4.678   3.329
 9868SOL     OW42076   0.173   7.044   5.226
 9868SOL    HW142077   0.249   7.035   5.161
 9868SOL    HW242078   0.106   6.972   5.209
 9869SOL     OW42079   6.393   7.363   3.151
 9869SOL    HW142080   6.301   7.402   3.164
 9869SOL    HW242081   6.447   7.424   3.094
 9870SOL     OW42082   2.496   2.386   5.722
 9870SOL    HW142083   2.583   2.336   5.731
 9870SOL    HW242084   2.429   2.346   5.785
 9871SOL     OW42085   6.909   0.222   5.854
 9871SOL    HW142086   6.999   0.216   5.810
 9871SOL    HW242087   6.838   0.231   5.784
 9872SOL     OW42088   4.466   0.626   0.541
 9872SOL    HW142089   4.531   0.648   0.615
 9872SOL    HW242090   4.409   0.550   0.569
 9873SOL     OW42091   4.892   1.203   4.892
 9873SOL    HW142092   4.808   1.229   4.843
 9873SOL    HW242093   4.870   1.180   4.986
 9874SOL     OW42094   6.685   6.723   6.493
 9874SOL    HW142095   6.599   6.698   6.447
 9874SOL    HW242096   6.676   6.708   6.591
 9875SOL     OW42097   4.631   5.280   3.146
 9875SOL    HW142098   4.653   5.183   3.136
 9875SOL    HW242099   4.532   5.292   3.147
 9876SOL     OW42100   6.126   2.788   1.293
 9876SOL    HW142101   6.221   2.818   1.291
 9876SOL    HW242102   6.107   2.742   1.380
 9877SOL     OW42103   4.420   4.074   3.243
 9877SOL    HW142104   4.402   4.172   3.236
 9877SOL    HW242105   4.482   4.057   3.320
 9878SOL     OW42106   6.322   4.670   0.487
 9878SOL    HW142107   6.259   4.683   0.410
 9878SOL    HW242108   6.273   4.681   0.573
 9879SOL     OW42109   2.071   0.987   2.813
 9879SOL    HW142110   1.971   0.999   2.816
 9879SOL    HW242111   2.102   0.989   2.719
 9880SOL     OW42112   3.889   4.332   3.418
 9880SOL    HW142113   3.921   4.274   3.343
 9880SOL    HW242114   3.851   4.417   3.381
 9881SOL     OW42115   4.383   3.774   3.612
 9881SOL    HW142116   4.367   3.768   3.710
 9881SOL    HW242117   4.312   3.723   3.563
 9882SOL     OW42118   2.001   3.516   0.502
 9882SOL    HW142119   2.045   3.428   0.521
 9882SOL    HW242120   1.906   3.513   0.532
 9883SOL     OW42121   3.241   6.785   6.124
 9883SOL    HW142122   3.261   6.738   6.211
 9883SOL    HW242123   3.271   6.727   6.048
 9884SOL     OW42124   5.347   4.227   1.572
 9884SOL    HW142125   5.441   4.226   1.608
 9884SOL    HW242126   5.346   4.268   1.481
 9885SOL     OW42127   6.355   6.583   2.382
 9885SOL    HW142128   6.447   6.545   2.389
 9885SOL    HW242129   6.299   6.548   2.458
 9886SOL     OW42130   6.466   0.542   5.531
 9886SOL    HW142131   6.391   0.579   5.586
 9886SOL    HW242132   6.468   0.587   5.442
 9887SOL     OW42133   3.105   2.645   4.142
 9887SOL    HW142134   3.075   2.567   4.087
 9887SOL    HW242135   3.107   2.619   4.239
 9888SOL     OW42136   4.584   4.769   2.005
 9888SOL    HW142137   4.634   4.844   2.050
 9888SOL    HW242138   4.592   4.686   2.060
 9889SOL     OW42139   2.545   4.823   5.901
 9889SOL    HW142140   2.596   4.791   5.981
 9889SOL    HW242141   2.447   4.812   5.918
 9890SOL     OW42142   3.057   4.294   2.812
 9890SOL    HW142143   3.115   4.358   2.863
 9890SOL    HW242144   3.070   4.308   2.714
 9891SOL     OW42145   7.233   6.892   5.512
 9891SOL    HW142146   7.241   6.985   5.478
 9891SOL    HW242147   7.139   6.875   5.542
 9892SOL     OW42148   4.607   7.089   5.481
 9892SOL    HW142149   4.614   7.026   5.558
 9892SOL    HW242150   4.608   7.183   5.515
 9893SOL     OW42151   1.514   1.993   3.707
 9893SOL    HW142152   1.558   1.904   3.701
 9893SOL    HW242153   1.548   2.043   3.787
 9894SOL     OW42154   2.311   7.162   7.288
 9894SOL    HW142155   2.238   7.192   7.226
 9894SOL    HW242156   2.349   7.242   7.335
 9895SOL     OW42157   4.752   0.144   2.171
 9895SOL    HW142158   4.705   0.108   2.251
 9895SOL    HW242159   4.700   0.122   2.089
 9896SOL     OW42160   3.136   1.754   0.574
 9896SOL    HW142161   3.184   1.669   0.594
 9896SOL    HW242162   3.094   1.790   0.657
 9897SOL     OW42163   2.571   1.262   0.983
 9897SOL    HW142164   2.643   1.330   0.967
 9897SOL    HW242165   2.490   1.308   1.020
 9898SOL     OW42166   1.957   3.512   6.891
 9898SOL    HW142167   1.993   3.441   6.952
 9898SOL    HW242168   1.891   3.472   6.828
 9899SOL     OW42169   5.339   1.845   4.488
 9899SOL    HW142170   5.372   1.849   4.583
 9899SOL    HW242171   5.249   1.803   4.486
 9900SOL     OW42172   2.556   2.781   1.024
 9900SOL    HW142173   2.564   2.795   0.925
 9900SOL    HW242174   2.506   2.857   1.065
 9901SOL     OW42175   4.855   2.773   5.258
 9901SOL    HW142176   4.815   2.773   5.166
 9901SOL    HW242177   4.789   2.735   5.323
 9902SOL     OW42178   3.187   2.389   6.479
 9902SOL    HW142179   3.236   2.429   6.401
 9902SOL    HW242180   3.170   2.292   6.462
 9903SOL     OW42181   4.413   4.714   5.489
 9903SOL    HW142182   4.460   4.786   5.540
 9903SOL    HW242183   4.474   4.676   5.420
 9904SOL     OW42184   6.440   5.438   4.523
 9904SOL    HW142185   6.398   5.527   4.506
 9904SOL    HW242186   6.387   5.389   4.592
 9905SOL     OW42187   3.696   0.681   5.232
 9905SOL    HW142188   3.656   0.748   5.169
 9905SOL    HW242189   3.716   0.725   5.319
 9906SOL     OW42190   1.199   2.935   1.064
 9906SOL    HW142191   1.249   3.000   1.121
 9906SOL    HW242192   1.248   2.848   1.061
 9907SOL     OW42193   6.310   6.247   2.471
 9907SOL    HW142194   6.264   6.328   2.507
 9907SOL    HW242195   6.331   6.260   2.375
 9908SOL     OW42196   7.156   0.186   5.155
 9908SOL    HW142197   7.205   0.101   5.138
 9908SOL    HW242198   7.124   0.187   5.250
 9909SOL     OW42199   3.171   3.769   6.224
 9909SOL    HW142200   3.136   3.862   6.228
 9909SOL    HW242201   3.185   3.734   6.317
 9910SOL     OW42202   2.234   2.894   0.836
 9910SOL    HW142203   2.206   2.861   0.927
 9910SOL    HW242204   2.155   2.894   0.775
 9911SOL     OW42205   2.883   1.920   0.438
 9911SOL    HW142206   2.916   1.979   0.511
 9911SOL    HW242207   2.918   1.952   0.350
 9912SOL     OW42208   3.561   5.822   6.854
 9912SOL    HW142209   3.605   5.771   6.780
 9912SOL    HW242210   3.618   5.817   6.936
 9913SOL     OW42211   2.421   7.159   4.816
 9913SOL    HW142212   2.399   7.122   4.907
 9913SOL    HW242213   2.457   7.251   4.826
 9914SOL     OW42214   2.080   2.302   1.952
 9914SOL    HW142215   2.025   2.329   2.031
 9914SOL    HW242216   2.122   2.383   1.912
 9915SOL     OW42217   3.510   4.781   6.500
 9915SOL    HW142218   3.598   4.735   6.499
 9915SOL    HW242219   3.524   4.880   6.507
 9916SOL     OW42220   4.251   2.606   5.447
 9916SOL    HW142221   4.273   2.577   5.540
 9916SOL    HW242222   4.248   2.706   5.444
 9917SOL     OW42223   1.310   7.131   0.969
 9917SOL    HW142224   1.329   7.225   0.997
 9917SOL    HW242225   1.370   7.069   1.020
 9918SOL     OW42226   4.390   5.838   1.924
 9918SOL    HW142227   4.364   5.784   2.003
 9918SOL    HW242228   4.312   5.848   1.863
 9919SOL     OW42229   3.591   5.156   1.626
 9919SOL    HW142230   3.632   5.101   1.554
 9919SOL    HW242231   3.583   5.101   1.709
 9920SOL     OW42232   3.294   5.651   5.456
 9920SOL    HW142233   3.363   5.713   5.491
 9920SOL    HW242234   3.222   5.639   5.524
 9921SOL     OW42235   6.435   6.397   3.236
 9921SOL    HW142236   6.524   6.443   3.231
 9921SOL    HW242237   6.384   6.432   3.315
 9922SOL     OW42238   4.665   6.818   0.946
 9922SOL    HW142239   4.697   6.882   1.016
 9922SOL    HW242240   4.622   6.869   0.871
 9923SOL     OW42241   3.570   5.112   1.215
 9923SOL    HW142242   3.568   5.124   1.116
 9923SOL    HW242243   3.646   5.054   1.241
 9924SOL     OW42244   5.404   2.948   6.778
 9924SOL    HW142245   5.308   2.932   6.799
 9924SOL    HW242246   5.462   2.897   6.842
 9925SOL     OW42247   2.621   4.333   1.271
 9925SOL    HW142248   2.585   4.246   1.238
 9925SOL    HW242249   2.696   4.363   1.213
 9926SOL     OW42250   1.499   5.558   0.193
 9926SOL    HW142251   1.404   5.558   0.160
 9926SOL    HW242252   1.524   5.650   0.222
 9927SOL     OW42253   1.753   2.009   4.289
 9927SOL    HW142254   1.787   2.093   4.331
 9927SOL    HW242255   1.820   1.936   4.302
 9928SOL     OW42256   3.742   5.076   3.837
 9928SOL    HW142257   3.659   5.026   3.861
 9928SOL    HW242258   3.748   5.158   3.893
 9929SOL     OW42259   6.118   6.542   1.507
 9929SOL    HW142260   6.110   6.443   1.491
 9929SOL    HW242261   6.033   6.587   1.480
 9930SOL     OW42262   1.875   6.802   7.190
 9930SOL    HW142263   1.901   6.738   7.118
 9930SOL    HW242264   1.833   6.883   7.149
 9931SOL     OW42265   7.130   2.810   2.538
 9931SOL    HW142266   7.172   2.788   2.627
 9931SOL    HW242267   7.154   2.739   2.471
 9932SOL     OW42268   7.258   3.631   5.601
 9932SOL    HW142269   7.250   3.608   5.698
 9932SOL    HW242270   7.169   3.660   5.566
 9933SOL     OW42271   3.959   5.068   3.671
 9933SOL    HW142272   3.956   4.977   3.632
 9933SOL    HW242273   3.891   5.075   3.745
 9934SOL     OW42274   0.453   6.056   1.187
 9934SOL    HW142275   0.395   6.132   1.158
 9934SOL    HW242276   0.409   6.008   1.263
 9935SOL     OW42277   3.852   3.092   3.400
 9935SOL    HW142278   3.864   3.028   3.476
 9935SOL    HW242279   3.757   3.089   3.368
 9936SOL     OW42280   0.848   5.137   7.304
 9936SOL    HW142281   0.807   5.137   7.213
 9936SOL    HW242282   0.886   5.227   7.324
 9937SOL     OW42283   4.841   1.257   0.314
 9937SOL    HW142284   4.791   1.318   0.376
 9937SOL    HW242285   4.823   1.162   0.340
 9938SOL     OW42286   0.522   5.834   7.229
 9938SOL    HW142287   0.566   5.903   7.286
 9938SOL    HW242288   0.560   5.838   7.136
 9939SOL     OW42289   1.922   3.780   0.447
 9939SOL    HW142290   1.962   3.696   0.483
 9939SOL    HW242291   1.978   3.858   0.476
 9940SOL     OW42292   3.476   7.357   5.120
 9940SOL    HW142293   3.472   7.282   5.054
 9940SOL    HW242294   3.388   7.365   5.167
 9941SOL     OW42295   5.416   3.284   5.875
 9941SOL    HW142296   5.373   3.362   5.829
 9941SOL    HW242297   5.389   3.200   5.829
 9942SOL     OW42298   1.092   0.821   6.048
 9942SOL    HW142299   1.186   0.856   6.050
 9942SOL    HW242300   1.061   0.817   5.953
 9943SOL     OW42301   5.391   0.751   5.281
 9943SOL    HW142302   5.365   0.695   5.359
 9943SOL    HW242303   5.361   0.706   5.196
 9944SOL     OW42304   0.816   1.954   1.517
 9944SOL    HW142305   0.820   1.974   1.419
 9944SOL    HW242306   0.789   2.037   1.566
 9945SOL     OW42307   4.538   2.098   7.032
 9945SOL    HW142308   4.443   2.066   7.023
 9945SOL    HW242309   4.539   2.188   7.076
 9946SOL     OW42310   5.317   3.020   5.780
 9946SOL    HW142311   5.245   3.050   5.717
 9946SOL    HW242312   5.282   3.021   5.874
 9947SOL     OW42313   2.120   1.003   1.752
 9947SOL    HW142314   2.050   1.062   1.792
 9947SOL    HW242315   2.090   0.971   1.662
 9948SOL     OW42316   4.038   0.204   4.758
 9948SOL    HW142317   4.001   0.152   4.835
 9948SOL    HW242318   3.968   0.265   4.721
 9949SOL     OW42319   6.799   5.546   5.905
 9949SOL    HW142320   6.754   5.551   5.816
 9949SOL    HW242321   6.828   5.452   5.923
 9950SOL     OW42322   4.490   1.553   0.730
 9950SOL    HW142323   4.443   1.524   0.814
 9950SOL    HW242324   4.430   1.539   0.652
 9951SOL     OW42325   2.561   3.261   5.310
 9951SOL    HW142326   2.634   3.214   5.262
 9951SOL    HW242327   2.487   3.282   5.247
 9952SOL     OW42328   4.129   5.814   2.978
 9952SOL    HW142329   4.210   5.855   3.019
 9952SOL    HW242330   4.156   5.743   2.913
 9953SOL     OW42331   5.237   2.391   4.208
 9953SOL    HW142332   5.318   2.368   4.153
 9953SOL    HW242333   5.173   2.444   4.152
 9954SOL     OW42334   5.160   2.026   2.551
 9954SOL    HW142335   5.217   1.964   2.605
 9954SOL    HW242336   5.064   2.010   2.573
 9955SOL     OW42337   2.684   1.969   7.292
 9955SOL    HW142338   2.665   1.886   7.345
 9955SOL    HW242339   2.655   2.049   7.345
 9956SOL     OW42340   6.832   1.434   4.436
 9956SOL    HW142341   6.922   1.468   4.464
 9956SOL    HW242342   6.835   1.407   4.340
 9957SOL     OW42343   6.489   6.659   5.844
 9957SOL    HW142344   6.506   6.754   5.818
 9957SOL    HW242345   6.409   6.655   5.904
 9958SOL     OW42346   0.749   6.301   4.019
 9958SOL    HW142347   0.716   6.384   3.975
 9958SOL    HW242348   0.774   6.322   4.114
 9959SOL     OW42349   6.322   7.125   0.336
 9959SOL    HW142350   6.388   7.196   0.309
 9959SOL    HW242351   6.359   7.035   0.313
 9960SOL     OW42352   4.027   6.012   0.722
 9960SOL    HW142353   3.997   5.980   0.812
 9960SOL    HW242354   4.084   6.093   0.732
 9961SOL     OW42355   2.526   2.899   6.824
 9961SOL    HW142356   2.571   2.907   6.913
 9961SOL    HW242357   2.433   2.936   6.831
 9962SOL     OW42358   2.186   0.107   2.267
 9962SOL    HW142359   2.141   0.128   2.354
 9962SOL    HW242360   2.239   0.186   2.237
 9963SOL     OW42361   3.138   6.160   5.060
 9963SOL    HW142362   3.158   6.064   5.078
 9963SOL    HW242363   3.051   6.184   5.104
 9964SOL     OW42364   4.279   5.457   5.631
 9964SOL    HW142365   4.348   5.528   5.646
 9964SOL    HW242366   4.269   5.401   5.713
 9965SOL     OW42367   6.909   3.624   7.250
 9965SOL    HW142368   6.859   3.548   7.290
 9965SOL    HW242369   6.849   3.675   7.189
 9966SOL     OW42370   5.167   3.881   4.214
 9966SOL    HW142371   5.099   3.807   4.221
 9966SOL    HW242372   5.127   3.958   4.164
 9967SOL     OW42373   5.988   0.632   5.246
 9967SOL    HW142374   6.059   0.661   5.182
 9967SOL    HW242375   5.936   0.712   5.277
 9968SOL     OW42376   1.548   7.164   5.898
 9968SOL    HW142377   1.567   7.236   5.965
 9968SOL    HW242378   1.632   7.113   5.880
 9969SOL     OW42379   0.694   7.320   5.183
 9969SOL    HW142380   0.718   7.417   5.181
 9969SOL    HW242381   0.601   7.310   5.220
 9970SOL     OW42382   2.014   3.994   6.371
 9970SOL    HW142383   1.993   3.947   6.457
 9970SOL    HW242384   1.974   3.943   6.294
 9971SOL     OW42385   0.823   4.218   5.170
 9971SOL    HW142386   0.860   4.309   5.191
 9971SOL    HW242387   0.724   4.224   5.157
 9972SOL     OW42388   4.174   3.302   2.216
 9972SOL    HW142389   4.116   3.224   2.193
 9972SOL    HW242390   4.207   3.293   2.309
 9973SOL     OW42391   3.788   2.715   3.784
 9973SOL    HW142392   3.854   2.644   3.807
 9973SOL    HW242393   3.756   2.760   3.867
 9974SOL     OW42394   2.463   5.307   7.253
 9974SOL    HW142395   2.445   5.308   7.352
 9974SOL    HW242396   2.415   5.230   7.211
 9975SOL     OW42397   2.386   5.174   1.702
 9975SOL    HW142398   2.441   5.091   1.691
 9975SOL    HW242399   2.430   5.235   1.768
 9976SOL     OW42400   5.523   4.576   4.159
 9976SOL    HW142401   5.444   4.553   4.102
 9976SOL    HW242402   5.603   4.590   4.100
 9977SOL     OW42403   3.737   6.063   1.066
 9977SOL    HW142404   3.675   6.127   1.021
 9977SOL    HW242405   3.685   6.003   1.127
 9978SOL     OW42406   2.868   7.243   1.538
 9978SOL    HW142407   2.864   7.241   1.638
 9978SOL    HW242408   2.776   7.254   1.501
 9979SOL     OW42409   0.010   3.947   3.320
 9979SOL    HW142410   8.989   3.852   3.345
 9979SOL    HW242411   8.961   3.970   3.235
 9980SOL     OW42412   0.145   3.904   0.180
 9980SOL    HW142413   0.073   3.973   0.179
 9980SOL    HW242414   0.203   3.915   0.099
 9981SOL     OW42415   2.411   2.123   1.746
 9981SOL    HW142416   2.360   2.054   1.695
 9981SOL    HW242417   2.446   2.083   1.831
 9982SOL     OW42418   3.515   6.782   0.806
 9982SOL    HW142419   3.555   6.814   0.892
 9982SOL    HW242420   3.587   6.760   0.741
 9983SOL     OW42421   4.831   1.589   6.051
 9983SOL    HW142422   4.892   1.599   6.130
 9983SOL    HW242423   4.742   1.627   6.074
 9984SOL     OW42424   2.798   3.315   1.291
 9984SOL    HW142425   2.841   3.350   1.374
 9984SOL    HW242426   2.714   3.365   1.273
 9985SOL     OW42427   6.596   5.342   1.074
 9985SOL    HW142428   6.549   5.389   1.148
 9985SOL    HW242429   6.600   5.244   1.094
 9986SOL     OW42430   1.258   3.387   7.047
 9986SOL    HW142431   1.197   3.311   7.069
 9986SOL    HW242432   1.222   3.437   6.969
 9987SOL     OW42433   5.438   6.437   2.894
 9987SOL    HW142434   5.401   6.351   2.930
 9987SOL    HW242435   5.406   6.450   2.801
 9988SOL     OW42436   5.537   7.247   0.111
 9988SOL    HW142437   5.545   7.346   0.103
 9988SOL    HW242438   5.586   7.203   0.036
 9989SOL     OW42439   4.288   6.558   0.013
 9989SOL    HW142440   4.312   6.560   8.915
 9989SOL    HW242441   4.274   6.651   0.045
 9990SOL     OW42442   1.895   2.773   0.791
 9990SOL    HW142443   1.940   2.698   0.743
 9990SOL    HW242444   1.841   2.827   0.727
 9991SOL     OW42445   4.027   3.340   5.590
 9991SOL    HW142446   4.007   3.404   5.665
 9991SOL    HW242447   3.977   3.255   5.605
 9992SOL     OW42448   3.746   0.728   2.156
 9992SOL    HW142449   3.742   0.630   2.139
 9992SOL    HW242450   3.756   0.776   2.068
 9993SOL     OW42451   5.200   5.715   2.390
 9993SOL    HW142452   5.228   5.644   2.455
 9993SOL    HW242453   5.183   5.800   2.439
 9994SOL     OW42454   4.457   1.245   2.279
 9994SOL    HW142455   4.363   1.258   2.249
 9994SOL    HW242456   4.508   1.193   2.211
 9995SOL     OW42457   1.636   5.155   2.933
 9995SOL    HW142458   1.703   5.169   3.006
 9995SOL    HW242459   1.614   5.243   2.891
 9996SOL     OW42460   3.867   1.420   5.332
 9996SOL    HW142461   3.865   1.351   5.404
 9996SOL    HW242462   3.939   1.487   5.352
 9997SOL     OW42463   3.076   2.172   0.095
 9997SOL    HW142464   3.021   2.089   0.104
 9997SOL    HW242465   3.147   2.173   0.165
 9998SOL     OW42466   4.044   5.476   3.318
 9998SOL    HW142467   4.020   5.553   3.259
 9998SOL    HW242468   4.057   5.394   3.262
 9999SOL     OW42469   6.738   0.920   2.793
 9999SOL    HW142470   6.834   0.923   2.820
 9999SOL    HW242471   6.711   1.009   2.755
10000SOL     OW42472   5.102   7.230   1.130
10000SOL    HW142473   5.189   7.276   1.145
10000SOL    HW242474   5.116   7.148   1.074
10001SOL     OW42475   3.111   7.331   0.837
10001SOL    HW142476   3.135   7.239   0.807
10001SOL    HW242477   3.054   7.326   0.919
10002SOL     OW42478   0.551   0.971   2.372
10002SOL    HW142479   0.650   0.981   2.372
10002SOL    HW242480   0.518   0.972   2.277
10003SOL     OW42481   0.064   4.866   6.191
10003SOL    HW142482   0.087   4.945   6.135
10003SOL    HW242483   8.970   4.875   6.224
10004SOL     OW42484   4.110   1.995   5.552
10004SOL    HW142485   4.142   1.902   5.570
10004SOL    HW242486   4.012   1.993   5.529
10005SOL     OW42487   3.096   4.349   2.543
10005SOL    HW142488   3.001   4.357   2.513
10005SOL    HW242489   3.154   4.328   2.465
10006SOL     OW42490   1.729   1.862   7.318
10006SOL    HW142491   1.794   1.786   7.324
10006SOL    HW242492   1.769   1.943   7.360
10007SOL     OW42493   5.726   1.657   6.742
10007SOL    HW142494   5.640   1.625   6.701
10007SOL    HW242495   5.791   1.677   6.669
10008SOL     OW42496   5.809   2.549   4.137
10008SOL    HW142497   5.875   2.536   4.062
10008SOL    HW242498   5.722   2.580   4.100
10009SOL     OW42499   3.989   3.798   2.342
10009SOL    HW142500   4.053   3.733   2.301
10009SOL    HW242501   3.905   3.750   2.368
10010SOL     OW42502   1.571   3.952   0.163
10010SOL    HW142503   1.662   3.923   0.192
10010SOL    HW242504   1.511   3.872   0.159
10011SOL     OW42505   4.627   2.695   1.777
10011SOL    HW142506   4.593   2.783   1.809
10011SOL    HW242507   4.652   2.701   1.680
10012SOL     OW42508   3.556   2.925   6.149
10012SOL    HW142509   3.639   2.981   6.155
10012SOL    HW242510   3.521   2.928   6.055
10013SOL     OW42511   6.539   3.048   3.955
10013SOL    HW142512   6.569   3.120   4.018
10013SOL    HW242513   6.449   3.071   3.918
10014SOL     OW42514   5.587   2.819   6.948
10014SOL    HW142515   5.620   2.741   7.001
10014SOL    HW242516   5.628   2.903   6.982
10015SOL     OW42517   6.957   7.360   2.667
10015SOL    HW142518   6.873   7.306   2.664
10015SOL    HW242519   7.002   7.347   2.755
10016SOL     OW42520   0.991   2.864   0.667
10016SOL    HW142521   0.893   2.866   0.686
10016SOL    HW242522   1.010   2.908   0.579
10017SOL     OW42523   0.631   1.237   2.871
10017SOL    HW142524   0.666   1.155   2.826
10017SOL    HW242525   0.668   1.318   2.826
10018SOL     OW42526   4.083   5.245   3.174
10018SOL    HW142527   4.105   5.154   3.209
10018SOL    HW242528   3.996   5.241   3.124
10019SOL     OW42529   5.353   4.185   7.113
10019SOL    HW142530   5.378   4.164   7.019
10019SOL    HW242531   5.255   4.205   7.118
10020SOL     OW42532   1.635   0.652   6.299
10020SOL    HW142533   1.619   0.578   6.364
10020SOL    HW242534   1.559   0.657   6.235
10021SOL     OW42535   5.469   3.924   3.862
10021SOL    HW142536   5.454   3.835   3.906
10021SOL    HW242537   5.445   3.917   3.765
10022SOL     OW42538   4.723   6.664   2.909
10022SOL    HW142539   4.641   6.709   2.873
10022SOL    HW242540   4.767   6.612   2.836
10023SOL     OW42541   3.619   0.628   1.391
10023SOL    HW142542   3.675   0.549   1.364
10023SOL    HW242543   3.620   0.696   1.318
10024SOL     OW42544   3.834   7.014   4.641
10024SOL    HW142545   3.877   6.932   4.603
10024SOL    HW242546   3.823   7.082   4.568
10025SOL     OW42547   5.278   5.476   2.518
10025SOL    HW142548   5.239   5.393   2.476
10025SOL    HW242549   5.276   5.466   2.617
10026SOL     OW42550   5.838   2.066   3.707
10026SOL    HW142551   5.864   2.076   3.803
10026SOL    HW242552   5.776   2.140   3.681
10027SOL     OW42553   2.450   3.255   0.494
10027SOL    HW142554   2.520   3.201   0.541
10027SOL    HW242555   2.424   3.209   0.409
10028SOL     OW42556   2.233   4.047   2.919
10028SOL    HW142557   2.141   4.011   2.934
10028SOL    HW242558   2.289   4.032   3.000
10029SOL     OW42559   3.793   6.092   6.071
10029SOL    HW142560   3.776   6.085   5.973
10029SOL    HW242561   3.890   6.073   6.089
10030SOL     OW42562   4.667   0.679   1.161
10030SOL    HW142563   4.637   0.760   1.111
10030SOL    HW242564   4.660   0.599   1.103
10031SOL     OW42565   3.442   4.488   2.377
10031SOL    HW142566   3.466   4.562   2.439
10031SOL    HW242567   3.522   4.463   2.322
10032SOL     OW42568   3.371   2.642   4.537
10032SOL    HW142569   3.464   2.612   4.560
10032SOL    HW242570   3.375   2.724   4.480
10033SOL     OW42571   2.177   3.320   7.291
10033SOL    HW142572   2.270   3.356   7.288
10033SOL    HW242573   2.173   3.243   7.355
10034SOL     OW42574   2.888   5.783   3.245
10034SOL    HW142575   2.794   5.748   3.246
10034SOL    HW242576   2.887   5.880   3.221
10035SOL     OW42577   5.426   0.965   1.877
10035SOL    HW142578   5.382   0.918   1.954
10035SOL    HW242579   5.357   1.000   1.815
10036SOL     OW42580   4.849   5.630   3.603
10036SOL    HW142581   4.868   5.707   3.665
10036SOL    HW242582   4.847   5.545   3.656
10037SOL     OW42583   0.524   6.834   5.451
10037SOL    HW142584   0.624   6.836   5.457
10037SOL    HW242585   0.489   6.927   5.439
10038SOL     OW42586   5.898   0.445   3.080
10038SOL    HW142587   5.837   0.367   3.095
10038SOL    HW242588   5.985   0.428   3.126
10039SOL     OW42589   1.471   4.930   7.160
10039SOL    HW142590   1.425   5.000   7.216
10039SOL    HW242591   1.486   4.966   7.068
10040SOL     OW42592   1.502   2.956   0.610
10040SOL    HW142593   1.471   3.028   0.673
10040SOL    HW242594   1.602   2.950   0.613
10041SOL     OW42595   1.897   4.633   1.757
10041SOL    HW142596   1.881   4.709   1.820
10041SOL    HW242597   1.990   4.598   1.771
10042SOL     OW42598   6.574   6.641   0.286
10042SOL    HW142599   6.543   6.567   0.346
10042SOL    HW242600   6.553   6.617   0.191
10043SOL     OW42601   2.953   5.476   2.797
10043SOL    HW142602   2.876   5.491   2.735
10043SOL    HW242603   2.958   5.549   2.864
10044SOL     OW42604   0.312   0.224   2.993
10044SOL    HW142605   0.318   0.154   3.063
10044SOL    HW242606   0.353   0.309   3.027
10045SOL     OW42607   3.340   5.230   1.303
10045SOL    HW142608   3.426   5.188   1.275
10045SOL    HW242609   3.350   5.269   1.395
10046SOL     OW42610   0.888   0.910   4.676
10046SOL    HW142611   0.939   0.826   4.654
10046SOL    HW242612   0.944   0.989   4.651
10047SOL     OW42613   1.801   5.506   3.497
10047SOL    HW142614   1.801   5.558   3.411
10047SOL    HW242615   1.789   5.568   3.574
10048SOL     OW42616   0.250   6.441   2.732
10048SOL    HW142617   0.232   6.386   2.813
10048SOL    HW242618   0.196   6.524   2.735
10049SOL     OW42619   5.556   7.152   0.373
10049SOL    HW142620   5.550   7.189   0.280
10049SOL    HW242621   5.616   7.072   0.373
10050SOL     OW42622   5.283   6.807   4.774
10050SOL    HW142623   5.345   6.813   4.852
10050SOL    HW242624   5.254   6.712   4.762
10051SOL     OW42625   0.109   1.473   0.211
10051SOL    HW142626   0.050   1.401   0.249
10051SOL    HW242627   0.203   1.457   0.241
10052SOL     OW42628   2.014   0.518   0.283
10052SOL    HW142629   1.932   0.562   0.248
10052SOL    HW242630   2.003   0.497   0.380
10053SOL     OW42631   2.418   3.090   0.269
10053SOL    HW142632   2.431   2.993   0.293
10053SOL    HW242633   2.332   3.100   0.220
10054SOL     OW42634   5.576   6.029   5.202
10054SOL    HW142635   5.669   6.002   5.179
10054SOL    HW242636   5.572   6.127   5.219
10055SOL     OW42637   1.841   2.264   5.674
10055SOL    HW142638   1.885   2.348   5.643
10055SOL    HW242639   1.746   2.262   5.642
10056SOL     OW42640   1.937   4.806   3.338
10056SOL    HW142641   1.939   4.728   3.400
10056SOL    HW242642   1.972   4.887   3.386
10057SOL     OW42643   5.097   5.374   1.240
10057SOL    HW142644   5.089   5.445   1.309
10057SOL    HW242645   5.069   5.410   1.151
10058SOL     OW42646   7.306   4.017   6.755
10058SOL    HW142647   7.308   4.064   6.843
10058SOL    HW242648   7.349   4.075   6.686
10059SOL     OW42649   4.901   4.567   5.630
10059SOL    HW142650   4.937   4.536   5.718
10059SOL    HW242651   4.976   4.575   5.564
10060SOL     OW42652   6.107   4.268   2.310
10060SOL    HW142653   6.098   4.295   2.215
10060SOL    HW242654   6.126   4.170   2.315
10061SOL     OW42655   0.526   6.409   6.959
10061SOL    HW142656   0.523   6.313   6.929
10061SOL    HW242657   0.592   6.459   6.903
10062SOL     OW42658   5.639   4.502   4.646
10062SOL    HW142659   5.594   4.590   4.629
10062SOL    HW242660   5.642   4.485   4.744
10063SOL     OW42661   5.187   5.227   2.431
10063SOL    HW142662   5.220   5.137   2.402
10063SOL    HW242663   5.148   5.220   2.522
10064SOL     OW42664   7.287   0.219   1.590
10064SOL    HW142665   7.370   0.238   1.538
10064SOL    HW242666   7.211   0.203   1.528
10065SOL     OW42667   6.153   1.468   3.417
10065SOL    HW142668   6.056   1.492   3.405
10065SOL    HW242669   6.199   1.542   3.466
10066SOL     OW42670   5.644   4.502   1.603
10066SOL    HW142671   5.641   4.405   1.577
10066SOL    HW242672   5.648   4.509   1.703
10067SOL     OW42673   7.007   4.474   2.849
10067SOL    HW142674   6.907   4.464   2.852
10067SOL    HW242675   7.041   4.440   2.762
10068SOL     OW42676   6.351   6.900   3.627
10068SOL    HW142677   6.352   6.802   3.607
10068SOL    HW242678   6.355   6.951   3.541
10069SOL     OW42679   1.833   6.292   6.573
10069SOL    HW142680   1.918   6.242   6.557
10069SOL    HW242681   1.845   6.353   6.651
10070SOL     OW42682   0.143   0.180   2.477
10070SOL    HW142683   0.181   0.207   2.566
10070SOL    HW242684   0.126   0.082   2.476
10071SOL     OW42685   7.089   0.080   4.726
10071SOL    HW142686   7.184   0.071   4.757
10071SOL    HW242687   7.035   0.123   4.798
10072SOL     OW42688   2.936   2.685   2.599
10072SOL    HW142689   2.837   2.691   2.589
10072SOL    HW242690   2.959   2.605   2.654
10073SOL     OW42691   3.361   1.108   1.136
10073SOL    HW142692   3.430   1.151   1.078
10073SOL    HW242693   3.356   1.156   1.224
10074SOL     OW42694   3.304   5.787   4.381
10074SOL    HW142695   3.330   5.799   4.285
10074SOL    HW242696   3.205   5.774   4.387
10075SOL     OW42697   6.569   3.178   4.899
10075SOL    HW142698   6.582   3.267   4.853
10075SOL    HW242699   6.657   3.148   4.937
10076SOL     OW42700   4.982   4.106   2.549
10076SOL    HW142701   4.929   4.022   2.536
10076SOL    HW242702   5.012   4.141   2.461
10077SOL     OW42703   2.097   6.833   3.821
10077SOL    HW142704   2.041   6.769   3.874
10077SOL    HW242705   2.129   6.907   3.880
10078SOL     OW42706   1.898   1.493   1.316
10078SOL    HW142707   1.816   1.483   1.260
10078SOL    HW242708   1.875   1.539   1.402
10079SOL     OW42709   4.067   5.037   0.512
10079SOL    HW142710   3.973   5.025   0.543
10079SOL    HW242711   4.120   4.955   0.533
10080SOL     OW42712   5.720   3.318   1.218
10080SOL    HW142713   5.652   3.276   1.278
10080SOL    HW242714   5.673   3.366   1.144
10081SOL     OW42715   4.085   3.074   5.844
10081SOL    HW142716   4.088   3.162   5.891
10081SOL    HW242717   4.020   3.079   5.768
10082SOL     OW42718   0.554   2.702   0.852
10082SOL    HW142719   0.569   2.608   0.883
10082SOL    HW242720   0.506   2.701   0.764
10083SOL     OW42721   5.317   5.580   5.786
10083SOL    HW142722   5.370   5.495   5.789
10083SOL    HW242723   5.374   5.655   5.821
10084SOL     OW42724   5.835   0.937   6.101
10084SOL    HW142725   5.932   0.959   6.090
10084SOL    HW242726   5.825   0.872   6.176
10085SOL     OW42727   1.955   3.017   0.314
10085SOL    HW142728   1.887   3.089   0.318
10085SOL    HW242729   1.909   2.928   0.315
10086SOL     OW42730   4.836   2.745   3.595
10086SOL    HW142731   4.832   2.787   3.686
10086SOL    HW242732   4.901   2.669   3.597
10087SOL     OW42733   5.594   3.476   4.652
10087SOL    HW142734   5.572   3.421   4.571
10087SOL    HW242735   5.667   3.431   4.703
10088SOL     OW42736   5.023   5.825   0.772
10088SOL    HW142737   5.111   5.778   0.764
10088SOL    HW242738   4.982   5.804   0.861
10089SOL     OW42739   0.123   3.751   2.389
10089SOL    HW142740   0.193   3.772   2.322
10089SOL    HW242741   0.043   3.711   2.344
10090SOL     OW42742   6.599   6.063   4.364
10090SOL    HW142743   6.561   6.149   4.328
10090SOL    HW242744   6.695   6.057   4.340
10091SOL     OW42745   2.323   5.783   4.658
10091SOL    HW142746   2.307   5.873   4.698
10091SOL    HW242747   2.416   5.753   4.682
10092SOL     OW42748   1.632   6.808   1.293
10092SOL    HW142749   1.553   6.807   1.356
10092SOL    HW242750   1.669   6.716   1.285
10093SOL     OW42751   2.369   0.484   5.904
10093SOL    HW142752   2.371   0.554   5.833
10093SOL    HW242753   2.280   0.485   5.949
10094SOL     OW42754   4.857   2.022   0.076
10094SOL    HW142755   4.940   1.974   0.048
10094SOL    HW242756   4.880   2.114   0.107
10095SOL     OW42757   5.882   1.037   1.979
10095SOL    HW142758   5.802   1.045   1.920
10095SOL    HW242759   5.955   1.097   1.946
10096SOL     OW42760   1.953   7.089   6.276
10096SOL    HW142761   1.857   7.063   6.277
10096SOL    HW242762   1.973   7.147   6.355
10097SOL     OW42763   2.581   5.699   4.711
10097SOL    HW142764   2.639   5.702   4.792
10097SOL    HW242765   2.621   5.638   4.643
10098SOL     OW42766   4.686   1.177   6.214
10098SOL    HW142767   4.615   1.108   6.224
10098SOL    HW242768   4.726   1.170   6.122
10099SOL     OW42769   3.958   4.802   5.857
10099SOL    HW142770   3.923   4.762   5.773
10099SOL    HW242771   4.058   4.809   5.852
10100SOL     OW42772   7.034   2.349   4.148
10100SOL    HW142773   7.102   2.349   4.221
10100SOL    HW242774   6.942   2.349   4.187
10101SOL     OW42775   6.251   0.346   0.541
10101SOL    HW142776   6.226   0.277   0.610
10101SOL    HW242777   6.174   0.360   0.479
10102SOL     OW42778   5.690   7.047   1.432
10102SOL    HW142779   5.740   7.087   1.509
10102SOL    HW242780   5.753   6.998   1.372
10103SOL     OW42781   2.116   2.831   3.348
10103SOL    HW142782   2.081   2.784   3.429
10103SOL    HW242783   2.109   2.929   3.361
10104SOL     OW42784   3.110   0.276   0.499
10104SOL    HW142785   3.125   0.190   0.548
10104SOL    HW242786   3.160   0.349   0.545
10105SOL     OW42787   6.681   0.733   0.874
10105SOL    HW142788   6.667   0.811   0.814
10105SOL    HW242789   6.639   0.751   0.963
10106SOL     OW42790   0.400   0.480   1.794
10106SOL    HW142791   0.300   0.488   1.790
10106SOL    HW242792   0.426   0.432   1.878
10107SOL     OW42793   2.098   7.266   1.843
10107SOL    HW142794   2.056   7.194   1.899
10107SOL    HW242795   2.087   7.243   1.746
10108SOL     OW42796   7.253   7.328   0.422
10108SOL    HW142797   7.186   7.258   0.396
10108SOL    HW242798   7.242   7.349   0.519
10109SOL     OW42799   1.110   4.268   2.967
10109SOL    HW142800   1.114   4.272   2.867
10109SOL    HW242801   1.189   4.317   3.005
10110SOL     OW42802   4.663   5.009   2.609
10110SOL    HW142803   4.618   5.097   2.624
10110SOL    HW242804   4.630   4.968   2.524
10111SOL     OW42805   4.740   2.270   4.541
10111SOL    HW142806   4.780   2.271   4.449
10111SOL    HW242807   4.813   2.266   4.609
10112SOL     OW42808   6.256   2.812   2.683
10112SOL    HW142809   6.210   2.793   2.770
10112SOL    HW242810   6.283   2.727   2.639
10113SOL     OW42811   1.479   1.570   2.771
10113SOL    HW142812   1.569   1.607   2.745
10113SOL    HW242813   1.489   1.475   2.800
10114SOL     OW42814   5.933   2.891   4.849
10114SOL    HW142815   5.864   2.831   4.808
10114SOL    HW242816   5.897   2.931   4.934
10115SOL     OW42817   5.695   6.413   5.047
10115SOL    HW142818   5.667   6.499   5.005
10115SOL    HW242819   5.675   6.337   4.986
10116SOL     OW42820   1.220   3.201   1.973
10116SOL    HW142821   1.243   3.194   2.070
10116SOL    HW242822   1.264   3.126   1.924
10117SOL     OW42823   2.964   3.406   6.132
10117SOL    HW142824   2.878   3.377   6.089
10117SOL    HW242825   2.947   3.424   6.229
10118SOL     OW42826   1.563   0.275   6.210
10118SOL    HW142827   1.484   0.306   6.157
10118SOL    HW242828   1.585   0.343   6.280
10119SOL     OW42829   2.293   5.519   3.541
10119SOL    HW142830   2.261   5.599   3.490
10119SOL    HW242831   2.392   5.510   3.530
10120SOL     OW42832   2.785   5.962   0.621
10120SOL    HW142833   2.712   6.028   0.637
10120SOL    HW242834   2.817   5.971   0.527
10121SOL     OW42835   1.322   0.406   1.771
10121SOL    HW142836   1.276   0.338   1.828
10121SOL    HW242837   1.355   0.362   1.687
10122SOL     OW42838   6.065   3.629   0.613
10122SOL    HW142839   6.011   3.563   0.560
10122SOL    HW242840   6.084   3.709   0.556
10123SOL     OW42841   0.356   5.611   0.669
10123SOL    HW142842   0.405   5.687   0.627
10123SOL    HW242843   0.259   5.636   0.678
10124SOL     OW42844   0.856   4.146   3.046
10124SOL    HW142845   0.914   4.204   2.989
10124SOL    HW242846   0.905   4.119   3.128
10125SOL     OW42847   2.078   3.601   5.589
10125SOL    HW142848   2.102   3.696   5.609
10125SOL    HW242849   2.000   3.599   5.526
10126SOL     OW42850   6.478   3.338   2.187
10126SOL    HW142851   6.492   3.436   2.168
10126SOL    HW242852   6.538   3.311   2.263
10127SOL     OW42853   2.418   6.208   1.516
10127SOL    HW142854   2.419   6.297   1.562
10127SOL    HW242855   2.458   6.216   1.425
10128SOL     OW42856   6.754   7.290   0.964
10128SOL    HW142857   6.713   7.210   0.920
10128SOL    HW242858   6.746   7.282   1.063
10129SOL     OW42859   0.457   4.349   0.564
10129SOL    HW142860   0.412   4.395   0.640
10129SOL    HW242861   0.539   4.399   0.538
10130SOL     OW42862   6.579   5.784   4.412
10130SOL    HW142863   6.487   5.758   4.440
10130SOL    HW242864   6.585   5.883   4.404
10131SOL     OW42865   1.502   0.702   0.464
10131SOL    HW142866   1.446   0.738   0.539
10131SOL    HW242867   1.587   0.754   0.458
10132SOL     OW42868   6.421   0.775   2.669
10132SOL    HW142869   6.372   0.854   2.707
10132SOL    HW242870   6.493   0.807   2.609
10133SOL     OW42871   1.569   0.935   1.326
10133SOL    HW142872   1.625   1.003   1.375
10133SOL    HW242873   1.481   0.925   1.373
10134SOL     OW42874   3.711   3.515   0.090
10134SOL    HW142875   3.742   3.527   8.995
10134SOL    HW242876   3.654   3.433   0.096
10135SOL     OW42877   3.268   7.283   1.655
10135SOL    HW142878   3.278   7.363   1.714
10135SOL    HW242879   3.268   7.313   1.559
10136SOL     OW42880   4.814   6.956   3.476
10136SOL    HW142881   4.746   6.969   3.548
10136SOL    HW242882   4.812   7.034   3.414
10137SOL     OW42883   1.370   2.526   4.823
10137SOL    HW142884   1.320   2.584   4.759
10137SOL    HW242885   1.469   2.541   4.812
10138SOL     OW42886   1.885   2.758   2.912
10138SOL    HW142887   1.883   2.775   2.813
10138SOL    HW242888   1.810   2.697   2.936
10139SOL     OW42889   5.475   0.609   7.205
10139SOL    HW142890   5.497   0.671   7.281
10139SOL    HW242891   5.386   0.567   7.221
10140SOL     OW42892   3.737   2.461   0.936
10140SOL    HW142893   3.803   2.416   0.875
10140SOL    HW242894   3.661   2.496   0.882
10141SOL     OW42895   7.339   6.882   0.790
10141SOL    HW142896   7.429   6.854   0.823
10141SOL    HW242897   7.334   6.866   0.691
10142SOL     OW42898   5.122   5.377   5.769
10142SOL    HW142899   5.135   5.320   5.850
10142SOL    HW242900   5.178   5.459   5.776
10143SOL     OW42901   1.513   3.407   6.168
10143SOL    HW142902   1.593   3.466   6.161
10143SOL    HW242903   1.528   3.338   6.238
10144SOL     OW42904   1.207   5.708   4.842
10144SOL    HW142905   1.252   5.629   4.883
10144SOL    HW242906   1.110   5.688   4.828
10145SOL     OW42907   2.883   5.088   2.933
10145SOL    HW142908   2.855   5.126   3.021
10145SOL    HW242909   2.807   5.038   2.892
10146SOL     OW42910   0.434   6.866   1.112
10146SOL    HW142911   0.432   6.965   1.121
10146SOL    HW242912   0.443   6.824   1.202
10147SOL     OW42913   2.037   1.561   6.385
10147SOL    HW142914   2.097   1.548   6.464
10147SOL    HW242915   1.944   1.534   6.408
10148SOL     OW42916   1.122   4.269   3.858
10148SOL    HW142917   1.037   4.219   3.876
10148SOL    HW242918   1.105   4.367   3.863
10149SOL     OW42919   1.564   3.177   4.693
10149SOL    HW142920   1.598   3.126   4.614
10149SOL    HW242921   1.618   3.260   4.705
10150SOL     OW42922   4.284   2.045   4.753
10150SOL    HW142923   4.349   2.109   4.794
10150SOL    HW242924   4.305   1.952   4.784
10151SOL     OW42925   0.241   1.098   0.336
10151SOL    HW142926   0.276   1.046   0.259
10151SOL    HW242927   0.292   1.074   0.419
10152SOL     OW42928   0.764   2.109   6.212
10152SOL    HW142929   0.840   2.171   6.192
10152SOL    HW242930   0.779   2.022   6.164
10153SOL     OW42931   4.710   6.031   6.743
10153SOL    HW142932   4.688   6.015   6.839
10153SOL    HW242933   4.680   5.953   6.688
10154SOL     OW42934   4.693   6.856   6.522
10154SOL    HW142935   4.615   6.820   6.471
10154SOL    HW242936   4.669   6.945   6.561
10155SOL     OW42937   5.658   2.804   5.865
10155SOL    HW142938   5.629   2.709   5.877
10155SOL    HW242939   5.693   2.818   5.773
10156SOL     OW42940   3.488   6.967   6.439
10156SOL    HW142941   3.507   7.065   6.449
10156SOL    HW242942   3.568   6.922   6.399
10157SOL     OW42943   3.786   0.291   1.034
10157SOL    HW142944   3.791   0.351   1.114
10157SOL    HW242945   3.696   0.298   0.993
10158SOL     OW42946   2.699   4.728   6.114
10158SOL    HW142947   2.735   4.640   6.083
10158SOL    HW242948   2.775   4.787   6.143
10159SOL     OW42949   5.359   0.538   2.097
10159SOL    HW142950   5.265   0.506   2.106
10159SOL    HW242951   5.411   0.515   2.180
10160SOL     OW42952   7.070   3.863   4.254
10160SOL    HW142953   7.065   3.777   4.204
10160SOL    HW242954   7.139   3.855   4.326
10161SOL     OW42955   0.803   3.945   3.702
10161SOL    HW142956   0.726   4.007   3.691
10161SOL    HW242957   0.774   3.851   3.680
10162SOL     OW42958   1.900   2.781   2.632
10162SOL    HW142959   1.892   2.682   2.643
10162SOL    HW242960   1.927   2.802   2.538
10163SOL     OW42961   5.621   3.805   4.173
10163SOL    HW142962   5.569   3.885   4.203
10163SOL    HW242963   5.563   3.746   4.117
10164SOL     OW42964   5.041   6.266   3.463
10164SOL    HW142965   5.058   6.185   3.408
10164SOL    HW242966   4.949   6.301   3.444
10165SOL     OW42967   3.056   0.729   3.601
10165SOL    HW142968   3.134   0.718   3.539
10165SOL    HW242969   2.991   0.795   3.562
10166SOL     OW42970   5.295   3.314   6.127
10166SOL    HW142971   5.350   3.312   6.043
10166SOL    HW242972   5.285   3.408   6.158
10167SOL     OW42973   2.046   2.313   0.627
10167SOL    HW142974   2.113   2.301   0.553
10167SOL    HW242975   1.974   2.244   0.618
10168SOL     OW42976   0.610   0.762   2.041
10168SOL    HW142977   0.705   0.778   2.070
10168SOL    HW242978   0.557   0.845   2.056
10169SOL     OW42979   0.585   2.693   6.331
10169SOL    HW142980   0.494   2.655   6.311
10169SOL    HW242981   0.629   2.638   6.402
10170SOL     OW42982   6.212   3.529   3.427
10170SOL    HW142983   6.259   3.485   3.350
10170SOL    HW242984   6.166   3.459   3.481
10171SOL     OW42985   1.009   4.882   5.128
10171SOL    HW142986   0.972   4.823   5.200
10171SOL    HW242987   1.108   4.891   5.139
10172SOL     OW42988   2.145   6.225   4.644
10172SOL    HW142989   2.204   6.169   4.703
10172SOL    HW242990   2.141   6.185   4.553
10173SOL     OW42991   5.681   2.407   2.131
10173SOL    HW142992   5.650   2.491   2.085
10173SOL    HW242993   5.725   2.431   2.217
10174SOL     OW42994   2.290   2.371   5.039
10174SOL    HW142995   2.313   2.468   5.036
10174SOL    HW242996   2.258   2.347   5.130
10175SOL     OW42997   2.928   4.170   1.262
10175SOL    HW142998   2.884   4.086   1.232
10175SOL    HW242999   2.891   4.247   1.209
10176SOL     OW43000   6.211   0.462   2.571
10176SOL    HW143001   6.262   0.537   2.529
10176SOL    HW243002   6.241   0.375   2.532
10177SOL     OW43003   1.945   4.544   0.854
10177SOL    HW143004   2.011   4.616   0.875
10177SOL    HW243005   1.858   4.566   0.899
10178SOL     OW43006   3.597   3.066   3.308
10178SOL    HW143007   3.563   2.998   3.373
10178SOL    HW243008   3.593   3.027   3.215
10179SOL     OW43009   0.643   6.377   6.567
10179SOL    HW143010   0.721   6.363   6.628
10179SOL    HW243011   0.558   6.351   6.613
10180SOL     OW43012   6.626   2.563   1.396
10180SOL    HW143013   6.658   2.500   1.466
10180SOL    HW243014   6.548   2.522   1.348
10181SOL     OW43015   0.838   6.592   5.698
10181SOL    HW143016   0.847   6.692   5.701
10181SOL    HW243017   0.929   6.551   5.697
10182SOL     OW43018   2.097   3.068   1.935
10182SOL    HW143019   2.063   2.991   1.881
10182SOL    HW243020   2.023   3.103   1.992
10183SOL     OW43021   2.852   0.935   1.426
10183SOL    HW143022   2.837   1.017   1.481
10183SOL    HW243023   2.934   0.948   1.370
10184SOL     OW43024   6.027   1.775   6.294
10184SOL    HW143025   6.066   1.731   6.214
10184SOL    HW243026   6.100   1.814   6.350
10185SOL     OW43027   6.404   5.083   5.905
10185SOL    HW143028   6.404   4.984   5.891
10185SOL    HW243029   6.377   5.129   5.821
10186SOL     OW43030   0.860   2.467   2.542
10186SOL    HW143031   0.765   2.452   2.572
10186SOL    HW243032   0.863   2.476   2.443
10187SOL     OW43033   5.523   4.447   6.279
10187SOL    HW143034   5.593   4.434   6.209
10187SOL    HW243035   5.514   4.364   6.334
10188SOL     OW43036   4.312   2.257   1.751
10188SOL    HW143037   4.245   2.232   1.821
10188SOL    HW243038   4.357   2.343   1.777
10189SOL     OW43039   0.766   5.151   7.040
10189SOL    HW143040   0.709   5.234   7.046
10189SOL    HW243041   0.727   5.090   6.971
10190SOL     OW43042   5.726   2.031   3.342
10190SOL    HW143043   5.820   2.036   3.377
10190SOL    HW243044   5.724   2.065   3.248
10191SOL     OW43045   0.547   3.272   2.989
10191SOL    HW143046   0.624   3.304   2.933
10191SOL    HW243047   0.533   3.175   2.974
10192SOL     OW43048   6.443   2.394   5.439
10192SOL    HW143049   6.374   2.324   5.419
10192SOL    HW243050   6.461   2.395   5.537
10193SOL     OW43051   5.102   5.645   4.406
10193SOL    HW143052   5.042   5.618   4.482
10193SOL    HW243053   5.187   5.684   4.444
10194SOL     OW43054   3.723   1.088   3.364
10194SOL    HW143055   3.703   0.991   3.358
10194SOL    HW243056   3.638   1.139   3.377
10195SOL     OW43057   3.985   4.831   3.381
10195SOL    HW143058   3.893   4.862   3.403
10195SOL    HW243059   4.020   4.776   3.457
10196SOL     OW43060   3.468   1.711   5.591
10196SOL    HW143061   3.522   1.773   5.649
10196SOL    HW243062   3.529   1.661   5.531
10197SOL     OW43063   0.448   2.388   5.100
10197SOL    HW143064   0.469   2.290   5.096
10197SOL    HW243065   0.493   2.428   5.180
10198SOL     OW43066   7.245   3.201   2.053
10198SOL    HW143067   7.310   3.125   2.058
10198SOL    HW243068   7.204   3.204   1.962
10199SOL     OW43069   2.691   1.025   6.231
10199SOL    HW143070   2.653   1.105   6.278
10199SOL    HW243071   2.713   0.954   6.298
10200SOL     OW43072   6.491   6.551   6.145
10200SOL    HW143073   6.557   6.508   6.083
10200SOL    HW243074   6.406   6.567   6.095
10201SOL     OW43075   5.072   1.096   0.729
10201SOL    HW143076   5.078   1.055   0.638
10201SOL    HW243077   4.982   1.138   0.740
10202SOL     OW43078   0.370   1.968   0.866
10202SOL    HW143079   0.299   1.903   0.839
10202SOL    HW243080   0.460   1.926   0.854
10203SOL     OW43081   0.361   4.980   3.671
10203SOL    HW143082   0.451   5.018   3.695
10203SOL    HW243083   0.371   4.911   3.600
10204SOL     OW43084   0.818   2.733   0.944
10204SOL    HW143085   0.845   2.820   0.984
10204SOL    HW243086   0.721   2.736   0.919
10205SOL     OW43087   5.725   2.795   5.595
10205SOL    HW143088   5.651   2.830   5.537
10205SOL    HW243089   5.809   2.787   5.541
10206SOL     OW43090   6.992   3.250   3.851
10206SOL    HW143091   7.082   3.232   3.811
10206SOL    HW243092   6.921   3.240   3.781
10207SOL     OW43093   6.863   5.701   6.364
10207SOL    HW143094   6.823   5.792   6.375
10207SOL    HW243095   6.944   5.694   6.422
10208SOL     OW43096   6.157   2.595   4.007
10208SOL    HW143097   6.214   2.638   3.937
10208SOL    HW243098   6.071   2.564   3.966
10209SOL     OW43099   1.960   6.314   2.926
10209SOL    HW143100   1.916   6.233   2.889
10209SOL    HW243101   1.898   6.392   2.917
10210SOL     OW43102   3.081   4.757   3.852
10210SOL    HW143103   3.123   4.701   3.923
10210SOL    HW243104   3.149   4.822   3.818
10211SOL     OW43105   4.749   0.770   6.107
10211SOL    HW143106   4.801   0.700   6.155
10211SOL    HW243107   4.651   0.761   6.129
10212SOL     OW43108   3.468   2.353   2.063
10212SOL    HW143109   3.380   2.308   2.075
10212SOL    HW243110   3.517   2.311   1.986
10213SOL     OW43111   6.231   4.108   3.581
10213SOL    HW143112   6.204   4.066   3.668
10213SOL    HW243113   6.186   4.060   3.505
10214SOL     OW43114   6.306   3.551   5.726
10214SOL    HW143115   6.355   3.634   5.753
10214SOL    HW243116   6.290   3.552   5.627
10215SOL     OW43117   2.381   2.993   6.254
10215SOL    HW143118   2.438   3.065   6.214
10215SOL    HW243119   2.374   3.006   6.352
10216SOL     OW43120   5.677   0.162   2.896
10216SOL    HW143121   5.706   0.231   2.830
10216SOL    HW243122   5.701   0.191   2.989
10217SOL     OW43123   3.365   5.772   7.306
10217SOL    HW143124   3.361   5.764   7.206
10217SOL    HW243125   3.454   5.809   7.332
10218SOL     OW43126   4.834   0.185   5.366
10218SOL    HW143127   4.833   0.218   5.272
10218SOL    HW243128   4.803   0.090   5.369
10219SOL     OW43129   7.193   8.951   0.938
10219SOL    HW143130   7.259   0.023   0.918
10219SOL    HW243131   7.118   8.954   0.872
10220SOL     OW43132   3.095   6.587   5.546
10220SOL    HW143133   3.172   6.529   5.570
10220SOL    HW243134   3.024   6.579   5.617
10221SOL     OW43135   2.798   4.003   1.958
10221SOL    HW143136   2.712   3.998   1.908
10221SOL    HW243137   2.826   4.098   1.967
10222SOL     OW43138   6.813   4.579   0.316
10222SOL    HW143139   6.799   4.480   0.322
10222SOL    HW243140   6.726   4.626   0.327
10223SOL     OW43141   5.841   3.672   2.306
10223SOL    HW143142   5.870   3.750   2.360
10223SOL    HW243143   5.789   3.609   2.364
10224SOL     OW43144   0.252   2.190   3.920
10224SOL    HW143145   0.237   2.097   3.887
10224SOL    HW243146   0.223   2.256   3.851
10225SOL     OW43147   5.616   1.100   5.054
10225SOL    HW143148   5.620   1.013   5.103
10225SOL    HW243149   5.628   1.084   4.956
10226SOL     OW43150   2.881   0.900   3.469
10226SOL    HW143151   2.798   0.951   3.489
10226SOL    HW243152   2.953   0.962   3.438
10227SOL     OW43153   3.377   3.169   0.010
10227SOL    HW143154   3.410   3.114   8.933
10227SOL    HW243155   3.280   3.152   0.025
10228SOL     OW43156   3.637   4.643   3.483
10228SOL    HW143157   3.691   4.706   3.539
10228SOL    HW243158   3.693   4.613   3.405
10229SOL     OW43159   4.063   6.671   2.315
10229SOL    HW143160   4.084   6.706   2.224
10229SOL    HW243161   4.016   6.583   2.307
10230SOL     OW43162   6.863   5.413   2.917
10230SOL    HW143163   6.954   5.377   2.937
10230SOL    HW243164   6.850   5.417   2.818
10231SOL     OW43165   4.644   3.610   1.530
10231SOL    HW143166   4.579   3.648   1.595
10231SOL    HW243167   4.633   3.655   1.441
10232SOL     OW43168   2.276   6.577   7.298
10232SOL    HW143169   2.206   6.642   7.328
10232SOL    HW243170   2.363   6.600   7.341
10233SOL     OW43171   1.732   4.757   3.162
10233SOL    HW143172   1.657   4.708   3.207
10233SOL    HW243173   1.804   4.777   3.230
10234SOL     OW43174   2.896   4.279   5.895
10234SOL    HW143175   2.904   4.312   5.989
10234SOL    HW243176   2.867   4.354   5.835
10235SOL     OW43177   5.079   1.107   2.600
10235SOL    HW143178   5.034   1.187   2.560
10235SOL    HW243179   5.172   1.098   2.563
10236SOL     OW43180   2.866   5.001   1.311
10236SOL    HW143181   2.864   4.901   1.304
10236SOL    HW243182   2.852   5.041   1.220
10237SOL     OW43183   2.545   8.954   1.116
10237SOL    HW143184   2.583   8.940   1.024
10237SOL    HW243185   2.484   8.878   1.138
10238SOL     OW43186   6.584   0.426   6.399
10238SOL    HW143187   6.494   0.407   6.439
10238SOL    HW243188   6.649   0.356   6.428
10239SOL     OW43189   2.204   1.481   6.591
10239SOL    HW143190   2.276   1.445   6.532
10239SOL    HW243191   2.182   1.413   6.661
10240SOL     OW43192   4.630   0.395   2.174
10240SOL    HW143193   4.693   0.317   2.165
10240SOL    HW243194   4.580   0.387   2.260
10241SOL     OW43195   7.003   2.813   0.171
10241SOL    HW143196   7.038   2.746   0.106
10241SOL    HW243197   7.018   2.781   0.264
10242SOL     OW43198   4.697   1.881   7.000
10242SOL    HW143199   4.692   1.823   7.082
10242SOL    HW243200   4.643   1.963   7.014
10243SOL     OW43201   3.145   4.346   1.264
10243SOL    HW143202   3.121   4.417   1.197
10243SOL    HW243203   3.080   4.271   1.258
10244SOL     OW43204   0.080   2.326   2.551
10244SOL    HW143205   0.009   2.369   2.608
10244SOL    HW243206   0.077   2.367   2.460
10245SOL     OW43207   1.153   5.298   1.843
10245SOL    HW143208   1.054   5.314   1.846
10245SOL    HW243209   1.198   5.352   1.914
10246SOL     OW43210   4.581   5.429   2.476
10246SOL    HW143211   4.490   5.426   2.435
10246SOL    HW243212   4.630   5.510   2.444
10247SOL     OW43213   3.094   7.078   1.554
10247SOL    HW143214   3.010   7.132   1.545
10247SOL    HW243215   3.164   7.132   1.601
10248SOL     OW43216   0.671   3.729   5.200
10248SOL    HW143217   0.693   3.706   5.105
10248SOL    HW243218   0.609   3.661   5.237
10249SOL     OW43219   4.058   3.065   2.450
10249SOL    HW143220   3.966   3.097   2.472
10249SOL    HW243221   4.064   3.045   2.352
10250SOL     OW43222   4.683   2.120   5.771
10250SOL    HW143223   4.605   2.167   5.812
10250SOL    HW243224   4.687   2.141   5.673
10251SOL     OW43225   0.281   4.420   1.571
10251SOL    HW143226   0.193   4.382   1.543
10251SOL    HW243227   0.355   4.370   1.525
10252SOL     OW43228   5.609   6.770   7.178
10252SOL    HW143229   5.583   6.747   7.084
10252SOL    HW243230   5.550   6.721   7.242
10253SOL     OW43231   0.443   5.700   6.485
10253SOL    HW143232   0.427   5.607   6.452
10253SOL    HW243233   0.485   5.754   6.413
10254SOL     OW43234   6.062   2.039   1.138
10254SOL    HW143235   5.999   1.970   1.175
10254SOL    HW243236   6.064   2.031   1.038
10255SOL     OW43237   7.032   4.855   4.501
10255SOL    HW143238   6.987   4.831   4.415
10255SOL    HW243239   7.131   4.857   4.488
10256SOL     OW43240   1.645   6.354   7.332
10256SOL    HW143241   1.562   6.369   7.278
10256SOL    HW243242   1.642   6.262   7.372
10257SOL     OW43243   4.600   5.908   2.488
10257SOL    HW143244   4.539   5.908   2.409
10257SOL    HW243245   4.639   5.998   2.500
10258SOL     OW43246   2.366   2.975   1.994
10258SOL    HW143247   2.271   2.998   1.971
10258SOL    HW243248   2.403   2.915   1.923
10259SOL     OW43249   3.790   4.551   3.274
10259SOL    HW143250   3.852   4.605   3.218
10259SOL    HW243251   3.714   4.519   3.217
10260SOL     OW43252   1.581   5.622   5.100
10260SOL    HW143253   1.493   5.575   5.111
10260SOL    HW243254   1.634   5.577   5.028
10261SOL     OW43255   3.746   6.852   6.382
10261SOL    HW143256   3.720   6.761   6.415
10261SOL    HW243257   3.830   6.846   6.328
10262SOL     OW43258   2.304   2.788   3.934
10262SOL    HW143259   2.318   2.846   3.854
10262SOL    HW243260   2.332   2.695   3.913
10263SOL     OW43261   4.554   4.559   6.545
10263SOL    HW143262   4.526   4.637   6.601
10263SOL    HW243263   4.580   4.591   6.454
10264SOL     OW43264   5.823   3.039   2.144
10264SOL    HW143265   5.873   3.120   2.115
10264SOL    HW243266   5.769   3.060   2.225
10265SOL     OW43267   4.905   1.412   4.253
10265SOL    HW143268   4.954   1.357   4.321
10265SOL    HW243269   4.949   1.502   4.246
10266SOL     OW43270   4.243   6.695   6.008
10266SOL    HW143271   4.166   6.653   6.056
10266SOL    HW243272   4.328   6.671   6.054
10267SOL     OW43273   0.079   5.649   0.687
10267SOL    HW143274   8.986   5.659   0.652
10267SOL    HW243275   0.078   5.664   0.786
10268SOL     OW43276   4.447   3.976   0.135
10268SOL    HW143277   4.420   3.999   0.229
10268SOL    HW243278   4.545   3.954   0.133
10269SOL     OW43279   7.104   1.937   4.473
10269SOL    HW143280   7.014   1.903   4.446
10269SOL    HW243281   7.170   1.917   4.400
10270SOL     OW43282   6.444   5.334   3.598
10270SOL    HW143283   6.376   5.269   3.561
10270SOL    HW243284   6.409   5.373   3.683
10271SOL     OW43285   6.930   6.193   6.097
10271SOL    HW143286   6.936   6.256   6.019
10271SOL    HW243287   6.942   6.099   6.065
10272SOL     OW43288   4.740   3.881   6.989
10272SOL    HW143289   4.805   3.936   6.938
10272SOL    HW243290   4.730   3.792   6.945
10273SOL     OW43291   8.977   3.717   6.761
10273SOL    HW143292   8.900   3.781   6.768
10273SOL    HW243293   0.053   3.750   6.817
10274SOL     OW43294   4.627   4.626   1.768
10274SOL    HW143295   4.603   4.682   1.848
10274SOL    HW243296   4.705   4.668   1.721
10275SOL     OW43297   3.194   2.867   1.330
10275SOL    HW143298   3.163   2.839   1.420
10275SOL    HW243299   3.132   2.831   1.260
10276SOL     OW43300   3.147   0.752   3.064
10276SOL    HW143301   3.047   0.745   3.062
10276SOL    HW243302   3.179   0.734   3.157
10277SOL     OW43303   6.709   4.097   0.671
10277SOL    HW143304   6.737   4.160   0.744
10277SOL    HW243305   6.619   4.060   0.692
10278SOL     OW43306   6.918   4.143   7.001
10278SOL    HW143307   6.830   4.102   7.029
10278SOL    HW243308   6.953   4.095   6.921
10279SOL     OW43309   3.586   4.783   2.803
10279SOL    HW143310   3.671   4.732   2.791
10279SOL    HW243311   3.540   4.751   2.886
10280SOL     OW43312   0.736   4.409   6.453
10280SOL    HW143313   0.668   4.462   6.402
10280SOL    HW243314   0.805   4.374   6.389
10281SOL     OW43315   1.697   1.799   0.692
10281SOL    HW143316   1.731   1.881   0.738
10281SOL    HW243317   1.730   1.799   0.597
10282SOL     OW43318   5.626   1.308   1.251
10282SOL    HW143319   5.547   1.261   1.211
10282SOL    HW243320   5.704   1.245   1.255
10283SOL     OW43321   2.490   0.062   0.049
10283SOL    HW143322   2.486   0.001   0.128
10283SOL    HW243323   2.546   0.142   0.072
10284SOL     OW43324   6.318   5.574   0.125
10284SOL    HW143325   6.313   5.602   0.029
10284SOL    HW243326   6.259   5.494   0.139
10285SOL     OW43327   6.066   7.035   5.943
10285SOL    HW143328   5.976   7.031   5.987
10285SOL    HW243329   6.085   6.946   5.902
10286SOL     OW43330   3.783   2.230   6.187
10286SOL    HW143331   3.773   2.301   6.117
10286SOL    HW243332   3.877   2.227   6.219
10287SOL     OW43333   3.354   0.933   3.374
10287SOL    HW143334   3.319   0.842   3.398
10287SOL    HW243335   3.291   0.976   3.309
10288SOL     OW43336   3.645   0.784   6.819
10288SOL    HW143337   3.608   0.834   6.897
10288SOL    HW243338   3.653   0.687   6.843
10289SOL     OW43339   4.436   5.892   3.992
10289SOL    HW143340   4.408   5.974   3.942
10289SOL    HW243341   4.421   5.907   4.090
10290SOL     OW43342   0.882   4.468   1.745
10290SOL    HW143343   0.908   4.376   1.715
10290SOL    HW243344   0.884   4.530   1.667
10291SOL     OW43345   3.005   4.935   0.240
10291SOL    HW143346   3.096   4.963   0.209
10291SOL    HW243347   3.013   4.890   0.329
10292SOL     OW43348   5.282   0.406   1.144
10292SOL    HW143349   5.269   0.368   1.053
10292SOL    HW243350   5.356   0.474   1.143
10293SOL     OW43351   3.205   2.302   2.599
10293SOL    HW143352   3.190   2.222   2.540
10293SOL    HW243353   3.273   2.279   2.669
10294SOL     OW43354   4.489   6.794   1.865
10294SOL    HW143355   4.424   6.842   1.806
10294SOL    HW243356   4.445   6.773   1.953
10295SOL     OW43357   0.744   1.333   1.783
10295SOL    HW143358   0.686   1.267   1.736
10295SOL    HW243359   0.687   1.401   1.828
10296SOL     OW43360   0.768   3.511   3.759
10296SOL    HW143361   0.740   3.585   3.698
10296SOL    HW243362   0.867   3.499   3.755
10297SOL     OW43363   6.430   4.905   4.544
10297SOL    HW143364   6.525   4.913   4.574
10297SOL    HW243365   6.427   4.854   4.458
10298SOL     OW43366   1.237   2.270   6.950
10298SOL    HW143367   1.305   2.203   6.980
10298SOL    HW243368   1.202   2.319   7.030
10299SOL     OW43369   6.318   1.925   3.461
10299SOL    HW143370   6.278   2.009   3.496
10299SOL    HW243371   6.417   1.937   3.454
10300SOL     OW43372   1.231   6.166   7.121
10300SOL    HW143373   1.187   6.168   7.211
10300SOL    HW243374   1.221   6.076   7.081
10301SOL     OW43375   1.267   4.599   5.071
10301SOL    HW143376   1.185   4.577   5.017
10301SOL    HW243377   1.257   4.691   5.110
10302SOL     OW43378   4.899   6.222   0.588
10302SOL    HW143379   4.838   6.271   0.649
10302SOL    HW243380   4.927   6.283   0.513
10303SOL     OW43381   6.366   6.186   0.375
10303SOL    HW143382   6.410   6.106   0.333
10303SOL    HW243383   6.280   6.205   0.327
10304SOL     OW43384   5.191   1.456   1.140
10304SOL    HW143385   5.192   1.392   1.063
10304SOL    HW243386   5.183   1.404   1.226
10305SOL     OW43387   1.522   1.318   2.857
10305SOL    HW143388   1.613   1.301   2.896
10305SOL    HW243389   1.464   1.238   2.874
10306SOL     OW43390   6.275   6.857   5.348
10306SOL    HW143391   6.217   6.928   5.307
10306SOL    HW243392   6.263   6.771   5.297
10307SOL     OW43393   6.486   5.375   6.676
10307SOL    HW143394   6.555   5.352   6.608
10307SOL    HW243395   6.473   5.297   6.738
10308SOL     OW43396   7.094   1.523   1.278
10308SOL    HW143397   7.018   1.573   1.236
10308SOL    HW243398   7.120   1.568   1.363
10309SOL     OW43399   3.562   3.315   3.426
10309SOL    HW143400   3.486   3.366   3.386
10309SOL    HW243401   3.570   3.226   3.382
10310SOL     OW43402   3.093   3.448   0.128
10310SOL    HW143403   3.049   3.370   0.173
10310SOL    HW243404   3.191   3.449   0.152
10311SOL     OW43405   2.722   6.389   7.141
10311SOL    HW143406   2.801   6.448   7.157
10311SOL    HW243407   2.645   6.445   7.112
10312SOL     OW43408   2.901   5.746   1.643
10312SOL    HW143409   2.971   5.689   1.686
10312SOL    HW243410   2.858   5.804   1.711
10313SOL     OW43411   4.009   0.670   7.182
10313SOL    HW143412   4.055   0.582   7.192
10313SOL    HW243413   3.912   0.655   7.164
10314SOL     OW43414   2.549   2.502   3.185
10314SOL    HW143415   2.565   2.533   3.091
10314SOL    HW243416   2.484   2.564   3.229
10315SOL     OW43417   5.811   6.982   6.054
10315SOL    HW143418   5.780   7.002   5.961
10315SOL    HW243419   5.745   6.922   6.099
10316SOL     OW43420   4.667   2.208   5.505
10316SOL    HW143421   4.671   2.303   5.537
10316SOL    HW243422   4.596   2.199   5.436
10317SOL     OW43423   5.932   5.620   3.616
10317SOL    HW143424   5.976   5.650   3.532
10317SOL    HW243425   5.848   5.673   3.630
10318SOL     OW43426   7.151   4.249   6.492
10318SOL    HW143427   7.053   4.264   6.484
10318SOL    HW243428   7.172   4.154   6.471
10319SOL     OW43429   3.382   6.293   1.729
10319SOL    HW143430   3.466   6.324   1.685
10319SOL    HW243431   3.401   6.216   1.789
10320SOL     OW43432   6.754   4.439   0.600
10320SOL    HW143433   6.759   4.384   0.516
10320SOL    HW243434   6.659   4.463   0.618
10321SOL     OW43435   4.289   3.379   5.529
10321SOL    HW143436   4.296   3.360   5.431
10321SOL    HW243437   4.197   3.356   5.561
10322SOL     OW43438   6.586   5.073   1.174
10322SOL    HW143439   6.555   4.980   1.157
10322SOL    HW243440   6.676   5.071   1.219
10323SOL     OW43441   5.995   6.148   2.805
10323SOL    HW143442   5.937   6.229   2.818
10323SOL    HW243443   5.946   6.081   2.749
10324SOL     OW43444   2.543   5.995   5.952
10324SOL    HW143445   2.576   5.947   6.033
10324SOL    HW243446   2.603   6.072   5.932
10325SOL     OW43447   3.780   5.260   3.568
10325SOL    HW143448   3.811   5.354   3.551
10325SOL    HW243449   3.856   5.206   3.603
10326SOL     OW43450   1.587   6.035   0.134
10326SOL    HW143451   1.557   6.118   0.181
10326SOL    HW243452   1.510   5.998   0.081
10327SOL     OW43453   5.181   5.251   1.873
10327SOL    HW143454   5.278   5.270   1.861
10327SOL    HW243455   5.142   5.221   1.786
10328SOL     OW43456   5.663   2.208   2.483
10328SOL    HW143457   5.654   2.155   2.398
10328SOL    HW243458   5.593   2.279   2.485
10329SOL     OW43459   3.761   0.165   3.137
10329SOL    HW143460   3.726   0.248   3.182
10329SOL    HW243461   3.823   0.117   3.198
10330SOL     OW43462   4.834   4.093   5.328
10330SOL    HW143463   4.918   4.127   5.368
10330SOL    HW243464   4.778   4.169   5.295
10331SOL     OW43465   0.397   3.639   3.571
10331SOL    HW143466   0.385   3.540   3.586
10331SOL    HW243467   0.423   3.655   3.476
10332SOL     OW43468   6.955   3.268   4.313
10332SOL    HW143469   6.910   3.218   4.387
10332SOL    HW243470   6.950   3.215   4.229
10333SOL     OW43471   3.120   3.112   1.776
10333SOL    HW143472   3.140   3.209   1.793
10333SOL    HW243473   3.077   3.103   1.686
10334SOL     OW43474   2.644   1.238   3.884
10334SOL    HW143475   2.570   1.212   3.946
10334SOL    HW243476   2.731   1.235   3.934
10335SOL     OW43477   4.108   0.875   6.206
10335SOL    HW143478   4.051   0.794   6.221
10335SOL    HW243479   4.189   0.850   6.155
10336SOL     OW43480   4.913   0.515   3.792
10336SOL    HW143481   4.983   0.483   3.728
10336SOL    HW243482   4.928   0.612   3.811
10337SOL     OW43483   3.897   1.794   4.629
10337SOL    HW143484   3.872   1.758   4.719
10337SOL    HW243485   3.855   1.738   4.558
10338SOL     OW43486   6.408   3.955   2.199
10338SOL    HW143487   6.408   4.043   2.151
10338SOL    HW243488   6.383   3.883   2.135
10339SOL     OW43489   5.423   1.822   3.292
10339SOL    HW143490   5.435   1.745   3.355
10339SOL    HW243491   5.329   1.854   3.296
10340SOL     OW43492   2.592   7.042   6.471
10340SOL    HW143493   2.663   7.102   6.434
10340SOL    HW243494   2.509   7.050   6.415
10341SOL     OW43495   4.807   1.476   1.016
10341SOL    HW143496   4.761   1.406   1.071
10341SOL    HW243497   4.863   1.534   1.075
10342SOL     OW43498   5.649   1.358   1.747
10342SOL    HW143499   5.585   1.399   1.812
10342SOL    HW243500   5.618   1.375   1.654
10343SOL     OW43501   4.664   0.757   5.841
10343SOL    HW143502   4.683   0.664   5.808
10343SOL    HW243503   4.700   0.768   5.934
10344SOL     OW43504   2.600   0.600   0.921
10344SOL    HW143505   2.566   0.551   0.840
10344SOL    HW243506   2.608   0.536   0.997
10345SOL     OW43507   6.636   3.906   4.366
10345SOL    HW143508   6.637   3.984   4.303
10345SOL    HW243509   6.557   3.912   4.426
10346SOL     OW43510   6.463   3.317   2.768
10346SOL    HW143511   6.553   3.288   2.801
10346SOL    HW243512   6.411   3.238   2.739
10347SOL     OW43513   3.560   5.801   3.242
10347SOL    HW143514   3.594   5.892   3.265
10347SOL    HW243515   3.529   5.755   3.325
10348SOL     OW43516   2.077   7.175   2.216
10348SOL    HW143517   2.105   7.270   2.226
10348SOL    HW243518   2.107   7.123   2.296
10349SOL     OW43519   0.987   4.450   6.064
10349SOL    HW143520   0.957   4.400   6.145
10349SOL    HW243521   0.958   4.546   6.071
10350SOL     OW43522   0.621   4.486   2.177
10350SOL    HW143523   0.624   4.401   2.124
10350SOL    HW243524   0.537   4.535   2.157
10351SOL     OW43525   2.731   3.312   6.015
10351SOL    HW143526   2.712   3.373   5.938
10351SOL    HW243527   2.741   3.219   5.981
10352SOL     OW43528   5.804   0.185   5.355
10352SOL    HW143529   5.874   0.256   5.357
10352SOL    HW243530   5.808   0.137   5.268
10353SOL     OW43531   2.330   4.369   2.554
10353SOL    HW143532   2.232   4.384   2.540
10353SOL    HW243533   2.343   4.295   2.620
10354SOL     OW43534   2.164   5.699   6.126
10354SOL    HW143535   2.242   5.731   6.179
10354SOL    HW243536   2.176   5.601   6.105
10355SOL     OW43537   0.274   0.631   0.433
10355SOL    HW143538   0.343   0.581   0.485
10355SOL    HW243539   0.247   0.713   0.483
10356SOL     OW43540   6.157   6.418   3.984
10356SOL    HW143541   6.203   6.500   4.019
10356SOL    HW243542   6.225   6.347   3.968
10357SOL     OW43543   5.782   4.804   4.522
10357SOL    HW143544   5.833   4.721   4.503
10357SOL    HW243545   5.769   4.856   4.438
10358SOL     OW43546   7.358   5.817   5.329
10358SOL    HW143547   7.263   5.819   5.297
10358SOL    HW243548   7.419   5.812   5.250
10359SOL     OW43549   2.969   6.372   3.112
10359SOL    HW143550   3.039   6.433   3.149
10359SOL    HW243551   2.958   6.390   3.014
10360SOL     OW43552   5.594   2.559   1.103
10360SOL    HW143553   5.672   2.621   1.091
10360SOL    HW243554   5.546   2.582   1.187
10361SOL     OW43555   7.114   3.440   6.823
10361SOL    HW143556   7.098   3.396   6.911
10361SOL    HW243557   7.211   3.460   6.812
10362SOL     OW43558   4.072   1.228   3.946
10362SOL    HW143559   4.074   1.220   4.046
10362SOL    HW243560   3.986   1.190   3.912
10363SOL     OW43561   4.828   4.110   3.356
10363SOL    HW143562   4.737   4.147   3.373
10363SOL    HW243563   4.864   4.145   3.270
10364SOL     OW43564   0.499   6.137   6.461
10364SOL    HW143565   0.450   6.173   6.381
10364SOL    HW243566   0.463   6.180   6.544
10365SOL     OW43567   3.924   0.062   3.335
10365SOL    HW143568   3.950   0.134   3.399
10365SOL    HW243569   3.949   8.973   3.373
10366SOL     OW43570   1.564   3.469   3.231
10366SOL    HW143571   1.511   3.389   3.258
10366SOL    HW243572   1.509   3.552   3.244
10367SOL     OW43573   4.487   3.697   3.062
10367SOL    HW143574   4.424   3.737   2.995
10367SOL    HW243575   4.565   3.758   3.074
10368SOL     OW43576   1.552   5.200   4.393
10368SOL    HW143577   1.617   5.267   4.359
10368SOL    HW243578   1.510   5.152   4.316
10369SOL     OW43579   3.579   1.350   0.582
10369SOL    HW143580   3.508   1.285   0.609
10369SOL    HW243581   3.543   1.412   0.513
10370SOL     OW43582   3.486   4.942   5.447
10370SOL    HW143583   3.501   4.982   5.537
10370SOL    HW243584   3.563   4.884   5.422
10371SOL     OW43585   3.663   3.260   1.456
10371SOL    HW143586   3.600   3.320   1.407
10371SOL    HW243587   3.615   3.177   1.484
10372SOL     OW43588   6.659   4.546   4.050
10372SOL    HW143589   6.607   4.461   4.053
10372SOL    HW243590   6.640   4.593   3.963
10373SOL     OW43591   0.407   7.134   0.698
10373SOL    HW143592   0.496   7.175   0.713
10373SOL    HW243593   0.388   7.131   0.600
10374SOL     OW43594   2.805   4.737   1.296
10374SOL    HW143595   2.838   4.666   1.359
10374SOL    HW243596   2.740   4.696   1.231
10375SOL     OW43597   7.105   1.885   5.958
10375SOL    HW143598   7.167   1.944   5.905
10375SOL    HW243599   7.012   1.918   5.948
10376SOL     OW43600   4.355   1.153   1.140
10376SOL    HW143601   4.439   1.187   1.099
10376SOL    HW243602   4.332   1.064   1.102
10377SOL     OW43603   5.341   2.743   5.696
10377SOL    HW143604   5.336   2.834   5.736
10377SOL    HW243605   5.289   2.679   5.752
10378SOL     OW43606   0.776   2.412   5.495
10378SOL    HW143607   0.752   2.365   5.580
10378SOL    HW243608   0.865   2.380   5.463
10379SOL     OW43609   7.327   6.722   5.313
10379SOL    HW143610   7.292   6.783   5.385
10379SOL    HW243611   7.329   6.771   5.226
10380SOL     OW43612   2.726   4.478   3.885
10380SOL    HW143613   2.775   4.538   3.822
10380SOL    HW243614   2.691   4.398   3.835
10381SOL     OW43615   5.307   4.724   1.068
10381SOL    HW143616   5.395   4.736   1.022
10381SOL    HW243617   5.321   4.676   1.155
10382SOL     OW43618   5.553   1.907   6.217
10382SOL    HW143619   5.556   1.942   6.310
10382SOL    HW243620   5.634   1.851   6.199
10383SOL     OW43621   3.245   4.363   5.887
10383SOL    HW143622   3.286   4.308   5.813
10383SOL    HW243623   3.240   4.308   5.970
10384SOL     OW43624   5.008   0.775   7.212
10384SOL    HW143625   5.009   0.748   7.308
10384SOL    HW243626   4.994   0.695   7.154
10385SOL     OW43627   7.347   5.599   6.568
10385SOL    HW143628   7.383   5.567   6.480
10385SOL    HW243629   7.411   5.663   6.609
10386SOL     OW43630   2.298   2.287   5.894
10386SOL    HW143631   2.239   2.207   5.887
10386SOL    HW243632   2.338   2.292   5.986
10387SOL     OW43633   0.196   0.768   1.451
10387SOL    HW143634   0.196   0.805   1.544
10387SOL    HW243635   0.148   0.830   1.389
10388SOL     OW43636   0.063   0.092   1.150
10388SOL    HW143637   0.046   0.005   1.197
10388SOL    HW243638   0.052   0.080   1.052
10389SOL     OW43639   3.594   1.657   4.238
10389SOL    HW143640   3.637   1.731   4.186
10389SOL    HW243641   3.562   1.587   4.175
10390SOL     OW43642   1.272   6.144   0.275
10390SOL    HW143643   1.362   6.189   0.277
10390SOL    HW243644   1.283   6.046   0.289
10391SOL     OW43645   1.194   4.199   1.768
10391SOL    HW143646   1.236   4.120   1.722
10391SOL    HW243647   1.102   4.213   1.731
10392SOL     OW43648   1.328   1.694   1.964
10392SOL    HW143649   1.338   1.793   1.955
10392SOL    HW243650   1.284   1.672   2.050
10393SOL     OW43651   5.613   0.796   2.687
10393SOL    HW143652   5.609   0.841   2.598
10393SOL    HW243653   5.708   0.782   2.714
10394SOL     OW43654   4.113   3.579   2.226
10394SOL    HW143655   4.035   3.576   2.163
10394SOL    HW243656   4.152   3.487   2.234
10395SOL     OW43657   2.688   2.106   6.477
10395SOL    HW143658   2.716   2.178   6.413
10395SOL    HW243659   2.676   2.020   6.427
10396SOL     OW43660   5.536   3.603   1.714
10396SOL    HW143661   5.489   3.688   1.739
10396SOL    HW243662   5.502   3.572   1.625
10397SOL     OW43663   6.389   0.998   1.497
10397SOL    HW143664   6.469   0.984   1.556
10397SOL    HW243665   6.355   1.091   1.509
10398SOL     OW43666   2.921   2.878   6.964
10398SOL    HW143667   2.918   2.823   6.880
10398SOL    HW243668   2.940   2.973   6.941
10399SOL     OW43669   3.701   2.418   6.964
10399SOL    HW143670   3.708   2.388   6.869
10399SOL    HW243671   3.792   2.425   7.004
10400SOL     OW43672   6.493   0.831   5.743
10400SOL    HW143673   6.422   0.776   5.698
10400SOL    HW243674   6.565   0.772   5.778
10401SOL     OW43675   5.828   0.760   6.320
10401SOL    HW143676   5.779   0.673   6.327
10401SOL    HW243677   5.918   0.751   6.362
10402SOL     OW43678   3.892   3.851   6.754
10402SOL    HW143679   3.862   3.929   6.807
10402SOL    HW243680   3.871   3.866   6.657
10403SOL     OW43681   5.645   0.669   2.291
10403SOL    HW143682   5.623   0.751   2.344
10403SOL    HW243683   5.580   0.596   2.314
10404SOL     OW43684   5.584   6.972   6.668
10404SOL    HW143685   5.679   6.940   6.673
10404SOL    HW243686   5.525   6.895   6.644
10405SOL     OW43687   1.930   3.919   7.200
10405SOL    HW143688   1.915   3.856   7.124
10405SOL    HW243689   1.892   3.881   7.284
10406SOL     OW43690   3.742   0.616   7.158
10406SOL    HW143691   3.668   0.679   7.183
10406SOL    HW243692   3.741   0.538   7.219
10407SOL     OW43693   2.882   2.371   0.129
10407SOL    HW143694   2.955   2.304   0.114
10407SOL    HW243695   2.897   2.449   0.069
10408SOL     OW43696   6.204   5.601   0.687
10408SOL    HW143697   6.114   5.589   0.644
10408SOL    HW243698   6.246   5.686   0.654
10409SOL     OW43699   2.199   7.230   0.979
10409SOL    HW143700   2.123   7.182   1.023
10409SOL    HW243701   2.239   7.296   1.043
10410SOL     OW43702   3.212   6.513   1.765
10410SOL    HW143703   3.234   6.584   1.698
10410SOL    HW243704   3.272   6.434   1.751
10411SOL     OW43705   2.751   3.910   1.612
10411SOL    HW143706   2.805   3.986   1.578
10411SOL    HW243707   2.686   3.943   1.680
10412SOL     OW43708   5.096   1.759   7.088
10412SOL    HW143709   5.181   1.730   7.044
10412SOL    HW243710   5.031   1.789   7.019
10413SOL     OW43711   1.825   1.626   1.540
10413SOL    HW143712   1.839   1.718   1.504
10413SOL    HW243713   1.811   1.631   1.639
10414SOL     OW43714   2.858   6.467   4.048
10414SOL    HW143715   2.785   6.479   4.115
10414SOL    HW243716   2.818   6.449   3.958
10415SOL     OW43717   0.451   4.790   4.498
10415SOL    HW143718   0.541   4.825   4.473
10415SOL    HW243719   0.395   4.864   4.535
10416SOL     OW43720   3.288   2.478   6.236
10416SOL    HW143721   3.378   2.482   6.193
10416SOL    HW243722   3.229   2.416   6.183
10417SOL     OW43723   2.325   3.330   0.727
10417SOL    HW143724   2.380   3.300   0.649
10417SOL    HW243725   2.330   3.261   0.800
10418SOL     OW43726   1.472   6.527   5.616
10418SOL    HW143727   1.538   6.478   5.559
10418SOL    HW243728   1.416   6.461   5.666
10419SOL     OW43729   0.165   6.752   4.906
10419SOL    HW143730   0.256   6.714   4.919
10419SOL    HW243731   0.160   6.796   4.816
10420SOL     OW43732   6.720   7.008   1.548
10420SOL    HW143733   6.740   7.102   1.518
10420SOL    HW243734   6.753   6.996   1.642
10421SOL     OW43735   6.755   2.507   0.128
10421SOL    HW143736   6.764   2.573   0.054
10421SOL    HW243737   6.665   2.464   0.123
10422SOL     OW43738   2.996   1.429   6.331
10422SOL    HW143739   2.906   1.426   6.287
10422SOL    HW243740   3.066   1.448   6.262
10423SOL     OW43741   1.787   0.457   0.776
10423SOL    HW143742   1.691   0.464   0.803
10423SOL    HW243743   1.837   0.404   0.845
10424SOL     OW43744   4.349   5.299   3.123
10424SOL    HW143745   4.252   5.286   3.143
10424SOL    HW243746   4.360   5.336   3.031
10425SOL     OW43747   2.266   6.506   0.965
10425SOL    HW143748   2.290   6.520   1.061
10425SOL    HW243749   2.342   6.536   0.907
10426SOL     OW43750   7.248   4.213   4.413
10426SOL    HW143751   7.196   4.248   4.335
10426SOL    HW243752   7.316   4.147   4.381
10427SOL     OW43753   5.123   6.783   1.741
10427SOL    HW143754   5.118   6.882   1.750
10427SOL    HW243755   5.058   6.741   1.804
10428SOL     OW43756   2.944   2.922   0.217
10428SOL    HW143757   3.016   2.944   0.283
10428SOL    HW243758   2.957   2.976   0.134
10429SOL     OW43759   2.210   4.136   5.325
10429SOL    HW143760   2.256   4.087   5.399
10429SOL    HW243761   2.147   4.203   5.364
10430SOL     OW43762   1.929   5.110   3.724
10430SOL    HW143763   1.868   5.055   3.782
10430SOL    HW243764   2.010   5.137   3.776
10431SOL     OW43765   1.324   3.600   0.545
10431SOL    HW143766   1.307   3.598   0.446
10431SOL    HW243767   1.379   3.681   0.568
10432SOL     OW43768   4.990   0.528   5.902
10432SOL    HW143769   5.051   0.606   5.916
10432SOL    HW243770   5.024   0.449   5.953
10433SOL     OW43771   4.324   5.025   6.924
10433SOL    HW143772   4.267   5.078   6.861
10433SOL    HW243773   4.394   5.085   6.963
10434SOL     OW43774   5.150   5.849   6.296
10434SOL    HW143775   5.185   5.874   6.387
10434SOL    HW243776   5.215   5.788   6.251
10435SOL     OW43777   1.139   2.912   3.219
10435SOL    HW143778   1.154   2.950   3.127
10435SOL    HW243779   1.121   2.987   3.283
10436SOL     OW43780   0.116   4.579   4.794
10436SOL    HW143781   0.039   4.568   4.731
10436SOL    HW243782   0.202   4.579   4.743
10437SOL     OW43783   3.899   2.308   0.772
10437SOL    HW143784   3.997   2.309   0.755
10437SOL    HW243785   3.869   2.215   0.792
10438SOL     OW43786   2.363   8.907   2.182
10438SOL    HW143787   2.308   8.982   2.219
10438SOL    HW243788   2.398   8.932   2.092
10439SOL     OW43789   1.935   0.597   6.567
10439SOL    HW143790   1.944   0.554   6.657
10439SOL    HW243791   1.853   0.654   6.566
10440SOL     OW43792   5.675   5.183   4.417
10440SOL    HW143793   5.641   5.248   4.349
10440SOL    HW243794   5.601   5.119   4.441
10441SOL     OW43795   6.503   1.906   1.403
10441SOL    HW143796   6.434   1.926   1.334
10441SOL    HW243797   6.574   1.977   1.399
10442SOL     OW43798   5.814   0.403   6.926
10442SOL    HW143799   5.913   0.398   6.938
10442SOL    HW243800   5.790   0.489   6.881
10443SOL     OW43801   5.641   7.039   7.243
10443SOL    HW143802   5.634   6.942   7.221
10443SOL    HW243803   5.731   7.057   7.283
10444SOL     OW43804   4.065   2.314   4.648
10444SOL    HW143805   4.064   2.239   4.715
10444SOL    HW243806   4.032   2.280   4.560
10445SOL     OW43807   0.713   4.876   4.447
10445SOL    HW143808   0.733   4.879   4.545
10445SOL    HW243809   0.748   4.959   4.404
10446SOL     OW43810   2.865   0.121   6.391
10446SOL    HW143811   2.770   0.100   6.413
10446SOL    HW243812   2.923   0.104   6.471
10447SOL     OW43813   0.935   4.205   1.674
10447SOL    HW143814   0.937   4.198   1.574
10447SOL    HW243815   0.866   4.143   1.710
10448SOL     OW43816   1.814   2.789   0.361
10448SOL    HW143817   1.715   2.797   0.350
10448SOL    HW243818   1.839   2.692   0.371
10449SOL     OW43819   0.688   5.842   5.565
10449SOL    HW143820   0.604   5.835   5.512
10449SOL    HW243821   0.697   5.935   5.602
10450SOL     OW43822   3.994   3.749   1.597
10450SOL    HW143823   4.085   3.785   1.576
10450SOL    HW243824   3.951   3.806   1.667
10451SOL     OW43825   2.474   1.304   3.297
10451SOL    HW143826   2.428   1.264   3.377
10451SOL    HW243827   2.534   1.235   3.256
10452SOL     OW43828   1.218   6.455   6.486
10452SOL    HW143829   1.228   6.460   6.585
10452SOL    HW243830   1.306   6.434   6.444
10453SOL     OW43831   4.671   3.663   6.603
10453SOL    HW143832   4.698   3.664   6.699
10453SOL    HW243833   4.584   3.613   6.594
10454SOL     OW43834   5.511   4.357   2.346
10454SOL    HW143835   5.473   4.436   2.300
10454SOL    HW243836   5.605   4.343   2.316
10455SOL     OW43837   2.692   5.726   0.718
10455SOL    HW143838   2.744   5.650   0.680
10455SOL    HW243839   2.730   5.813   0.685
10456SOL     OW43840   5.337   4.262   3.054
10456SOL    HW143841   5.264   4.211   3.099
10456SOL    HW243842   5.408   4.198   3.023
10457SOL     OW43843   0.428   1.847   6.844
10457SOL    HW143844   0.477   1.863   6.758
10457SOL    HW243845   0.415   1.933   6.892
10458SOL     OW43846   2.733   2.787   3.904
10458SOL    HW143847   2.820   2.817   3.944
10458SOL    HW243848   2.660   2.797   3.971
10459SOL     OW43849   2.519   1.724   1.185
10459SOL    HW143850   2.474   1.653   1.239
10459SOL    HW243851   2.463   1.745   1.105
10460SOL     OW43852   4.444   0.140   0.194
10460SOL    HW143853   4.401   0.106   0.111
10460SOL    HW243854   4.376   0.188   0.250
10461SOL     OW43855   5.605   6.126   5.682
10461SOL    HW143856   5.616   6.069   5.601
10461SOL    HW243857   5.552   6.208   5.658
10462SOL     OW43858   4.099   0.423   5.844
10462SOL    HW143859   4.144   0.511   5.830
10462SOL    HW243860   4.031   0.409   5.772
10463SOL     OW43861   3.510   7.196   3.997
10463SOL    HW143862   3.440   7.171   3.929
10463SOL    HW243863   3.541   7.113   4.044
10464SOL     OW43864   3.291   5.223   7.372
10464SOL    HW143865   3.309   5.322   7.373
10464SOL    HW243866   3.347   5.179   7.442
10465SOL     OW43867   4.343   5.048   2.886
10465SOL    HW143868   4.285   5.021   2.809
10465SOL    HW243869   4.344   5.147   2.895
10466SOL     OW43870   6.678   2.845   3.848
10466SOL    HW143871   6.623   2.920   3.885
10466SOL    HW243872   6.730   2.802   3.921
10467SOL     OW43873   2.493   0.883   3.620
10467SOL    HW143874   2.421   0.924   3.677
10467SOL    HW243875   2.471   0.787   3.603
10468SOL     OW43876   0.380   6.336   5.782
10468SOL    HW143877   0.304   6.401   5.787
10468SOL    HW243878   0.466   6.385   5.770
10469SOL     OW43879   2.143   1.192   6.096
10469SOL    HW143880   2.084   1.177   6.017
10469SOL    HW243881   2.130   1.118   6.162
10470SOL     OW43882   7.145   1.606   3.812
10470SOL    HW143883   7.208   1.684   3.812
10470SOL    HW243884   7.197   1.522   3.830
10471SOL     OW43885   6.332   1.613   6.364
10471SOL    HW143886   6.391   1.564   6.428
10471SOL    HW243887   6.326   1.563   6.278
10472SOL     OW43888   0.407   4.157   0.382
10472SOL    HW143889   0.415   4.234   0.446
10472SOL    HW243890   0.335   4.095   0.414
10473SOL     OW43891   0.257   4.206   1.866
10473SOL    HW143892   0.345   4.218   1.819
10473SOL    HW243893   0.242   4.109   1.882
10474SOL     OW43894   5.775   2.058   6.841
10474SOL    HW143895   5.849   2.111   6.799
10474SOL    HW243896   5.757   1.977   6.785
10475SOL     OW43897   3.872   7.077   6.812
10475SOL    HW143898   3.821   7.162   6.798
10475SOL    HW243899   3.951   7.075   6.751
10476SOL     OW43900   0.873   4.697   6.088
10476SOL    HW143901   0.885   4.767   6.017
10476SOL    HW243902   0.775   4.681   6.102
10477SOL     OW43903   3.640   6.033   0.431
10477SOL    HW143904   3.639   5.950   0.374
10477SOL    HW243905   3.734   6.060   0.449
10478SOL     OW43906   1.885   2.810   3.185
10478SOL    HW143907   1.972   2.817   3.234
10478SOL    HW243908   1.902   2.783   3.091
10479SOL     OW43909   0.681   3.717   3.592
10479SOL    HW143910   0.716   3.735   3.501
10479SOL    HW243911   0.585   3.693   3.587
10480SOL     OW43912   5.096   5.659   4.136
10480SOL    HW143913   5.096   5.642   4.234
10480SOL    HW243914   5.180   5.707   4.110
10481SOL     OW43915   2.409   3.455   1.495
10481SOL    HW143916   2.501   3.433   1.529
10481SOL    HW243917   2.346   3.462   1.572
10482SOL     OW43918   0.467   5.558   4.254
10482SOL    HW143919   0.475   5.509   4.167
10482SOL    HW243920   0.513   5.647   4.247
10483SOL     OW43921   6.717   1.240   1.970
10483SOL    HW143922   6.643   1.288   1.922
10483SOL    HW243923   6.679   1.191   2.048
10484SOL     OW43924   0.382   5.473   7.142
10484SOL    HW143925   0.298   5.431   7.178
10484SOL    HW243926   0.359   5.532   7.064
10485SOL     OW43927   7.241   2.927   4.006
10485SOL    HW143928   7.276   2.986   4.080
10485SOL    HW243929   7.283   2.954   3.920
10486SOL     OW43930   6.787   2.919   6.203
10486SOL    HW143931   6.831   2.856   6.140
10486SOL    HW243932   6.705   2.958   6.160
10487SOL     OW43933   4.813   6.693   2.488
10487SOL    HW143934   4.880   6.723   2.556
10487SOL    HW243935   4.789   6.597   2.504
10488SOL     OW43936   3.392   5.065   3.534
10488SOL    HW143937   3.363   5.143   3.478
10488SOL    HW243938   3.488   5.045   3.516
10489SOL     OW43939   5.786   5.518   3.984
10489SOL    HW143940   5.816   5.526   4.079
10489SOL    HW243941   5.781   5.421   3.959
10490SOL     OW43942   2.183   3.882   4.671
10490SOL    HW143943   2.272   3.901   4.631
10490SOL    HW243944   2.127   3.965   4.668
10491SOL     OW43945   4.286   3.657   0.606
10491SOL    HW143946   4.370   3.704   0.580
10491SOL    HW243947   4.253   3.693   0.693
10492SOL     OW43948   5.293   3.026   5.379
10492SOL    HW143949   5.284   3.073   5.291
10492SOL    HW243950   5.246   3.078   5.450
10493SOL     OW43951   4.486   0.988   6.248
10493SOL    HW143952   4.415   1.007   6.315
10493SOL    HW243953   4.447   0.941   6.170
10494SOL     OW43954   6.166   6.157   4.722
10494SOL    HW143955   6.167   6.166   4.822
10494SOL    HW243956   6.075   6.181   4.688
10495SOL     OW43957   1.516   1.320   1.808
10495SOL    HW143958   1.480   1.238   1.852
10495SOL    HW243959   1.442   1.385   1.793
10496SOL     OW43960   0.502   3.683   3.326
10496SOL    HW143961   0.528   3.612   3.261
10496SOL    HW243962   0.516   3.773   3.285
10497SOL     OW43963   3.273   5.768   6.510
10497SOL    HW143964   3.280   5.820   6.595
10497SOL    HW243965   3.364   5.759   6.468
10498SOL     OW43966   4.765   4.180   1.060
10498SOL    HW143967   4.804   4.271   1.053
10498SOL    HW243968   4.788   4.140   1.149
10499SOL     OW43969   7.338   3.269   0.037
10499SOL    HW143970   7.397   3.320   8.975
10499SOL    HW243971   7.257   3.237   8.988
10500SOL     OW43972   4.510   2.775   4.858
10500SOL    HW143973   4.540   2.706   4.793
10500SOL    HW243974   4.453   2.842   4.811
10501SOL     OW43975   3.661   6.602   6.457
10501SOL    HW143976   3.607   6.569   6.380
10501SOL    HW243977   3.625   6.565   6.542
10502SOL     OW43978   1.987   3.368   3.920
10502SOL    HW143979   1.914   3.434   3.938
10502SOL    HW243980   1.954   3.275   3.939
10503SOL     OW43981   0.871   1.777   3.863
10503SOL    HW143982   0.830   1.853   3.914
10503SOL    HW243983   0.827   1.770   3.773
10504SOL     OW43984   7.103   4.819   4.961
10504SOL    HW143985   7.050   4.768   5.028
10504SOL    HW243986   7.042   4.851   4.888
10505SOL     OW43987   6.752   3.649   6.736
10505SOL    HW143988   6.676   3.694   6.782
10505SOL    HW243989   6.726   3.626   6.642
10506SOL     OW43990   0.038   0.960   0.034
10506SOL    HW143991   8.997   1.049   0.056
10506SOL    HW243992   0.135   0.961   0.061
10507SOL     OW43993   1.269   1.721   1.359
10507SOL    HW143994   1.292   1.741   1.263
10507SOL    HW243995   1.172   1.696   1.365
10508SOL     OW43996   1.871   0.073   2.997
10508SOL    HW143997   1.879   8.974   2.996
10508SOL    HW243998   1.815   0.102   3.075
10509SOL     OW43999   6.254   3.151   6.258
10509SOL    HW144000   6.270   3.153   6.160
10509SOL    HW244001   6.320   3.089   6.302
10510SOL     OW44002   5.158   6.447   5.934
10510SOL    HW144003   5.249   6.487   5.944
10510SOL    HW244004   5.166   6.349   5.918
10511SOL     OW44005   0.282   5.856   7.087
10511SOL    HW144006   0.256   5.952   7.077
10511SOL    HW244007   0.361   5.849   7.148
10512SOL     OW44008   1.026   1.051   2.770
10512SOL    HW144009   1.117   1.057   2.729
10512SOL    HW244010   1.023   1.106   2.854
10513SOL     OW44011   3.849   0.740   2.656
10513SOL    HW144012   3.860   0.771   2.561
10513SOL    HW244013   3.771   0.677   2.661
10514SOL     OW44014   3.106   5.659   5.658
10514SOL    HW144015   3.106   5.734   5.724
10514SOL    HW244016   3.016   5.652   5.615
10515SOL     OW44017   3.991   0.512   5.176
10515SOL    HW144018   3.993   0.528   5.275
10515SOL    HW244019   3.905   0.470   5.150
10516SOL     OW44020   5.914   5.594   0.049
10516SOL    HW144021   5.857   5.541   0.112
10516SOL    HW244022   5.859   5.621   8.970
10517SOL     OW44023   5.107   3.276   2.253
10517SOL    HW144024   5.204   3.250   2.251
10517SOL    HW244025   5.081   3.314   2.164
10518SOL     OW44026   4.467   6.175   3.135
10518SOL    HW144027   4.416   6.245   3.185
10518SOL    HW244028   4.416   6.090   3.135
10519SOL     OW44029   1.515   5.145   5.768
10519SOL    HW144030   1.523   5.244   5.782
10519SOL    HW244031   1.421   5.116   5.785
10520SOL     OW44032   0.320   2.824   5.404
10520SOL    HW144033   0.295   2.869   5.490
10520SOL    HW244034   0.416   2.844   5.383
10521SOL     OW44035   0.886   4.684   3.538
10521SOL    HW144036   0.966   4.625   3.522
10521SOL    HW244037   0.903   4.774   3.497
10522SOL     OW44038   4.930   4.965   6.433
10522SOL    HW144039   4.988   5.042   6.459
10522SOL    HW244040   4.979   4.908   6.367
10523SOL     OW44041   4.620   0.175   7.268
10523SOL    HW144042   4.617   0.247   7.337
10523SOL    HW244043   4.542   0.114   7.280
10524SOL     OW44044   0.537   4.096   7.272
10524SOL    HW144045   0.472   4.056   7.208
10524SOL    HW244046   0.514   4.070   7.365
10525SOL     OW44047   2.084   6.857   6.844
10525SOL    HW144048   2.140   6.858   6.761
10525SOL    HW244049   2.055   6.951   6.866
10526SOL     OW44050   4.780   3.528   2.467
10526SOL    HW144051   4.742   3.443   2.431
10526SOL    HW244052   4.736   3.606   2.423
10527SOL     OW44053   1.135   4.750   5.813
10527SOL    HW144054   1.161   4.655   5.828
10527SOL    HW244055   1.185   4.786   5.734
10528SOL     OW44056   0.562   3.006   2.906
10528SOL    HW144057   0.640   2.962   2.861
10528SOL    HW244058   0.508   2.936   2.954
10529SOL     OW44059   2.691   3.170   0.278
10529SOL    HW144060   2.595   3.161   0.252
10529SOL    HW244061   2.714   3.098   0.343
10530SOL     OW44062   6.348   2.401   7.291
10530SOL    HW144063   6.285   2.479   7.285
10530SOL    HW244064   6.411   2.404   7.213
10531SOL     OW44065   1.661   4.119   1.826
10531SOL    HW144066   1.660   4.219   1.822
10531SOL    HW244067   1.671   4.082   1.733
10532SOL     OW44068   3.947   0.915   1.455
10532SOL    HW144069   3.919   0.930   1.360
10532SOL    HW244070   3.965   0.817   1.469
10533SOL     OW44071   5.659   6.305   6.599
10533SOL    HW144072   5.625   6.279   6.509
10533SOL    HW244073   5.745   6.355   6.589
10534SOL     OW44074   3.476   1.983   6.927
10534SOL    HW144075   3.525   1.934   6.855
10534SOL    HW244076   3.403   1.925   6.963
10535SOL     OW44077   5.580   4.956   3.245
10535SOL    HW144078   5.481   4.938   3.249
10535SOL    HW244079   5.627   4.874   3.210
10536SOL     OW44080   0.365   0.117   0.836
10536SOL    HW144081   0.400   0.148   0.924
10536SOL    HW244082   0.348   0.019   0.840
10537SOL     OW44083   4.374   0.647   3.171
10537SOL    HW144084   4.340   0.572   3.228
10537SOL    HW244085   4.473   0.642   3.164
10538SOL     OW44086   5.034   4.524   0.221
10538SOL    HW144087   5.061   4.453   0.286
10538SOL    HW244088   5.104   4.533   0.150
10539SOL     OW44089   4.985   6.111   4.601
10539SOL    HW144090   4.949   6.081   4.689
10539SOL    HW244091   5.057   6.048   4.571
10540SOL     OW44092   5.353   6.064   3.238
10540SOL    HW144093   5.259   6.078   3.268
10540SOL    HW244094   5.364   5.969   3.207
10541SOL     OW44095   4.061   1.629   4.343
10541SOL    HW144096   4.142   1.602   4.289
10541SOL    HW244097   4.078   1.719   4.384
10542SOL     OW44098   3.504   5.709   3.890
10542SOL    HW144099   3.407   5.716   3.864
10542SOL    HW244100   3.558   5.681   3.811
10543SOL     OW44101   6.504   2.392   5.732
10543SOL    HW144102   6.459   2.448   5.800
10543SOL    HW244103   6.603   2.390   5.750
10544SOL     OW44104   5.180   2.442   1.966
10544SOL    HW144105   5.204   2.367   2.028
10544SOL    HW244106   5.123   2.508   2.015
10545SOL     OW44107   5.178   0.744   1.278
10545SOL    HW144108   5.212   0.813   1.214
10545SOL    HW244109   5.078   0.748   1.280
10546SOL     OW44110   0.781   7.259   0.204
10546SOL    HW144111   0.853   7.208   0.251
10546SOL    HW244112   0.822   7.324   0.140
10547SOL     OW44113   3.280   0.327   2.453
10547SOL    HW144114   3.228   0.245   2.478
10547SOL    HW244115   3.255   0.402   2.514
10548SOL     OW44116   1.443   1.932   0.412
10548SOL    HW144117   1.488   1.848   0.384
10548SOL    HW244118   1.512   1.996   0.448
10549SOL     OW44119   5.646   5.069   1.528
10549SOL    HW144120   5.742   5.084   1.504
10549SOL    HW244121   5.593   5.151   1.506
10550SOL     OW44122   7.161   2.232   5.856
10550SOL    HW144123   7.235   2.165   5.858
10550SOL    HW244124   7.116   2.229   5.766
10551SOL     OW44125   1.323   4.132   3.972
10551SOL    HW144126   1.250   4.189   3.935
10551SOL    HW244127   1.304   4.111   4.067
10552SOL     OW44128   1.656   4.369   5.569
10552SOL    HW144129   1.751   4.372   5.538
10552SOL    HW244130   1.631   4.275   5.593
10553SOL     OW44131   1.699   4.621   1.332
10553SOL    HW144132   1.671   4.693   1.270
10553SOL    HW244133   1.673   4.532   1.294
10554SOL     OW44134   4.630   6.922   5.712
10554SOL    HW144135   4.550   6.968   5.752
10554SOL    HW244136   4.686   6.883   5.786
10555SOL     OW44137   6.062   5.956   2.996
10555SOL    HW144138   6.039   6.025   2.927
10555SOL    HW244139   6.147   5.910   2.970
10556SOL     OW44140   3.838   5.223   3.048
10556SOL    HW144141   3.747   5.265   3.049
10556SOL    HW244142   3.829   5.123   3.046
10557SOL     OW44143   4.514   6.715   3.181
10557SOL    HW144144   4.560   6.802   3.161
10557SOL    HW244145   4.581   6.641   3.184
10558SOL     OW44146   0.887   5.104   2.685
10558SOL    HW144147   0.917   5.190   2.644
10558SOL    HW244148   0.799   5.078   2.646
10559SOL     OW44149   3.222   4.559   2.685
10559SOL    HW144150   3.182   4.487   2.630
10559SOL    HW244151   3.234   4.642   2.630
10560SOL     OW44152   6.229   6.186   4.996
10560SOL    HW144153   6.320   6.203   4.957
10560SOL    HW244154   6.240   6.155   5.091
10561SOL     OW44155   5.651   4.747   5.807
10561SOL    HW144156   5.578   4.780   5.746
10561SOL    HW244157   5.683   4.822   5.865
10562SOL     OW44158   1.704   6.566   0.107
10562SOL    HW144159   1.725   6.513   0.024
10562SOL    HW244160   1.777   6.552   0.174
10563SOL     OW44161   6.299   2.647   7.078
10563SOL    HW144162   6.317   2.585   7.002
10563SOL    HW244163   6.382   2.659   7.133
10564SOL     OW44164   7.009   0.225   7.904
10564SOL    HW144165   6.974   0.234   7.997
10564SOL    HW244166   6.981   0.137   7.866
10565SOL     OW44167   2.383   5.420   8.854
10565SOL    HW144168   2.361   5.377   8.942
10565SOL    HW244169   2.384   5.350   8.782
10566SOL     OW44170   1.216   1.013   8.321
10566SOL    HW144171   1.234   0.945   8.393
10566SOL    HW244172   1.159   0.972   8.250
10567SOL     OW44173   4.585   5.864   7.935
10567SOL    HW144174   4.684   5.873   7.948
10567SOL    HW244175   4.550   5.943   7.884
10568SOL     OW44176   5.905   5.714   8.292
10568SOL    HW144177   5.848   5.777   8.345
10568SOL    HW244178   5.851   5.677   8.216
10569SOL     OW44179   3.861   3.613   8.707
10569SOL    HW144180   3.882   3.656   8.795
10569SOL    HW244181   3.765   3.628   8.684
10570SOL     OW44182   3.267   4.417   8.814
10570SOL    HW144183   3.231   4.382   8.727
10570SOL    HW244184   3.307   4.507   8.800
10571SOL     OW44185   7.319   1.255   8.856
10571SOL    HW144186   7.307   1.354   8.852
10571SOL    HW244187   7.386   1.227   8.788
10572SOL     OW44188   2.758   2.151   8.721
10572SOL    HW144189   2.744   2.149   8.622
10572SOL    HW244190   2.846   2.110   8.743
10573SOL     OW44191   6.985   1.429   7.623
10573SOL    HW144192   7.035   1.373   7.557
10573SOL    HW244193   6.958   1.515   7.579
10574SOL     OW44194   4.272   3.190   8.220
10574SOL    HW144195   4.285   3.212   8.317
10574SOL    HW244196   4.188   3.234   8.186
10575SOL     OW44197   4.177   3.818   8.929
10575SOL    HW144198   4.201   3.915   8.923
10575SOL    HW244199   4.218   3.778   0.011
10576SOL     OW44200   3.465   2.316   7.738
10576SOL    HW144201   3.390   2.260   7.701
10576SOL    HW244202   3.469   2.403   7.690
10577SOL     OW44203   5.154   2.091   0.219
10577SOL    HW144204   5.078   2.156   0.208
10577SOL    HW244205   5.147   2.020   0.149
10578SOL     OW44206   4.774   4.641   8.716
10578SOL    HW144207   4.760   4.718   8.654
10578SOL    HW244208   4.694   4.580   8.713
10579SOL     OW44209   4.162   0.821   8.083
10579SOL    HW144210   4.252   0.790   8.113
10579SOL    HW244211   4.151   0.918   8.106
10580SOL     OW44212   0.457   4.276   8.777
10580SOL    HW144213   0.473   4.182   8.746
10580SOL    HW244214   0.539   4.310   8.822
10581SOL     OW44215   5.439   4.694   8.913
10581SOL    HW144216   5.526   4.646   8.918
10581SOL    HW244217   5.389   4.665   8.831
10582SOL     OW44218   2.471   5.789   7.877
10582SOL    HW144219   2.540   5.758   7.943
10582SOL    HW244220   2.383   5.799   7.923
10583SOL     OW44221   6.919   2.373   8.531
10583SOL    HW144222   6.901   2.280   8.499
10583SOL    HW244223   6.904   2.378   8.630
10584SOL     OW44224   1.887   4.283   8.683
10584SOL    HW144225   1.795   4.317   8.668
10584SOL    HW244226   1.911   4.219   8.609
10585SOL     OW44227   6.175   5.206   8.520
10585SOL    HW144228   6.254   5.192   8.581
10585SOL    HW244229   6.169   5.303   8.496
10586SOL     OW44230   2.725   1.918   8.936
10586SOL    HW144231   2.701   1.821   8.946
10586SOL    HW244232   2.718   1.944   8.840
10587SOL     OW44233   1.143   2.234   7.996
10587SOL    HW144234   1.223   2.182   8.026
10587SOL    HW244235   1.165   2.284   7.912
10588SOL     OW44236   0.500   2.644   7.940
10588SOL    HW144237   0.540   2.552   7.934
10588SOL    HW244238   0.552   2.707   7.883
10589SOL     OW44239   6.485   4.519   7.967
10589SOL    HW144240   6.429   4.570   7.901
10589SOL    HW244241   6.427   4.490   8.043
10590SOL     OW44242   2.969   1.858   8.183
10590SOL    HW144243   2.923   1.944   8.159
10590SOL    HW244244   2.903   1.797   8.226
10591SOL     OW44245   3.198   7.188   8.460
10591SOL    HW144246   3.183   7.096   8.425
10591SOL    HW244247   3.110   7.230   8.481
10592SOL     OW44248   6.683   0.145   8.242
10592SOL    HW144249   6.677   0.095   8.156
10592SOL    HW244250   6.642   0.091   8.315
10593SOL     OW44251   5.818   1.077   8.978
10593SOL    HW144252   5.880   1.009   0.017
10593SOL    HW244253   5.752   1.104   0.048
10594SOL     OW44254   0.941   5.962   7.880
10594SOL    HW144255   0.992   5.889   7.833
10594SOL    HW244256   0.900   6.023   7.813
10595SOL     OW44257   2.607   0.425   8.481
10595SOL    HW144258   2.668   0.389   8.551
10595SOL    HW244259   2.512   0.414   8.511
10596SOL     OW44260   5.410   3.165   7.432
10596SOL    HW144261   5.506   3.173   7.408
10596SOL    HW244262   5.374   3.079   7.396
10597SOL     OW44263   0.960   3.232   7.794
10597SOL    HW144264   0.892   3.214   7.865
10597SOL    HW244265   1.017   3.309   7.822
10598SOL     OW44266   4.113   0.060   7.746
10598SOL    HW144267   4.082   8.983   7.689
10598SOL    HW244268   4.045   0.077   7.817
10599SOL     OW44269   5.341   3.735   8.680
10599SOL    HW144270   5.439   3.719   8.675
10599SOL    HW244271   5.324   3.833   8.693
10600SOL     OW44272   6.872   5.401   7.761
10600SOL    HW144273   6.800   5.400   7.831
10600SOL    HW244274   6.947   5.343   7.790
10601SOL     OW44275   1.830   1.383   8.154
10601SOL    HW144276   1.852   1.343   8.243
10601SOL    HW244277   1.913   1.393   8.101
10602SOL     OW44278   1.364   1.865   8.956
10602SOL    HW144279   1.332   1.808   8.880
10602SOL    HW244280   1.430   1.932   8.922
10603SOL     OW44281   1.977   1.549   7.576
10603SOL    HW144282   1.923   1.539   7.659
10603SOL    HW244283   2.075   1.549   7.599
10604SOL     OW44284   7.077   5.228   7.849
10604SOL    HW144285   7.129   5.266   7.926
10604SOL    HW244286   7.075   5.128   7.857
10605SOL     OW44287   5.653   3.798   7.763
10605SOL    HW144288   5.632   3.703   7.740
10605SOL    HW244289   5.631   3.816   7.859
10606SOL     OW44290   0.076   0.670   8.521
10606SOL    HW144291   0.037   0.748   8.570
10606SOL    HW244292   0.016   0.591   8.530
10607SOL     OW44293   3.167   0.986   8.597
10607SOL    HW144294   3.247   1.019   8.548
10607SOL    HW244295   3.108   1.063   8.621
10608SOL     OW44296   4.913   4.799   7.701
10608SOL    HW144297   4.929   4.711   7.656
10608SOL    HW244298   4.994   4.857   7.690
10609SOL     OW44299   5.920   0.798   8.213
10609SOL    HW144300   5.923   0.843   8.123
10609SOL    HW244301   5.914   0.699   8.200
10610SOL     OW44302   1.441   5.476   7.885
10610SOL    HW144303   1.469   5.572   7.892
10610SOL    HW244304   1.361   5.461   7.942
10611SOL     OW44305   6.332   4.424   8.181
10611SOL    HW144306   6.362   4.369   8.260
10611SOL    HW244307   6.233   4.433   8.183
10612SOL     OW44308   4.025   3.659   8.326
10612SOL    HW144309   4.064   3.627   8.413
10612SOL    HW244310   3.966   3.587   8.288
10613SOL     OW44311   7.263   4.232   7.660
10613SOL    HW144312   7.215   4.185   7.586
10613SOL    HW244313   7.358   4.248   7.634
10614SOL     OW44314   2.399   2.135   8.101
10614SOL    HW144315   2.341   2.214   8.116
10614SOL    HW244316   2.432   2.134   8.006
10615SOL     OW44317   0.865   0.207   8.182
10615SOL    HW144318   0.831   0.220   8.275
10615SOL    HW244319   0.789   0.182   8.122
10616SOL     OW44320   0.918   2.938   8.407
10616SOL    HW144321   0.886   3.016   8.460
10616SOL    HW244322   1.017   2.927   8.420
10617SOL     OW44323   1.208   5.465   8.030
10617SOL    HW144324   1.153   5.479   7.948
10617SOL    HW244325   1.183   5.535   8.098
10618SOL     OW44326   5.718   1.144   7.536
10618SOL    HW144327   5.705   1.182   7.627
10618SOL    HW244328   5.783   1.068   7.542
10619SOL     OW44329   5.433   5.222   8.935
10619SOL    HW144330   5.391   5.216   8.845
10619SOL    HW244331   5.474   5.312   8.948
10620SOL     OW44332   3.835   3.614   7.854
10620SOL    HW144333   3.823   3.529   7.802
10620SOL    HW244334   3.927   3.649   7.840
10621SOL     OW44335   7.255   3.556   7.515
10621SOL    HW144336   7.211   3.502   7.587
10621SOL    HW244337   7.220   3.527   7.426
10622SOL     OW44338   6.755   0.907   7.969
10622SOL    HW144339   6.802   0.879   7.885
10622SOL    HW244340   6.740   1.005   7.968
10623SOL     OW44341   0.338   7.104   7.752
10623SOL    HW144342   0.411   7.141   7.694
10623SOL    HW244343   0.332   7.005   7.737
10624SOL     OW44344   5.015   2.742   8.540
10624SOL    HW144345   4.977   2.816   8.485
10624SOL    HW244346   5.111   2.762   8.560
10625SOL     OW44347   4.510   3.018   0.122
10625SOL    HW144348   4.562   3.006   0.206
10625SOL    HW244349   4.572   3.041   0.047
10626SOL     OW44350   2.774   6.056   8.437
10626SOL    HW144351   2.773   5.963   8.401
10626SOL    HW244352   2.866   6.093   8.433
10627SOL     OW44353   2.757   3.693   8.565
10627SOL    HW144354   2.794   3.668   8.475
10627SOL    HW244355   2.657   3.692   8.560
10628SOL     OW44356   4.307   0.481   8.346
10628SOL    HW144357   4.240   0.455   8.276
10628SOL    HW244358   4.384   0.417   8.343
10629SOL     OW44359   0.083   3.512   8.486
10629SOL    HW144360   0.001   3.525   8.541
10629SOL    HW244361   0.133   3.432   8.519
10630SOL     OW44362   1.330   1.925   7.609
10630SOL    HW144363   1.370   1.885   7.527
10630SOL    HW244364   1.400   1.930   7.681
10631SOL     OW44365   4.568   7.182   8.249
10631SOL    HW144366   4.660   7.206   8.282
10631SOL    HW244367   4.509   7.161   8.326
10632SOL     OW44368   6.512   6.517   7.372
10632SOL    HW144369   6.472   6.426   7.364
10632SOL    HW244370   6.576   6.532   7.297
10633SOL     OW44371   2.158   0.073   7.427
10633SOL    HW144372   2.167   0.037   7.334
10633SOL    HW244373   2.122   0.166   7.423
10634SOL     OW44374   1.243   1.277   8.252
10634SOL    HW144375   1.260   1.184   8.283
10634SOL    HW244376   1.145   1.296   8.254
10635SOL     OW44377   2.637   4.190   8.916
10635SOL    HW144378   2.732   4.217   8.905
10635SOL    HW244379   2.585   4.220   8.836
10636SOL     OW44380   3.680   4.774   7.564
10636SOL    HW144381   3.717   4.745   7.476
10636SOL    HW244382   3.622   4.702   7.601
10637SOL     OW44383   5.616   8.955   8.379
10637SOL    HW144384   5.543   8.889   8.396
10637SOL    HW244385   5.581   0.048   8.394
10638SOL     OW44386   0.510   4.884   8.399
10638SOL    HW144387   0.510   4.954   8.328
10638SOL    HW244388   0.543   4.925   8.485
10639SOL     OW44389   3.397   5.254   8.904
10639SOL    HW144390   3.321   5.271   8.968
10639SOL    HW244391   3.470   5.206   8.952
10640SOL     OW44392   5.385   2.561   7.573
10640SOL    HW144393   5.376   2.537   7.477
10640SOL    HW244394   5.388   2.478   7.629
10641SOL     OW44395   5.629   4.109   7.950
10641SOL    HW144396   5.720   4.151   7.957
10641SOL    HW244397   5.604   4.099   7.854
10642SOL     OW44398   5.459   3.643   8.227
10642SOL    HW144399   5.411   3.695   8.297
10642SOL    HW244400   5.393   3.601   8.165
10643SOL     OW44401   4.412   3.253   7.570
10643SOL    HW144402   4.361   3.209   7.496
10643SOL    HW244403   4.385   3.213   7.658
10644SOL     OW44404   1.900   4.892   8.175
10644SOL    HW144405   1.880   4.987   8.197
10644SOL    HW244406   1.819   4.850   8.133
10645SOL     OW44407   7.126   1.012   8.934
10645SOL    HW144408   7.060   0.993   8.861
10645SOL    HW244409   7.187   1.086   8.905
10646SOL     OW44410   3.761   0.371   8.632
10646SOL    HW144411   3.720   0.284   8.657
10646SOL    HW244412   3.854   0.376   8.670
10647SOL     OW44413   5.038   5.481   8.344
10647SOL    HW144414   4.997   5.572   8.345
10647SOL    HW244415   5.028   5.440   8.253
10648SOL     OW44416   1.660   3.277   8.942
10648SOL    HW144417   1.660   3.213   0.019
10648SOL    HW244418   1.567   3.309   8.926
10649SOL     OW44419   4.855   4.690   8.344
10649SOL    HW144420   4.809   4.738   8.418
10649SOL    HW244421   4.914   4.754   8.295
10650SOL     OW44422   0.172   5.402   7.787
10650SOL    HW144423   0.209   5.466   7.719
10650SOL    HW244424   0.170   5.446   7.876
10651SOL     OW44425   0.022   4.359   8.873
10651SOL    HW144426   0.028   4.259   8.874
10651SOL    HW244427   0.004   4.391   8.780
10652SOL     OW44428   6.621   0.515   8.437
10652SOL    HW144429   6.708   0.484   8.474
10652SOL    HW244430   6.621   0.615   8.432
10653SOL     OW44431   4.271   0.273   7.680
10653SOL    HW144432   4.203   0.202   7.703
10653SOL    HW244433   4.226   0.347   7.631
10654SOL     OW44434   0.615   0.698   8.241
10654SOL    HW144435   0.589   0.792   8.263
10654SOL    HW244436   0.550   0.660   8.175
10655SOL     OW44437   4.975   4.640   8.027
10655SOL    HW144438   4.946   4.554   7.984
10655SOL    HW244439   5.031   4.620   8.107
10656SOL     OW44440   1.026   4.437   8.352
10656SOL    HW144441   1.037   4.392   8.441
10656SOL    HW244442   1.096   4.507   8.341
10657SOL     OW44443   6.548   4.909   7.474
10657SOL    HW144444   6.627   4.968   7.492
10657SOL    HW244445   6.547   4.883   7.378
10658SOL     OW44446   1.071   3.001   8.721
10658SOL    HW144447   1.140   2.989   8.650
10658SOL    HW244448   1.115   3.027   8.807
10659SOL     OW44449   1.196   4.588   8.979
10659SOL    HW144450   1.132   4.647   8.930
10659SOL    HW244451   1.219   4.510   8.922
10660SOL     OW44452   0.613   6.015   7.417
10660SOL    HW144453   0.569   5.984   7.501
10660SOL    HW244454   0.571   6.102   7.388
10661SOL     OW44455   5.178   5.130   7.907
10661SOL    HW144456   5.198   5.091   7.997
10661SOL    HW244457   5.082   5.158   7.904
10662SOL     OW44458   0.917   2.297   8.501
10662SOL    HW144459   0.938   2.312   8.404
10662SOL    HW244460   0.855   2.369   8.533
10663SOL     OW44461   1.561   0.773   8.184
10663SOL    HW144462   1.466   0.789   8.157
10663SOL    HW244463   1.622   0.804   8.111
10664SOL     OW44464   4.531   0.981   7.711
10664SOL    HW144465   4.447   0.927   7.712
10664SOL    HW244466   4.520   1.061   7.770
10665SOL     OW44467   5.942   1.702   7.337
10665SOL    HW144468   5.946   1.617   7.285
10665SOL    HW244469   5.851   1.744   7.324
10666SOL     OW44470   3.350   4.296   8.007
10666SOL    HW144471   3.276   4.348   8.049
10666SOL    HW244472   3.407   4.358   7.953
10667SOL     OW44473   2.980   2.750   8.509
10667SOL    HW144474   2.883   2.753   8.533
10667SOL    HW244475   3.007   2.655   8.489
10668SOL     OW44476   3.392   0.490   8.548
10668SOL    HW144477   3.463   0.559   8.560
10668SOL    HW244478   3.432   0.399   8.557
10669SOL     OW44479   4.004   5.544   7.908
10669SOL    HW144480   4.050   5.456   7.898
10669SOL    HW244481   4.053   5.599   7.976
10670SOL     OW44482   6.178   1.235   7.985
10670SOL    HW144483   6.170   1.197   8.077
10670SOL    HW244484   6.233   1.175   7.928
10671SOL     OW44485   4.671   1.417   7.829
10671SOL    HW144486   4.692   1.455   7.920
10671SOL    HW244487   4.685   1.488   7.760
10672SOL     OW44488   6.074   2.077   7.826
10672SOL    HW144489   6.019   2.056   7.907
10672SOL    HW244490   6.026   2.046   7.744
10673SOL     OW44491   4.476   2.188   7.393
10673SOL    HW144492   4.376   2.187   7.399
10673SOL    HW244493   4.503   2.238   7.310
10674SOL     OW44494   5.198   0.627   8.871
10674SOL    HW144495   5.136   0.549   8.864
10674SOL    HW244496   5.200   0.677   8.785
10675SOL     OW44497   4.900   3.434   7.479
10675SOL    HW144498   4.952   3.401   7.401
10675SOL    HW244499   4.807   3.398   7.475
10676SOL     OW44500   4.896   0.544   7.835
10676SOL    HW144501   4.825   0.596   7.788
10676SOL    HW244502   4.965   0.606   7.870
10677SOL     OW44503   4.668   6.845   8.874
10677SOL    HW144504   4.573   6.834   8.845
10677SOL    HW244505   4.696   6.766   8.928
10678SOL     OW44506   1.339   2.268   8.902
10678SOL    HW144507   1.380   2.347   8.856
10678SOL    HW244508   1.251   2.247   8.858
10679SOL     OW44509   5.729   3.343   8.069
10679SOL    HW144510   5.674   3.285   8.129
10679SOL    HW244511   5.791   3.399   8.124
10680SOL     OW44512   2.584   3.883   7.940
10680SOL    HW144513   2.495   3.901   7.900
10680SOL    HW244514   2.608   3.786   7.928
10681SOL     OW44515   3.232   3.132   8.708
10681SOL    HW144516   3.165   3.058   8.706
10681SOL    HW244517   3.186   3.219   8.722
10682SOL     OW44518   3.642   6.393   7.808
10682SOL    HW144519   3.739   6.375   7.791
10682SOL    HW244520   3.587   6.352   7.736
10683SOL     OW44521   7.219   1.581   7.451
10683SOL    HW144522   7.246   1.565   7.546
10683SOL    HW244523   7.181   1.673   7.442
10684SOL     OW44524   4.346   3.153   7.823
10684SOL    HW144525   4.303   3.236   7.858
10684SOL    HW244526   4.436   3.141   7.866
10685SOL     OW44527   4.061   2.530   7.873
10685SOL    HW144528   4.081   2.623   7.902
10685SOL    HW244529   3.966   2.507   7.897
10686SOL     OW44530   3.521   6.613   7.925
10686SOL    HW144531   3.556   6.531   7.880
10686SOL    HW244532   3.439   6.590   7.977
10687SOL     OW44533   0.849   1.378   7.603
10687SOL    HW144534   0.779   1.424   7.657
10687SOL    HW244535   0.816   1.287   7.576
10688SOL     OW44536   3.840   6.253   8.169
10688SOL    HW144537   3.830   6.189   8.244
10688SOL    HW244538   3.757   6.253   8.113
10689SOL     OW44539   4.991   4.909   8.251
10689SOL    HW144540   4.918   4.975   8.233
10689SOL    HW244541   5.079   4.946   8.219
10690SOL     OW44542   2.565   4.348   0.134
10690SOL    HW144543   2.551   4.434   0.085
10690SOL    HW244544   2.590   4.276   0.069
10691SOL     OW44545   5.283   1.318   7.495
10691SOL    HW144546   5.264   1.347   7.402
10691SOL    HW244547   5.200   1.327   7.550
10692SOL     OW44548   6.548   0.209   0.050
10692SOL    HW144549   6.559   0.288   0.109
10692SOL    HW244550   6.550   0.238   8.954
10693SOL     OW44551   0.208   0.569   7.551
10693SOL    HW144552   0.122   0.521   7.533
10693SOL    HW244553   0.204   0.611   7.641
10694SOL     OW44554   1.002   2.847   7.525
10694SOL    HW144555   1.066   2.869   7.451
10694SOL    HW244556   0.911   2.832   7.486
10695SOL     OW44557   6.694   5.651   8.547
10695SOL    HW144558   6.629   5.583   8.580
10695SOL    HW244559   6.711   5.719   8.619
10696SOL     OW44560   4.127   1.749   7.365
10696SOL    HW144561   4.217   1.740   7.406
10696SOL    HW244562   4.104   1.666   7.314
10697SOL     OW44563   4.107   5.301   7.838
10697SOL    HW144564   4.081   5.305   7.742
10697SOL    HW244565   4.102   5.207   7.870
10698SOL     OW44566   5.533   2.519   8.235
10698SOL    HW144567   5.532   2.533   8.334
10698SOL    HW244568   5.572   2.600   8.191
10699SOL     OW44569   5.447   1.124   7.841
10699SOL    HW144570   5.368   1.183   7.824
10699SOL    HW244571   5.531   1.173   7.817
10700SOL     OW44572   4.100   3.563   8.579
10700SOL    HW144573   4.117   3.465   8.595
10700SOL    HW244574   4.013   3.588   8.621
10701SOL     OW44575   2.766   2.925   7.724
10701SOL    HW144576   2.847   2.899   7.671
10701SOL    HW244577   2.725   2.842   7.764
10702SOL     OW44578   1.637   5.284   7.900
10702SOL    HW144579   1.729   5.320   7.887
10702SOL    HW244580   1.570   5.355   7.880
10703SOL     OW44581   6.745   2.664   8.896
10703SOL    HW144582   6.801   2.707   8.825
10703SOL    HW244583   6.680   2.601   8.854
10704SOL     OW44584   1.301   4.623   8.651
10704SOL    HW144585   1.280   4.717   8.676
10704SOL    HW244586   1.378   4.590   8.706
10705SOL     OW44587   4.275   1.497   7.885
10705SOL    HW144588   4.303   1.570   7.822
10705SOL    HW244589   4.175   1.491   7.888
10706SOL     OW44590   5.636   2.184   8.767
10706SOL    HW144591   5.570   2.149   8.834
10706SOL    HW244592   5.640   2.122   8.689
10707SOL     OW44593   3.750   0.747   8.240
10707SOL    HW144594   3.842   0.708   8.241
10707SOL    HW244595   3.714   0.744   8.147
10708SOL     OW44596   4.899   2.944   8.386
10708SOL    HW144597   4.865   3.019   8.442
10708SOL    HW244598   4.929   2.980   8.297
10709SOL     OW44599   1.986   0.434   7.875
10709SOL    HW144600   1.998   0.341   7.842
10709SOL    HW244601   1.925   0.434   7.954
10710SOL     OW44602   2.595   2.521   8.412
10710SOL    HW144603   2.570   2.613   8.382
10710SOL    HW244604   2.528   2.488   8.478
10711SOL     OW44605   0.793   5.427   7.778
10711SOL    HW144606   0.805   5.457   7.873
10711SOL    HW244607   0.794   5.327   7.775
10712SOL     OW44608   5.685   5.212   8.155
10712SOL    HW144609   5.762   5.246   8.209
10712SOL    HW244610   5.713   5.198   8.060
10713SOL     OW44611   1.199   2.366   7.756
10713SOL    HW144612   1.154   2.446   7.716
10713SOL    HW244613   1.217   2.298   7.685
10714SOL     OW44614   4.896   3.753   8.338
10714SOL    HW144615   4.967   3.683   8.329
10714SOL    HW244616   4.889   3.804   8.252
10715SOL     OW44617   3.168   0.579   7.498
10715SOL    HW144618   3.094   0.627   7.451
10715SOL    HW244619   3.132   0.497   7.541
10716SOL     OW44620   3.295   3.944   7.692
10716SOL    HW144621   3.390   3.925   7.719
10716SOL    HW244622   3.265   4.030   7.734
10717SOL     OW44623   4.291   1.271   8.050
10717SOL    HW144624   4.276   1.342   7.982
10717SOL    HW244625   4.312   1.313   8.139
10718SOL     OW44626   0.922   3.756   8.470
10718SOL    HW144627   0.924   3.792   8.377
10718SOL    HW244628   0.947   3.828   8.534
10719SOL     OW44629   0.674   4.477   7.840
10719SOL    HW144630   0.724   4.415   7.900
10719SOL    HW244631   0.738   4.538   7.794
10720SOL     OW44632   0.537   4.573   8.385
10720SOL    HW144633   0.482   4.527   8.454
10720SOL    HW244634   0.528   4.672   8.396
10721SOL     OW44635   2.623   3.618   7.889
10721SOL    HW144636   2.674   3.589   7.808
10721SOL    HW244637   2.528   3.586   7.883
10722SOL     OW44638   2.586   0.056   7.879
10722SOL    HW144639   2.499   0.026   7.918
10722SOL    HW244640   2.639   0.105   7.948
10723SOL     OW44641   0.003   0.887   8.667
10723SOL    HW144642   0.024   0.984   8.664
10723SOL    HW244643   8.997   0.857   8.763
10724SOL     OW44644   6.164   5.815   7.479
10724SOL    HW144645   6.240   5.755   7.501
10724SOL    HW244646   6.083   5.760   7.458
10725SOL     OW44647   4.269   2.489   7.420
10725SOL    HW144648   4.363   2.503   7.451
10725SOL    HW244649   4.255   2.392   7.400
10726SOL     OW44650   2.980   6.397   7.397
10726SOL    HW144651   2.890   6.434   7.421
10726SOL    HW244652   3.042   6.473   7.375
10727SOL     OW44653   3.141   5.387   7.716
10727SOL    HW144654   3.179   5.296   7.734
10727SOL    HW244655   3.206   5.456   7.748
10728SOL     OW44656   6.482   0.839   7.943
10728SOL    HW144657   6.432   0.856   8.028
10728SOL    HW244658   6.580   0.853   7.959
10729SOL     OW44659   0.174   2.116   8.780
10729SOL    HW144660   0.099   2.122   8.715
10729SOL    HW244661   0.232   2.037   8.758
10730SOL     OW44662   3.146   0.376   8.508
10730SOL    HW144663   3.229   0.429   8.527
10730SOL    HW244664   3.144   0.350   8.411
10731SOL     OW44665   6.351   6.227   8.461
10731SOL    HW144666   6.425   6.285   8.494
10731SOL    HW244667   6.340   6.239   8.363
10732SOL     OW44668   0.193   3.009   7.423
10732SOL    HW144669   0.208   2.912   7.442
10732SOL    HW244670   0.105   3.037   7.461
10733SOL     OW44671   7.153   0.677   0.250
10733SOL    HW144672   7.072   0.647   0.300
10733SOL    HW244673   7.150   0.776   0.239
10734SOL     OW44674   4.437   4.272   8.008
10734SOL    HW144675   4.338   4.286   8.015
10734SOL    HW244676   4.473   4.243   8.096
10735SOL     OW44677   2.676   4.888   8.294
10735SOL    HW144678   2.598   4.936   8.255
10735SOL    HW244679   2.737   4.953   8.339
10736SOL     OW44680   4.966   3.042   8.136
10736SOL    HW144681   4.923   3.132   8.133
10736SOL    HW244682   4.946   2.993   8.051
10737SOL     OW44683   6.280   4.255   8.899
10737SOL    HW144684   6.347   4.311   8.947
10737SOL    HW244685   6.304   4.158   8.907
10738SOL     OW44686   7.171   1.308   7.448
10738SOL    HW144687   7.195   1.404   7.434
10738SOL    HW244688   7.254   1.252   7.445
10739SOL     OW44689   3.658   6.681   7.456
10739SOL    HW144690   3.713   6.606   7.491
10739SOL    HW244691   3.621   6.657   7.366
10740SOL     OW44692   1.177   4.372   8.597
10740SOL    HW144693   1.235   4.323   8.531
10740SOL    HW244694   1.216   4.462   8.614
10741SOL     OW44695   6.597   5.700   7.884
10741SOL    HW144696   6.591   5.717   7.785
10741SOL    HW244697   6.611   5.602   7.900
10742SOL     OW44698   2.567   5.002   8.712
10742SOL    HW144699   2.665   5.015   8.694
10742SOL    HW244700   2.545   4.905   8.702
10743SOL     OW44701   2.300   6.152   7.967
10743SOL    HW144702   2.304   6.185   8.061
10743SOL    HW244703   2.217   6.098   7.953
10744SOL     OW44704   6.464   1.372   0.226
10744SOL    HW144705   6.528   1.348   0.154
10744SOL    HW244706   6.401   1.442   0.194
10745SOL     OW44707   5.537   4.813   7.941
10745SOL    HW144708   5.492   4.738   7.989
10745SOL    HW244709   5.535   4.797   7.843
10746SOL     OW44710   2.102   4.980   7.435
10746SOL    HW144711   2.189   4.938   7.461
10746SOL    HW244712   2.105   5.078   7.456
10747SOL     OW44713   0.499   5.376   8.127
10747SOL    HW144714   0.452   5.454   8.086
10747SOL    HW244715   0.526   5.312   8.055
10748SOL     OW44716   1.913   5.225   7.678
10748SOL    HW144717   1.996   5.235   7.625
10748SOL    HW244718   1.856   5.307   7.667
10749SOL     OW44719   2.862   7.269   7.365
10749SOL    HW144720   2.867   7.180   7.320
10749SOL    HW244721   2.873   7.256   7.464
10750SOL     OW44722   6.762   4.487   8.825
10750SOL    HW144723   6.861   4.481   8.836
10750SOL    HW244724   6.739   4.574   8.781
10751SOL     OW44725   4.230   4.394   8.778
10751SOL    HW144726   4.296   4.425   8.846
10751SOL    HW244727   4.275   4.388   8.688
10752SOL     OW44728   2.526   4.083   8.535
10752SOL    HW144729   2.492   4.072   8.442
10752SOL    HW244730   2.452   4.065   8.600
10753SOL     OW44731   1.367   2.720   8.402
10753SOL    HW144732   1.392   2.731   8.305
10753SOL    HW244733   1.448   2.738   8.459
10754SOL     OW44734   5.930   5.489   8.453
10754SOL    HW144735   5.933   5.565   8.389
10754SOL    HW244736   5.927   5.403   8.402
10755SOL     OW44737   2.944   5.881   8.729
10755SOL    HW144738   2.858   5.929   8.744
10755SOL    HW244739   2.992   5.869   8.816
10756SOL     OW44740   6.097   4.074   8.011
10756SOL    HW144741   6.182   4.126   7.998
10756SOL    HW244742   6.101   3.989   7.959
10757SOL     OW44743   7.045   0.550   7.961
10757SOL    HW144744   7.064   0.461   8.002
10757SOL    HW244745   7.100   0.621   8.006
10758SOL     OW44746   0.763   5.439   8.895
10758SOL    HW144747   0.741   5.509   8.826
10758SOL    HW244748   0.764   5.481   8.985
10759SOL     OW44749   3.489   2.308   8.402
10759SOL    HW144750   3.466   2.398   8.437
10759SOL    HW244751   3.571   2.274   8.449
10760SOL     OW44752   7.135   6.613   8.675
10760SOL    HW144753   7.063   6.656   8.730
10760SOL    HW244754   7.196   6.683   8.639
10761SOL     OW44755   3.172   6.211   7.907
10761SOL    HW144756   3.267   6.180   7.896
10761SOL    HW244757   3.124   6.148   7.967
10762SOL     OW44758   4.361   1.408   8.763
10762SOL    HW144759   4.342   1.313   8.787
10762SOL    HW244760   4.331   1.468   8.837
10763SOL     OW44761   1.129   0.735   8.747
10763SOL    HW144762   1.036   0.702   8.734
10763SOL    HW244763   1.182   0.668   8.800
10764SOL     OW44764   4.140   1.344   8.511
10764SOL    HW144765   4.070   1.292   8.463
10764SOL    HW244766   4.225   1.291   8.514
10765SOL     OW44767   5.505   2.906   7.861
10765SOL    HW144768   5.546   2.994   7.836
10765SOL    HW244769   5.436   2.881   7.793
10766SOL     OW44770   0.766   0.413   8.638
10766SOL    HW144771   0.694   0.394   8.705
10766SOL    HW244772   0.808   0.327   8.610
10767SOL     OW44773   5.777   2.728   8.405
10767SOL    HW144774   5.738   2.744   8.315
10767SOL    HW244775   5.834   2.806   8.432
10768SOL     OW44776   2.638   1.760   7.465
10768SOL    HW144777   2.733   1.730   7.476
10768SOL    HW244778   2.577   1.692   7.504
10769SOL     OW44779   4.091   3.936   7.882
10769SOL    HW144780   4.087   3.849   7.833
10769SOL    HW244781   4.009   3.947   7.938
10770SOL     OW44782   3.558   3.645   7.921
10770SOL    HW144783   3.657   3.648   7.908
10770SOL    HW244784   3.528   3.550   7.917
10771SOL     OW44785   5.406   6.025   8.833
10771SOL    HW144786   5.362   6.113   8.814
10771SOL    HW244787   5.437   5.984   8.747
10772SOL     OW44788   4.680   3.910   7.505
10772SOL    HW144789   4.716   3.999   7.533
10772SOL    HW244790   4.673   3.907   7.405
10773SOL     OW44791   3.056   2.273   8.041
10773SOL    HW144792   3.132   2.253   8.103
10773SOL    HW244793   3.015   2.360   8.065
10774SOL     OW44794   0.419   1.602   7.865
10774SOL    HW144795   0.389   1.679   7.809
10774SOL    HW244796   0.353   1.527   7.858
10775SOL     OW44797   3.591   5.589   8.647
10775SOL    HW144798   3.548   5.574   8.736
10775SOL    HW244799   3.684   5.552   8.648
10776SOL     OW44800   6.310   0.033   7.862
10776SOL    HW144801   6.379   0.102   7.885
10776SOL    HW244802   6.290   0.038   7.764
10777SOL     OW44803   2.178   4.331   8.457
10777SOL    HW144804   2.120   4.405   8.492
10777SOL    HW244805   2.266   4.334   8.504
10778SOL     OW44806   2.377   2.165   8.510
10778SOL    HW144807   2.293   2.183   8.458
10778SOL    HW244808   2.440   2.112   8.455
10779SOL     OW44809   4.705   8.977   7.581
10779SOL    HW144810   4.615   0.020   7.583
10779SOL    HW244811   4.775   0.047   7.572
10780SOL     OW44812   4.504   3.797   7.907
10780SOL    HW144813   4.565   3.763   7.836
10780SOL    HW244814   4.554   3.862   7.965
10781SOL     OW44815   6.196   0.576   8.336
10781SOL    HW144816   6.223   0.507   8.269
10781SOL    HW244817   6.121   0.540   8.393
10782SOL     OW44818   3.706   3.590   8.363
10782SOL    HW144819   3.694   3.689   8.367
10782SOL    HW244820   3.679   3.550   8.450
10783SOL     OW44821   0.371   3.896   8.145
10783SOL    HW144822   0.388   3.994   8.159
10783SOL    HW244823   0.274   3.877   8.161
10784SOL     OW44824   1.238   5.376   7.429
10784SOL    HW144825   1.278   5.464   7.403
10784SOL    HW244826   1.254   5.359   7.526
10785SOL     OW44827   6.157   1.686   8.820
10785SOL    HW144828   6.131   1.782   8.811
10785SOL    HW244829   6.075   1.629   8.820
10786SOL     OW44830   3.298   6.588   8.109
10786SOL    HW144831   3.253   6.549   8.189
10786SOL    HW244832   3.357   6.664   8.138
10787SOL     OW44833   7.129   0.636   8.627
10787SOL    HW144834   7.063   0.691   8.576
10787SOL    HW244835   7.116   0.652   8.726
10788SOL     OW44836   1.737   0.843   7.981
10788SOL    HW144837   1.748   0.878   7.888
10788SOL    HW244838   1.822   0.855   8.032
10789SOL     OW44839   0.351   4.868   8.746
10789SOL    HW144840   0.290   4.918   8.807
10789SOL    HW244841   0.304   4.786   8.711
10790SOL     OW44842   5.658   2.004   8.556
10790SOL    HW144843   5.743   1.954   8.572
10790SOL    HW244844   5.595   1.947   8.504
10791SOL     OW44845   2.837   5.465   8.336
10791SOL    HW144846   2.916   5.513   8.298
10791SOL    HW244847   2.842   5.468   8.436
10792SOL     OW44848   4.990   7.325   8.768
10792SOL    HW144849   4.994   7.298   8.672
10792SOL    HW244850   4.898   7.355   8.791
10793SOL     OW44851   2.356   0.118   8.570
10793SOL    HW144852   2.361   0.218   8.574
10793SOL    HW244853   2.445   0.081   8.542
10794SOL     OW44854   0.852   6.148   7.691
10794SOL    HW144855   0.923   6.218   7.699
10794SOL    HW244856   0.862   6.100   7.604
10795SOL     OW44857   0.815   0.056   8.993
10795SOL    HW144858   0.884   0.016   0.053
10795SOL    HW244859   0.827   0.155   8.989
10796SOL     OW44860   5.350   3.835   7.441
10796SOL    HW144861   5.274   3.798   7.388
10796SOL    HW244862   5.405   3.895   7.383
10797SOL     OW44863   0.544   0.366   8.797
10797SOL    HW144864   0.520   0.448   8.849
10797SOL    HW244865   0.509   0.285   8.844
10798SOL     OW44866   2.888   3.631   8.321
10798SOL    HW144867   2.951   3.690   8.271
10798SOL    HW244868   2.821   3.593   8.258
10799SOL     OW44869   3.425   6.101   7.888
10799SOL    HW144870   3.503   6.083   7.828
10799SOL    HW244871   3.408   6.020   7.945
10800SOL     OW44872   5.476   2.646   8.765
10800SOL    HW144873   5.463   2.720   8.831
10800SOL    HW244874   5.573   2.624   8.760
10801SOL     OW44875   6.801   2.140   8.441
10801SOL    HW144876   6.719   2.147   8.497
10801SOL    HW244877   6.786   2.188   8.354
10802SOL     OW44878   6.397   4.991   7.894
10802SOL    HW144879   6.365   4.969   7.802
10802SOL    HW244880   6.493   5.019   7.890
10803SOL     OW44881   5.890   1.865   8.590
10803SOL    HW144882   5.865   1.769   8.586
10803SOL    HW244883   5.944   1.882   8.673
10804SOL     OW44884   6.320   2.881   7.847
10804SOL    HW144885   6.283   2.894   7.939
10804SOL    HW244886   6.390   2.810   7.849
10805SOL     OW44887   3.128   3.500   7.878
10805SOL    HW144888   3.137   3.579   7.818
10805SOL    HW244889   3.161   3.524   7.970
10806SOL     OW44890   1.697   4.823   7.813
10806SOL    HW144891   1.781   4.875   7.799
10806SOL    HW244892   1.692   4.793   7.908
10807SOL     OW44893   6.065   4.463   8.185
10807SOL    HW144894   6.028   4.374   8.209
10807SOL    HW244895   5.991   4.522   8.152
10808SOL     OW44896   5.866   3.020   8.908
10808SOL    HW144897   5.895   2.948   8.971
10808SOL    HW244898   5.792   2.987   8.850
10809SOL     OW44899   6.991   3.298   7.588
10809SOL    HW144900   7.042   3.352   7.656
10809SOL    HW244901   6.896   3.328   7.587
10810SOL     OW44902   1.339   4.508   7.933
10810SOL    HW144903   1.361   4.550   7.846
10810SOL    HW244904   1.300   4.576   7.995
10811SOL     OW44905   3.512   1.674   8.652
10811SOL    HW144906   3.497   1.743   8.582
10811SOL    HW244907   3.428   1.660   8.704
10812SOL     OW44908   3.782   1.111   7.628
10812SOL    HW144909   3.824   1.172   7.562
10812SOL    HW244910   3.825   1.021   7.622
10813SOL     OW44911   4.460   6.419   8.225
10813SOL    HW144912   4.480   6.492   8.290
10813SOL    HW244913   4.401   6.351   8.268
10814SOL     OW44914   0.073   1.201   8.280
10814SOL    HW144915   0.076   1.272   8.349
10814SOL    HW244916   8.978   1.174   8.262
10815SOL     OW44917   3.185   2.610   8.214
10815SOL    HW144918   3.276   2.576   8.192
10815SOL    HW244919   3.182   2.709   8.198
10816SOL     OW44920   4.137   1.626   8.515
10816SOL    HW144921   4.140   1.526   8.520
10816SOL    HW244922   4.184   1.665   8.594
10817SOL     OW44923   2.093   1.852   8.615
10817SOL    HW144924   2.116   1.755   8.608
10817SOL    HW244925   2.170   1.902   8.655
10818SOL     OW44926   6.529   4.426   8.962
10818SOL    HW144927   6.623   4.437   8.929
10818SOL    HW244928   6.471   4.497   8.922
10819SOL     OW44929   5.279   5.675   8.085
10819SOL    HW144930   5.318   5.615   8.154
10819SOL    HW244931   5.264   5.623   8.001
10820SOL     OW44932   3.138   2.569   0.304
10820SOL    HW144933   3.207   2.553   0.233
10820SOL    HW244934   3.118   2.482   0.350
10821SOL     OW44935   2.084   1.954   7.866
10821SOL    HW144936   2.142   1.920   7.939
10821SOL    HW244937   2.004   2.001   7.905
10822SOL     OW44938   0.261   2.168   7.576
10822SOL    HW144939   0.334   2.181   7.644
10822SOL    HW244940   0.273   2.234   7.501
10823SOL     OW44941   2.366   1.317   7.773
10823SOL    HW144942   2.439   1.281   7.714
10823SOL    HW244943   2.402   1.329   7.866
10824SOL     OW44944   3.286   3.350   8.473
10824SOL    HW144945   3.259   3.256   8.450
10824SOL    HW244946   3.204   3.408   8.474
10825SOL     OW44947   3.521   3.356   7.911
10825SOL    HW144948   3.560   3.301   7.837
10825SOL    HW244949   3.556   3.323   7.999
10826SOL     OW44950   1.514   0.821   7.315
10826SOL    HW144951   1.421   0.807   7.349
10826SOL    HW244952   1.557   0.896   7.366
10827SOL     OW44953   3.805   3.404   7.686
10827SOL    HW144954   3.745   3.326   7.703
10827SOL    HW244955   3.775   3.451   7.603
10828SOL     OW44956   7.234   5.313   8.061
10828SOL    HW144957   7.328   5.280   8.062
10828SOL    HW244958   7.222   5.382   8.133
10829SOL     OW44959   0.041   2.997   8.910
10829SOL    HW144960   8.948   2.961   8.907
10829SOL    HW244961   0.045   3.083   8.859
10830SOL     OW44962   1.591   6.943   7.641
10830SOL    HW144963   1.651   6.906   7.570
10830SOL    HW244964   1.584   6.877   7.716
10831SOL     OW44965   1.030   3.931   8.677
10831SOL    HW144966   1.118   3.899   8.640
10831SOL    HW244967   1.042   4.020   8.720
10832SOL     OW44968   6.153   1.208   7.417
10832SOL    HW144969   6.056   1.198   7.395
10832SOL    HW244970   6.167   1.293   7.466
10833SOL     OW44971   4.814   3.154   8.541
10833SOL    HW144972   4.723   3.188   8.562
10833SOL    HW244973   4.873   3.230   8.514
10834SOL     OW44974   4.351   3.515   7.488
10834SOL    HW144975   4.411   3.519   7.408
10834SOL    HW244976   4.364   3.428   7.535
10835SOL     OW44977   1.882   1.063   8.643
10835SOL    HW144978   1.794   1.108   8.624
10835SOL    HW244979   1.915   1.019   8.560
10836SOL     OW44980   0.317   0.170   7.611
10836SOL    HW144981   0.344   0.074   7.603
10836SOL    HW244982   0.250   0.191   7.540
10837SOL     OW44983   2.695   2.243   7.901
10837SOL    HW144984   2.734   2.260   7.811
10837SOL    HW244985   2.602   2.208   7.891
10838SOL     OW44986   4.768   0.563   7.443
10838SOL    HW144987   4.727   0.475   7.466
10838SOL    HW244988   4.734   0.594   7.354
10839SOL     OW44989   2.078   5.681   7.567
10839SOL    HW144990   2.078   5.752   7.496
10839SOL    HW244991   2.170   5.674   7.607
10840SOL     OW44992   4.103   0.105   8.542
10840SOL    HW144993   4.169   0.115   8.469
10840SOL    HW244994   4.142   0.139   8.628
10841SOL     OW44995   7.027   7.151   7.748
10841SOL    HW144996   6.949   7.158   7.685
10841SOL    HW244997   7.048   7.054   7.763
10842SOL     OW44998   3.881   1.881   8.738
10842SOL    HW144999   3.832   1.818   8.798
10842SOL    HW245000   3.966   1.910   8.781
10843SOL     OW45001   5.630   0.915   8.864
10843SOL    HW145002   5.699   0.980   8.896
10843SOL    HW245003   5.606   0.853   8.939
10844SOL     OW45004   1.045   3.277   8.134
10844SOL    HW145005   1.090   3.188   8.141
10844SOL    HW245006   0.987   3.292   8.214
10845SOL     OW45007   3.990   0.502   7.828
10845SOL    HW145008   3.977   0.448   7.745
10845SOL    HW245009   3.906   0.501   7.882
10846SOL     OW45010   0.510   7.251   7.595
10846SOL    HW145011   0.593   7.251   7.539
10846SOL    HW245012   0.460   7.337   7.580
10847SOL     OW45013   3.117   3.380   8.750
10847SOL    HW145014   3.074   3.411   8.665
10847SOL    HW245015   3.058   3.404   8.827
10848SOL     OW45016   7.408   4.536   7.819
10848SOL    HW145017   7.440   4.614   7.872
10848SOL    HW245018   7.347   4.480   7.875
10849SOL     OW45019   2.466   5.793   7.454
10849SOL    HW145020   2.564   5.795   7.431
10849SOL    HW245021   2.413   5.791   7.369
10850SOL     OW45022   1.491   6.554   7.665
10850SOL    HW145023   1.568   6.560   7.601
10850SOL    HW245024   1.510   6.613   7.744
10851SOL     OW45025   7.218   0.726   8.082
10851SOL    HW145026   7.269   0.781   8.017
10851SOL    HW245027   7.195   0.782   8.162
10852SOL     OW45028   3.119   3.059   7.733
10852SOL    HW145029   3.186   3.118   7.778
10852SOL    HW245030   3.056   3.115   7.680
10853SOL     OW45031   2.566   2.140   7.478
10853SOL    HW145032   2.526   2.226   7.447
10853SOL    HW245033   2.493   2.072   7.489
10854SOL     OW45034   0.479   4.015   7.524
10854SOL    HW145035   0.455   4.078   7.598
10854SOL    HW245036   0.487   3.923   7.561
10855SOL     OW45037   0.159   2.298   7.953
10855SOL    HW145038   0.133   2.394   7.956
10855SOL    HW245039   0.228   2.279   8.022
10856SOL     OW45040   1.356   1.442   7.766
10856SOL    HW145041   1.267   1.448   7.721
10856SOL    HW245042   1.347   1.388   7.850
10857SOL     OW45043   3.681   2.239   8.954
10857SOL    HW145044   3.608   2.259   8.888
10857SOL    HW245045   3.765   2.216   8.904
10858SOL     OW45046   2.286   2.675   8.942
10858SOL    HW145047   2.374   2.630   8.956
10858SOL    HW245048   2.245   2.642   8.857
10859SOL     OW45049   5.435   5.057   7.833
10859SOL    HW145050   5.447   4.974   7.887
10859SOL    HW245051   5.346   5.099   7.854
10860SOL     OW45052   5.101   3.573   8.310
10860SOL    HW145053   5.082   3.482   8.347
10860SOL    HW245054   5.146   3.564   8.221
10861SOL     OW45055   0.615   7.264   8.379
10861SOL    HW145056   0.607   7.363   8.395
10861SOL    HW245057   0.539   7.217   8.423
10862SOL     OW45058   5.919   4.660   8.038
10862SOL    HW145059   5.869   4.747   8.032
10862SOL    HW245060   6.016   4.677   8.019
10863SOL     OW45061   2.545   1.470   8.891
10863SOL    HW145062   2.526   1.400   8.961
10863SOL    HW245063   2.587   1.550   8.934
10864SOL     OW45064   3.338   4.885   7.446
10864SOL    HW145065   3.403   4.957   7.469
10864SOL    HW245066   3.388   4.803   7.419
10865SOL     OW45067   2.904   3.635   7.499
10865SOL    HW145068   2.977   3.569   7.482
10865SOL    HW245069   2.835   3.594   7.559
10866SOL     OW45070   1.645   1.304   7.557
10866SOL    HW145071   1.616   1.258   7.641
10866SOL    HW245072   1.719   1.368   7.578
10867SOL     OW45073   3.771   6.435   7.518
10867SOL    HW145074   3.679   6.396   7.516
10867SOL    HW245075   3.824   6.394   7.592
10868SOL     OW45076   2.598   4.020   7.489
10868SOL    HW145077   2.526   4.049   7.553
10868SOL    HW245078   2.644   4.100   7.452
10869SOL     OW45079   4.038   3.107   7.498
10869SOL    HW145080   4.039   3.019   7.544
10869SOL    HW245081   4.049   3.180   7.565
10870SOL     OW45082   0.275   3.724   8.482
10870SOL    HW145083   0.213   3.646   8.473
10870SOL    HW245084   0.355   3.710   8.424
10871SOL     OW45085   6.305   5.917   8.868
10871SOL    HW145086   6.284   5.987   8.800
10871SOL    HW245087   6.287   5.953   8.959
10872SOL     OW45088   0.624   2.261   8.077
10872SOL    HW145089   0.647   2.320   8.000
10872SOL    HW245090   0.665   2.171   8.065
10873SOL     OW45091   4.344   0.379   7.931
10873SOL    HW145092   4.317   0.342   7.842
10873SOL    HW245093   4.420   0.325   7.968
10874SOL     OW45094   3.348   6.247   8.777
10874SOL    HW145095   3.429   6.190   8.764
10874SOL    HW245096   3.286   6.201   8.841
10875SOL     OW45097   1.259   2.185   7.550
10875SOL    HW145098   1.215   2.180   7.460
10875SOL    HW245099   1.285   2.094   7.580
10876SOL     OW45100   5.163   2.911   7.455
10876SOL    HW145101   5.241   2.907   7.392
10876SOL    HW245102   5.089   2.963   7.413
10877SOL     OW45103   1.221   3.563   7.387
10877SOL    HW145104   1.301   3.543   7.329
10877SOL    HW245105   1.138   3.553   7.333
10878SOL     OW45106   0.669   1.437   8.829
10878SOL    HW145107   0.607   1.409   8.756
10878SOL    HW245108   0.616   1.460   8.911
10879SOL     OW45109   4.258   6.258   8.333
10879SOL    HW145110   4.208   6.270   8.247
10879SOL    HW245111   4.232   6.171   8.375
10880SOL     OW45112   1.183   5.932   8.212
10880SOL    HW145113   1.126   5.999   8.165
10880SOL    HW245114   1.275   5.969   8.225
10881SOL     OW45115   0.575   4.989   8.652
10881SOL    HW145116   0.584   5.081   8.690
10881SOL    HW245117   0.494   4.945   8.691
10882SOL     OW45118   0.477   1.381   8.634
10882SOL    HW145119   0.429   1.298   8.607
10882SOL    HW245120   0.542   1.407   8.563
10883SOL     OW45121   2.276   4.769   7.954
10883SOL    HW145122   2.212   4.693   7.971
10883SOL    HW245123   2.365   4.733   7.928
10884SOL     OW45124   5.554   4.795   8.361
10884SOL    HW145125   5.544   4.872   8.298
10884SOL    HW245126   5.651   4.777   8.377
10885SOL     OW45127   0.708   2.320   7.456
10885SOL    HW145128   0.787   2.287   7.508
10885SOL    HW245129   0.655   2.383   7.512
10886SOL     OW45130   5.865   1.453   0.235
10886SOL    HW145131   5.857   1.535   0.292
10886SOL    HW245132   5.798   1.458   0.161
10887SOL     OW45133   4.685   5.556   8.898
10887SOL    HW145134   4.727   5.477   8.854
10887SOL    HW245135   4.607   5.587   8.844
10888SOL     OW45136   4.560   0.606   8.786
10888SOL    HW145137   4.569   0.675   8.858
10888SOL    HW245138   4.589   0.645   8.699
10889SOL     OW45139   5.939   6.897   7.477
10889SOL    HW145140   5.912   6.835   7.403
10889SOL    HW245141   6.001   6.849   7.540
10890SOL     OW45142   0.565   5.176   7.941
10890SOL    HW145143   0.652   5.165   7.893
10890SOL    HW245144   0.490   5.180   7.875
10891SOL     OW45145   3.658   1.502   7.514
10891SOL    HW145146   3.599   1.530   7.438
10891SOL    HW245147   3.670   1.579   7.577
10892SOL     OW45148   3.885   0.945   8.547
10892SOL    HW145149   3.796   0.901   8.533
10892SOL    HW245150   3.958   0.883   8.519
10893SOL     OW45151   4.223   0.206   8.788
10893SOL    HW145152   4.211   0.162   8.877
10893SOL    HW245153   4.270   0.293   8.800
10894SOL     OW45154   6.975   2.252   8.006
10894SOL    HW145155   6.995   2.198   7.924
10894SOL    HW245156   6.952   2.346   7.979
10895SOL     OW45157   4.149   4.301   8.029
10895SOL    HW145158   4.128   4.244   8.108
10895SOL    HW245159   4.090   4.275   7.953
10896SOL     OW45160   3.198   2.332   8.903
10896SOL    HW145161   3.152   2.267   8.965
10896SOL    HW245162   3.152   2.332   8.814
10897SOL     OW45163   2.951   5.615   7.372
10897SOL    HW145164   3.007   5.696   7.353
10897SOL    HW245165   2.968   5.545   7.302
10898SOL     OW45166   0.218   3.576   8.057
10898SOL    HW145167   0.179   3.650   8.112
10898SOL    HW245168   0.254   3.506   8.117
10899SOL     OW45169   0.301   2.344   7.366
10899SOL    HW145170   0.237   2.366   7.293
10899SOL    HW245171   0.346   2.429   7.397
10900SOL     OW45172   6.058   2.206   7.485
10900SOL    HW145173   6.029   2.286   7.433
10900SOL    HW245174   6.156   2.191   7.470
10901SOL     OW45175   2.004   1.254   8.802
10901SOL    HW145176   1.977   1.341   8.762
10901SOL    HW245177   1.960   1.179   8.752
10902SOL     OW45178   4.285   4.002   8.072
10902SOL    HW145179   4.363   4.042   8.026
10902SOL    HW245180   4.217   3.973   8.005
10903SOL     OW45181   3.681   5.793   7.617
10903SOL    HW145182   3.780   5.797   7.631
10903SOL    HW245183   3.643   5.717   7.670
10904SOL     OW45184   5.800   1.151   8.275
10904SOL    HW145185   5.767   1.062   8.305
10904SOL    HW245186   5.900   1.152   8.277
10905SOL     OW45187   1.529   2.068   8.875
10905SOL    HW145188   1.605   2.090   8.936
10905SOL    HW245189   1.460   2.140   8.880
10906SOL     OW45190   5.362   4.912   7.518
10906SOL    HW145191   5.391   4.846   7.587
10906SOL    HW245192   5.442   4.963   7.486
10907SOL     OW45193   2.946   2.513   8.114
10907SOL    HW145194   2.911   2.565   8.036
10907SOL    HW245195   3.030   2.554   8.147
10908SOL     OW45196   5.129   1.786   8.707
10908SOL    HW145197   5.132   1.741   8.795
10908SOL    HW245198   5.127   1.885   8.720
10909SOL     OW45199   6.333   4.213   7.980
10909SOL    HW145200   6.387   4.137   8.015
10909SOL    HW245201   6.345   4.293   8.040
10910SOL     OW45202   0.633   0.182   8.039
10910SOL    HW145203   0.605   0.264   7.989
10910SOL    HW245204   0.557   0.149   8.095
10911SOL     OW45205   5.311   7.113   7.844
10911SOL    HW145206   5.404   7.087   7.818
10911SOL    HW245207   5.286   7.198   7.798
10912SOL     OW45208   6.565   4.072   8.367
10912SOL    HW145209   6.639   4.130   8.332
10912SOL    HW245210   6.603   4.006   8.431
10913SOL     OW45211   1.053   0.906   8.119
10913SOL    HW145212   1.004   0.986   8.086
10913SOL    HW245213   0.991   0.827   8.123
10914SOL     OW45214   5.992   3.188   8.559
10914SOL    HW145215   5.913   3.250   8.550
10914SOL    HW245216   6.022   3.187   8.654
10915SOL     OW45217   6.634   6.815   8.296
10915SOL    HW145218   6.565   6.784   8.231
10915SOL    HW245219   6.724   6.783   8.267
10916SOL     OW45220   5.023   5.373   8.087
10916SOL    HW145221   5.089   5.406   8.020
10916SOL    HW245222   4.968   5.300   8.046
10917SOL     OW45223   3.806   1.232   7.872
10917SOL    HW145224   3.719   1.279   7.891
10917SOL    HW245225   3.802   1.190   7.782
10918SOL     OW45226   6.651   2.714   8.551
10918SOL    HW145227   6.662   2.636   8.490
10918SOL    HW245228   6.738   2.734   8.596
10919SOL     OW45229   3.611   6.989   7.795
10919SOL    HW145230   3.617   6.980   7.695
10919SOL    HW245231   3.665   6.917   7.838
10920SOL     OW45232   5.292   0.903   7.479
10920SOL    HW145233   5.201   0.924   7.516
10920SOL    HW245234   5.289   0.904   7.379
10921SOL     OW45235   6.628   1.457   8.161
10921SOL    HW145236   6.538   1.449   8.118
10921SOL    HW245237   6.619   1.506   8.248
10922SOL     OW45238   4.089   7.172   8.744
10922SOL    HW145239   4.076   7.262   8.703
10922SOL    HW245240   4.143   7.115   8.682
10923SOL     OW45241   0.871   1.535   7.948
10923SOL    HW145242   0.862   1.538   8.047
10923SOL    HW245243   0.936   1.463   7.923
10924SOL     OW45244   3.861   4.796   7.936
10924SOL    HW145245   3.802   4.716   7.925
10924SOL    HW245246   3.957   4.769   7.930
10925SOL     OW45247   3.176   1.443   8.789
10925SOL    HW145248   3.206   1.538   8.778
10925SOL    HW245249   3.254   1.382   8.776
10926SOL     OW45250   6.250   4.874   8.613
10926SOL    HW145251   6.238   4.882   8.712
10926SOL    HW245252   6.168   4.907   8.567
10927SOL     OW45253   5.471   0.853   8.224
10927SOL    HW145254   5.554   0.879   8.274
10927SOL    HW245255   5.436   0.932   8.174
10928SOL     OW45256   3.845   3.353   8.623
10928SOL    HW145257   3.770   3.307   8.670
10928SOL    HW245258   3.847   3.449   8.649
10929SOL     OW45259   3.726   0.418   7.340
10929SOL    HW145260   3.731   0.318   7.344
10929SOL    HW245261   3.699   0.453   7.430
10930SOL     OW45262   6.914   3.875   8.369
10930SOL    HW145263   6.834   3.884   8.428
10930SOL    HW245264   6.945   3.966   8.340
10931SOL     OW45265   0.721   3.835   7.834
10931SOL    HW145266   0.816   3.847   7.807
10931SOL    HW245267   0.688   3.918   7.879
10932SOL     OW45268   4.348   2.814   8.064
10932SOL    HW145269   4.398   2.891   8.103
10932SOL    HW245270   4.289   2.847   7.991
10933SOL     OW45271   5.711   0.861   7.751
10933SOL    HW145272   5.764   0.879   7.668
10933SOL    HW245273   5.614   0.863   7.729
10934SOL     OW45274   5.184   1.101   0.050
10934SOL    HW145275   5.266   1.136   0.096
10934SOL    HW245276   5.121   1.065   0.119
10935SOL     OW45277   3.991   5.116   7.618
10935SOL    HW145278   4.014   5.083   7.710
10935SOL    HW245279   4.067   5.096   7.556
10936SOL     OW45280   1.586   3.052   8.312
10936SOL    HW145281   1.516   3.074   8.245
10936SOL    HW245282   1.672   3.095   8.285
10937SOL     OW45283   3.952   5.843   7.643
10937SOL    HW145284   4.028   5.780   7.662
10937SOL    HW245285   3.963   5.884   7.553
10938SOL     OW45286   2.467   2.106   7.839
10938SOL    HW145287   2.383   2.108   7.785
10938SOL    HW245288   2.533   2.043   7.798
10939SOL     OW45289   7.278   2.701   8.329
10939SOL    HW145290   7.227   2.618   8.352
10939SOL    HW245291   7.375   2.687   8.349
10940SOL     OW45292   2.360   1.097   7.442
10940SOL    HW145293   2.382   1.049   7.358
10940SOL    HW245294   2.314   1.183   7.421
10941SOL     OW45295   1.773   6.414   8.875
10941SOL    HW145296   1.704   6.341   8.872
10941SOL    HW245297   1.864   6.374   8.859
10942SOL     OW45298   5.562   6.063   7.990
10942SOL    HW145299   5.539   6.115   7.908
10942SOL    HW245300   5.637   6.110   8.038
10943SOL     OW45301   5.238   3.558   8.069
10943SOL    HW145302   5.264   3.635   8.010
10943SOL    HW245303   5.192   3.488   8.014
10944SOL     OW45304   3.798   0.117   7.726
10944SOL    HW145305   3.842   0.106   7.816
10944SOL    HW245306   3.711   0.068   7.725
10945SOL     OW45307   1.660   1.966   8.646
10945SOL    HW145308   1.641   1.879   8.601
10945SOL    HW245309   1.591   1.982   8.717
10946SOL     OW45310   0.066   1.185   8.649
10946SOL    HW145311   0.067   1.258   8.580
10946SOL    HW245312   0.035   1.223   8.737
10947SOL     OW45313   2.655   2.399   8.786
10947SOL    HW145314   2.676   2.302   8.773
10947SOL    HW245315   2.739   2.452   8.782
10948SOL     OW45316   1.760   3.184   7.666
10948SOL    HW145317   1.711   3.139   7.591
10948SOL    HW245318   1.713   3.270   7.689
10949SOL     OW45319   1.997   4.118   8.488
10949SOL    HW145320   2.038   4.063   8.561
10949SOL    HW245321   2.062   4.188   8.458
10950SOL     OW45322   0.457   1.070   7.915
10950SOL    HW145323   0.478   1.129   7.837
10950SOL    HW245324   0.520   1.090   7.990
10951SOL     OW45325   4.924   6.958   8.000
10951SOL    HW145326   4.939   7.046   8.046
10951SOL    HW245327   4.926   6.884   8.067
10952SOL     OW45328   3.744   6.978   8.619
10952SOL    HW145329   3.721   6.975   8.522
10952SOL    HW245330   3.834   6.935   8.633
10953SOL     OW45331   4.422   7.363   8.095
10953SOL    HW145332   4.474   7.413   8.025
10953SOL    HW245333   4.481   7.296   8.139
10954SOL     OW45334   1.058   2.718   8.721
10954SOL    HW145335   1.026   2.688   8.631
10954SOL    HW245336   1.042   2.816   8.730
10955SOL     OW45337   7.094   1.367   8.190
10955SOL    HW145338   7.094   1.269   8.209
10955SOL    HW245339   7.099   1.418   8.276
10956SOL     OW45340   4.769   4.152   7.613
10956SOL    HW145341   4.728   4.168   7.702
10956SOL    HW245342   4.775   4.238   7.562
10957SOL     OW45343   1.578   6.721   7.875
10957SOL    HW145344   1.676   6.726   7.891
10957SOL    HW245345   1.533   6.680   7.954
10958SOL     OW45346   1.920   4.279   7.451
10958SOL    HW145347   1.930   4.379   7.450
10958SOL    HW245348   1.958   4.240   7.368
10959SOL     OW45349   3.681   6.952   8.888
10959SOL    HW145350   3.692   6.860   8.924
10959SOL    HW245351   3.694   6.951   8.789
10960SOL     OW45352   3.456   5.117   7.575
10960SOL    HW145353   3.550   5.091   7.599
10960SOL    HW245354   3.401   5.123   7.659
10961SOL     OW45355   4.675   2.806   8.885
10961SOL    HW145356   4.735   2.875   8.844
10961SOL    HW245357   4.581   2.824   8.857
10962SOL     OW45358   1.320   0.844   8.053
10962SOL    HW145359   1.333   0.889   7.964
10962SOL    HW245360   1.226   0.856   8.083
10963SOL     OW45361   5.028   4.070   7.672
10963SOL    HW145362   4.933   4.082   7.644
10963SOL    HW245363   5.073   4.159   7.677
10964SOL     OW45364   6.391   3.123   8.288
10964SOL    HW145365   6.379   3.055   8.216
10964SOL    HW245366   6.306   3.174   8.301
10965SOL     OW45367   1.295   1.267   7.980
10965SOL    HW145368   1.323   1.174   7.958
10965SOL    HW245369   1.289   1.278   8.079
10966SOL     OW45370   2.157   6.877   8.762
10966SOL    HW145371   2.076   6.920   8.723
10966SOL    HW245372   2.180   6.922   8.848
10967SOL     OW45373   1.263   5.089   7.774
10967SOL    HW145374   1.353   5.059   7.806
10967SOL    HW245375   1.224   5.020   7.714
10968SOL     OW45376   5.233   5.142   7.409
10968SOL    HW145377   5.253   5.148   7.312
10968SOL    HW245378   5.276   5.059   7.447
10969SOL     OW45379   3.127   1.582   7.440
10969SOL    HW145380   3.198   1.620   7.499
10969SOL    HW245381   3.147   1.607   7.345
10970SOL     OW45382   2.759   1.670   8.003
10970SOL    HW145383   2.780   1.762   7.971
10970SOL    HW245384   2.761   1.667   8.103
10971SOL     OW45385   1.651   4.483   7.526
10971SOL    HW145386   1.679   4.423   7.451
10971SOL    HW245387   1.582   4.436   7.581
10972SOL     OW45388   5.180   4.793   7.933
10972SOL    HW145389   5.162   4.840   7.847
10972SOL    HW245390   5.097   4.745   7.963
10973SOL     OW45391   5.032   4.612   8.630
10973SOL    HW145392   5.041   4.700   8.582
10973SOL    HW245393   4.943   4.607   8.674
10974SOL     OW45394   2.877   7.097   8.322
10974SOL    HW145395   2.939   7.026   8.355
10974SOL    HW245396   2.792   7.094   8.374
10975SOL     OW45397   3.005   0.369   8.753
10975SOL    HW145398   3.051   0.373   8.664
10975SOL    HW245399   3.013   0.276   8.790
10976SOL     OW45400   2.887   4.422   7.986
10976SOL    HW145401   2.921   4.374   7.906
10976SOL    HW245402   2.852   4.512   7.959
10977SOL     OW45403   3.417   1.541   7.782
10977SOL    HW145404   3.390   1.599   7.704
10977SOL    HW245405   3.347   1.547   7.853
10978SOL     OW45406   4.646   1.286   8.487
10978SOL    HW145407   4.578   1.359   8.492
10978SOL    HW245408   4.649   1.237   8.574
10979SOL     OW45409   0.383   4.458   8.175
10979SOL    HW145410   0.450   4.489   8.243
10979SOL    HW245411   0.310   4.527   8.167
10980SOL     OW45412   3.542   0.235   7.556
10980SOL    HW145413   3.544   0.294   7.637
10980SOL    HW245414   3.634   0.225   7.520
10981SOL     OW45415   5.120   4.349   7.708
10981SOL    HW145416   5.209   4.325   7.745
10981SOL    HW245417   5.055   4.359   7.783
10982SOL     OW45418   6.636   2.220   7.789
10982SOL    HW145419   6.707   2.290   7.779
10982SOL    HW245420   6.600   2.223   7.882
10983SOL     OW45421   4.152   5.669   7.711
10983SOL    HW145422   4.246   5.675   7.745
10983SOL    HW245423   4.095   5.623   7.778
10984SOL     OW45424   6.174   3.287   7.618
10984SOL    HW145425   6.086   3.250   7.648
10984SOL    HW245426   6.247   3.244   7.671
10985SOL     OW45427   0.598   3.607   7.934
10985SOL    HW145428   0.504   3.627   7.904
10985SOL    HW245429   0.660   3.677   7.898
10986SOL     OW45430   5.026   6.699   7.754
10986SOL    HW145431   4.967   6.686   7.834
10986SOL    HW245432   5.054   6.795   7.748
10987SOL     OW45433   3.685   4.590   7.903
10987SOL    HW145434   3.697   4.502   7.948
10987SOL    HW245435   3.633   4.578   7.818
10988SOL     OW45436   0.685   2.795   7.804
10988SOL    HW145437   0.699   2.858   7.881
10988SOL    HW245438   0.759   2.727   7.803
10989SOL     OW45439   4.114   5.714   8.089
10989SOL    HW145440   4.118   5.810   8.063
10989SOL    HW245441   4.068   5.704   8.177
10990SOL     OW45442   6.388   1.433   8.011
10990SOL    HW145443   6.303   1.380   8.008
10990SOL    HW245444   6.372   1.523   7.970
10991SOL     OW45445   2.062   6.004   7.927
10991SOL    HW145446   2.062   6.038   7.833
10991SOL    HW245447   1.977   5.956   7.946
10992SOL     OW45448   4.676   4.209   7.872
10992SOL    HW145449   4.589   4.251   7.898
10992SOL    HW245450   4.684   4.120   7.917
10993SOL     OW45451   2.398   1.066   8.219
10993SOL    HW145452   2.404   0.970   8.247
10993SOL    HW245453   2.471   1.118   8.264
10994SOL     OW45454   5.723   4.167   8.677
10994SOL    HW145455   5.681   4.243   8.628
10994SOL    HW245456   5.807   4.139   8.630
10995SOL     OW45457   2.164   2.994   7.851
10995SOL    HW145458   2.102   3.000   7.773
10995SOL    HW245459   2.194   2.899   7.862
10996SOL     OW45460   3.086   2.690   8.888
10996SOL    HW145461   3.024   2.688   8.965
10996SOL    HW245462   3.173   2.646   8.914
10997SOL     OW45463   7.284   1.983   8.013
10997SOL    HW145464   7.333   2.070   8.016
10997SOL    HW245465   7.311   1.933   7.931
10998SOL     OW45466   3.459   5.522   8.881
10998SOL    HW145467   3.382   5.580   8.853
10998SOL    HW245468   3.430   5.426   8.881
10999SOL     OW45469   5.816   2.418   7.577
10999SOL    HW145470   5.742   2.356   7.554
10999SOL    HW245471   5.879   2.425   7.500
11000SOL     OW45472   3.937   5.910   8.294
11000SOL    HW145473   3.923   5.812   8.302
11000SOL    HW245474   3.857   5.959   8.330
11001SOL     OW45475   0.875   5.191   8.941
11001SOL    HW145476   0.822   5.132   8.879
11001SOL    HW245477   0.849   5.286   8.926
11002SOL     OW45478   0.354   2.236   8.144
11002SOL    HW145479   0.448   2.255   8.113
11002SOL    HW245480   0.349   2.142   8.177
11003SOL     OW45481   1.009   2.458   7.423
11003SOL    HW145482   0.972   2.378   7.471
11003SOL    HW245483   0.934   2.517   7.393
11004SOL     OW45484   5.103   7.012   8.347
11004SOL    HW145485   5.011   6.983   8.321
11004SOL    HW245486   5.154   7.039   8.265
11005SOL     OW45487   7.026   4.130   8.305
11005SOL    HW145488   7.088   4.138   8.383
11005SOL    HW245489   7.079   4.129   8.220
11006SOL     OW45490   4.008   0.389   8.734
11006SOL    HW145491   4.061   0.458   8.684
11006SOL    HW245492   4.069   0.315   8.762
11007SOL     OW45493   2.017   4.103   8.099
11007SOL    HW145494   1.938   4.163   8.113
11007SOL    HW245495   2.097   4.144   8.142
11008SOL     OW45496   1.847   2.544   7.779
11008SOL    HW145497   1.757   2.501   7.791
11008SOL    HW245498   1.893   2.549   7.868
11009SOL     OW45499   5.990   4.200   8.242
11009SOL    HW145500   6.036   4.143   8.174
11009SOL    HW245501   6.016   4.169   8.334
11010SOL     OW45502   6.388   2.034   8.124
11010SOL    HW145503   6.381   1.999   8.030
11010SOL    HW245504   6.298   2.032   8.167
11011SOL     OW45505   2.617   5.979   7.736
11011SOL    HW145506   2.561   6.062   7.730
11011SOL    HW245507   2.562   5.905   7.776
11012SOL     OW45508   4.746   5.035   8.177
11012SOL    HW145509   4.672   5.097   8.151
11012SOL    HW245510   4.767   4.975   8.100
11013SOL     OW45511   5.516   4.991   8.169
11013SOL    HW145512   5.542   4.940   8.087
11013SOL    HW245513   5.570   5.075   8.174
11014SOL     OW45514   3.772   2.985   7.627
11014SOL    HW145515   3.767   3.035   7.540
11014SOL    HW245516   3.859   2.935   7.632
11015SOL     OW45517   2.774   5.148   7.619
11015SOL    HW145518   2.859   5.097   7.608
11015SOL    HW245519   2.760   5.209   7.540
11016SOL     OW45520   0.886   6.024   7.451
11016SOL    HW145521   0.790   6.023   7.423
11016SOL    HW245522   0.920   5.931   7.459
11017SOL     OW45523   7.111   4.949   7.871
11017SOL    HW145524   7.205   4.962   7.902
11017SOL    HW245525   7.100   4.857   7.834
11018SOL     OW45526   5.511   7.167   8.181
11018SOL    HW145527   5.571   7.187   8.103
11018SOL    HW245528   5.521   7.239   8.250
11019SOL     OW45529   4.961   6.360   7.522
11019SOL    HW145530   4.963   6.368   7.622
11019SOL    HW245531   4.937   6.449   7.482
11020SOL     OW45532   6.352   3.150   7.783
11020SOL    HW145533   6.410   3.180   7.859
11020SOL    HW245534   6.331   3.053   7.794
11021SOL     OW45535   2.246   6.625   8.763
11021SOL    HW145536   2.225   6.589   8.855
11021SOL    HW245537   2.212   6.718   8.755
11022SOL     OW45538   3.853   6.514   8.266
11022SOL    HW145539   3.787   6.510   8.341
11022SOL    HW245540   3.852   6.427   8.216
11023SOL     OW45541   6.117   2.549   8.824
11023SOL    HW145542   6.105   2.463   8.774
11023SOL    HW245543   6.112   2.531   8.922
11024SOL     OW45544   5.522   0.536   7.556
11024SOL    HW145545   5.526   0.444   7.516
11024SOL    HW245546   5.543   0.531   7.654
11025SOL     OW45547   4.288   7.299   7.411
11025SOL    HW145548   4.374   7.251   7.395
11025SOL    HW245549   4.214   7.232   7.421
11026SOL     OW45550   2.509   6.132   8.401
11026SOL    HW145551   2.498   6.203   8.471
11026SOL    HW245552   2.605   6.105   8.396
11027SOL     OW45553   2.737   2.124   8.446
11027SOL    HW145554   2.661   2.090   8.391
11027SOL    HW245555   2.776   2.205   8.403
11028SOL     OW45556   4.935   3.464   8.891
11028SOL    HW145557   4.993   3.529   8.842
11028SOL    HW245558   4.840   3.495   8.887
11029SOL     OW45559   1.636   4.821   8.471
11029SOL    HW145560   1.551   4.874   8.478
11029SOL    HW245561   1.714   4.880   8.491
11030SOL     OW45562   3.510   5.398   7.575
11030SOL    HW145563   3.465   5.435   7.493
11030SOL    HW245564   3.500   5.298   7.575
11031SOL     OW45565   0.366   4.166   8.446
11031SOL    HW145566   0.363   4.260   8.481
11031SOL    HW245567   0.401   4.166   8.353
11032SOL     OW45568   1.473   6.953   8.468
11032SOL    HW145569   1.517   6.945   8.379
11032SOL    HW245570   1.534   6.919   8.539
11033SOL     OW45571   6.554   2.872   8.881
11033SOL    HW145572   6.493   2.856   8.803
11033SOL    HW245573   6.617   2.795   8.889
11034SOL     OW45574   2.314   6.007   7.543
11034SOL    HW145575   2.364   6.064   7.608
11034SOL    HW245576   2.372   5.930   7.515
11035SOL     OW45577   2.915   7.241   7.639
11035SOL    HW145578   2.913   7.142   7.650
11035SOL    HW245579   2.924   7.284   7.729
11036SOL     OW45580   6.160   3.252   8.351
11036SOL    HW145581   6.177   3.349   8.366
11036SOL    HW245582   6.100   3.217   8.424
11037SOL     OW45583   6.669   6.984   8.513
11037SOL    HW145584   6.657   6.928   8.430
11037SOL    HW245585   6.614   6.945   8.587
11038SOL     OW45586   2.350   6.567   7.668
11038SOL    HW145587   2.313   6.658   7.687
11038SOL    HW245588   2.275   6.503   7.648
11039SOL     OW45589   2.770   1.027   8.260
11039SOL    HW145590   2.698   1.082   8.302
11039SOL    HW245591   2.773   0.937   8.305
11040SOL     OW45592   0.438   6.742   8.691
11040SOL    HW145593   0.441   6.644   8.714
11040SOL    HW245594   0.487   6.794   8.760
11041SOL     OW45595   4.609   1.940   7.414
11041SOL    HW145596   4.561   2.027   7.403
11041SOL    HW245597   4.706   1.958   7.430
11042SOL     OW45598   4.761   1.206   7.388
11042SOL    HW145599   4.740   1.303   7.375
11042SOL    HW245600   4.829   1.178   7.319
11043SOL     OW45601   2.342   3.774   8.323
11043SOL    HW145602   2.243   3.767   8.317
11043SOL    HW245603   2.384   3.694   8.281
11044SOL     OW45604   3.585   5.868   8.573
11044SOL    HW145605   3.487   5.881   8.560
11044SOL    HW245606   3.604   5.774   8.601
11045SOL     OW45607   3.512   2.828   8.017
11045SOL    HW145608   3.593   2.848   7.962
11045SOL    HW245609   3.472   2.914   8.050
11046SOL     OW45610   1.379   0.068   8.572
11046SOL    HW145611   1.292   0.104   8.542
11046SOL    HW245612   1.454   0.122   8.533
11047SOL     OW45613   0.439   0.584   8.921
11047SOL    HW145614   0.411   0.596   0.016
11047SOL    HW245615   0.360   0.596   8.861
11048SOL     OW45616   4.669   3.835   8.480
11048SOL    HW145617   4.643   3.927   8.451
11048SOL    HW245618   4.744   3.802   8.423
11049SOL     OW45619   0.565   2.446   8.284
11049SOL    HW145620   0.498   2.401   8.343
11049SOL    HW245621   0.601   2.380   8.218
11050SOL     OW45622   2.581   7.104   7.818
11050SOL    HW145623   2.525   7.106   7.735
11050SOL    HW245624   2.600   7.198   7.847
11051SOL     OW45625   5.295   2.804   7.676
11051SOL    HW145626   5.246   2.852   7.604
11051SOL    HW245627   5.327   2.716   7.642
11052SOL     OW45628   6.882   2.370   7.740
11052SOL    HW145629   6.933   2.286   7.726
11052SOL    HW245630   6.845   2.402   7.653
11053SOL     OW45631   3.472   3.040   8.782
11053SOL    HW145632   3.468   2.943   8.760
11053SOL    HW245633   3.391   3.086   8.746
11054SOL     OW45634   0.419   0.416   7.681
11054SOL    HW145635   0.363   0.482   7.631
11054SOL    HW245636   0.393   0.323   7.655
11055SOL     OW45637   3.925   6.056   7.815
11055SOL    HW145638   3.969   6.036   7.903
11055SOL    HW245639   3.938   5.978   7.754
11056SOL     OW45640   3.161   7.003   8.093
11056SOL    HW145641   3.167   6.978   8.190
11056SOL    HW245642   3.252   7.000   8.052
11057SOL     OW45643   4.431   6.820   7.657
11057SOL    HW145644   4.465   6.826   7.564
11057SOL    HW245645   4.498   6.859   7.720
11058SOL     OW45646   3.519   2.593   8.788
11058SOL    HW145647   3.539   2.645   8.871
11058SOL    HW245648   3.594   2.605   8.723
11059SOL     OW45649   2.304   1.990   8.712
11059SOL    HW145650   2.345   2.009   8.801
11059SOL    HW245651   2.337   2.057   8.645
11060SOL     OW45652   5.093   0.732   7.910
11060SOL    HW145653   5.094   0.828   7.881
11060SOL    HW245654   5.181   0.690   7.886
11061SOL     OW45655   2.220   2.704   7.843
11061SOL    HW145656   2.301   2.646   7.844
11061SOL    HW245657   2.194   2.722   7.748
11062SOL     OW45658   0.917   1.489   8.927
11062SOL    HW145659   0.831   1.463   8.883
11062SOL    HW245660   0.917   1.458   0.023
11063SOL     OW45661   2.805   4.663   7.856
11063SOL    HW145662   2.829   4.618   7.770
11063SOL    HW245663   2.711   4.695   7.852
11064SOL     OW45664   6.263   5.650   8.865
11064SOL    HW145665   6.269   5.749   8.859
11064SOL    HW245666   6.185   5.618   8.811
11065SOL     OW45667   1.432   6.030   8.249
11065SOL    HW145668   1.467   6.109   8.300
11065SOL    HW245669   1.488   5.950   8.269
11066SOL     OW45670   0.428   0.792   8.659
11066SOL    HW145671   0.428   0.805   8.560
11066SOL    HW245672   0.357   0.726   8.684
11067SOL     OW45673   6.929   6.958   8.608
11067SOL    HW145674   6.835   6.957   8.574
11067SOL    HW245675   6.976   7.038   8.572
11068SOL     OW45676   2.574   7.034   8.814
11068SOL    HW145677   2.623   7.120   8.828
11068SOL    HW245678   2.496   7.050   8.753
11069SOL     OW45679   6.753   7.236   8.578
11069SOL    HW145680   6.712   7.147   8.562
11069SOL    HW245681   6.746   7.260   8.675
11070SOL     OW45682   2.449   1.367   8.024
11070SOL    HW145683   2.398   1.392   8.106
11070SOL    HW245684   2.535   1.323   8.050
11071SOL     OW45685   1.195   3.232   7.376
11071SOL    HW145686   1.117   3.257   7.433
11071SOL    HW245687   1.253   3.167   7.425
11072SOL     OW45688   0.246   1.013   7.390
11072SOL    HW145689   0.309   1.047   7.320
11072SOL    HW245690   0.229   0.916   7.374
11073SOL     OW45691   6.641   4.325   7.337
11073SOL    HW145692   6.673   4.374   7.256
11073SOL    HW245693   6.705   4.251   7.358
11074SOL     OW45694   6.610   1.307   0.004
11074SOL    HW145695   6.530   1.321   8.945
11074SOL    HW245696   6.694   1.322   8.952
11075SOL     OW45697   4.216   3.745   7.528
11075SOL    HW145698   4.258   3.656   7.512
11075SOL    HW245699   4.285   3.817   7.522
11076SOL     OW45700   6.960   3.221   8.649
11076SOL    HW145701   6.931   3.128   8.627
11076SOL    HW245702   7.020   3.255   8.577
11077SOL     OW45703   0.320   1.805   7.697
11077SOL    HW145704   0.222   1.791   7.678
11077SOL    HW245705   0.363   1.846   7.617
11078SOL     OW45706   1.344   0.360   8.651
11078SOL    HW145707   1.266   0.319   8.604
11078SOL    HW245708   1.426   0.347   8.595
11079SOL     OW45709   1.045   3.514   8.455
11079SOL    HW145710   1.122   3.524   8.392
11079SOL    HW245711   0.995   3.600   8.461
11080SOL     OW45712   6.375   4.387   8.670
11080SOL    HW145713   6.325   4.332   8.737
11080SOL    HW245714   6.374   4.482   8.699
11081SOL     OW45715   4.672   0.695   8.200
11081SOL    HW145716   4.763   0.709   8.160
11081SOL    HW245717   4.651   0.771   8.262
11082SOL     OW45718   2.400   6.206   7.716
11082SOL    HW145719   2.371   6.184   7.809
11082SOL    HW245720   2.338   6.273   7.677
11083SOL     OW45721   2.051   3.718   8.598
11083SOL    HW145722   2.026   3.712   8.501
11083SOL    HW245723   2.131   3.660   8.615
11084SOL     OW45724   1.328   1.547   8.278
11084SOL    HW145725   1.310   1.448   8.282
11084SOL    HW245726   1.389   1.567   8.202
11085SOL     OW45727   4.162   2.339   8.055
11085SOL    HW145728   4.145   2.400   7.978
11085SOL    HW245729   4.207   2.389   8.128
11086SOL     OW45730   1.625   2.823   8.463
11086SOL    HW145731   1.689   2.758   8.422
11086SOL    HW245732   1.615   2.902   8.403
11087SOL     OW45733   2.454   2.841   7.636
11087SOL    HW145734   2.513   2.828   7.557
11087SOL    HW245735   2.500   2.805   7.718
11088SOL     OW45736   0.535   0.952   8.287
11088SOL    HW145737   0.440   0.980   8.304
11088SOL    HW245738   0.578   1.017   8.226
11089SOL     OW45739   0.181   5.005   8.910
11089SOL    HW145740   0.109   4.971   8.971
11089SOL    HW245741   0.182   5.105   8.912
11090SOL     OW45742   2.830   5.042   8.922
11090SOL    HW145743   2.856   4.961   8.976
11090SOL    HW245744   2.840   5.022   8.825
11091SOL     OW45745   6.859   1.394   8.034
11091SOL    HW145746   6.777   1.418   8.086
11091SOL    HW245747   6.938   1.396   8.095
11092SOL     OW45748   2.848   4.080   7.779
11092SOL    HW145749   2.868   4.029   7.863
11092SOL    HW245750   2.847   4.017   7.701
11093SOL     OW45751   2.234   1.534   7.675
11093SOL    HW145752   2.233   1.607   7.744
11093SOL    HW245753   2.273   1.451   7.715
11094SOL     OW45754   6.697   2.477   8.407
11094SOL    HW145755   6.780   2.451   8.456
11094SOL    HW245756   6.694   2.430   8.319
11095SOL     OW45757   1.262   4.065   8.201
11095SOL    HW145758   1.316   4.066   8.117
11095SOL    HW245759   1.174   4.109   8.185
11096SOL     OW45760   2.680   6.784   8.846
11096SOL    HW145761   2.653   6.879   8.828
11096SOL    HW245762   2.658   6.760   8.940
11097SOL     OW45763   0.574   0.422   7.911
11097SOL    HW145764   0.533   0.493   7.968
11097SOL    HW245765   0.525   0.418   7.823
11098SOL     OW45766   1.666   3.548   8.859
11098SOL    HW145767   1.705   3.456   8.868
11098SOL    HW245768   1.724   3.602   8.799
11099SOL     OW45769   3.217   3.257   8.129
11099SOL    HW145770   3.214   3.245   8.030
11099SOL    HW245771   3.209   3.354   8.152
11100SOL     OW45772   5.761   6.931   7.690
11100SOL    HW145773   5.821   6.927   7.610
11100SOL    HW245774   5.719   6.841   7.704
11101SOL     OW45775   6.215   1.010   0.041
11101SOL    HW145776   6.241   1.075   0.112
11101SOL    HW245777   6.125   1.033   0.006
11102SOL     OW45778   3.738   5.493   7.956
11102SOL    HW145779   3.677   5.529   7.886
11102SOL    HW245780   3.832   5.518   7.933
11103SOL     OW45781   3.303   1.631   8.237
11103SOL    HW145782   3.393   1.668   8.213
11103SOL    HW245783   3.251   1.700   8.287
11104SOL     OW45784   4.606   0.896   8.377
11104SOL    HW145785   4.510   0.922   8.388
11104SOL    HW245786   4.660   0.975   8.349
11105SOL     OW45787   1.794   2.642   8.339
11105SOL    HW145788   1.833   2.691   8.261
11105SOL    HW245789   1.730   2.573   8.306
11106SOL     OW45790   2.672   7.361   8.153
11106SOL    HW145791   2.721   7.279   8.125
11106SOL    HW245792   2.728   7.441   8.136
11107SOL     OW45793   3.262   3.263   7.856
11107SOL    HW145794   3.209   3.347   7.845
11107SOL    HW245795   3.359   3.287   7.869
11108SOL     OW45796   3.224   1.539   7.984
11108SOL    HW145797   3.251   1.558   8.078
11108SOL    HW245798   3.179   1.450   7.980
11109SOL     OW45799   5.662   2.292   8.159
11109SOL    HW145800   5.604   2.367   8.189
11109SOL    HW245801   5.700   2.244   8.238
11110SOL     OW45802   4.113   6.454   7.622
11110SOL    HW145803   4.075   6.526   7.564
11110SOL    HW245804   4.189   6.490   7.675
11111SOL     OW45805   3.343   3.452   7.536
11111SOL    HW145806   3.415   3.392   7.502
11111SOL    HW245807   3.381   3.517   7.601
11112SOL     OW45808   5.376   2.437   7.329
11112SOL    HW145809   5.306   2.390   7.275
11112SOL    HW245810   5.466   2.407   7.298
11113SOL     OW45811   6.088   4.964   0.028
11113SOL    HW145812   6.032   4.914   0.094
11113SOL    HW245813   6.048   5.055   0.013
11114SOL     OW45814   5.734   5.625   8.592
11114SOL    HW145815   5.731   5.710   8.541
11114SOL    HW245816   5.799   5.561   8.549
11115SOL     OW45817   3.060   6.050   8.545
11115SOL    HW145818   3.070   6.142   8.584
11115SOL    HW245819   3.018   5.990   8.614
11116SOL     OW45820   6.563   6.390   8.526
11116SOL    HW145821   6.548   6.489   8.527
11116SOL    HW245822   6.661   6.371   8.528
11117SOL     OW45823   2.206   4.679   8.715
11117SOL    HW145824   2.299   4.643   8.709
11117SOL    HW245825   2.142   4.613   8.676
11118SOL     OW45826   3.538   2.710   8.375
11118SOL    HW145827   3.495   2.799   8.391
11118SOL    HW245828   3.501   2.670   8.291
11119SOL     OW45829   6.139   6.933   7.893
11119SOL    HW145830   6.142   6.855   7.956
11119SOL    HW245831   6.231   6.973   7.885
11120SOL     OW45832   1.507   6.274   7.651
11120SOL    HW145833   1.599   6.252   7.683
11120SOL    HW245834   1.491   6.373   7.657
11121SOL     OW45835   5.296   4.598   8.699
11121SOL    HW145836   5.197   4.603   8.687
11121SOL    HW245837   5.327   4.504   8.686
11122SOL     OW45838   4.781   4.767   8.958
11122SOL    HW145839   4.778   4.717   8.871
11122SOL    HW245840   4.859   4.830   8.958
11123SOL     OW45841   2.373   3.519   7.849
11123SOL    HW145842   2.313   3.536   7.771
11123SOL    HW245843   2.391   3.421   7.857
11124SOL     OW45844   3.074   3.769   8.126
11124SOL    HW145845   3.164   3.800   8.097
11124SOL    HW245846   3.003   3.824   8.081
11125SOL     OW45847   2.623   5.484   7.575
11125SOL    HW145848   2.605   5.581   7.561
11125SOL    HW245849   2.719   5.471   7.599
11126SOL     OW45850   1.723   1.752   7.797
11126SOL    HW145851   1.652   1.707   7.743
11126SOL    HW245852   1.800   1.689   7.808
11127SOL     OW45853   5.903   4.742   8.526
11127SOL    HW145854   5.965   4.672   8.491
11127SOL    HW245855   5.943   4.832   8.509
11128SOL     OW45856   2.816   5.111   8.394
11128SOL    HW145857   2.750   5.176   8.356
11128SOL    HW245858   2.908   5.136   8.364
11129SOL     OW45859   7.173   0.346   7.719
11129SOL    HW145860   7.121   0.304   7.793
11129SOL    HW245861   7.133   0.435   7.696
11130SOL     OW45862   4.182   6.820   7.518
11130SOL    HW145863   4.262   6.828   7.579
11130SOL    HW245864   4.163   6.909   7.478
11131SOL     OW45865   5.540   0.773   7.415
11131SOL    HW145866   5.465   0.834   7.439
11131SOL    HW245867   5.540   0.694   7.476
11132SOL     OW45868   0.021   1.845   0.086
11132SOL    HW145869   0.034   1.804   0.177
11132SOL    HW245870   0.100   1.823   0.028
11133SOL     OW45871   7.138   3.117   7.457
11133SOL    HW145872   7.109   3.028   7.490
11133SOL    HW245873   7.080   3.188   7.497
11134SOL     OW45874   1.310   3.519   7.639
11134SOL    HW145875   1.329   3.422   7.659
11134SOL    HW245876   1.270   3.526   7.548
11135SOL     OW45877   0.947   7.015   7.967
11135SOL    HW145878   0.962   7.044   7.873
11135SOL    HW245879   1.031   7.025   8.019
11136SOL     OW45880   4.051   3.493   0.080
11136SOL    HW145881   4.069   3.433   0.001
11136SOL    HW245882   4.002   3.574   0.049
11137SOL     OW45883   2.220   0.802   7.759
11137SOL    HW145884   2.316   0.817   7.782
11137SOL    HW245885   2.175   0.754   7.835
11138SOL     OW45886   2.801   1.418   8.408
11138SOL    HW145887   2.895   1.386   8.400
11138SOL    HW245888   2.777   1.427   8.505
11139SOL     OW45889   3.561   1.234   8.323
11139SOL    HW145890   3.582   1.149   8.274
11139SOL    HW245891   3.642   1.292   8.326
11140SOL     OW45892   2.141   5.247   7.509
11140SOL    HW145893   2.090   5.326   7.477
11140SOL    HW245894   2.239   5.270   7.514
11141SOL     OW45895   3.776   5.050   7.903
11141SOL    HW145896   3.789   4.953   7.925
11141SOL    HW245897   3.741   5.058   7.809
11142SOL     OW45898   3.219   0.689   8.260
11142SOL    HW145899   3.163   0.712   8.181
11142SOL    HW245900   3.279   0.766   8.283
11143SOL     OW45901   3.766   4.919   8.599
11143SOL    HW145902   3.845   4.957   8.552
11143SOL    HW245903   3.791   4.832   8.642
11144SOL     OW45904   0.524   4.037   8.650
11144SOL    HW145905   0.619   4.036   8.619
11144SOL    HW245906   0.465   4.065   8.575
11145SOL     OW45907   3.456   2.592   8.137
11145SOL    HW145908   3.485   2.514   8.082
11145SOL    HW245909   3.473   2.676   8.086
11146SOL     OW45910   5.857   3.781   8.294
11146SOL    HW145911   5.797   3.709   8.259
11146SOL    HW245912   5.951   3.762   8.267
11147SOL     OW45913   3.464   4.059   8.104
11147SOL    HW145914   3.415   4.140   8.069
11147SOL    HW245915   3.555   4.087   8.136
11148SOL     OW45916   7.322   1.318   0.132
11148SOL    HW145917   7.322   1.285   0.038
11148SOL    HW245918   7.287   1.411   0.135
11149SOL     OW45919   6.774   5.753   8.092
11149SOL    HW145920   6.735   5.697   8.165
11149SOL    HW245921   6.716   5.745   8.010
11150SOL     OW45922   5.607   0.287   8.664
11150SOL    HW145923   5.532   0.271   8.728
11150SOL    HW245924   5.577   0.263   8.572
11151SOL     OW45925   5.698   3.065   8.516
11151SOL    HW145926   5.660   3.022   8.598
11151SOL    HW245927   5.785   3.022   8.492
11152SOL     OW45928   5.908   1.195   7.935
11152SOL    HW145929   5.895   1.097   7.952
11152SOL    HW245930   6.006   1.217   7.940
11153SOL     OW45931   0.793   4.845   0.044
11153SOL    HW145932   0.737   4.763   0.055
11153SOL    HW245933   0.796   4.871   8.947
11154SOL     OW45934   1.336   3.826   8.324
11154SOL    HW145935   1.297   3.906   8.279
11154SOL    HW245936   1.435   3.824   8.309
11155SOL     OW45937   5.036   4.922   8.659
11155SOL    HW145938   5.131   4.931   8.631
11155SOL    HW245939   5.032   4.907   8.758
11156SOL     OW45940   0.500   3.716   8.312
11156SOL    HW145941   0.578   3.674   8.266
11156SOL    HW245942   0.460   3.786   8.254
11157SOL     OW45943   1.574   4.741   7.576
11157SOL    HW145944   1.618   4.772   7.661
11157SOL    HW245945   1.610   4.651   7.551
11158SOL     OW45946   2.677   0.865   8.620
11158SOL    HW145947   2.736   0.827   8.691
11158SOL    HW245948   2.709   0.834   8.530
11159SOL     OW45949   0.682   5.630   8.707
11159SOL    HW145950   0.603   5.630   8.645
11159SOL    HW245951   0.759   5.677   8.663
11160SOL     OW45952   2.232   3.733   8.005
11160SOL    HW145953   2.267   3.801   7.942
11160SOL    HW245954   2.271   3.643   7.983
11161SOL     OW45955   0.885   2.076   8.649
11161SOL    HW145956   0.898   2.157   8.593
11161SOL    HW245957   0.851   2.001   8.591
11162SOL     OW45958   0.193   3.120   8.192
11162SOL    HW145959   0.219   3.029   8.224
11162SOL    HW245960   0.169   3.115   8.095
11163SOL     OW45961   2.886   2.669   7.888
11163SOL    HW145962   2.964   2.731   7.897
11163SOL    HW245963   2.885   2.630   7.796
11164SOL     OW45964   5.841   2.496   7.833
11164SOL    HW145965   5.830   2.477   7.735
11164SOL    HW245966   5.806   2.588   7.852
11165SOL     OW45967   5.354   4.590   7.952
11165SOL    HW145968   5.286   4.663   7.959
11165SOL    HW245969   5.316   4.505   7.989
11166SOL     OW45970   0.681   3.613   9.000
11166SOL    HW145971   0.672   3.672   8.920
11166SOL    HW245972   0.596   3.614   0.053
11167SOL     OW45973   4.987   3.860   8.579
11167SOL    HW145974   4.957   3.822   8.491
11167SOL    HW245975   4.925   3.934   8.605
11168SOL     OW45976   3.467   4.293   7.670
11168SOL    HW145977   3.380   4.251   7.696
11168SOL    HW245978   3.503   4.246   7.590
11169SOL     OW45979   1.278   5.347   7.694
11169SOL    HW145980   1.272   5.252   7.723
11169SOL    HW245981   1.352   5.392   7.744
11170SOL     OW45982   3.452   2.327   8.800
11170SOL    HW145983   3.363   2.325   8.846
11170SOL    HW245984   3.482   2.422   8.789
11171SOL     OW45985   3.316   1.356   8.275
11171SOL    HW145986   3.407   1.326   8.303
11171SOL    HW245987   3.315   1.456   8.270
11172SOL     OW45988   2.513   2.015   8.321
11172SOL    HW145989   2.482   2.064   8.239
11172SOL    HW245990   2.485   1.920   8.316
11173SOL     OW45991   2.969   6.361   8.202
11173SOL    HW145992   3.034   6.405   8.263
11173SOL    HW245993   3.006   6.359   8.109
11174SOL     OW45994   2.336   8.991   7.986
11174SOL    HW145995   2.316   8.952   8.076
11174SOL    HW245996   2.256   8.981   7.927
11175SOL     OW45997   4.032   3.287   8.112
11175SOL    HW145998   3.961   3.354   8.132
11175SOL    HW245999   3.991   3.197   8.099
11176SOL     OW46000   7.266   6.219   7.807
11176SOL    HW146001   7.225   6.300   7.767
11176SOL    HW246002   7.212   6.190   7.886
11177SOL     OW46003   3.944   2.195   8.866
11177SOL    HW146004   3.996   2.252   8.929
11177SOL    HW246005   3.999   2.117   8.837
11178SOL     OW46006   1.483   0.739   0.178
11178SOL    HW146007   1.477   0.735   0.278
11178SOL    HW246008   1.504   0.648   0.143
11179SOL     OW46009   0.871   5.476   8.040
11179SOL    HW146010   0.869   5.536   8.120
11179SOL    HW246011   0.948   5.412   8.050
11180SOL     OW46012   6.533   1.251   7.859
11180SOL    HW146013   6.487   1.317   7.918
11180SOL    HW246014   6.614   1.293   7.818
11181SOL     OW46015   4.645   3.327   7.444
11181SOL    HW146016   4.612   3.389   7.373
11181SOL    HW246017   4.569   3.303   7.505
11182SOL     OW46018   6.551   0.416   0.241
11182SOL    HW146019   6.470   0.453   0.195
11182SOL    HW246020   6.597   0.490   0.290
11183SOL     OW46021   6.550   3.159   7.588
11183SOL    HW146022   6.474   3.182   7.649
11183SOL    HW246023   6.550   3.061   7.570
11184SOL     OW46024   2.807   6.391   7.785
11184SOL    HW146025   2.720   6.434   7.809
11184SOL    HW246026   2.883   6.446   7.820
11185SOL     OW46027   1.861   5.165   8.209
11185SOL    HW146028   1.903   5.204   8.290
11185SOL    HW246029   1.921   5.180   8.130
11186SOL     OW46030   5.038   0.400   8.842
11186SOL    HW146031   4.943   0.407   8.813
11186SOL    HW246032   5.047   0.327   8.910
11187SOL     OW46033   0.233   5.935   8.679
11187SOL    HW146034   0.137   5.929   8.704
11187SOL    HW246035   0.251   5.876   8.600
11188SOL     OW46036   0.764   3.084   0.184
11188SOL    HW146037   0.737   3.109   0.277
11188SOL    HW246038   0.748   3.161   0.122
11189SOL     OW46039   1.647   1.060   7.413
11189SOL    HW146040   1.739   1.033   7.441
11189SOL    HW246041   1.624   1.148   7.454
11190SOL     OW46042   2.978   4.320   7.744
11190SOL    HW146043   2.932   4.386   7.685
11190SOL    HW246044   2.928   4.233   7.743
11191SOL     OW46045   0.247   1.756   8.959
11191SOL    HW146046   0.265   1.680   8.897
11191SOL    HW246047   0.331   1.779   0.008
11192SOL     OW46048   5.221   6.619   8.624
11192SOL    HW146049   5.245   6.712   8.653
11192SOL    HW246050   5.304   6.568   8.603
11193SOL     OW46051   6.797   6.786   7.676
11193SOL    HW146052   6.718   6.730   7.651
11193SOL    HW246053   6.767   6.865   7.729
11194SOL     OW46054   3.936   6.293   8.546
11194SOL    HW146055   3.968   6.202   8.518
11194SOL    HW246056   4.013   6.356   8.546
11195SOL     OW46057   0.035   1.696   7.905
11195SOL    HW146058   0.015   1.599   7.917
11195SOL    HW246059   0.086   1.729   7.985
11196SOL     OW46060   2.223   1.334   7.402
11196SOL    HW146061   2.206   1.394   7.480
11196SOL    HW246062   2.136   1.303   7.364
11197SOL     OW46063   4.884   6.560   8.009
11197SOL    HW146064   4.820   6.496   8.053
11197SOL    HW246065   4.905   6.634   8.073
11198SOL     OW46066   4.666   3.141   8.931
11198SOL    HW146067   4.604   3.195   8.875
11198SOL    HW246068   4.733   3.095   8.873
11199SOL     OW46069   0.641   7.234   8.108
11199SOL    HW146070   0.621   7.326   8.074
11199SOL    HW246071   0.641   7.234   8.208
11200SOL     OW46072   5.018   1.119   8.642
11200SOL    HW146073   5.026   1.083   8.549
11200SOL    HW246074   4.952   1.065   8.694
11201SOL     OW46075   1.400   2.026   8.355
11201SOL    HW146076   1.386   1.933   8.388
11201SOL    HW246077   1.354   2.090   8.417
11202SOL     OW46078   3.679   0.785   7.967
11202SOL    HW146079   3.609   0.854   7.949
11202SOL    HW246080   3.769   0.828   7.965
11203SOL     OW46081   1.978   0.190   7.758
11203SOL    HW146082   1.909   0.139   7.809
11203SOL    HW246083   1.970   0.168   7.660
11204SOL     OW46084   3.737   6.778   7.915
11204SOL    HW146085   3.811   6.718   7.884
11204SOL    HW246086   3.653   6.724   7.924
11205SOL     OW46087   4.456   1.481   8.522
11205SOL    HW146088   4.489   1.575   8.531
11205SOL    HW246089   4.415   1.451   8.608
11206SOL     OW46090   3.060   1.316   8.388
11206SOL    HW146091   3.063   1.281   8.482
11206SOL    HW246092   3.154   1.328   8.354
11207SOL     OW46093   2.195   0.681   7.507
11207SOL    HW146094   2.131   0.606   7.524
11207SOL    HW246095   2.202   0.738   7.589
11208SOL     OW46096   7.348   7.269   8.415
11208SOL    HW146097   7.399   7.342   8.459
11208SOL    HW246098   7.311   7.207   8.484
11209SOL     OW46099   5.450   1.521   7.570
11209SOL    HW146100   5.390   1.444   7.551
11209SOL    HW246101   5.486   1.513   7.663
11210SOL     OW46102   5.305   4.941   8.585
11210SOL    HW146103   5.295   4.876   8.510
11210SOL    HW246104   5.393   4.927   8.630
11211SOL     OW46105   0.815   1.709   0.270
11211SOL    HW146106   0.828   1.747   0.361
11211SOL    HW246107   0.900   1.720   0.217
11212SOL     OW46108   6.935   5.716   7.355
11212SOL    HW146109   6.942   5.658   7.274
11212SOL    HW246110   6.885   5.668   7.427
11213SOL     OW46111   1.252   1.476   7.403
11213SOL    HW146112   1.348   1.505   7.405
11213SOL    HW246113   1.209   1.511   7.320
11214SOL     OW46114   2.393   3.803   0.103
11214SOL    HW146115   2.360   3.712   0.128
11214SOL    HW246116   2.407   3.807   0.004
11215SOL     OW46117   2.352   7.007   8.285
11215SOL    HW146118   2.311   7.095   8.306
11215SOL    HW246119   2.414   7.016   8.207
11216SOL     OW46120   3.273   1.718   8.791
11216SOL    HW146121   3.182   1.727   8.834
11216SOL    HW246122   3.310   1.809   8.773
11217SOL     OW46123   1.462   3.817   7.958
11217SOL    HW146124   1.436   3.913   7.956
11217SOL    HW246125   1.558   3.809   7.986
11218SOL     OW46126   7.026   4.681   7.801
11218SOL    HW146127   6.955   4.647   7.739
11218SOL    HW246128   6.998   4.666   7.895
11219SOL     OW46129   5.210   1.262   7.836
11219SOL    HW146130   5.207   1.313   7.922
11219SOL    HW246131   5.157   1.310   7.766
11220SOL     OW46132   2.005   6.739   7.798
11220SOL    HW146133   1.984   6.790   7.881
11220SOL    HW246134   2.092   6.771   7.760
11221SOL     OW46135   1.123   3.781   7.543
11221SOL    HW146136   1.146   3.689   7.511
11221SOL    HW246137   1.157   3.849   7.478
11222SOL     OW46138   4.343   3.976   7.771
11222SOL    HW146139   4.249   3.970   7.804
11222SOL    HW246140   4.400   3.910   7.820
11223SOL     OW46141   6.142   5.073   7.977
11223SOL    HW146142   6.236   5.043   7.958
11223SOL    HW246143   6.105   5.117   7.896
11224SOL     OW46144   2.186   7.360   7.638
11224SOL    HW146145   2.094   7.327   7.615
11224SOL    HW246146   2.225   7.406   7.558
11225SOL     OW46147   5.706   3.198   7.581
11225SOL    HW146148   5.708   3.174   7.484
11225SOL    HW246149   5.661   3.287   7.592
11226SOL     OW46150   6.190   5.369   8.212
11226SOL    HW146151   6.205   5.437   8.140
11226SOL    HW246152   6.220   5.405   8.300
11227SOL     OW46153   2.847   5.433   8.623
11227SOL    HW146154   2.906   5.354   8.640
11227SOL    HW246155   2.754   5.403   8.605
11228SOL     OW46156   3.593   6.260   8.042
11228SOL    HW146157   3.526   6.195   8.009
11228SOL    HW246158   3.617   6.324   7.969
11229SOL     OW46159   4.745   3.069   7.414
11229SOL    HW146160   4.751   3.020   7.501
11229SOL    HW246161   4.711   3.162   7.431
11230SOL     OW46162   2.841   7.155   8.059
11230SOL    HW146163   2.860   7.136   8.155
11230SOL    HW246164   2.857   7.072   8.005
11231SOL     OW46165   1.950   4.601   7.776
11231SOL    HW146166   1.851   4.597   7.789
11231SOL    HW246167   1.970   4.651   7.692
11232SOL     OW46168   4.734   2.737   8.306
11232SOL    HW146169   4.759   2.663   8.368
11232SOL    HW246170   4.787   2.819   8.330
11233SOL     OW46171   6.877   1.852   8.968
11233SOL    HW146172   6.802   1.838   0.033
11233SOL    HW246173   6.964   1.850   0.017
11234SOL     OW46174   1.471   2.479   8.781
11234SOL    HW146175   1.421   2.565   8.790
11234SOL    HW246176   1.480   2.456   8.684
11235SOL     OW46177   6.513   4.403   7.566
11235SOL    HW146178   6.562   4.376   7.483
11235SOL    HW246179   6.525   4.501   7.581
11236SOL     OW46180   0.720   3.608   8.181
11236SOL    HW146181   0.680   3.605   8.089
11236SOL    HW246182   0.748   3.516   8.208
11237SOL     OW46183   3.520   6.612   8.571
11237SOL    HW146184   3.582   6.549   8.524
11237SOL    HW246185   3.498   6.577   8.662
11238SOL     OW46186   6.117   3.866   7.819
11238SOL    HW146187   6.036   3.885   7.765
11238SOL    HW246188   6.197   3.861   7.759
11239SOL     OW46189   6.642   5.588   8.287
11239SOL    HW146190   6.667   5.629   8.374
11239SOL    HW246191   6.645   5.488   8.294
11240SOL     OW46192   6.371   1.998   8.565
11240SOL    HW146193   6.275   2.007   8.537
11240SOL    HW246194   6.424   1.961   8.488
11241SOL     OW46195   4.675   2.331   7.536
11241SOL    HW146196   4.611   2.267   7.493
11241SOL    HW246197   4.631   2.421   7.545
11242SOL     OW46198   2.026   0.320   7.418
11242SOL    HW146199   1.968   0.360   7.347
11242SOL    HW246200   2.033   0.383   7.495
11243SOL     OW46201   2.029   6.625   8.298
11243SOL    HW146202   2.052   6.722   8.290
11243SOL    HW246203   2.113   6.571   8.301
11244SOL     OW46204   5.137   2.057   8.790
11244SOL    HW146205   5.175   2.086   8.702
11244SOL    HW246206   5.124   2.137   8.849
11245SOL     OW46207   3.348   3.810   8.049
11245SOL    HW146208   3.416   3.752   8.004
11245SOL    HW246209   3.387   3.900   8.067
11246SOL     OW46210   3.548   6.235   8.315
11246SOL    HW146211   3.556   6.254   8.217
11246SOL    HW246212   3.454   6.208   8.336
11247SOL     OW46213   0.373   4.436   8.566
11247SOL    HW146214   0.305   4.504   8.592
11247SOL    HW246215   0.397   4.382   8.647
11248SOL     OW46216   4.130   1.979   8.811
11248SOL    HW146217   4.190   2.059   8.808
11248SOL    HW246218   4.180   1.898   8.779
11249SOL     OW46219   3.925   3.914   8.296
11249SOL    HW146220   3.968   3.824   8.305
11249SOL    HW246221   3.835   3.912   8.338
11250SOL     OW46222   2.025   0.891   8.798
11250SOL    HW146223   2.025   0.804   8.747
11250SOL    HW246224   1.963   0.955   8.753
11251SOL     OW46225   2.198   2.747   7.573
11251SOL    HW146226   2.291   2.780   7.589
11251SOL    HW246227   2.161   2.790   7.491
11252SOL     OW46228   4.857   6.953   8.710
11252SOL    HW146229   4.942   6.939   8.760
11252SOL    HW246230   4.781   6.916   8.763
11253SOL     OW46231   6.028   4.982   8.467
11253SOL    HW146232   6.069   5.069   8.493
11253SOL    HW246233   6.013   4.980   8.368
11254SOL     OW46234   3.227   4.322   7.360
11254SOL    HW146235   3.229   4.231   7.399
11254SOL    HW246236   3.319   4.347   7.327
11255SOL     OW46237   5.907   3.421   7.855
11255SOL    HW146238   5.934   3.334   7.815
11255SOL    HW246239   5.843   3.404   7.930
11256SOL     OW46240   6.556   0.788   8.994
11256SOL    HW146241   6.531   0.844   8.915
11256SOL    HW246242   6.480   0.786   0.058
11257SOL     OW46243   0.909   1.649   8.511
11257SOL    HW146244   0.943   1.658   8.605
11257SOL    HW246245   0.986   1.656   8.447
11258SOL     OW46246   2.590   4.928   7.606
11258SOL    HW146247   2.638   5.001   7.655
11258SOL    HW246248   2.616   4.930   7.509
11259SOL     OW46249   2.851   4.045   8.267
11259SOL    HW146250   2.833   4.143   8.263
11259SOL    HW246251   2.832   4.012   8.360
11260SOL     OW46252   2.798   0.070   8.621
11260SOL    HW146253   2.719   0.021   8.585
11260SOL    HW246254   2.771   0.163   8.646
11261SOL     OW46255   6.420   1.637   8.854
11261SOL    HW146256   6.320   1.645   8.846
11261SOL    HW246257   6.462   1.727   8.841
11262SOL     OW46258   6.677   7.068   8.179
11262SOL    HW146259   6.640   6.987   8.225
11262SOL    HW246260   6.755   7.041   8.123
11263SOL     OW46261   2.356   1.356   8.431
11263SOL    HW146262   2.376   1.418   8.507
11263SOL    HW246263   2.280   1.296   8.455
11264SOL     OW46264   6.467   4.649   8.293
11264SOL    HW146265   6.446   4.728   8.236
11264SOL    HW246266   6.423   4.568   8.256
11265SOL     OW46267   0.923   1.145   8.047
11265SOL    HW146268   0.943   1.194   8.131
11265SOL    HW246269   0.953   1.199   7.968
11266SOL     OW46270   0.433   2.243   7.785
11266SOL    HW146271   0.524   2.277   7.809
11266SOL    HW246272   0.367   2.317   7.791
11267SOL     OW46273   5.683   4.642   8.655
11267SOL    HW146274   5.768   4.677   8.614
11267SOL    HW246275   5.700   4.615   8.749
11268SOL     OW46276   4.058   0.767   7.832
11268SOL    HW146277   4.088   0.792   7.924
11268SOL    HW246278   4.040   0.669   7.829
11269SOL     OW46279   7.212   4.611   7.404
11269SOL    HW146280   7.229   4.639   7.499
11269SOL    HW246281   7.222   4.690   7.344
11270SOL     OW46282   0.360   2.618   7.416
11270SOL    HW146283   0.428   2.676   7.460
11270SOL    HW246284   0.275   2.622   7.469
11271SOL     OW46285   1.259   4.598   8.368
11271SOL    HW146286   1.270   4.625   8.464
11271SOL    HW246287   1.338   4.544   8.340
11272SOL     OW46288   2.472   0.747   7.498
11272SOL    HW146289   2.476   0.796   7.585
11272SOL    HW246290   2.379   0.711   7.484
11273SOL     OW46291   4.769   1.109   8.306
11273SOL    HW146292   4.730   1.181   8.363
11273SOL    HW246293   4.793   1.146   8.216
11274SOL     OW46294   5.978   5.006   8.193
11274SOL    HW146295   5.904   4.959   8.145
11274SOL    HW246296   6.051   5.029   8.128
11275SOL     OW46297   2.894   3.364   7.851
11275SOL    HW146298   2.859   3.328   7.937
11275SOL    HW246299   2.978   3.415   7.868
11276SOL     OW46300   3.695   2.622   8.579
11276SOL    HW146301   3.757   2.562   8.529
11276SOL    HW246302   3.632   2.665   8.514
11277SOL     OW46303   1.294   4.897   8.752
11277SOL    HW146304   1.347   4.872   8.832
11277SOL    HW246305   1.216   4.953   8.780
11278SOL     OW46306   4.000   1.437   7.914
11278SOL    HW146307   3.979   1.505   7.845
11278SOL    HW246308   3.937   1.360   7.905
11279SOL     OW46309   6.141   1.356   8.945
11279SOL    HW146310   6.042   1.347   8.933
11279SOL    HW246311   6.160   1.416   0.022
11280SOL     OW46312   0.018   5.012   7.936
11280SOL    HW146313   0.094   5.034   7.996
11280SOL    HW246314   8.985   5.096   7.892
11281SOL     OW46315   4.906   5.159   7.924
11281SOL    HW146316   4.893   5.063   7.949
11281SOL    HW246317   4.826   5.191   7.872
11282SOL     OW46318   3.880   4.699   8.730
11282SOL    HW146319   3.960   4.749   8.765
11282SOL    HW246320   3.899   4.601   8.728
11283SOL     OW46321   2.730   0.655   7.491
11283SOL    HW146322   2.633   0.682   7.491
11283SOL    HW246323   2.739   0.564   7.531
11284SOL     OW46324   5.602   0.884   8.601
11284SOL    HW146325   5.620   0.900   8.698
11284SOL    HW246326   5.548   0.800   8.590
11285SOL     OW46327   1.528   1.500   7.394
11285SOL    HW146328   1.562   1.424   7.449
11285SOL    HW246329   1.592   1.518   7.319
11286SOL     OW46330   4.925   5.165   8.588
11286SOL    HW146331   4.966   5.078   8.615
11286SOL    HW246332   4.998   5.232   8.571
11287SOL     OW46333   5.320   0.107   7.553
11287SOL    HW146334   5.246   0.116   7.620
11287SOL    HW246335   5.367   0.020   7.567
11288SOL     OW46336   7.050   6.879   7.819
11288SOL    HW146337   7.004   6.901   7.905
11288SOL    HW246338   6.988   6.824   7.762
11289SOL     OW46339   1.853   6.016   7.524
11289SOL    HW146340   1.765   6.045   7.486
11289SOL    HW246341   1.897   5.952   7.462
11290SOL     OW46342   3.521   3.208   8.388
11290SOL    HW146343   3.451   3.270   8.423
11290SOL    HW246344   3.499   3.114   8.415
11291SOL     OW46345   4.451   3.307   8.844
11291SOL    HW146346   4.437   3.404   8.864
11291SOL    HW246347   4.390   3.253   8.902
11292SOL     OW46348   6.230   6.086   8.662
11292SOL    HW146349   6.184   6.003   8.630
11292SOL    HW246350   6.274   6.132   8.585
11293SOL     OW46351   7.374   5.459   7.442
11293SOL    HW146352   7.447   5.490   7.503
11293SOL    HW246353   7.412   5.441   7.351
11294SOL     OW46354   7.216   7.341   8.062
11294SOL    HW146355   7.284   7.276   8.094
11294SOL    HW246356   7.124   7.309   8.086
11295SOL     OW46357   3.868   3.963   8.026
11295SOL    HW146358   3.795   4.029   8.008
11295SOL    HW246359   3.878   3.950   8.125
11296SOL     OW46360   6.327   1.962   7.852
11296SOL    HW146361   6.381   1.990   7.773
11296SOL    HW246362   6.237   2.005   7.848
11297SOL     OW46363   0.281   0.310   8.318
11297SOL    HW146364   0.311   0.337   8.409
11297SOL    HW246365   0.219   0.380   8.280
11298SOL     OW46366   2.774   1.670   8.282
11298SOL    HW146367   2.799   1.578   8.310
11298SOL    HW246368   2.700   1.704   8.340
11299SOL     OW46369   4.902   3.895   8.102
11299SOL    HW146370   4.921   3.863   8.009
11299SOL    HW246371   4.971   3.962   8.128
11300SOL     OW46372   1.045   4.889   8.094
11300SOL    HW146373   1.110   4.813   8.090
11300SOL    HW246374   0.955   4.859   8.062
11301SOL     OW46375   0.660   1.484   7.783
11301SOL    HW146376   0.578   1.535   7.810
11301SOL    HW246377   0.735   1.505   7.845
11302SOL     OW46378   0.871   5.606   8.301
11302SOL    HW146379   0.787   5.552   8.307
11302SOL    HW246380   0.878   5.667   8.380
11303SOL     OW46381   0.282   5.803   8.439
11303SOL    HW146382   0.368   5.754   8.451
11303SOL    HW246383   0.297   5.884   8.381
11304SOL     OW46384   2.014   2.992   8.282
11304SOL    HW146385   1.971   2.926   8.220
11304SOL    HW246386   2.052   2.943   8.361
11305SOL     OW46387   3.974   4.196   7.839
11305SOL    HW146388   3.875   4.181   7.833
11305SOL    HW246389   4.022   4.109   7.831
11306SOL     OW46390   1.192   4.274   7.922
11306SOL    HW146391   1.136   4.263   7.840
11306SOL    HW246392   1.240   4.361   7.918
11307SOL     OW46393   1.914   1.023   7.503
11307SOL    HW146394   1.916   0.942   7.445
11307SOL    HW246395   2.001   1.032   7.552
11308SOL     OW46396   1.141   0.207   8.517
11308SOL    HW146397   1.131   0.161   8.429
11308SOL    HW246398   1.051   0.225   8.556
11309SOL     OW46399   1.587   5.798   7.709
11309SOL    HW146400   1.680   5.761   7.702
11309SOL    HW246401   1.588   5.882   7.763
11310SOL     OW46402   4.920   3.584   7.712
11310SOL    HW146403   4.910   3.536   7.625
11310SOL    HW246404   4.976   3.530   7.774
11311SOL     OW46405   3.871   0.994   8.007
11311SOL    HW146406   3.844   1.077   7.959
11311SOL    HW246407   3.956   1.010   8.057
11312SOL     OW46408   6.832   2.200   7.434
11312SOL    HW146409   6.820   2.141   7.513
11312SOL    HW246410   6.799   2.292   7.455
11313SOL     OW46411   1.864   2.120   7.953
11313SOL    HW146412   1.772   2.151   7.931
11313SOL    HW246413   1.863   2.074   8.041
11314SOL     OW46414   6.118   6.792   7.653
11314SOL    HW146415   6.114   6.844   7.738
11314SOL    HW246416   6.146   6.698   7.674
11315SOL     OW46417   3.412   7.114   8.619
11315SOL    HW146418   3.495   7.167   8.604
11315SOL    HW246419   3.343   7.142   8.552
11316SOL     OW46420   3.974   1.606   7.702
11316SOL    HW146421   3.907   1.668   7.661
11316SOL    HW246422   4.037   1.574   7.631
11317SOL     OW46423   6.105   5.152   7.659
11317SOL    HW146424   6.032   5.089   7.634
11317SOL    HW246425   6.193   5.106   7.650
11318SOL     OW46426   3.696   6.413   8.931
11318SOL    HW146427   3.608   6.436   8.890
11318SOL    HW246428   3.738   6.338   8.881
11319SOL     OW46429   1.098   1.864   8.094
11319SOL    HW146430   1.028   1.849   8.024
11319SOL    HW246431   1.188   1.854   8.053
11320SOL     OW46432   5.514   0.279   7.458
11320SOL    HW146433   5.440   0.224   7.496
11320SOL    HW246434   5.542   0.241   7.369
11321SOL     OW46435   2.731   6.503   7.466
11321SOL    HW146436   2.651   6.559   7.445
11321SOL    HW246437   2.701   6.418   7.509
11322SOL     OW46438   2.026   2.578   7.993
11322SOL    HW146439   2.048   2.481   8.002
11322SOL    HW246440   2.099   2.624   7.943
11323SOL     OW46441   6.692   3.905   8.543
11323SOL    HW146442   6.669   3.812   8.571
11323SOL    HW246443   6.711   3.960   8.625
11324SOL     OW46444   1.350   1.831   7.985
11324SOL    HW146445   1.403   1.863   7.906
11324SOL    HW246446   1.384   1.741   8.013
11325SOL     OW46447   2.390   4.609   7.489
11325SOL    HW146448   2.320   4.548   7.453
11325SOL    HW246449   2.480   4.573   7.467
11326SOL     OW46450   1.474   2.369   7.562
11326SOL    HW146451   1.403   2.299   7.556
11326SOL    HW246452   1.526   2.370   7.476
11327SOL     OW46453   3.349   0.773   8.625
11327SOL    HW146454   3.308   0.685   8.602
11327SOL    HW246455   3.279   0.844   8.623
11328SOL     OW46456   4.814   2.561   8.502
11328SOL    HW146457   4.820   2.490   8.572
11328SOL    HW246458   4.890   2.625   8.513
11329SOL     OW46459   0.368   1.002   8.833
11329SOL    HW146460   0.394   0.921   8.780
11329SOL    HW246461   0.368   1.082   8.772
11330SOL     OW46462   1.973   6.897   8.024
11330SOL    HW146463   2.029   6.895   8.106
11330SOL    HW246464   1.972   6.989   7.986
11331SOL     OW46465   1.957   2.613   8.560
11331SOL    HW146466   1.897   2.604   8.639
11331SOL    HW246467   1.903   2.620   8.477
11332SOL     OW46468   1.236   5.007   8.269
11332SOL    HW146469   1.159   4.971   8.216
11332SOL    HW246470   1.256   5.100   8.238
11333SOL     OW46471   7.257   4.702   7.660
11333SOL    HW146472   7.324   4.643   7.704
11333SOL    HW246473   7.169   4.694   7.707
11334SOL     OW46474   0.147   4.171   7.541
11334SOL    HW146475   0.158   4.208   7.449
11334SOL    HW246476   0.134   4.071   7.536
11335SOL     OW46477   5.891   0.907   7.946
11335SOL    HW146478   5.979   0.910   7.899
11335SOL    HW246479   5.818   0.892   7.879
11336SOL     OW46480   0.123   3.566   7.518
11336SOL    HW146481   0.057   3.640   7.504
11336SOL    HW246482   0.079   3.491   7.568
11337SOL     OW46483   4.451   0.568   7.532
11337SOL    HW146484   4.452   0.584   7.631
11337SOL    HW246485   4.482   0.651   7.485
11338SOL     OW46486   1.081   5.771   7.726
11338SOL    HW146487   1.039   5.773   7.635
11338SOL    HW246488   1.080   5.678   7.761
11339SOL     OW46489   0.530   5.692   8.461
11339SOL    HW146490   0.568   5.611   8.416
11339SOL    HW246491   0.586   5.772   8.441
11340SOL     OW46492   3.048   1.235   8.652
11340SOL    HW146493   3.083   1.317   8.699
11340SOL    HW246494   2.979   1.191   8.710
11341SOL     OW46495   6.958   3.982   7.961
11341SOL    HW146496   6.873   4.020   7.995
11341SOL    HW246497   6.938   3.907   7.897
11342SOL     OW46498   2.723   6.054   8.709
11342SOL    HW146499   2.638   6.008   8.733
11342SOL    HW246500   2.735   6.055   8.610
11343SOL     OW46501   7.065   5.258   0.250
11343SOL    HW146502   6.990   5.313   0.212
11343SOL    HW246503   7.052   5.248   0.348
11344SOL     OW46504   5.921   0.494   7.393
11344SOL    HW146505   5.958   0.582   7.361
11344SOL    HW246506   5.839   0.510   7.447
11345SOL     OW46507   2.555   1.214   7.605
11345SOL    HW146508   2.496   1.161   7.545
11345SOL    HW246509   2.650   1.207   7.573
11346SOL     OW46510   3.063   4.809   7.790
11346SOL    HW146511   3.101   4.865   7.864
11346SOL    HW246512   2.979   4.764   7.823
11347SOL     OW46513   4.133   7.059   7.376
11347SOL    HW146514   4.195   7.051   7.299
11347SOL    HW246515   4.040   7.074   7.343
11348SOL     OW46516   0.801   5.543   7.500
11348SOL    HW146517   0.717   5.552   7.446
11348SOL    HW246518   0.777   5.511   7.592
11349SOL     OW46519   0.368   6.359   7.648
11349SOL    HW146520   0.444   6.302   7.680
11349SOL    HW246521   0.400   6.418   7.574
11350SOL     OW46522   2.423   5.303   7.528
11350SOL    HW146523   2.495   5.370   7.544
11350SOL    HW246524   2.415   5.241   7.606
11351SOL     OW46525   3.368   2.802   8.681
11351SOL    HW146526   3.410   2.716   8.711
11351SOL    HW246527   3.271   2.803   8.707
11352SOL     OW46528   4.910   0.794   8.604
11352SOL    HW146529   4.830   0.738   8.582
11352SOL    HW246530   4.887   0.856   8.679
11353SOL     OW46531   0.071   1.471   8.932
11353SOL    HW146532   0.161   1.479   8.889
11353SOL    HW246533   0.080   1.483   0.031
11354SOL     OW46534   1.225   6.455   8.112
11354SOL    HW146535   1.163   6.427   8.039
11354SOL    HW246536   1.203   6.404   8.196
11355SOL     OW46537   6.135   4.749   7.594
11355SOL    HW146538   6.107   4.654   7.586
11355SOL    HW246539   6.054   4.807   7.604
11356SOL     OW46540   1.592   2.429   7.807
11356SOL    HW146541   1.560   2.406   7.715
11356SOL    HW246542   1.517   2.471   7.859
11357SOL     OW46543   6.923   0.511   8.241
11357SOL    HW146544   6.915   0.494   8.340
11357SOL    HW246545   6.894   0.605   8.221
11358SOL     OW46546   6.444   7.193   7.993
11358SOL    HW146547   6.442   7.191   8.093
11358SOL    HW246548   6.374   7.256   7.960
11359SOL     OW46549   4.330   1.962   0.199
11359SOL    HW146550   4.404   1.897   0.217
11359SOL    HW246551   4.246   1.913   0.177
11360SOL     OW46552   0.780   4.297   8.027
11360SOL    HW146553   0.756   4.355   8.105
11360SOL    HW246554   0.868   4.253   8.043
11361SOL     OW46555   6.242   3.551   7.566
11361SOL    HW146556   6.218   3.456   7.587
11361SOL    HW246557   6.158   3.603   7.552
11362SOL     OW46558   0.308   0.849   7.982
11362SOL    HW146559   0.364   0.928   7.955
11362SOL    HW246560   0.247   0.876   8.056
11363SOL     OW46561   3.504   2.771   7.454
11363SOL    HW146562   3.469   2.773   7.360
11363SOL    HW246563   3.553   2.856   7.473
11364SOL     OW46564   6.742   1.985   8.765
11364SOL    HW146565   6.805   1.960   8.839
11364SOL    HW246566   6.751   2.083   8.746
11365SOL     OW46567   1.126   2.139   7.313
11365SOL    HW146568   1.118   2.220   7.255
11365SOL    HW246569   1.151   2.060   7.256
11366SOL     OW46570   0.905   3.811   8.195
11366SOL    HW146571   0.834   3.742   8.190
11366SOL    HW246572   0.961   3.808   8.112
11367SOL     OW46573   4.860   1.225   8.061
11367SOL    HW146574   4.821   1.316   8.079
11367SOL    HW246575   4.863   1.210   7.963
11368SOL     OW46576   2.124   4.882   8.523
11368SOL    HW146577   2.117   4.829   8.438
11368SOL    HW246578   2.154   4.823   8.597
11369SOL     OW46579   2.060   4.735   8.957
11369SOL    HW146580   2.109   4.718   8.872
11369SOL    HW246581   2.075   4.830   8.986
11370SOL     OW46582   5.477   3.591   7.403
11370SOL    HW146583   5.433   3.678   7.426
11370SOL    HW246584   5.564   3.608   7.356
11371SOL     OW46585   6.407   5.188   8.660
11371SOL    HW146586   6.414   5.160   8.755
11371SOL    HW246587   6.474   5.138   8.605
11372SOL     OW46588   4.109   6.286   8.106
11372SOL    HW146589   4.138   6.374   8.068
11372SOL    HW246590   4.010   6.285   8.118
11373SOL     OW46591   4.366   4.387   8.538
11373SOL    HW146592   4.354   4.449   8.461
11373SOL    HW246593   4.373   4.292   8.505
11374SOL     OW46594   0.390   0.169   8.913
11374SOL    HW146595   0.394   0.076   8.877
11374SOL    HW246596   0.310   0.216   8.876
11375SOL     OW46597   6.281   5.103   8.275
11375SOL    HW146598   6.254   5.117   8.371
11375SOL    HW246599   6.253   5.182   8.221
11376SOL     OW46600   0.802   1.894   8.434
11376SOL    HW146601   0.841   1.806   8.460
11376SOL    HW246602   0.869   1.945   8.380
11377SOL     OW46603   5.565   5.463   8.983
11377SOL    HW146604   5.619   5.533   8.937
11377SOL    HW246605   5.477   5.502   0.010
11378SOL     OW46606   6.540   3.591   8.883
11378SOL    HW146607   6.480   3.511   8.886
11378SOL    HW246608   6.631   3.565   8.915
11379SOL     OW46609   3.260   2.138   7.656
11379SOL    HW146610   3.177   2.175   7.697
11379SOL    HW246611   3.284   2.052   7.701
11380SOL     OW46612   2.620   4.230   7.839
11380SOL    HW146613   2.602   4.203   7.934
11380SOL    HW246614   2.704   4.185   7.808
11381SOL     OW46615   5.598   2.723   7.496
11381SOL    HW146616   5.524   2.668   7.535
11381SOL    HW246617   5.628   2.791   7.564
11382SOL     OW46618   4.737   1.605   7.634
11382SOL    HW146619   4.825   1.614   7.587
11382SOL    HW246620   4.705   1.695   7.663
11383SOL     OW46621   0.686   6.968   8.028
11383SOL    HW146622   0.661   7.060   8.061
11383SOL    HW246623   0.782   6.967   8.003
11384SOL     OW46624   3.530   4.860   8.205
11384SOL    HW146625   3.520   4.840   8.108
11384SOL    HW246626   3.573   4.783   8.252
11385SOL     OW46627   3.189   0.081   8.052
11385SOL    HW146628   3.112   0.026   8.021
11385SOL    HW246629   3.233   0.037   8.130
11386SOL     OW46630   5.500   0.590   8.314
11386SOL    HW146631   5.531   0.523   8.246
11386SOL    HW246632   5.481   0.677   8.268
11387SOL     OW46633   6.679   0.036   7.981
11387SOL    HW146634   6.609   0.103   7.956
11387SOL    HW246635   6.635   8.954   8.017
11388SOL     OW46636   2.425   3.000   8.479
11388SOL    HW146637   2.513   3.040   8.505
11388SOL    HW246638   2.383   2.956   8.559
11389SOL     OW46639   5.736   5.864   8.453
11389SOL    HW146640   5.791   5.926   8.509
11389SOL    HW246641   5.640   5.892   8.457
11390SOL     OW46642   3.564   5.587   7.760
11390SOL    HW146643   3.555   5.512   7.694
11390SOL    HW246644   3.473   5.615   7.790
11391SOL     OW46645   6.037   0.185   8.470
11391SOL    HW146646   5.982   0.181   8.554
11391SOL    HW246647   6.130   0.156   8.490
11392SOL     OW46648   4.187   0.494   7.522
11392SOL    HW146649   4.131   0.577   7.519
11392SOL    HW246650   4.284   0.519   7.524
11393SOL     OW46651   0.410   0.384   8.557
11393SOL    HW146652   0.475   0.430   8.496
11393SOL    HW246653   0.448   0.382   8.650
11394SOL     OW46654   2.193   3.567   7.645
11394SOL    HW146655   2.117   3.538   7.703
11394SOL    HW246656   2.162   3.574   7.550
11395SOL     OW46657   3.660   7.244   8.609
11395SOL    HW146658   3.697   7.153   8.624
11395SOL    HW246659   3.715   7.292   8.541
11396SOL     OW46660   2.211   4.428   7.386
11396SOL    HW146661   2.224   4.385   7.297
11396SOL    HW246662   2.122   4.473   7.389
11397SOL     OW46663   1.335   4.230   8.416
11397SOL    HW146664   1.304   4.166   8.345
11397SOL    HW246665   1.411   4.190   8.466
11398SOL     OW46666   0.204   4.658   8.623
11398SOL    HW146667   0.215   4.713   8.540
11398SOL    HW246668   0.107   4.648   8.643
11399SOL     OW46669   1.283   4.200   7.401
11399SOL    HW146670   1.357   4.217   7.337
11399SOL    HW246671   1.321   4.164   7.487
11400SOL     OW46672   7.325   0.502   8.206
11400SOL    HW146673   7.333   0.418   8.153
11400SOL    HW246674   7.281   0.573   8.150
11401SOL     OW46675   2.763   5.161   7.895
11401SOL    HW146676   2.777   5.178   7.798
11401SOL    HW246677   2.678   5.110   7.909
11402SOL     OW46678   7.381   0.261   8.075
11402SOL    HW146679   7.461   0.241   8.019
11402SOL    HW246680   7.307   0.197   8.053
11403SOL     OW46681   6.406   3.412   8.465
11403SOL    HW146682   6.370   3.372   8.549
11403SOL    HW246683   6.487   3.361   8.436
11404SOL     OW46684   7.319   4.941   7.526
11404SOL    HW146685   7.330   5.023   7.583
11404SOL    HW246686   7.307   4.861   7.584
11405SOL     OW46687   4.826   0.979   8.787
11405SOL    HW146688   4.748   1.035   8.759
11405SOL    HW246689   4.823   0.965   8.886
11406SOL     OW46690   2.917   1.583   7.794
11406SOL    HW146691   3.002   1.630   7.816
11406SOL    HW246692   2.851   1.599   7.867
11407SOL     OW46693   2.757   1.870   8.570
11407SOL    HW146694   2.680   1.815   8.538
11407SOL    HW246695   2.757   1.958   8.523
11408SOL     OW46696   5.953   2.921   8.506
11408SOL    HW146697   5.978   3.016   8.521
11408SOL    HW246698   6.016   2.862   8.556
11409SOL     OW46699   1.751   3.509   7.949
11409SOL    HW146700   1.694   3.472   7.875
11409SOL    HW246701   1.723   3.468   8.036
11410SOL     OW46702   5.747   2.227   7.909
11410SOL    HW146703   5.701   2.246   7.996
11410SOL    HW246704   5.777   2.313   7.868
11411SOL     OW46705   5.477   2.987   8.124
11411SOL    HW146706   5.380   2.969   8.143
11411SOL    HW246707   5.495   2.970   8.027
11412SOL     OW46708   6.222   0.113   8.131
11412SOL    HW146709   6.240   0.077   8.040
11412SOL    HW246710   6.125   0.103   8.153
11413SOL     OW46711   1.369   2.090   8.085
11413SOL    HW146712   1.377   2.081   8.184
11413SOL    HW246713   1.360   1.999   8.043
11414SOL     OW46714   3.081   4.689   8.207
11414SOL    HW146715   2.999   4.731   8.168
11414SOL    HW246716   3.152   4.758   8.220
11415SOL     OW46717   2.952   7.329   8.458
11415SOL    HW146718   2.907   7.250   8.416
11415SOL    HW246719   2.892   7.369   8.526
11416SOL     OW46720   1.002   1.691   8.768
11416SOL    HW146721   0.977   1.613   8.826
11416SOL    HW246722   0.967   1.775   8.809
11417SOL     OW46723   7.256   7.117   8.624
11417SOL    HW146724   7.282   7.158   8.712
11417SOL    HW246725   7.163   7.146   8.601
11418SOL     OW46726   0.674   2.945   8.728
11418SOL    HW146727   0.659   3.038   8.759
11418SOL    HW246728   0.752   2.943   8.665
11419SOL     OW46729   5.785   1.584   8.557
11419SOL    HW146730   5.728   1.505   8.579
11419SOL    HW246731   5.788   1.596   8.458
11420SOL     OW46732   6.551   4.671   7.625
11420SOL    HW146733   6.482   4.678   7.697
11420SOL    HW246734   6.552   4.755   7.572
11421SOL     OW46735   5.328   5.577   0.038
11421SOL    HW146736   5.304   5.672   0.018
11421SOL    HW246737   5.244   5.525   0.056
11422SOL     OW46738   5.024   0.935   7.570
11422SOL    HW146739   5.018   0.841   7.537
11422SOL    HW246740   4.932   0.974   7.578
11423SOL     OW46741   3.649   0.787   8.493
11423SOL    HW146742   3.553   0.813   8.496
11423SOL    HW246743   3.676   0.769   8.399
11424SOL     OW46744   1.707   5.621   8.059
11424SOL    HW146745   1.616   5.660   8.042
11424SOL    HW246746   1.702   5.554   8.133
11425SOL     OW46747   1.984   5.273   8.423
11425SOL    HW146748   1.916   5.263   8.496
11425SOL    HW246749   2.071   5.233   8.454
11426SOL     OW46750   2.115   0.661   7.974
11426SOL    HW146751   2.068   0.579   7.940
11426SOL    HW246752   2.155   0.642   8.063
11427SOL     OW46753   5.436   0.885   7.710
11427SOL    HW146754   5.385   0.897   7.625
11427SOL    HW246755   5.437   0.971   7.761
11428SOL     OW46756   0.626   1.858   8.214
11428SOL    HW146757   0.680   1.872   8.297
11428SOL    HW246758   0.668   1.909   8.139
11429SOL     OW46759   4.270   1.745   8.732
11429SOL    HW146760   4.268   1.687   8.813
11429SOL    HW246761   4.364   1.752   8.699
11430SOL     OW46762   6.924   7.363   7.902
11430SOL    HW146763   6.824   7.356   7.907
11430SOL    HW246764   6.960   7.283   7.853
11431SOL     OW46765   2.643   3.065   7.948
11431SOL    HW146766   2.696   3.019   7.877
11431SOL    HW246767   2.598   2.996   8.006
11432SOL     OW46768   6.554   3.801   7.808
11432SOL    HW146769   6.515   3.777   7.897
11432SOL    HW246770   6.614   3.727   7.778
11433SOL     OW46771   6.964   2.731   7.766
11433SOL    HW146772   7.035   2.661   7.775
11433SOL    HW246773   6.918   2.744   7.854
11434SOL     OW46774   2.946   6.200   8.796
11434SOL    HW146775   2.931   6.283   8.849
11434SOL    HW246776   2.858   6.157   8.774
11435SOL     OW46777   3.227   4.195   7.782
11435SOL    HW146778   3.137   4.236   7.767
11435SOL    HW246779   3.259   4.217   7.874
11436SOL     OW46780   2.890   1.308   7.772
11436SOL    HW146781   2.895   1.408   7.765
11436SOL    HW246782   2.860   1.270   7.685
11437SOL     OW46783   2.100   4.558   8.000
11437SOL    HW146784   2.048   4.569   7.916
11437SOL    HW246785   2.037   4.546   8.077
11438SOL     OW46786   3.745   0.138   7.361
11438SOL    HW146787   3.774   0.121   7.266
11438SOL    HW246788   3.721   0.051   7.404
11439SOL     OW46789   3.463   1.941   8.011
11439SOL    HW146790   3.478   2.023   8.066
11439SOL    HW246791   3.492   1.860   8.063
11440SOL     OW46792   3.204   3.115   8.363
11440SOL    HW146793   3.207   3.168   8.279
11440SOL    HW246794   3.123   3.056   8.363
11441SOL     OW46795   1.075   5.920   8.467
11441SOL    HW146796   1.115   5.915   8.376
11441SOL    HW246797   1.091   6.010   8.506
11442SOL     OW46798   0.684   3.231   8.776
11442SOL    HW146799   0.642   3.309   8.730
11442SOL    HW246800   0.690   3.248   8.874
11443SOL     OW46801   2.022   6.307   8.830
11443SOL    HW146802   2.063   6.229   8.877
11443SOL    HW246803   2.074   6.327   8.747
11444SOL     OW46804   1.626   1.480   8.667
11444SOL    HW146805   1.638   1.451   8.762
11444SOL    HW246806   1.552   1.427   8.626
11445SOL     OW46807   3.523   4.568   7.691
11445SOL    HW146808   3.495   4.475   7.669
11445SOL    HW246809   3.442   4.628   7.690
11446SOL     OW46810   0.098   6.431   7.690
11446SOL    HW146811   0.194   6.401   7.691
11446SOL    HW246812   0.087   6.508   7.752
11447SOL     OW46813   1.788   3.707   8.662
11447SOL    HW146814   1.887   3.706   8.650
11447SOL    HW246815   1.744   3.666   8.581
11448SOL     OW46816   6.312   6.120   7.971
11448SOL    HW146817   6.349   6.028   7.986
11448SOL    HW246818   6.326   6.147   7.876
11449SOL     OW46819   2.144   1.192   7.861
11449SOL    HW146820   2.228   1.237   7.832
11449SOL    HW246821   2.113   1.130   7.789
11450SOL     OW46822   6.442   6.760   8.110
11450SOL    HW146823   6.459   6.821   8.033
11450SOL    HW246824   6.354   6.714   8.096
11451SOL     OW46825   1.402   4.975   8.497
11451SOL    HW146826   1.332   4.977   8.425
11451SOL    HW246827   1.359   4.951   8.584
11452SOL     OW46828   0.194   7.111   8.671
11452SOL    HW146829   0.104   7.150   8.653
11452SOL    HW246830   0.187   7.042   8.743
11453SOL     OW46831   2.349   5.428   7.836
11453SOL    HW146832   2.358   5.334   7.804
11453SOL    HW246833   2.360   5.491   7.759
11454SOL     OW46834   2.351   3.378   8.442
11454SOL    HW146835   2.312   3.297   8.399
11454SOL    HW246836   2.387   3.439   8.371
11455SOL     OW46837   7.138   2.478   8.395
11455SOL    HW146838   7.159   2.408   8.326
11455SOL    HW246839   7.061   2.447   8.451
11456SOL     OW46840   1.756   7.096   7.361
11456SOL    HW146841   1.775   7.005   7.399
11456SOL    HW246842   1.688   7.142   7.417
11457SOL     OW46843   1.105   4.172   8.775
11457SOL    HW146844   1.121   4.247   8.712
11457SOL    HW246845   1.179   4.169   8.842
11458SOL     OW46846   5.057   0.194   0.015
11458SOL    HW146847   5.139   0.156   0.059
11458SOL    HW246848   4.979   0.185   0.077
11459SOL     OW46849   7.321   5.175   7.703
11459SOL    HW146850   7.227   5.202   7.725
11459SOL    HW246851   7.381   5.254   7.714
11460SOL     OW46852   1.097   5.015   8.936
11460SOL    HW146853   1.133   5.007   0.029
11460SOL    HW246854   1.025   5.085   8.933
11461SOL     OW46855   1.980   7.078   8.433
11461SOL    HW146856   1.893   7.118   8.403
11461SOL    HW246857   1.964   7.020   8.513
11462SOL     OW46858   4.150   4.565   8.103
11462SOL    HW146859   4.148   4.471   8.069
11462SOL    HW246860   4.201   4.568   8.189
11463SOL     OW46861   1.837   6.471   8.422
11463SOL    HW146862   1.909   6.525   8.380
11463SOL    HW246863   1.858   6.374   8.415
11464SOL     OW46864   0.637   5.468   8.340
11464SOL    HW146865   0.584   5.445   8.258
11464SOL    HW246866   0.667   5.384   8.385
11465SOL     OW46867   2.668   1.139   8.622
11465SOL    HW146868   2.633   1.169   8.533
11465SOL    HW246869   2.666   1.039   8.625
11466SOL     OW46870   1.626   4.209   7.830
11466SOL    HW146871   1.580   4.271   7.766
11466SOL    HW246872   1.712   4.178   7.789
11467SOL     OW46873   5.364   2.280   7.623
11467SOL    HW146874   5.302   2.285   7.544
11467SOL    HW246875   5.327   2.217   7.691
11468SOL     OW46876   6.766   0.535   7.949
11468SOL    HW146877   6.863   0.545   7.970
11468SOL    HW246878   6.716   0.510   8.032
11469SOL     OW46879   3.416   3.067   8.110
11469SOL    HW146880   3.504   3.113   8.124
11469SOL    HW246881   3.342   3.133   8.121
11470SOL     OW46882   4.711   0.689   7.693
11470SOL    HW146883   4.727   0.656   7.599
11470SOL    HW246884   4.685   0.786   7.690
11471SOL     OW46885   3.551   7.145   8.200
11471SOL    HW146886   3.542   7.245   8.200
11471SOL    HW246887   3.484   7.106   8.136
11472SOL     OW46888   6.555   1.935   8.338
11472SOL    HW146889   6.497   1.967   8.264
11472SOL    HW246890   6.648   1.920   8.304
11473SOL     OW46891   1.716   2.220   8.569
11473SOL    HW146892   1.789   2.259   8.625
11473SOL    HW246893   1.697   2.127   8.598
11474SOL     OW46894   3.156   6.511   8.338
11474SOL    HW146895   3.103   6.593   8.362
11474SOL    HW246896   3.182   6.462   8.421
11475SOL     OW46897   6.163   5.389   7.499
11475SOL    HW146898   6.135   5.315   7.560
11475SOL    HW246899   6.209   5.351   7.419
11476SOL     OW46900   5.614   0.543   8.770
11476SOL    HW146901   5.569   0.606   8.707
11476SOL    HW246902   5.637   0.458   8.723
11477SOL     OW46903   3.780   1.722   7.934
11477SOL    HW146904   3.751   1.724   7.839
11477SOL    HW246905   3.833   1.804   7.955
11478SOL     OW46906   0.281   1.305   7.667
11478SOL    HW146907   0.379   1.294   7.681
11478SOL    HW246908   0.236   1.216   7.668
11479SOL     OW46909   6.126   1.977   8.209
11479SOL    HW146910   6.050   2.004   8.148
11479SOL    HW246911   6.160   1.888   8.181
11480SOL     OW46912   5.570   1.263   8.183
11480SOL    HW146913   5.648   1.220   8.229
11480SOL    HW246914   5.503   1.194   8.160
11481SOL     OW46915   0.192   2.581   8.503
11481SOL    HW146916   0.202   2.525   8.420
11481SOL    HW246917   0.271   2.641   8.513
11482SOL     OW46918   6.425   5.875   8.012
11482SOL    HW146919   6.490   5.820   7.959
11482SOL    HW246920   6.412   5.833   8.102
11483SOL     OW46921   1.128   5.662   8.198
11483SOL    HW146922   1.146   5.760   8.203
11483SOL    HW246923   1.038   5.642   8.238
11484SOL     OW46924   6.196   0.435   8.683
11484SOL    HW146925   6.281   0.409   8.639
11484SOL    HW246926   6.127   0.457   8.614
11485SOL     OW46927   6.277   0.380   8.166
11485SOL    HW146928   6.253   0.283   8.161
11485SOL    HW246929   6.375   0.389   8.182
11486SOL     OW46930   5.117   0.132   7.735
11486SOL    HW146931   5.082   0.221   7.706
11486SOL    HW246932   5.051   0.088   7.795
11487SOL     OW46933   1.608   2.449   8.258
11487SOL    HW146934   1.619   2.350   8.256
11487SOL    HW246935   1.546   2.477   8.185
11488SOL     OW46936   0.976   2.032   8.279
11488SOL    HW146937   0.996   2.129   8.270
11488SOL    HW246938   1.028   1.981   8.210
11489SOL     OW46939   2.769   5.804   8.339
11489SOL    HW146940   2.758   5.785   8.242
11489SOL    HW246941   2.711   5.743   8.393
11490SOL     OW46942   2.716   1.406   8.680
11490SOL    HW146943   2.706   1.308   8.663
11490SOL    HW246944   2.653   1.434   8.752
11491SOL     OW46945   3.019   4.699   7.441
11491SOL    HW146946   3.094   4.642   7.475
11491SOL    HW246947   3.056   4.773   7.384
11492SOL     OW46948   3.295   1.900   7.801
11492SOL    HW146949   3.364   1.920   7.871
11492SOL    HW246950   3.212   1.866   7.845
11493SOL     OW46951   1.402   3.132   8.122
11493SOL    HW146952   1.399   3.232   8.116
11493SOL    HW246953   1.310   3.097   8.139
11494SOL     OW46954   6.730   4.091   8.751
11494SOL    HW146955   6.710   4.169   8.692
11494SOL    HW246956   6.683   4.104   8.839
11495SOL     OW46957   2.102   0.493   8.523
11495SOL    HW146958   2.031   0.459   8.583
11495SOL    HW246959   2.110   0.593   8.532
11496SOL     OW46960   0.961   3.286   7.519
11496SOL    HW146961   0.944   3.384   7.515
11496SOL    HW246962   0.960   3.256   7.614
11497SOL     OW46963   6.228   0.839   8.638
11497SOL    HW146964   6.288   0.890   8.701
11497SOL    HW246965   6.176   0.772   8.690
11498SOL     OW46966   4.700   1.479   7.378
11498SOL    HW146967   4.719   1.558   7.320
11498SOL    HW246968   4.696   1.508   7.473
11499SOL     OW46969   4.985   6.429   7.794
11499SOL    HW146970   5.028   6.505   7.746
11499SOL    HW246971   4.942   6.462   7.878
11500SOL     OW46972   1.838   0.103   8.206
11500SOL    HW146973   1.876   0.193   8.231
11500SOL    HW246974   1.755   0.116   8.151
11501SOL     OW46975   4.662   0.189   8.668
11501SOL    HW146976   4.668   0.221   8.574
11501SOL    HW246977   4.580   0.133   8.679
11502SOL     OW46978   3.794   2.066   8.193
11502SOL    HW146979   3.763   1.990   8.249
11502SOL    HW246980   3.837   2.031   8.110
11503SOL     OW46981   2.375   5.161   7.761
11503SOL    HW146982   2.293   5.104   7.759
11503SOL    HW246983   2.445   5.117   7.817
11504SOL     OW46984   0.437   6.484   8.770
11504SOL    HW146985   0.373   6.421   8.726
11504SOL    HW246986   0.465   6.446   8.858
11505SOL     OW46987   2.566   1.550   7.859
11505SOL    HW146988   2.524   1.478   7.914
11505SOL    HW246989   2.641   1.592   7.910
11506SOL     OW46990   1.881   5.444   7.932
11506SOL    HW146991   1.970   5.487   7.920
11506SOL    HW246992   1.816   5.511   7.967
11507SOL     OW46993   2.223   5.134   8.461
11507SOL    HW146994   2.190   5.042   8.482
11507SOL    HW246995   2.232   5.145   8.362
11508SOL     OW46996   3.681   2.033   8.632
11508SOL    HW146997   3.718   2.102   8.570
11508SOL    HW246998   3.757   1.983   8.674
11509SOL     OW46999   3.631   3.262   8.147
11509SOL    HW147000   3.707   3.327   8.151
11509SOL    HW247001   3.596   3.246   8.240
11510SOL     OW47002   1.867   4.143   7.685
11510SOL    HW147003   1.948   4.131   7.742
11510SOL    HW247004   1.889   4.202   7.608
11511SOL     OW47005   3.715   1.537   8.514
11511SOL    HW147006   3.634   1.566   8.566
11511SOL    HW247007   3.780   1.613   8.510
11512SOL     OW47008   7.090   4.573   8.560
11512SOL    HW147009   7.180   4.582   8.516
11512SOL    HW247010   7.090   4.493   8.619
11513SOL     OW47011   1.342   4.809   7.450
11513SOL    HW147012   1.339   4.764   7.361
11513SOL    HW247013   1.428   4.786   7.496
11514SOL     OW47014   5.057   6.631   8.852
11514SOL    HW147015   5.068   6.728   8.873
11514SOL    HW247016   5.104   6.610   8.766
11515SOL     OW47017   6.064   0.944   8.408
11515SOL    HW147018   6.023   0.873   8.351
11515SOL    HW247019   6.109   0.902   8.486
11516SOL     OW47020   5.097   6.733   8.399
11516SOL    HW147021   5.119   6.829   8.411
11516SOL    HW247022   5.133   6.680   8.476
11517SOL     OW47023   1.539   1.615   7.658
11517SOL    HW147024   1.524   1.608   7.559
11517SOL    HW247025   1.476   1.553   7.705
11518SOL     OW47026   2.222   6.960   7.464
11518SOL    HW147027   2.166   6.888   7.424
11518SOL    HW247028   2.251   7.024   7.393
11519SOL     OW47029   6.391   5.699   8.225
11519SOL    HW147030   6.480   5.659   8.247
11519SOL    HW247031   6.343   5.641   8.159
11520SOL     OW47032   1.870   1.518   7.829
11520SOL    HW147033   1.784   1.478   7.861
11520SOL    HW247034   1.944   1.490   7.891
11521SOL     OW47035   6.999   5.901   8.016
11521SOL    HW147036   6.919   5.849   8.047
11521SOL    HW247037   7.062   5.840   7.969
11522SOL     OW47038   7.027   1.991   8.109
11522SOL    HW147039   6.999   2.084   8.083
11522SOL    HW247040   7.122   1.976   8.081
11523SOL     OW47041   5.326   1.761   7.486
11523SOL    HW147042   5.368   1.833   7.541
11523SOL    HW247043   5.367   1.673   7.510
11524SOL     OW47044   5.511   1.830   8.387
11524SOL    HW147045   5.479   1.816   8.294
11524SOL    HW247046   5.457   1.775   8.450
11525SOL     OW47047   5.749   2.757   7.904
11525SOL    HW147048   5.824   2.822   7.897
11525SOL    HW247049   5.666   2.798   7.866
11526SOL     OW47050   2.302   5.795   8.264
11526SOL    HW147051   2.374   5.731   8.238
11526SOL    HW247052   2.321   5.830   8.356
11527SOL     OW47053   5.083   6.966   7.777
11527SOL    HW147054   5.024   6.971   7.857
11527SOL    HW247055   5.167   7.017   7.793
11528SOL     OW47056   1.892   0.810   7.341
11528SOL    HW147057   1.971   0.760   7.306
11528SOL    HW247058   1.829   0.830   7.266
11529SOL     OW47059   4.988   7.203   8.108
11529SOL    HW147060   5.087   7.186   8.113
11529SOL    HW247061   4.971   7.281   8.047
11530SOL     OW47062   6.266   1.182   0.244
11530SOL    HW147063   6.338   1.250   0.234
11530SOL    HW247064   6.276   1.136   0.333
11531SOL     OW47065   3.350   1.210   8.031
11531SOL    HW147066   3.345   1.245   8.125
11531SOL    HW247067   3.262   1.227   7.985
11532SOL     OW47068   7.230   1.998   7.650
11532SOL    HW147069   7.303   2.066   7.638
11532SOL    HW247070   7.265   1.920   7.701
11533SOL     OW47071   3.182   4.750   8.584
11533SOL    HW147072   3.181   4.844   8.550
11533SOL    HW247073   3.255   4.740   8.652
11534SOL     OW47074   2.980   6.736   8.338
11534SOL    HW147075   2.945   6.713   8.248
11534SOL    HW247076   2.904   6.744   8.403
11535SOL     OW47077   3.819   6.214   8.784
11535SOL    HW147078   3.854   6.249   8.697
11535SOL    HW247079   3.893   6.170   8.834
11536SOL     OW47080   3.275   2.554   0.048
11536SOL    HW147081   3.373   2.573   0.043
11536SOL    HW247082   3.255   2.468   0.001
11537SOL     OW47083   1.741   2.596   8.741
11537SOL    HW147084   1.663   2.539   8.767
11537SOL    HW247085   1.715   2.693   8.748
11538SOL     OW47086   7.210   3.008   7.976
11538SOL    HW147087   7.235   3.094   8.021
11538SOL    HW247088   7.220   3.018   7.877
11539SOL     OW47089   1.432   4.902   8.096
11539SOL    HW147090   1.452   4.961   8.018
11539SOL    HW247091   1.381   4.954   8.165
11540SOL     OW47092   4.678   3.727   7.713
11540SOL    HW147093   4.679   3.788   7.634
11540SOL    HW247094   4.761   3.670   7.713
11541SOL     OW47095   1.948   3.703   8.345
11541SOL    HW147096   1.960   3.748   8.256
11541SOL    HW247097   1.864   3.649   8.344
11542SOL     OW47098   3.469   0.224   8.527
11542SOL    HW147099   3.384   0.171   8.534
11542SOL    HW247100   3.541   0.178   8.579
11543SOL     OW47101   4.782   4.858   8.554
11543SOL    HW147102   4.873   4.886   8.586
11543SOL    HW247103   4.733   4.939   8.521
11544SOL     OW47104   0.085   1.403   8.470
11544SOL    HW147105   0.039   1.462   8.535
11544SOL    HW247106   0.152   1.456   8.418
11545SOL     OW47107   3.595   3.620   8.651
11545SOL    HW147108   3.533   3.544   8.671
11545SOL    HW247109   3.547   3.707   8.668
11546SOL     OW47110   7.366   3.100   8.455
11546SOL    HW147111   7.417   3.023   8.494
11546SOL    HW247112   7.415   3.136   8.375
11547SOL     OW47113   3.722   2.642   7.786
11547SOL    HW147114   3.755   2.579   7.856
11547SOL    HW247115   3.728   2.736   7.820
11548SOL     OW47116   5.152   2.781   7.911
11548SOL    HW147117   5.062   2.823   7.898
11548SOL    HW247118   5.205   2.789   7.827
11549SOL     OW47119   5.622   0.414   8.120
11549SOL    HW147120   5.642   0.316   8.126
11549SOL    HW247121   5.594   0.438   8.028
11550SOL     OW47122   2.747   4.309   8.198
11550SOL    HW147123   2.690   4.237   8.158
11550SOL    HW247124   2.803   4.351   8.127
11551SOL     OW47125   5.834   5.342   8.803
11551SOL    HW147126   5.758   5.408   8.805
11551SOL    HW247127   5.800   5.254   8.769
11552SOL     OW47128   6.618   3.260   8.375
11552SOL    HW147129   6.708   3.228   8.346
11552SOL    HW247130   6.547   3.204   8.333
11553SOL     OW47131   1.098   2.604   7.632
11553SOL    HW147132   1.073   2.547   7.554
11553SOL    HW247133   1.070   2.699   7.614
11554SOL     OW47134   5.639   6.689   7.710
11554SOL    HW147135   5.599   6.662   7.622
11554SOL    HW247136   5.572   6.672   7.783
11555SOL     OW47137   3.807   2.465   7.977
11555SOL    HW147138   3.711   2.437   7.973
11555SOL    HW247139   3.853   2.413   8.048
11556SOL     OW47140   5.274   2.793   8.624
11556SOL    HW147141   5.344   2.742   8.673
11556SOL    HW247142   5.300   2.801   8.528
11557SOL     OW47143   2.935   3.105   8.857
11557SOL    HW147144   2.968   3.034   8.795
11557SOL    HW247145   2.875   3.168   8.807
11558SOL     OW47146   5.116   2.276   8.954
11558SOL    HW147147   5.052   2.292   0.029
11558SOL    HW247148   5.175   2.356   8.943
11559SOL     OW47149   0.181   7.326   7.735
11559SOL    HW147150   0.085   7.313   7.757
11559SOL    HW247151   0.231   7.240   7.749
11560SOL     OW47152   2.943   5.074   8.078
11560SOL    HW147153   2.911   4.980   8.091
11560SOL    HW247154   2.883   5.122   8.013
11561SOL     OW47155   2.928   6.974   7.681
11561SOL    HW147156   2.896   6.897   7.626
11561SOL    HW247157   2.930   6.948   7.777
11562SOL     OW47158   4.321   6.811   8.061
11562SOL    HW147159   4.258   6.871   8.110
11562SOL    HW247160   4.412   6.852   8.060
11563SOL     OW47161   0.909   1.807   7.896
11563SOL    HW147162   0.972   1.815   7.819
11563SOL    HW247163   0.888   1.710   7.912
11564SOL     OW47164   1.478   3.550   8.649
11564SOL    HW147165   1.382   3.568   8.671
11564SOL    HW247166   1.533   3.556   8.732
11565SOL     OW47167   1.719   3.946   8.789
11565SOL    HW147168   1.621   3.961   8.785
11565SOL    HW247169   1.740   3.853   8.759
11566SOL     OW47170   0.712   1.444   8.477
11566SOL    HW147171   0.757   1.358   8.499
11566SOL    HW247172   0.770   1.520   8.505
11567SOL     OW47173   3.457   6.499   8.819
11567SOL    HW147174   3.412   6.411   8.804
11567SOL    HW247175   3.387   6.569   8.836
11568SOL     OW47176   0.579   5.580   7.333
11568SOL    HW147177   0.515   5.520   7.285
11568SOL    HW247178   0.568   5.674   7.299
11569SOL     OW47179   4.268   0.122   8.318
11569SOL    HW147180   4.297   0.029   8.297
11569SOL    HW247181   4.208   0.155   8.245
11570SOL     OW47182   4.859   5.714   0.039
11570SOL    HW147183   4.812   5.770   0.108
11570SOL    HW247184   4.794   5.653   8.994
11571SOL     OW47185   5.870   0.529   8.179
11571SOL    HW147186   5.942   0.467   8.149
11571SOL    HW247187   5.781   0.493   8.149
11572SOL     OW47188   2.154   1.029   7.626
11572SOL    HW147189   2.233   1.053   7.569
11572SOL    HW247190   2.174   0.946   7.678
11573SOL     OW47191   6.168   5.728   8.387
11573SOL    HW147192   6.246   5.736   8.325
11573SOL    HW247193   6.083   5.729   8.334
11574SOL     OW47194   5.847   4.583   7.455
11574SOL    HW147195   5.772   4.555   7.515
11574SOL    HW247196   5.934   4.547   7.491
11575SOL     OW47197   3.345   0.486   8.130
11575SOL    HW147198   3.379   0.527   8.046
11575SOL    HW247199   3.301   0.556   8.186
11576SOL     OW47200   2.652   6.837   7.762
11576SOL    HW147201   2.643   6.936   7.776
11576SOL    HW247202   2.694   6.820   7.673
11577SOL     OW47203   5.295   4.027   8.342
11577SOL    HW147204   5.301   3.930   8.367
11577SOL    HW247205   5.380   4.055   8.297
11578SOL     OW47206   0.944   7.286   8.135
11578SOL    HW147207   0.859   7.241   8.106
11578SOL    HW247208   1.020   7.221   8.126
11579SOL     OW47209   0.176   3.952   7.771
11579SOL    HW147210   0.231   3.883   7.817
11579SOL    HW247211   0.162   3.925   7.676
11580SOL     OW47212   3.419   4.628   7.399
11580SOL    HW147213   3.460   4.549   7.354
11580SOL    HW247214   3.341   4.597   7.454
11581SOL     OW47215   1.725   3.765   8.052
11581SOL    HW147216   1.818   3.801   8.063
11581SOL    HW247217   1.729   3.676   8.006
11582SOL     OW47218   2.940   1.212   8.166
11582SOL    HW147219   2.985   1.253   8.246
11582SOL    HW247220   2.883   1.135   8.196
11583SOL     OW47221   1.359   2.499   7.934
11583SOL    HW147222   1.305   2.446   7.868
11583SOL    HW247223   1.299   2.559   7.986
11584SOL     OW47224   4.140   4.767   7.923
11584SOL    HW147225   4.221   4.756   7.865
11584SOL    HW247226   4.140   4.697   7.995
11585SOL     OW47227   6.267   3.316   8.688
11585SOL    HW147228   6.262   3.399   8.744
11585SOL    HW247229   6.205   3.247   8.725
11586SOL     OW47230   2.133   6.499   8.994
11586SOL    HW147231   2.082   6.436   8.935
11586SOL    HW247232   2.077   6.579   0.013
11587SOL     OW47233   2.345   5.664   7.662
11587SOL    HW147234   2.386   5.706   7.743
11587SOL    HW247235   2.388   5.701   7.580
11588SOL     OW47236   3.796   1.385   8.307
11588SOL    HW147237   3.764   1.431   8.225
11588SOL    HW247238   3.771   1.439   8.388
11589SOL     OW47239   3.108   5.933   8.304
11589SOL    HW147240   3.132   5.836   8.316
11589SOL    HW247241   3.079   5.971   8.391
11590SOL     OW47242   0.262   2.857   8.252
11590SOL    HW147243   0.345   2.800   8.252
11590SOL    HW247244   0.184   2.801   8.223
11591SOL     OW47245   1.826   5.858   7.960
11591SOL    HW147246   1.800   5.774   8.007
11591SOL    HW247247   1.747   5.919   7.956
11592SOL     OW47248   0.620   3.779   8.785
11592SOL    HW147249   0.641   3.739   8.696
11592SOL    HW247250   0.579   3.869   8.772
11593SOL     OW47251   0.129   0.232   7.413
11593SOL    HW147252   0.078   0.304   7.461
11593SOL    HW247253   0.126   0.249   7.315
11594SOL     OW47254   3.124   2.823   7.874
11594SOL    HW147255   3.196   2.767   7.832
11594SOL    HW247256   3.119   2.912   7.828
11595SOL     OW47257   0.869   0.700   8.126
11595SOL    HW147258   0.870   0.611   8.080
11595SOL    HW247259   0.783   0.712   8.175
11596SOL     OW47260   4.410   6.811   8.783
11596SOL    HW147261   4.354   6.876   8.732
11596SOL    HW247262   4.381   6.718   8.762
11597SOL     OW47263   2.975   1.962   8.722
11597SOL    HW147264   2.905   1.920   8.663
11597SOL    HW247265   2.997   1.899   8.796
11598SOL     OW47266   1.030   2.965   7.773
11598SOL    HW147267   1.013   2.924   7.683
11598SOL    HW247268   1.005   3.062   7.771
11599SOL     OW47269   5.516   4.115   8.204
11599SOL    HW147270   5.530   4.125   8.106
11599SOL    HW247271   5.601   4.085   8.247
11600SOL     OW47272   7.279   3.253   8.082
11600SOL    HW147273   7.228   3.316   8.141
11600SOL    HW247274   7.314   3.303   8.003
11601SOL     OW47275   3.604   7.238   7.921
11601SOL    HW147276   3.607   7.157   7.863
11601SOL    HW247277   3.624   7.211   8.016
11602SOL     OW47278   1.759   0.916   7.713
11602SOL    HW147279   1.818   0.972   7.655
11602SOL    HW247280   1.753   0.824   7.675
11603SOL     OW47281   5.229   7.180   7.454
11603SOL    HW147282   5.189   7.110   7.395
11603SOL    HW247283   5.329   7.181   7.442
11604SOL     OW47284   3.529   0.445   8.996
11604SOL    HW147285   3.456   0.512   8.982
11604SOL    HW247286   3.499   0.377   0.062
11605SOL     OW47287   2.207   0.635   8.230
11605SOL    HW147288   2.164   0.599   8.313
11605SOL    HW247289   2.276   0.702   8.255
11606SOL     OW47290   7.281   0.132   7.588
11606SOL    HW147291   7.312   0.066   7.656
11606SOL    HW247292   7.238   0.210   7.635
11607SOL     OW47293   3.391   0.896   8.313
11607SOL    HW147294   3.371   0.963   8.384
11607SOL    HW247295   3.471   0.926   8.260
11608SOL     OW47296   6.694   4.475   8.384
11608SOL    HW147297   6.670   4.426   8.468
11608SOL    HW247298   6.617   4.533   8.357
11609SOL     OW47299   0.391   3.586   7.492
11609SOL    HW147300   0.292   3.580   7.508
11609SOL    HW247301   0.429   3.660   7.547
11610SOL     OW47302   2.610   2.798   7.413
11610SOL    HW147303   2.671   2.873   7.389
11610SOL    HW247304   2.566   2.763   7.331
11611SOL     OW47305   6.876   0.015   7.779
11611SOL    HW147306   6.805   0.011   7.849
11611SOL    HW247307   6.844   0.068   7.701
11612SOL     OW47308   5.394   4.254   7.752
11612SOL    HW147309   5.455   4.323   7.791
11612SOL    HW247310   5.448   4.183   7.707
11613SOL     OW47311   5.544   4.878   8.716
11613SOL    HW147312   5.588   4.801   8.671
11613SOL    HW247313   5.503   4.848   8.802
11614SOL     OW47314   4.589   5.475   7.771
11614SOL    HW147315   4.618   5.381   7.789
11614SOL    HW247316   4.625   5.504   7.682
11615SOL     OW47317   6.291   2.538   7.700
11615SOL    HW147318   6.243   2.616   7.660
11615SOL    HW247319   6.225   2.476   7.740
11616SOL     OW47320   1.901   1.300   8.400
11616SOL    HW147321   1.821   1.261   8.445
11616SOL    HW247322   1.984   1.270   8.449
11617SOL     OW47323   2.754   5.602   8.834
11617SOL    HW147324   2.783   5.540   8.762
11617SOL    HW247325   2.815   5.592   8.913
11618SOL     OW47326   4.411   5.679   7.815
11618SOL    HW147327   4.468   5.598   7.801
11618SOL    HW247328   4.461   5.747   7.868
11619SOL     OW47329   1.367   3.364   8.480
11619SOL    HW147330   1.415   3.424   8.544
11619SOL    HW247331   1.323   3.420   8.409
11620SOL     OW47332   2.108   4.756   8.275
11620SOL    HW147333   2.184   4.761   8.211
11620SOL    HW247334   2.031   4.809   8.240
11621SOL     OW47335   5.623   3.159   7.852
11621SOL    HW147336   5.666   3.222   7.916
11621SOL    HW247337   5.657   3.178   7.759
11622SOL     OW47338   5.264   0.948   8.423
11622SOL    HW147339   5.315   0.903   8.351
11622SOL    HW247340   5.168   0.955   8.397
11623SOL     OW47341   3.190   1.875   8.356
11623SOL    HW147342   3.173   1.950   8.421
11623SOL    HW247343   3.116   1.872   8.289
11624SOL     OW47344   5.249   2.091   7.802
11624SOL    HW147345   5.170   2.151   7.812
11624SOL    HW247346   5.238   2.011   7.861
11625SOL     OW47347   4.934   2.240   7.564
11625SOL    HW147348   4.842   2.278   7.555
11625SOL    HW247349   4.980   2.281   7.643
11626SOL     OW47350   5.170   4.112   8.893
11626SOL    HW147351   5.190   4.071   8.804
11626SOL    HW247352   5.237   4.183   8.913
11627SOL     OW47353   0.890   3.303   8.364
11627SOL    HW147354   0.876   3.241   8.441
11627SOL    HW247355   0.942   3.382   8.395
11628SOL     OW47356   5.759   1.888   8.241
11628SOL    HW147357   5.670   1.888   8.286
11628SOL    HW247358   5.798   1.796   8.244
11629SOL     OW47359   3.517   0.321   8.270
11629SOL    HW147360   3.479   0.303   8.360
11629SOL    HW247361   3.458   0.385   8.221
11630SOL     OW47362   2.230   5.804   8.004
11630SOL    HW147363   2.169   5.879   7.978
11630SOL    HW247364   2.246   5.806   8.103
11631SOL     OW47365   0.937   2.236   7.580
11631SOL    HW147366   1.006   2.174   7.542
11631SOL    HW247367   0.925   2.217   7.677
11632SOL     OW47368   0.280   3.958   8.946
11632SOL    HW147369   0.300   3.891   8.876
11632SOL    HW247370   0.363   3.977   8.999
11633SOL     OW47371   1.110   1.447   7.632
11633SOL    HW147372   1.013   1.428   7.612
11633SOL    HW247373   1.160   1.456   7.546
11634SOL     OW47374   4.425   2.292   8.588
11634SOL    HW147375   4.445   2.221   8.520
11634SOL    HW247376   4.459   2.380   8.556
11635SOL     OW47377   5.223   1.401   8.071
11635SOL    HW147378   5.203   1.358   8.159
11635SOL    HW247379   5.310   1.451   8.076
11636SOL     OW47380   4.997   4.323   8.160
11636SOL    HW147381   5.013   4.225   8.174
11636SOL    HW247382   4.976   4.366   8.248
11637SOL     OW47383   1.504   4.528   8.820
11637SOL    HW147384   1.502   4.457   8.891
11637SOL    HW247385   1.582   4.588   8.835
11638SOL     OW47386   1.382   1.754   8.465
11638SOL    HW147387   1.356   1.682   8.400
11638SOL    HW247388   1.479   1.744   8.488
11639SOL     OW47389   6.261   2.808   7.586
11639SOL    HW147390   6.265   2.837   7.681
11639SOL    HW247391   6.342   2.842   7.537
11640SOL     OW47392   3.405   6.944   8.835
11640SOL    HW147393   3.496   6.956   8.875
11640SOL    HW247394   3.394   7.005   8.757
11641SOL     OW47395   6.625   3.653   8.624
11641SOL    HW147396   6.581   3.642   8.713
11641SOL    HW247397   6.671   3.567   8.599
11642SOL     OW47398   5.345   3.739   7.895
11642SOL    HW147399   5.305   3.793   7.821
11642SOL    HW247400   5.418   3.792   7.939
11643SOL     OW47401   0.519   6.563   7.482
11643SOL    HW147402   0.591   6.506   7.519
11643SOL    HW247403   0.549   6.603   7.395
11644SOL     OW47404   2.408   1.537   8.637
11644SOL    HW147405   2.311   1.561   8.635
11644SOL    HW247406   2.436   1.516   8.730
11645SOL     OW47407   5.582   3.456   8.393
11645SOL    HW147408   5.546   3.525   8.330
11645SOL    HW247409   5.580   3.367   8.348
11646SOL     OW47410   4.896   3.772   8.974
11646SOL    HW147411   4.818   3.711   8.968
11646SOL    HW247412   4.966   3.745   8.908
11647SOL     OW47413   2.072   6.742   7.377
11647SOL    HW147414   2.002   6.767   7.310
11647SOL    HW247415   2.030   6.688   7.450
11648SOL     OW47416   6.924   0.248   8.164
11648SOL    HW147417   6.932   0.345   8.187
11648SOL    HW247418   6.837   0.213   8.196
11649SOL     OW47419   6.692   4.041   7.773
11649SOL    HW147420   6.641   3.955   7.768
11649SOL    HW247421   6.705   4.067   7.868
11650SOL     OW47422   0.471   5.935   7.648
11650SOL    HW147423   0.479   5.884   7.734
11650SOL    HW247424   0.415   5.882   7.584
11651SOL     OW47425   6.533   5.989   7.599
11651SOL    HW147426   6.545   5.890   7.606
11651SOL    HW247427   6.622   6.032   7.586
11652SOL     OW47428   2.423   5.396   8.104
11652SOL    HW147429   2.401   5.403   8.006
11652SOL    HW247430   2.446   5.487   8.139
11653SOL     OW47431   2.193   4.949   7.766
11653SOL    HW147432   2.218   4.890   7.843
11653SOL    HW247433   2.231   4.913   7.682
11654SOL     OW47434   6.784   2.038   7.648
11654SOL    HW147435   6.718   2.087   7.705
11654SOL    HW247436   6.745   1.950   7.619
11655SOL     OW47437   1.849   5.703   7.722
11655SOL    HW147438   1.865   5.755   7.806
11655SOL    HW247439   1.934   5.697   7.670
11656SOL     OW47440   1.601   5.244   8.171
11656SOL    HW147441   1.689   5.209   8.201
11656SOL    HW247442   1.602   5.256   8.072
11657SOL     OW47443   6.490   2.662   7.845
11657SOL    HW147444   6.425   2.608   7.791
11657SOL    HW247445   6.573   2.676   7.792
11658SOL     OW47446   2.585   4.115   8.088
11658SOL    HW147447   2.527   4.098   8.168
11658SOL    HW247448   2.595   4.030   8.036
11659SOL     OW47449   0.218   6.124   7.618
11659SOL    HW147450   0.271   6.209   7.622
11659SOL    HW247451   0.263   6.055   7.676
11660SOL     OW47452   6.759   7.293   8.848
11660SOL    HW147453   6.853   7.308   8.878
11660SOL    HW247454   6.700   7.365   8.883
11661SOL     OW47455   5.012   0.683   7.470
11661SOL    HW147456   5.087   0.628   7.507
11661SOL    HW247457   4.928   0.628   7.467
11662SOL     OW47458   7.144   2.645   8.995
11662SOL    HW147459   7.154   2.546   0.005
11662SOL    HW247460   7.150   2.670   8.898
11663SOL     OW47461   4.181   4.296   7.435
11663SOL    HW147462   4.167   4.395   7.445
11663SOL    HW247463   4.142   4.249   7.514
11664SOL     OW47464   3.369   0.687   7.659
11664SOL    HW147465   3.295   0.654   7.600
11664SOL    HW247466   3.441   0.727   7.603
11665SOL     OW47467   2.371   1.935   7.469
11665SOL    HW147468   2.322   1.942   7.382
11665SOL    HW247469   2.429   1.853   7.467
11666SOL     OW47470   3.202   4.522   7.540
11666SOL    HW147471   3.203   4.445   7.475
11666SOL    HW247472   3.181   4.487   7.631
11667SOL     OW47473   1.055   1.757   0.137
11667SOL    HW147474   1.125   1.694   0.102
11667SOL    HW247475   1.059   1.842   0.085
11668SOL     OW47476   5.692   6.661   8.719
11668SOL    HW147477   5.668   6.740   8.775
11668SOL    HW247478   5.613   6.633   8.664
11669SOL     OW47479   5.408   0.456   8.927
11669SOL    HW147480   5.332   0.517   8.904
11669SOL    HW247481   5.492   0.491   8.885
11670SOL     OW47482   0.063   3.387   7.924
11670SOL    HW147483   0.115   3.302   7.919
11670SOL    HW247484   0.119   3.458   7.966
11671SOL     OW47485   1.552   2.819   7.691
11671SOL    HW147486   1.489   2.750   7.656
11671SOL    HW247487   1.516   2.858   7.775
11672SOL     OW47488   5.105   4.069   8.154
11672SOL    HW147489   5.155   4.075   8.067
11672SOL    HW247490   5.169   4.047   8.228
11673SOL     OW47491   4.147   0.411   8.135
11673SOL    HW147492   4.059   0.371   8.109
11673SOL    HW247493   4.208   0.410   8.055
11674SOL     OW47494   1.513   0.490   8.287
11674SOL    HW147495   1.419   0.506   8.314
11674SOL    HW247496   1.550   0.572   8.243
11675SOL     OW47497   5.919   4.950   7.597
11675SOL    HW147498   5.835   4.974   7.645
11675SOL    HW247499   5.898   4.919   7.505
11676SOL     OW47500   2.053   1.661   8.319
11676SOL    HW147501   2.062   1.761   8.316
11676SOL    HW247502   1.956   1.636   8.313
11677SOL     OW47503   4.909   0.064   7.905
11677SOL    HW147504   4.874   0.155   7.927
11677SOL    HW247505   4.865   8.997   7.965
11678SOL     OW47506   1.149   4.906   7.609
11678SOL    HW147507   1.062   4.870   7.576
11678SOL    HW247508   1.223   4.871   7.553
11679SOL     OW47509   4.288   0.899   7.452
11679SOL    HW147510   4.292   0.886   7.551
11679SOL    HW247511   4.374   0.870   7.411
11680SOL     OW47512   0.275   6.816   7.769
11680SOL    HW147513   0.192   6.766   7.793
11680SOL    HW247514   0.335   6.821   7.849
11681SOL     OW47515   5.466   1.118   8.526
11681SOL    HW147516   5.532   1.049   8.556
11681SOL    HW247517   5.380   1.073   8.501
11682SOL     OW47518   6.757   1.397   7.783
11682SOL    HW147519   6.834   1.402   7.719
11682SOL    HW247520   6.793   1.395   7.877
11683SOL     OW47521   2.056   3.755   0.109
11683SOL    HW147522   2.111   3.820   0.056
11683SOL    HW247523   1.971   3.799   0.139
11684SOL     OW47524   5.661   2.916   8.749
11684SOL    HW147525   5.587   2.908   8.816
11684SOL    HW247526   5.701   2.825   8.733
11685SOL     OW47527   5.722   2.923   7.636
11685SOL    HW147528   5.819   2.903   7.621
11685SOL    HW247529   5.704   3.020   7.617
11686SOL     OW47530   6.729   7.000   7.837
11686SOL    HW147531   6.796   6.998   7.911
11686SOL    HW247532   6.640   6.973   7.872
11687SOL     OW47533   5.339   1.671   8.552
11687SOL    HW147534   5.270   1.725   8.601
11687SOL    HW247535   5.303   1.580   8.532
11688SOL     OW47536   4.325   1.425   8.278
11688SOL    HW147537   4.227   1.447   8.271
11688SOL    HW247538   4.358   1.452   8.369
11689SOL     OW47539   5.902   3.480   8.234
11689SOL    HW147540   5.917   3.443   8.326
11689SOL    HW247541   5.975   3.544   8.212
11690SOL     OW47542   5.221   3.990   8.650
11690SOL    HW147543   5.139   3.941   8.623
11690SOL    HW247544   5.244   4.059   8.582
11691SOL     OW47545   2.067   7.124   8.931
11691SOL    HW147546   1.976   7.159   8.955
11691SOL    HW247547   2.119   7.194   8.883
11692SOL     OW47548   2.325   4.032   8.710
11692SOL    HW147549   2.372   3.966   8.769
11692SOL    HW247550   2.227   4.018   8.715
11693SOL     OW47551   3.549   2.375   7.989
11693SOL    HW147552   3.516   2.355   7.897
11693SOL    HW247553   3.534   2.296   8.048
11694SOL     OW47554   6.261   5.474   8.454
11694SOL    HW147555   6.346   5.476   8.506
11694SOL    HW247556   6.224   5.566   8.446
11695SOL     OW47557   2.834   3.161   8.333
11695SOL    HW147558   2.895   3.083   8.318
11695SOL    HW247559   2.767   3.138   8.402
11696SOL     OW47560   5.377   4.496   7.527
11696SOL    HW147561   5.330   4.411   7.551
11696SOL    HW247562   5.318   4.552   7.469
11697SOL     OW47563   6.458   6.438   7.791
11697SOL    HW147564   6.431   6.348   7.755
11697SOL    HW247565   6.509   6.426   7.876
11698SOL     OW47566   1.650   0.920   8.425
11698SOL    HW147567   1.602   0.909   8.512
11698SOL    HW247568   1.601   0.870   8.354
11699SOL     OW47569   5.060   5.489   8.801
11699SOL    HW147570   5.083   5.449   8.890
11699SOL    HW247571   5.058   5.588   8.808
11700SOL     OW47572   2.610   2.719   7.856
11700SOL    HW147573   2.552   2.640   7.839
11700SOL    HW247574   2.700   2.689   7.888
11701SOL     OW47575   1.422   2.752   8.141
11701SOL    HW147576   1.333   2.719   8.110
11701SOL    HW247577   1.461   2.813   8.072
11702SOL     OW47578   2.388   1.747   8.258
11702SOL    HW147579   2.346   1.804   8.188
11702SOL    HW247580   2.356   1.653   8.249
11703SOL     OW47581   1.097   1.791   7.696
11703SOL    HW147582   1.175   1.847   7.667
11703SOL    HW247583   1.113   1.696   7.670
11704SOL     OW47584   1.322   5.887   7.655
11704SOL    HW147585   1.239   5.841   7.689
11704SOL    HW247586   1.403   5.838   7.688
11705SOL     OW47587   0.569   6.184   7.717
11705SOL    HW147588   0.534   6.094   7.693
11705SOL    HW247589   0.669   6.180   7.726
11706SOL     OW47590   2.522   2.540   8.985
11706SOL    HW147591   2.567   2.485   8.914
11706SOL    HW247592   2.497   2.480   0.061
11707SOL     OW47593   5.587   4.064   7.678
11707SOL    HW147594   5.589   3.965   7.690
11707SOL    HW247595   5.651   4.090   7.606
11708SOL     OW47596   4.698   5.103   8.447
11708SOL    HW147597   4.780   5.139   8.491
11708SOL    HW247598   4.717   5.082   8.351
11709SOL     OW47599   0.508   1.503   0.042
11709SOL    HW147600   0.530   1.432   0.109
11709SOL    HW247601   0.515   1.593   0.085
11710SOL     OW47602   2.214   3.519   0.064
11710SOL    HW147603   2.143   3.590   0.072
11710SOL    HW247604   2.207   3.457   0.142
11711SOL     OW47605   5.868   7.142   7.367
11711SOL    HW147606   5.941   7.208   7.386
11711SOL    HW247607   5.890   7.055   7.410
11712SOL     OW47608   4.478   3.021   8.191
11712SOL    HW147609   4.401   3.085   8.198
11712SOL    HW247610   4.524   3.014   8.279
11713SOL     OW47611   1.903   6.900   8.632
11713SOL    HW147612   1.927   6.803   8.629
11713SOL    HW247613   1.804   6.910   8.646
11714SOL     OW47614   5.056   5.754   8.858
11714SOL    HW147615   4.980   5.747   8.924
11714SOL    HW247616   5.135   5.795   8.903
11715SOL     OW47617   2.529   7.009   8.076
11715SOL    HW147618   2.573   6.919   8.079
11715SOL    HW247619   2.545   7.051   7.986
11716SOL     OW47620   1.031   5.109   7.921
11716SOL    HW147621   1.037   5.034   7.988
11716SOL    HW247622   1.116   5.112   7.868
11717SOL     OW47623   4.104   6.610   8.299
11717SOL    HW147624   4.008   6.587   8.289
11717SOL    HW247625   4.153   6.586   8.215
11718SOL     OW47626   1.203   3.584   8.684
11718SOL    HW147627   1.141   3.622   8.752
11718SOL    HW247628   1.150   3.539   8.612
11719SOL     OW47629   0.239   4.423   7.621
11719SOL    HW147630   0.163   4.471   7.577
11719SOL    HW247631   0.225   4.324   7.613
11720SOL     OW47632   0.300   6.721   7.498
11720SOL    HW147633   0.381   6.663   7.496
11720SOL    HW247634   0.289   6.760   7.590
11721SOL     OW47635   1.249   4.699   8.111
11721SOL    HW147636   1.321   4.768   8.103
11721SOL    HW247637   1.245   4.667   8.206
11722SOL     OW47638   0.213   0.146   7.870
11722SOL    HW147639   0.277   0.168   7.797
11722SOL    HW247640   0.121   0.134   7.833
11723SOL     OW47641   2.493   1.569   7.590
11723SOL    HW147642   2.394   1.566   7.605
11723SOL    HW247643   2.541   1.552   7.676
11724SOL     OW47644   4.848   4.883   7.958
11724SOL    HW147645   4.883   4.806   8.012
11724SOL    HW247646   4.853   4.861   7.861
11725SOL     OW47647   3.000   2.942   8.318
11725SOL    HW147648   3.059   2.912   8.243
11725SOL    HW247649   2.989   2.868   8.384
11726SOL     OW47650   5.435   1.953   7.644
11726SOL    HW147651   5.369   2.006   7.698
11726SOL    HW247652   5.528   1.976   7.674
11727SOL     OW47653   6.770   4.227   8.272
11727SOL    HW147654   6.865   4.201   8.289
11727SOL    HW247655   6.756   4.322   8.298
11728SOL     OW47656   2.777   0.778   8.379
11728SOL    HW147657   2.711   0.715   8.337
11728SOL    HW247658   2.862   0.729   8.398
11729SOL     OW47659   4.302   0.824   7.716
11729SOL    HW147660   4.209   0.819   7.752
11729SOL    HW247661   4.355   0.746   7.752
11730SOL     OW47662   6.627   0.795   8.399
11730SOL    HW147663   6.653   0.846   8.481
11730SOL    HW247664   6.527   0.793   8.392
11731SOL     OW47665   4.105   3.285   8.646
11731SOL    HW147666   4.009   3.303   8.624
11731SOL    HW247667   4.109   3.215   8.718
11732SOL     OW47668   5.944   2.567   8.556
11732SOL    HW147669   6.020   2.629   8.574
11732SOL    HW247670   5.886   2.606   8.484
11733SOL     OW47671   1.267   3.553   8.302
11733SOL    HW147672   1.289   3.651   8.297
11733SOL    HW247673   1.307   3.507   8.223
11734SOL     OW47674   0.522   5.434   7.692
11734SOL    HW147675   0.615   5.435   7.729
11734SOL    HW247676   0.480   5.345   7.708
11735SOL     OW47677   5.880   2.455   8.106
11735SOL    HW147678   5.795   2.404   8.125
11735SOL    HW247679   5.881   2.484   8.011
11736SOL     OW47680   6.873   3.176   8.319
11736SOL    HW147681   6.905   3.116   8.246
11736SOL    HW247682   6.952   3.223   8.359
11737SOL     OW47683   4.010   0.648   8.224
11737SOL    HW147684   4.056   0.716   8.168
11737SOL    HW247685   4.047   0.557   8.203
11738SOL     OW47686   5.120   3.911   0.067
11738SOL    HW147687   5.126   3.992   0.009
11738SOL    HW247688   5.035   3.861   0.047
11739SOL     OW47689   6.431   0.631   7.780
11739SOL    HW147690   6.447   0.706   7.844
11739SOL    HW247691   6.390   0.554   7.829
11740SOL     OW47692   3.213   3.535   8.144
11740SOL    HW147693   3.306   3.565   8.168
11740SOL    HW247694   3.150   3.612   8.150
11741SOL     OW47695   6.902   2.761   8.689
11741SOL    HW147696   6.997   2.738   8.707
11741SOL    HW247697   6.898   2.845   8.635
11742SOL     OW47698   5.632   6.873   8.876
11742SOL    HW147699   5.564   6.843   8.943
11742SOL    HW247700   5.646   6.972   8.884
11743SOL     OW47701   4.303   3.692   8.714
11743SOL    HW147702   4.235   3.648   8.656
11743SOL    HW247703   4.257   3.741   8.789
11744SOL     OW47704   4.852   0.209   7.506
11744SOL    HW147705   4.920   0.262   7.558
11744SOL    HW247706   4.767   0.261   7.500
11745SOL     OW47707   0.357   7.298   8.789
11745SOL    HW147708   0.405   7.358   8.725
11745SOL    HW247709   0.309   7.227   8.739
11746SOL     OW47710   6.794   5.555   7.545
11746SOL    HW147711   6.807   5.491   7.470
11746SOL    HW247712   6.824   5.512   7.631
11747SOL     OW47713   3.195   5.671   8.423
11747SOL    HW147714   3.124   5.659   8.493
11747SOL    HW247715   3.259   5.594   8.428
11748SOL     OW47716   0.866   1.547   8.220
11748SOL    HW147717   0.946   1.600   8.248
11748SOL    HW247718   0.790   1.566   8.282
11749SOL     OW47719   6.777   5.298   0.062
11749SOL    HW147720   6.778   5.207   0.102
11749SOL    HW247721   6.751   5.292   8.965
11750SOL     OW47722   2.639   3.532   8.963
11750SOL    HW147723   2.715   3.530   8.897
11750SOL    HW247724   2.675   3.554   0.054
11751SOL     OW47725   4.399   1.750   7.453
11751SOL    HW147726   4.469   1.822   7.449
11751SOL    HW247727   4.416   1.683   7.380
11752SOL     OW47728   0.075   2.230   0.007
11752SOL    HW147729   0.118   2.192   8.925
11752SOL    HW247730   0.133   2.214   0.086
11753SOL     OW47731   4.411   1.103   0.029
11753SOL    HW147732   4.389   1.112   8.932
11753SOL    HW247733   4.386   1.011   0.060
11754SOL     OW47734   0.478   1.978   7.860
11754SOL    HW147735   0.449   2.072   7.840
11754SOL    HW247736   0.414   1.914   7.817
11755SOL     OW47737   4.975   7.277   7.531
11755SOL    HW147738   4.996   7.357   7.587
11755SOL    HW247739   5.060   7.228   7.509
11756SOL     OW47740   0.894   4.059   8.315
11756SOL    HW147741   0.940   4.128   8.259
11756SOL    HW247742   0.890   3.973   8.264
11757SOL     OW47743   2.688   7.280   8.853
11757SOL    HW147744   2.633   7.333   8.917
11757SOL    HW247745   2.707   7.335   8.771
11758SOL     OW47746   4.552   0.227   8.028
11758SOL    HW147747   4.542   0.127   8.021
11758SOL    HW247748   4.646   0.252   8.002
11759SOL     OW47749   3.032   2.220   7.770
11759SOL    HW147750   3.036   2.242   7.867
11759SOL    HW247751   2.937   2.227   7.738
11760SOL     OW47752   3.714   1.689   8.845
11760SOL    HW147753   3.736   1.593   8.864
11760SOL    HW247754   3.641   1.694   8.776
11761SOL     OW47755   2.940   3.235   7.615
11761SOL    HW147756   2.852   3.201   7.582
11761SOL    HW247757   2.928   3.279   7.704
11762SOL     OW47758   6.580   2.179   8.597
11762SOL    HW147759   6.507   2.111   8.590
11762SOL    HW247760   6.540   2.270   8.587
11763SOL     OW47761   7.165   4.128   8.062
11763SOL    HW147762   7.092   4.073   8.020
11763SOL    HW247763   7.179   4.211   8.008
11764SOL     OW47764   5.889   7.067   7.893
11764SOL    HW147765   5.982   7.032   7.898
11764SOL    HW247766   5.839   7.020   7.820
11765SOL     OW47767   6.086   4.471   7.570
11765SOL    HW147768   6.156   4.438   7.633
11765SOL    HW247769   6.055   4.396   7.512
11766SOL     OW47770   3.716   5.038   7.632
11766SOL    HW147771   3.807   5.071   7.606
11766SOL    HW247772   3.707   4.941   7.607
11767SOL     OW47773   3.852   0.055   8.434
11767SOL    HW147774   3.944   0.056   8.472
11767SOL    HW247775   3.829   0.146   8.400
11768SOL     OW47776   3.547   1.248   7.572
11768SOL    HW147777   3.623   1.187   7.594
11768SOL    HW247778   3.579   1.343   7.576
11769SOL     OW47779   1.517   5.034   7.868
11769SOL    HW147780   1.578   4.962   7.834
11769SOL    HW247781   1.568   5.120   7.874
11770SOL     OW47782   3.826   3.471   8.150
11770SOL    HW147783   3.823   3.533   8.071
11770SOL    HW247784   3.777   3.513   8.227
11771SOL     OW47785   1.854   3.176   7.931
11771SOL    HW147786   1.948   3.208   7.933
11771SOL    HW247787   1.816   3.188   7.839
11772SOL     OW47788   2.494   6.586   8.194
11772SOL    HW147789   2.490   6.650   8.117
11772SOL    HW247790   2.577   6.530   8.187
11773SOL     OW47791   2.900   6.653   8.077
11773SOL    HW147792   2.972   6.598   8.035
11773SOL    HW247793   2.819   6.596   8.094
11774SOL     OW47794   3.087   2.331   8.648
11774SOL    HW147795   3.108   2.240   8.613
11774SOL    HW247796   3.081   2.396   8.572
11775SOL     OW47797   1.615   3.085   7.446
11775SOL    HW147798   1.644   3.038   7.362
11775SOL    HW247799   1.524   3.052   7.472
11776SOL     OW47800   2.975   1.361   7.364
11776SOL    HW147801   3.028   1.432   7.409
11776SOL    HW247802   3.003   1.353   7.268
11777SOL     OW47803   5.933   5.788   0.388
11777SOL    HW147804   6.002   5.779   0.317
11777SOL    HW247805   5.944   5.714   0.455
11778SOL     OW47806   2.551   6.486   7.843
11778SOL    HW147807   2.549   6.564   7.905
11778SOL    HW247808   2.485   6.501   7.769
11779SOL     OW47809   1.557   6.216   8.413
11779SOL    HW147810   1.656   6.203   8.405
11779SOL    HW247811   1.525   6.178   8.500
11780SOL     OW47812   6.575   5.714   7.611
11780SOL    HW147813   6.654   5.662   7.580
11780SOL    HW247814   6.492   5.673   7.575
11781SOL     OW47815   5.745   5.075   8.745
11781SOL    HW147816   5.820   5.044   8.686
11781SOL    HW247817   5.664   5.019   8.728
11782SOL     OW47818   3.251   2.217   8.220
11782SOL    HW147819   3.256   2.225   8.320
11782SOL    HW247820   3.340   2.187   8.185
11783SOL     OW47821   5.597   3.190   8.277
11783SOL    HW147822   5.629   3.145   8.360
11783SOL    HW247823   5.550   3.123   8.220
11784SOL     OW47824   6.348   6.746   8.865
11784SOL    HW147825   6.279   6.681   8.833
11784SOL    HW247826   6.310   6.801   8.940
11785SOL     OW47827   6.257   0.363   7.537
11785SOL    HW147828   6.304   0.426   7.475
11785SOL    HW247829   6.310   0.278   7.545
11786SOL     OW47830   1.302   3.008   7.770
11786SOL    HW147831   1.359   2.976   7.845
11786SOL    HW247832   1.206   2.983   7.788
11787SOL     OW47833   6.364   4.873   8.147
11787SOL    HW147834   6.388   4.906   8.056
11787SOL    HW247835   6.334   4.950   8.203
11788SOL     OW47836   2.859   3.930   8.020
11788SOL    HW147837   2.860   3.973   8.110
11788SOL    HW247838   2.766   3.902   7.997
11789SOL     OW47839   4.413   7.134   8.474
11789SOL    HW147840   4.427   7.212   8.535
11789SOL    HW247841   4.354   7.067   8.519
11790SOL     OW47842   5.479   1.503   8.089
11790SOL    HW147843   5.525   1.509   8.001
11790SOL    HW247844   5.507   1.418   8.135
11791SOL     OW47845   0.313   6.760   8.231
11791SOL    HW147846   0.356   6.786   8.145
11791SOL    HW247847   0.365   6.797   8.308
11792SOL     OW47848   2.589   4.672   8.447
11792SOL    HW147849   2.563   4.598   8.385
11792SOL    HW247850   2.617   4.752   8.393
11793SOL     OW47851   3.618   1.001   8.195
11793SOL    HW147852   3.606   1.013   8.096
11793SOL    HW247853   3.695   0.940   8.212
11794SOL     OW47854   1.825   4.296   8.142
11794SOL    HW147855   1.872   4.378   8.176
11794SOL    HW247856   1.731   4.319   8.118
11795SOL     OW47857   6.731   3.600   7.746
11795SOL    HW147858   6.722   3.521   7.686
11795SOL    HW247859   6.826   3.631   7.746
11796SOL     OW47860   0.887   3.553   7.534
11796SOL    HW147861   0.910   3.621   7.604
11796SOL    HW247862   0.790   3.530   7.541
11797SOL     OW47863   4.473   5.255   8.519
11797SOL    HW147864   4.559   5.208   8.496
11797SOL    HW247865   4.397   5.190   8.513
11798SOL     OW47866   2.717   2.777   8.573
11798SOL    HW147867   2.663   2.780   8.489
11798SOL    HW247868   2.690   2.698   8.628
11799SOL     OW47869   3.292   6.159   8.363
11799SOL    HW147870   3.232   6.093   8.319
11799SOL    HW247871   3.238   6.217   8.425
11800SOL     OW47872   5.536   5.798   8.067
11800SOL    HW147873   5.543   5.895   8.041
11800SOL    HW247874   5.440   5.772   8.071
11801SOL     OW47875   2.091   4.091   7.834
11801SOL    HW147876   2.164   4.024   7.828
11801SOL    HW247877   2.061   4.101   7.929
11802SOL     OW47878   0.642   0.753   8.832
11802SOL    HW147879   0.596   0.685   8.889
11802SOL    HW247880   0.581   0.784   8.759
11803SOL     OW47881   0.978   3.885   7.753
11803SOL    HW147882   0.996   3.983   7.751
11803SOL    HW247883   1.034   3.839   7.684
11804SOL     OW47884   2.249   6.824   7.702
11804SOL    HW147885   2.259   6.895   7.772
11804SOL    HW247886   2.245   6.867   7.612
11805SOL     OW47887   0.660   2.421   7.855
11805SOL    HW147888   0.751   2.460   7.871
11805SOL    HW247889   0.630   2.441   7.762
11806SOL     OW47890   6.953   0.897   8.737
11806SOL    HW147891   6.966   0.879   8.640
11806SOL    HW247892   6.983   0.818   8.790
11807SOL     OW47893   6.690   0.909   8.639
11807SOL    HW147894   6.638   0.831   8.673
11807SOL    HW247895   6.775   0.918   8.690
11808SOL     OW47896   0.571   2.688   8.733
11808SOL    HW147897   0.608   2.781   8.738
11808SOL    HW247898   0.504   2.674   8.805
11809SOL     OW47899   5.734   5.412   7.626
11809SOL    HW147900   5.684   5.498   7.637
11809SOL    HW247901   5.707   5.368   7.540
11810SOL     OW47902   5.635   0.726   8.025
11810SOL    HW147903   5.714   0.785   8.006
11810SOL    HW247904   5.574   0.773   8.089
11811SOL     OW47905   4.284   6.786   8.404
11811SOL    HW147906   4.369   6.734   8.407
11811SOL    HW247907   4.210   6.729   8.369
11812SOL     OW47908   2.468   4.563   8.676
11812SOL    HW147909   2.500   4.617   8.598
11812SOL    HW247910   2.507   4.471   8.672
11813SOL     OW47911   1.219   6.540   7.597
11813SOL    HW147912   1.314   6.553   7.625
11813SOL    HW247913   1.215   6.517   7.500
11814SOL     OW47914   3.174   4.968   7.982
11814SOL    HW147915   3.095   5.021   8.011
11814SOL    HW247916   3.224   4.936   8.062
11815SOL     OW47917   0.268   1.011   8.333
11815SOL    HW147918   0.207   1.086   8.308
11815SOL    HW247919   0.222   0.923   8.317
11816SOL     OW47920   2.096   1.756   0.158
11816SOL    HW147921   2.032   1.820   0.116
11816SOL    HW247922   2.056   1.665   0.160
11817SOL     OW47923   1.943   0.927   8.409
11817SOL    HW147924   1.972   0.918   8.314
11817SOL    HW247925   1.847   0.903   8.418
11818SOL     OW47926   6.190   0.693   7.672
11818SOL    HW147927   6.136   0.611   7.686
11818SOL    HW247928   6.284   0.676   7.702
11819SOL     OW47929   5.921   3.499   8.761
11819SOL    HW147930   5.866   3.423   8.727
11819SOL    HW247931   5.904   3.580   8.705
11820SOL     OW47932   4.435   4.471   8.963
11820SOL    HW147933   4.499   4.525   0.017
11820SOL    HW247934   4.374   4.420   0.024
11821SOL     OW47935   4.375   1.700   7.726
11821SOL    HW147936   4.459   1.743   7.760
11821SOL    HW247937   4.370   1.712   7.627
11822SOL     OW47938   4.058   3.293   7.692
11822SOL    HW147939   3.971   3.343   7.693
11822SOL    HW247940   4.118   3.328   7.764
11823SOL     OW47941   1.552   5.209   8.454
11823SOL    HW147942   1.559   5.221   8.355
11823SOL    HW247943   1.499   5.126   8.474
11824SOL     OW47944   5.484   1.151   7.385
11824SOL    HW147945   5.565   1.142   7.443
11824SOL    HW247946   5.412   1.199   7.434
11825SOL     OW47947   3.492   4.790   7.947
11825SOL    HW147948   3.567   4.726   7.929
11825SOL    HW247949   3.433   4.797   7.867
11826SOL     OW47950   7.284   6.835   8.567
11826SOL    HW147951   7.255   6.928   8.591
11826SOL    HW247952   7.377   6.820   8.599
11827SOL     OW47953   5.198   0.221   8.674
11827SOL    HW147954   5.150   0.264   8.750
11827SOL    HW247955   5.236   0.291   8.614
11828SOL     OW47956   6.258   6.638   7.354
11828SOL    HW147957   6.197   6.560   7.341
11828SOL    HW247958   6.352   6.606   7.363
11829SOL     OW47959   2.707   3.526   8.137
11829SOL    HW147960   2.734   3.430   8.122
11829SOL    HW247961   2.686   3.568   8.049
11830SOL     OW47962   2.605   2.557   7.554
11830SOL    HW147963   2.697   2.541   7.591
11830SOL    HW247964   2.605   2.642   7.501
11831SOL     OW47965   2.062   1.414   8.006
11831SOL    HW147966   2.135   1.440   8.068
11831SOL    HW247967   2.087   1.330   7.958
11832SOL     OW47968   1.438   5.896   7.405
11832SOL    HW147969   1.389   5.900   7.492
11832SOL    HW247970   1.420   5.808   7.361
11833SOL     OW47971   2.859   4.810   8.099
11833SOL    HW147972   2.784   4.821   8.164
11833SOL    HW247973   2.826   4.758   8.019
11834SOL     OW47974   0.969   5.762   7.474
11834SOL    HW147975   1.021   5.756   7.388
11834SOL    HW247976   0.905   5.686   7.480
11835SOL     OW47977   4.918   4.371   7.906
11835SOL    HW147978   4.941   4.348   8.000
11835SOL    HW247979   4.834   4.324   7.879
11836SOL     OW47980   1.595   2.180   7.927
11836SOL    HW147981   1.519   2.167   7.990
11836SOL    HW247982   1.590   2.272   7.888
11837SOL     OW47983   1.674   3.420   8.202
11837SOL    HW147984   1.671   3.470   8.289
11837SOL    HW247985   1.723   3.333   8.215
11838SOL     OW47986   4.581   7.236   8.850
11838SOL    HW147987   4.626   7.146   8.852
11838SOL    HW247988   4.649   7.307   8.869
11839SOL     OW47989   5.527   3.536   7.844
11839SOL    HW147990   5.454   3.602   7.865
11839SOL    HW247991   5.564   3.499   7.929
11840SOL     OW47992   0.658   5.942   8.431
11840SOL    HW147993   0.582   5.981   8.483
11840SOL    HW247994   0.700   6.013   8.375
11841SOL     OW47995   4.053   1.464   8.187
11841SOL    HW147996   4.037   1.455   8.088
11841SOL    HW247997   3.972   1.434   8.236
11842SOL     OW47998   0.014   3.691   8.788
11842SOL    HW147999   0.103   3.735   8.776
11842SOL    HW248000   0.026   3.605   8.838
11843SOL     OW48001   7.145   3.454   7.753
11843SOL    HW148002   7.231   3.436   7.801
11843SOL    HW248003   7.107   3.541   7.784
11844SOL     OW48004   6.726   3.375   7.575
11844SOL    HW148005   6.661   3.300   7.590
11844SOL    HW248006   6.727   3.400   7.478
11845SOL     OW48007   5.763   8.972   8.619
11845SOL    HW148008   5.795   0.066   8.636
11845SOL    HW248009   5.721   8.967   8.529
11846SOL     OW48010   2.520   3.333   8.660
11846SOL    HW148011   2.464   3.341   8.577
11846SOL    HW248012   2.470   3.374   8.737
11847SOL     OW48013   3.537   0.364   7.812
11847SOL    HW148014   3.507   0.281   7.860
11847SOL    HW248015   3.483   0.442   7.844
11848SOL     OW48016   6.101   2.369   7.823
11848SOL    HW148017   6.010   2.410   7.817
11848SOL    HW248018   6.095   2.270   7.807
11849SOL     OW48019   0.854   5.773   8.523
11849SOL    HW148020   0.782   5.838   8.498
11849SOL    HW248021   0.943   5.819   8.517
11850SOL     OW48022   6.038   2.326   8.652
11850SOL    HW148023   6.003   2.410   8.610
11850SOL    HW248024   6.048   2.255   8.582
11851SOL     OW48025   6.848   5.056   8.660
11851SOL    HW148026   6.880   4.962   8.643
11851SOL    HW248027   6.926   5.116   8.673
11852SOL     OW48028   5.245   4.359   8.048
11852SOL    HW148029   5.152   4.357   8.085
11852SOL    HW248030   5.272   4.267   8.020
11853SOL     OW48031   1.401   3.101   8.516
11853SOL    HW148032   1.382   3.199   8.507
11853SOL    HW248033   1.476   3.076   8.456
11854SOL     OW48034   3.263   4.888   8.241
11854SOL    HW148035   3.361   4.878   8.231
11854SOL    HW248036   3.242   4.929   8.330
11855SOL     OW48037   6.020   2.318   8.292
11855SOL    HW148038   5.972   2.382   8.232
11855SOL    HW248039   5.956   2.247   8.323
11856SOL     OW48040   6.324   2.164   7.416
11856SOL    HW148041   6.337   2.255   7.377
11856SOL    HW248042   6.315   2.097   7.343
11857SOL     OW48043   2.031   1.944   8.363
11857SOL    HW148044   2.043   1.915   8.458
11857SOL    HW248045   2.084   2.028   8.347
11858SOL     OW48046   5.759   4.038   8.282
11858SOL    HW148047   5.799   3.947   8.292
11858SOL    HW248048   5.832   4.105   8.270
11859SOL     OW48049   6.729   4.310   7.715
11859SOL    HW148050   6.732   4.211   7.726
11859SOL    HW248051   6.644   4.336   7.669
11860SOL     OW48052   3.070   0.344   7.602
11860SOL    HW148053   3.080   0.265   7.541
11860SOL    HW248054   3.102   0.319   7.693
11861SOL     OW48055   1.674   1.184   8.504
11861SOL    HW148056   1.585   1.223   8.528
11861SOL    HW248057   1.660   1.094   8.462
11862SOL     OW48058   6.841   1.910   8.292
11862SOL    HW148059   6.839   1.984   8.359
11862SOL    HW248060   6.909   1.931   8.221
11863SOL     OW48061   2.816   2.380   8.330
11863SOL    HW148062   2.843   2.414   8.240
11863SOL    HW248063   2.734   2.428   8.360
11864SOL     OW48064   5.613   4.371   8.277
11864SOL    HW148065   5.566   4.286   8.254
11864SOL    HW248066   5.668   4.401   8.199
11865SOL     OW48067   2.029   5.215   7.998
11865SOL    HW148068   1.980   5.298   7.971
11865SOL    HW248069   2.035   5.153   7.920
11866SOL     OW48070   4.098   4.118   8.229
11866SOL    HW148071   4.174   4.072   8.184
11866SOL    HW248072   4.031   4.050   8.259
11867SOL     OW48073   4.228   6.953   8.609
11867SOL    HW148074   4.256   6.894   8.533
11867SOL    HW248075   4.140   6.921   8.645
11868SOL     OW48076   0.606   5.239   8.771
11868SOL    HW148077   0.663   5.303   8.823
11868SOL    HW248078   0.526   5.286   8.735
11869SOL     OW48079   7.117   2.499   7.811
11869SOL    HW148080   7.184   2.468   7.745
11869SOL    HW248081   7.028   2.458   7.791
11870SOL     OW48082   2.436   7.134   7.591
11870SOL    HW148083   2.456   7.220   7.544
11870SOL    HW248084   2.339   7.112   7.580
11871SOL     OW48085   2.101   6.892   8.269
11871SOL    HW148086   2.050   6.956   8.326
11871SOL    HW248087   2.198   6.917   8.269
11872SOL     OW48088   5.699   0.149   8.135
11872SOL    HW148089   5.797   0.143   8.152
11872SOL    HW248090   5.651   0.083   8.194
11873SOL     OW48091   2.925   7.351   7.888
11873SOL    HW148092   2.899   7.275   7.948
11873SOL    HW248093   2.887   7.436   7.923
11874SOL     OW48094   3.005   0.088   8.811
11874SOL    HW148095   3.072   0.017   8.792
11874SOL    HW248096   2.926   0.076   8.751
11875SOL     OW48097   3.548   1.728   8.171
11875SOL    HW148098   3.601   1.651   8.136
11875SOL    HW248099   3.604   1.780   8.236
11876SOL     OW48100   3.170   6.930   8.362
11876SOL    HW148101   3.104   6.856   8.356
11876SOL    HW248102   3.256   6.896   8.399
11877SOL     OW48103   2.147   1.068   8.110
11877SOL    HW148104   2.146   1.115   8.022
11877SOL    HW248105   2.239   1.073   8.149
11878SOL     OW48106   0.817   4.934   8.767
11878SOL    HW148107   0.729   4.944   8.722
11878SOL    HW248108   0.884   4.993   8.722
11879SOL     OW48109   6.336   0.147   8.387
11879SOL    HW148110   6.413   0.085   8.402
11879SOL    HW248111   6.297   0.131   8.297
11880SOL     OW48112   3.025   1.749   8.896
11880SOL    HW148113   2.962   1.704   8.833
11880SOL    HW248114   2.996   1.732   8.990
11881SOL     OW48115   0.557   3.365   8.075
11881SOL    HW148116   0.570   3.443   8.014
11881SOL    HW248117   0.467   3.370   8.118
11882SOL     OW48118   0.971   1.299   8.265
11882SOL    HW148119   0.927   1.387   8.247
11882SOL    HW248120   0.929   1.257   8.346
11883SOL     OW48121   4.570   3.274   8.602
11883SOL    HW148122   4.526   3.286   8.691
11883SOL    HW248123   4.619   3.358   8.577
11884SOL     OW48124   5.094   2.868   8.835
11884SOL    HW148125   5.169   2.872   8.769
11884SOL    HW248126   5.059   2.774   8.840
11885SOL     OW48127   2.625   1.918   7.719
11885SOL    HW148128   2.710   1.911   7.771
11885SOL    HW248129   2.642   1.893   7.624
11886SOL     OW48130   3.888   1.747   8.504
11886SOL    HW148131   3.886   1.802   8.587
11886SOL    HW248132   3.979   1.706   8.492
11887SOL     OW48133   5.762   4.435   8.048
11887SOL    HW148134   5.815   4.519   8.040
11887SOL    HW248135   5.815   4.359   8.012
11888SOL     OW48136   6.289   4.309   7.705
11888SOL    HW148137   6.308   4.280   7.799
11888SOL    HW248138   6.373   4.342   7.662
11889SOL     OW48139   5.249   7.110   8.114
11889SOL    HW148140   5.262   7.102   8.015
11889SOL    HW248141   5.338   7.127   8.158
11890SOL     OW48142   3.004   0.628   8.423
11890SOL    HW148143   3.019   0.541   8.469
11890SOL    HW248144   3.085   0.651   8.369
11891SOL     OW48145   5.645   1.521   7.868
11891SOL    HW148146   5.713   1.494   7.936
11891SOL    HW248147   5.645   1.621   7.859
11892SOL     OW48148   4.066   0.738   7.442
11892SOL    HW148149   4.037   0.721   7.348
11892SOL    HW248150   4.144   0.801   7.442
11893SOL     OW48151   2.341   4.438   8.052
11893SOL    HW148152   2.393   4.443   7.967
11893SOL    HW248153   2.251   4.479   8.039
11894SOL     OW48154   5.857   6.196   8.833
11894SOL    HW148155   5.848   6.150   8.922
11894SOL    HW248156   5.793   6.273   8.829
11895SOL     OW48157   2.224   2.593   8.682
11895SOL    HW148158   2.288   2.522   8.652
11895SOL    HW248159   2.134   2.577   8.639
11896SOL     OW48160   2.688   3.062   8.551
11896SOL    HW148161   2.714   2.969   8.578
11896SOL    HW248162   2.723   3.128   8.617
11897SOL     OW48163   0.558   3.450   8.664
11897SOL    HW148164   0.487   3.420   8.600
11897SOL    HW248165   0.608   3.527   8.625
11898SOL     OW48166   3.180   6.328   8.569
11898SOL    HW148167   3.248   6.297   8.635
11898SOL    HW248168   3.133   6.408   8.605
11899SOL     OW48169   5.017   0.374   7.655
11899SOL    HW148170   5.095   0.426   7.620
11899SOL    HW248171   4.968   0.429   7.722
11900SOL     OW48172   2.549   6.914   7.461
11900SOL    HW148173   2.547   6.945   7.366
11900SOL    HW248174   2.511   6.985   7.520
11901SOL     OW48175   7.177   2.715   8.728
11901SOL    HW148176   7.245   2.783   8.755
11901SOL    HW248177   7.212   2.660   8.653
11902SOL     OW48178   7.269   3.081   7.720
11902SOL    HW148179   7.232   3.105   7.630
11902SOL    HW248180   7.364   3.114   7.727
11903SOL     OW48181   3.648   6.951   7.521
11903SOL    HW148182   3.657   6.852   7.513
11903SOL    HW248183   3.640   6.991   7.429
11904SOL     OW48184   0.385   7.136   8.474
11904SOL    HW148185   0.319   7.126   8.548
11904SOL    HW248186   0.337   7.161   8.390
11905SOL     OW48187   5.930   1.997   7.596
11905SOL    HW148188   5.935   1.919   7.534
11905SOL    HW248189   5.971   2.077   7.553
11906SOL     OW48190   0.327   1.509   8.836
11906SOL    HW148191   0.390   1.502   8.914
11906SOL    HW248192   0.370   1.470   8.755
11907SOL     OW48193   4.476   2.656   8.249
11907SOL    HW148194   4.428   2.706   8.177
11907SOL    HW248195   4.568   2.694   8.260
11908SOL     OW48196   4.333   0.455   8.833
11908SOL    HW148197   4.303   0.473   8.927
11908SOL    HW248198   4.419   0.503   8.816
11909SOL     OW48199   2.129   0.760   8.543
11909SOL    HW148200   2.066   0.821   8.495
11909SOL    HW248201   2.218   0.804   8.551
11910SOL     OW48202   0.427   0.609   8.054
11910SOL    HW148203   0.393   0.700   8.030
11910SOL    HW248204   0.355   0.542   8.041
11911SOL     OW48205   1.280   0.031   0.079
11911SOL    HW148206   1.273   0.054   8.982
11911SOL    HW248207   1.305   0.113   0.131
11912SOL     OW48208   4.020   6.675   0.262
11912SOL    HW148209   3.956   6.621   0.208
11912SOL    HW248210   4.083   6.723   0.201
11913SOL     OW48211   3.197   5.012   8.484
11913SOL    HW148212   3.255   5.072   8.540
11913SOL    HW248213   3.141   5.068   8.423
11914SOL     OW48214   2.488   6.699   8.659
11914SOL    HW148215   2.549   6.724   8.734
11914SOL    HW248216   2.400   6.667   8.696
11915SOL     OW48217   2.238   1.045   8.723
11915SOL    HW148218   2.167   0.983   8.756
11915SOL    HW248219   2.257   1.114   8.793
11916SOL     OW48220   5.211   2.907   8.144
11916SOL    HW148221   5.202   2.851   8.062
11916SOL    HW248222   5.130   2.965   8.154
11917SOL     OW48223   6.591   0.331   7.683
11917SOL    HW148224   6.562   0.426   7.673
11917SOL    HW248225   6.691   0.326   7.678
11918SOL     OW48226   0.013   3.219   8.741
11918SOL    HW148227   0.008   3.190   8.646
11918SOL    HW248228   8.921   3.224   8.779
11919SOL     OW48229   4.713   3.497   8.547
11919SOL    HW148230   4.787   3.542   8.498
11919SOL    HW248231   4.663   3.564   8.601
11920SOL     OW48232   2.528   4.479   8.261
11920SOL    HW148233   2.604   4.417   8.241
11920SOL    HW248234   2.457   4.468   8.192
11921SOL     OW48235   0.121   0.781   8.275
11921SOL    HW148236   0.033   0.784   8.227
11921SOL    HW248237   0.108   0.745   8.367
11922SOL     OW48238   6.660   0.591   7.433
11922SOL    HW148239   6.706   0.662   7.379
11922SOL    HW248240   6.680   0.605   7.530
11923SOL     OW48241   5.340   0.650   7.810
11923SOL    HW148242   5.373   0.739   7.777
11923SOL    HW248243   5.418   0.593   7.836
11924SOL     OW48244   1.546   0.279   8.473
11924SOL    HW148245   1.640   0.246   8.483
11924SOL    HW248246   1.540   0.344   8.397
11925SOL     OW48247   5.938   5.271   8.270
11925SOL    HW148248   5.944   5.172   8.255
11925SOL    HW248249   6.022   5.315   8.238
11926SOL     OW48250   6.209   2.385   8.078
11926SOL    HW148251   6.144   2.344   8.142
11926SOL    HW248252   6.171   2.380   7.985
11927SOL     OW48253   4.966   1.519   8.859
11927SOL    HW148254   5.009   1.430   8.867
11927SOL    HW248255   4.950   1.541   8.762
11928SOL     OW48256   7.093   6.517   8.409
11928SOL    HW148257   7.098   6.522   8.509
11928SOL    HW248258   7.117   6.606   8.370
11929SOL     OW48259   4.652   0.481   8.375
11929SOL    HW148260   4.600   0.401   8.344
11929SOL    HW248261   4.667   0.542   8.298
11930SOL     OW48262   3.616   3.205   7.703
11930SOL    HW148263   3.567   3.226   7.618
11930SOL    HW248264   3.662   3.117   7.693
11931SOL     OW48265   1.444   3.988   8.757
11931SOL    HW148266   1.379   3.932   8.706
11931SOL    HW248267   1.395   4.039   8.827
11932SOL     OW48268   1.778   1.626   8.288
11932SOL    HW148269   1.748   1.686   8.214
11932SOL    HW248270   1.781   1.532   8.255
11933SOL     OW48271   0.042   2.183   7.741
11933SOL    HW148272   0.084   2.224   7.823
11933SOL    HW248273   0.113   2.162   7.674
11934SOL     OW48274   1.466   4.436   8.292
11934SOL    HW148275   1.422   4.359   8.339
11934SOL    HW248276   1.501   4.406   8.204
11935SOL     OW48277   2.840   5.994   7.568
11935SOL    HW148278   2.900   6.055   7.620
11935SOL    HW248279   2.754   5.982   7.618
11936SOL     OW48280   0.797   5.154   7.789
11936SOL    HW148281   0.881   5.134   7.839
11936SOL    HW248282   0.796   5.102   7.703
11937SOL     OW48283   3.530   0.782   8.832
11937SOL    HW148284   3.456   0.785   8.765
11937SOL    HW248285   3.601   0.720   8.800
11938SOL     OW48286   2.061   2.503   7.612
11938SOL    HW148287   2.105   2.590   7.589
11938SOL    HW248288   1.978   2.520   7.665
11939SOL     OW48289   2.170   3.094   7.458
11939SOL    HW148290   2.104   3.084   7.531
11939SOL    HW248291   2.166   3.015   7.398
11940SOL     OW48292   2.778   3.265   8.084
11940SOL    HW148293   2.727   3.193   8.037
11940SOL    HW248294   2.804   3.233   8.175
11941SOL     OW48295   4.782   7.242   7.742
11941SOL    HW148296   4.854   7.231   7.673
11941SOL    HW248297   4.719   7.315   7.714
11942SOL     OW48298   1.875   1.863   8.782
11942SOL    HW148299   1.955   1.859   8.721
11942SOL    HW248300   1.797   1.901   8.732
11943SOL     OW48301   0.881   2.604   7.835
11943SOL    HW148302   0.966   2.595   7.783
11943SOL    HW248303   0.899   2.583   7.931
11944SOL     OW48304   3.192   2.874   8.135
11944SOL    HW148305   3.274   2.931   8.138
11944SOL    HW248306   3.166   2.858   8.040
11945SOL     OW48307   1.975   6.576   7.581
11945SOL    HW148308   2.037   6.499   7.594
11945SOL    HW248309   1.974   6.632   7.664
11946SOL     OW48310   4.273   3.136   7.363
11946SOL    HW148311   4.295   3.054   7.309
11946SOL    HW248312   4.182   3.126   7.403
11947SOL     OW48313   3.072   5.172   8.299
11947SOL    HW148314   3.032   5.144   8.212
11947SOL    HW248315   3.156   5.223   8.282
11948SOL     OW48316   3.939   0.092   7.961
11948SOL    HW148317   3.942   0.012   8.022
11948SOL    HW248318   3.923   0.174   8.014
11949SOL     OW48319   5.830   2.359   8.852
11949SOL    HW148320   5.753   2.299   8.829
11949SOL    HW248321   5.905   2.343   8.788
11950SOL     OW48322   6.693   5.236   8.806
11950SOL    HW148323   6.747   5.165   8.760
11950SOL    HW248324   6.681   5.314   8.743
11951SOL     OW48325   6.468   6.939   7.905
11951SOL    HW148326   6.459   7.036   7.929
11951SOL    HW248327   6.441   6.925   7.810
11952SOL     OW48328   3.411   6.844   8.467
11952SOL    HW148329   3.447   6.759   8.505
11952SOL    HW248330   3.440   6.921   8.523
11953SOL     OW48331   3.703   1.512   8.085
11953SOL    HW148332   3.652   1.451   8.025
11953SOL    HW248333   3.746   1.584   8.031
11954SOL     OW48334   6.633   1.846   7.503
11954SOL    HW148335   6.554   1.901   7.532
11954SOL    HW248336   6.604   1.778   7.436
11955SOL     OW48337   4.029   2.878   7.653
11955SOL    HW148338   4.082   2.904   7.734
11955SOL    HW248339   4.053   2.785   7.625
11956SOL     OW48340   5.113   1.000   7.828
11956SOL    HW148341   5.080   0.976   7.736
11956SOL    HW248342   5.149   1.093   7.827
11957SOL     OW48343   0.123   2.613   7.581
11957SOL    HW148344   0.063   2.535   7.562
11957SOL    HW248345   0.068   2.690   7.613
11958SOL     OW48346   7.019   7.213   8.519
11958SOL    HW148347   6.923   7.225   8.545
11958SOL    HW248348   7.052   7.296   8.473
11959SOL     OW48349   3.327   4.770   7.708
11959SOL    HW148350   3.233   4.772   7.741
11959SOL    HW248351   3.334   4.817   7.621
11960SOL     OW48352   5.120   6.398   8.995
11960SOL    HW148353   5.104   6.480   8.941
11960SOL    HW248354   5.039   6.379   0.051
11961SOL     OW48355   0.112   3.810   8.202
11961SOL    HW148356   0.116   3.875   8.278
11961SOL    HW248357   0.045   3.739   8.222
11962SOL     OW48358   1.754   6.825   7.438
11962SOL    HW148359   1.733   6.734   7.473
11962SOL    HW248360   1.797   6.817   7.348
11963SOL     OW48361   1.783   5.235   8.602
11963SOL    HW148362   1.695   5.230   8.555
11963SOL    HW248363   1.783   5.311   8.667
11964SOL     OW48364   6.454   2.498   8.075
11964SOL    HW148365   6.474   2.565   8.003
11964SOL    HW248366   6.359   2.468   8.068
11965SOL     OW48367   1.726   7.157   8.375
11965SOL    HW148368   1.678   7.091   8.318
11965SOL    HW248369   1.665   7.192   8.445
11966SOL     OW48370   4.764   0.416   8.787
11966SOL    HW148371   4.691   0.484   8.779
11966SOL    HW248372   4.734   0.330   8.748
11967SOL     OW48373   3.677   0.911   0.020
11967SOL    HW148374   3.771   0.896   8.990
11967SOL    HW248375   3.614   0.868   8.955
11968SOL     OW48376   2.170   6.116   8.961
11968SOL    HW148377   2.197   6.066   0.044
11968SOL    HW248378   2.251   6.143   8.910
11969SOL     OW48379   3.314   5.879   8.556
11969SOL    HW148380   3.264   5.965   8.547
11969SOL    HW248381   3.275   5.811   8.495
11970SOL     OW48382   6.551   2.244   8.049
11970SOL    HW148383   6.512   2.335   8.061
11970SOL    HW248384   6.486   2.175   8.082
11971SOL     OW48385   6.497   5.440   8.613
11971SOL    HW148386   6.455   5.353   8.636
11971SOL    HW248387   6.502   5.498   8.695
11972SOL     OW48388   4.900   2.903   7.904
11972SOL    HW148389   4.864   2.918   7.812
11972SOL    HW248390   4.843   2.836   7.952
11973SOL     OW48391   2.076   6.078   7.666
11973SOL    HW148392   1.994   6.058   7.613
11973SOL    HW248393   2.157   6.043   7.619
11974SOL     OW48394   2.780   6.781   8.528
11974SOL    HW148395   2.761   6.738   8.616
11974SOL    HW248396   2.695   6.815   8.488
11975SOL     OW48397   0.995   2.470   8.838
11975SOL    HW148398   1.027   2.558   8.803
11975SOL    HW248399   0.997   2.471   8.938
11976SOL     OW48400   3.327   5.290   8.279
11976SOL    HW148401   3.403   5.225   8.281
11976SOL    HW248402   3.342   5.361   8.348
11977SOL     OW48403   4.982   1.586   8.581
11977SOL    HW148404   5.052   1.520   8.553
11977SOL    HW248405   5.026   1.671   8.610
11978SOL     OW48406   1.979   0.858   8.116
11978SOL    HW148407   2.026   0.785   8.066
11978SOL    HW248408   2.035   0.941   8.116
11979SOL     OW48409   7.151   0.950   0.202
11979SOL    HW148410   7.135   0.973   0.106
11979SOL    HW248411   7.216   1.015   0.241
11980SOL     OW48412   6.770   2.275   8.205
11980SOL    HW148413   6.689   2.261   8.149
11980SOL    HW248414   6.852   2.268   8.149
11981SOL     OW48415   0.599   1.374   8.231
11981SOL    HW148416   0.634   1.395   8.322
11981SOL    HW248417   0.560   1.456   8.191
11982SOL     OW48418   0.246   7.191   8.245
11982SOL    HW148419   0.176   7.120   8.252
11982SOL    HW248420   0.297   7.179   8.160
11983SOL     OW48421   3.710   6.985   8.351
11983SOL    HW148422   3.643   7.043   8.305
11983SOL    HW248423   3.791   6.977   8.294
11984SOL     OW48424   5.798   2.144   8.353
11984SOL    HW148425   5.753   2.128   8.441
11984SOL    HW248426   5.807   2.057   8.304
11985SOL     OW48427   0.570   2.761   7.551
11985SOL    HW148428   0.606   2.783   7.642
11985SOL    HW248429   0.622   2.810   7.482
11986SOL     OW48430   4.912   6.603   7.409
11986SOL    HW148431   4.922   6.692   7.452
11986SOL    HW248432   4.894   6.614   7.311
11987SOL     OW48433   6.184   3.513   8.854
11987SOL    HW148434   6.086   3.513   8.833
11987SOL    HW248435   6.197   3.524   8.953
11988SOL     OW48436   1.386   6.883   8.037
11988SOL    HW148437   1.424   6.885   7.945
11988SOL    HW248438   1.393   6.790   8.075
11989SOL     OW48439   6.425   0.355   8.551
11989SOL    HW148440   6.488   0.415   8.501
11989SOL    HW248441   6.390   0.285   8.489
11990SOL     OW48442   6.851   4.146   7.348
11990SOL    HW148443   6.911   4.226   7.356
11990SOL    HW248444   6.907   4.064   7.334
11991SOL     OW48445   5.068   1.268   8.865
11991SOL    HW148446   5.117   1.210   8.930
11991SOL    HW248447   5.057   1.219   8.778
11992SOL     OW48448   1.444   6.619   8.101
11992SOL    HW148449   1.362   6.561   8.096
11992SOL    HW248450   1.506   6.583   8.171
11993SOL     OW48451   2.249   2.075   7.680
11993SOL    HW148452   2.279   2.021   7.602
11993SOL    HW248453   2.183   2.022   7.734
11994SOL     OW48454   1.088   1.679   8.302
11994SOL    HW148455   1.175   1.629   8.298
11994SOL    HW248456   1.092   1.756   8.238
11995SOL     OW48457   5.871   0.216   8.689
11995SOL    HW148458   5.923   0.255   8.765
11995SOL    HW248459   5.780   0.257   8.686
11996SOL     OW48460   0.310   5.596   7.634
11996SOL    HW148461   0.320   5.655   7.553
11996SOL    HW248462   0.395   5.544   7.647
11997SOL     OW48463   0.213   2.430   8.279
11997SOL    HW148464   0.118   2.432   8.246
11997SOL    HW248465   0.263   2.358   8.232
11998SOL     OW48466   2.718   6.437   8.137
11998SOL    HW148467   2.805   6.404   8.172
11998SOL    HW248468   2.670   6.363   8.090
11999SOL     OW48469   5.039   4.885   8.934
11999SOL    HW148470   5.066   4.799   8.977
11999SOL    HW248471   5.098   4.959   8.966
12000SOL     OW48472   0.748   1.121   7.550
12000SOL    HW148473   0.696   1.080   7.475
12000SOL    HW248474   0.776   1.049   7.614
12001SOL     OW48475   1.682   1.393   8.925
12001SOL    HW148476   1.760   1.454   8.933
12001SOL    HW248477   1.706   1.303   8.962
12002SOL     OW48478   1.071   6.323   7.675
12002SOL    HW148479   1.109   6.412   7.650
12002SOL    HW248480   1.134   6.251   7.648
12003SOL     OW48481   5.370   4.343   8.652
12003SOL    HW148482   5.461   4.351   8.610
12003SOL    HW248483   5.305   4.306   8.585
12004SOL     OW48484   5.376   1.075   8.099
12004SOL    HW148485   5.277   1.082   8.102
12004SOL    HW248486   5.408   1.084   8.005
12005SOL     OW48487   4.174   2.946   7.882
12005SOL    HW148488   4.109   2.981   7.948
12005SOL    HW248489   4.236   3.019   7.853
12006SOL     OW48490   5.037   2.597   8.779
12006SOL    HW148491   4.969   2.524   8.784
12006SOL    HW248492   5.027   2.646   8.692
12007SOL     OW48493   3.185   0.296   8.248
12007SOL    HW148494   3.240   0.364   8.199
12007SOL    HW248495   3.163   0.221   8.187
12008SOL     OW48496   5.963   0.101   8.221
12008SOL    HW148497   5.987   0.139   8.311
12008SOL    HW248498   5.930   0.008   8.232
12009SOL     OW48499   6.494   4.809   8.516
12009SOL    HW148500   6.485   4.748   8.437
12009SOL    HW248501   6.403   4.832   8.551
12010SOL     OW48502   7.387   7.156   8.171
12010SOL    HW148503   7.370   7.187   8.264
12010SOL    HW248504   7.364   7.059   8.164
12011SOL     OW48505   0.157   6.749   8.708
12011SOL    HW148506   0.253   6.738   8.682
12011SOL    HW248507   0.152   6.801   8.793
12012SOL     OW48508   3.376   5.461   8.498
12012SOL    HW148509   3.451   5.510   8.541
12012SOL    HW248510   3.352   5.380   8.553
12013SOL     OW48511   3.899   0.345   7.618
12013SOL    HW148512   3.943   0.331   7.529
12013SOL    HW248513   3.867   0.257   7.654
12014SOL     OW48514   6.218   2.152   8.792
12014SOL    HW148515   6.160   2.222   8.752
12014SOL    HW248516   6.279   2.114   8.722
12015SOL     OW48517   3.747   0.499   7.956
12015SOL    HW148518   3.674   0.448   7.910
12015SOL    HW248519   3.723   0.596   7.958
12016SOL     OW48520   6.420   3.698   7.432
12016SOL    HW148521   6.361   3.635   7.482
12016SOL    HW248522   6.461   3.650   7.354
12017SOL     OW48523   6.307   7.410   0.030
12017SOL    HW148524   6.291   7.373   8.939
12017SOL    HW248525   6.340   7.504   0.023
12018SOL     OW48526   3.398   5.296   8.005
12018SOL    HW148527   3.355   5.305   8.095
12018SOL    HW248528   3.497   5.282   8.016
12019SOL     OW48529   3.531   2.167   8.173
12019SOL    HW148530   3.624   2.131   8.174
12019SOL    HW248531   3.513   2.219   8.256
12020SOL     OW48532   3.143   3.712   7.707
12020SOL    HW148533   3.200   3.794   7.707
12020SOL    HW248534   3.067   3.724   7.643
12021SOL     OW48535   2.416   4.040   8.289
12021SOL    HW148536   2.339   4.098   8.260
12021SOL    HW248537   2.386   3.945   8.294
12022SOL     OW48538   2.961   5.287   8.934
12022SOL    HW148539   2.900   5.211   8.956
12022SOL    HW248540   2.993   5.277   8.840
12023SOL     OW48541   0.255   1.555   8.285
12023SOL    HW148542   0.349   1.560   8.251
12023SOL    HW248543   0.211   1.644   8.273
12024SOL     OW48544   4.649   3.987   8.048
12024SOL    HW148545   4.738   3.951   8.073
12024SOL    HW248546   4.616   4.048   8.120
12025SOL     OW48547   7.131   4.344   8.706
12025SOL    HW148548   7.186   4.338   8.790
12025SOL    HW248549   7.154   4.267   8.646
12026SOL     OW48550   7.383   3.956   8.038
12026SOL    HW148551   7.307   4.020   8.050
12026SOL    HW248552   7.431   3.976   7.952
12027SOL     OW48553   4.554   6.959   8.083
12027SOL    HW148554   4.599   6.975   7.995
12027SOL    HW248555   4.554   7.043   8.137
12028SOL     OW48556   6.743   3.403   8.584
12028SOL    HW148557   6.696   3.354   8.511
12028SOL    HW248558   6.815   3.346   8.622
12029SOL     OW48559   0.334   5.805   7.446
12029SOL    HW148560   0.392   5.797   7.365
12029SOL    HW248561   0.254   5.862   7.424
12030SOL     OW48562   1.581   6.479   8.301
12030SOL    HW148563   1.549   6.390   8.333
12030SOL    HW248564   1.671   6.498   8.340
12031SOL     OW48565   6.327   3.655   8.390
12031SOL    HW148566   6.365   3.565   8.412
12031SOL    HW248567   6.391   3.726   8.417
12032SOL     OW48568   1.762   5.457   7.618
12032SOL    HW148569   1.670   5.481   7.588
12032SOL    HW248570   1.800   5.532   7.673
12033SOL     OW48571   3.193   8.894   8.729
12033SOL    HW148572   3.270   8.833   8.750
12033SOL    HW248573   3.220   8.958   8.657
12034SOL     OW48574   5.759   0.556   8.428
12034SOL    HW148575   5.804   0.555   8.339
12034SOL    HW248576   5.660   0.569   8.415
12035SOL     OW48577   3.690   4.135   7.838
12035SOL    HW148578   3.650   4.044   7.827
12035SOL    HW248579   3.635   4.202   7.789
12036SOL     OW48580   2.622   4.497   7.386
12036SOL    HW148581   2.569   4.470   7.306
12036SOL    HW248582   2.673   4.581   7.366
12037SOL     OW48583   4.931   0.771   8.134
12037SOL    HW148584   4.989   0.750   8.056
12037SOL    HW248585   4.971   0.847   8.185
12038SOL     OW48586   7.003   3.002   8.158
12038SOL    HW148587   7.056   2.972   8.237
12038SOL    HW248588   7.060   2.997   8.076
12039SOL     OW48589   2.643   6.274   7.589
12039SOL    HW148590   2.710   6.296   7.659
12039SOL    HW248591   2.554   6.256   7.632
12040SOL     OW48592   6.074   2.520   0.099
12040SOL    HW148593   5.978   2.540   0.080
12040SOL    HW248594   6.116   2.599   0.144
12041SOL     OW48595   5.318   7.332   8.508
12041SOL    HW148596   5.301   7.413   8.564
12041SOL    HW248597   5.391   7.352   8.443
12042SOL     OW48598   5.565   3.845   8.018
12042SOL    HW148599   5.594   3.941   8.022
12042SOL    HW248600   5.561   3.808   8.111
12043SOL     OW48601   7.110   1.498   8.430
12043SOL    HW148602   7.037   1.556   8.394
12043SOL    HW248603   7.107   1.499   8.530
12044SOL     OW48604   2.820   6.768   7.527
12044SOL    HW148605   2.810   6.668   7.527
12044SOL    HW248606   2.792   6.804   7.438
12045SOL     OW48607   2.164   6.366   7.619
12045SOL    HW148608   2.107   6.309   7.678
12045SOL    HW248609   2.174   6.321   7.530
12046SOL     OW48610   7.292   2.403   7.627
12046SOL    HW148611   7.346   2.320   7.643
12046SOL    HW248612   7.220   2.383   7.560
12047SOL     OW48613   7.063   1.502   8.703
12047SOL    HW148614   7.020   1.415   8.727
12047SOL    HW248615   6.995   1.575   8.712
12048SOL     OW48616   5.288   3.755   8.409
12048SOL    HW148617   5.302   3.744   8.508
12048SOL    HW248618   5.213   3.697   8.380
12049SOL     OW48619   0.847   0.172   8.528
12049SOL    HW148620   0.872   0.076   8.525
12049SOL    HW248621   0.761   0.185   8.477
12050SOL     OW48622   2.118   7.333   8.105
12050SOL    HW148623   2.156   7.297   8.190
12050SOL    HW248624   2.045   7.398   8.126
12051SOL     OW48625   1.776   0.684   7.554
12051SOL    HW148626   1.711   0.615   7.524
12051SOL    HW248627   1.817   0.729   7.475
12052SOL     OW48628   0.754   4.452   8.250
12052SOL    HW148629   0.843   4.456   8.296
12052SOL    HW248630   0.685   4.496   8.306
12053SOL     OW48631   2.303   2.854   8.679
12053SOL    HW148632   2.306   2.887   8.774
12053SOL    HW248633   2.284   2.756   8.679
12054SOL     OW48634   0.833   0.447   8.023
12054SOL    HW148635   0.856   0.364   8.074
12054SOL    HW248636   0.746   0.434   7.975
12055SOL     OW48637   6.390   4.286   8.405
12055SOL    HW148638   6.380   4.317   8.499
12055SOL    HW248639   6.451   4.207   8.402
12056SOL     OW48640   6.380   4.006   8.940
12056SOL    HW148641   6.473   4.039   8.959
12056SOL    HW248642   6.369   3.914   8.976
12057SOL     OW48643   6.244   0.790   7.421
12057SOL    HW148644   6.229   0.764   7.517
12057SOL    HW248645   6.158   0.783   7.371
12058SOL     OW48646   5.902   0.936   7.559
12058SOL    HW148647   5.975   0.946   7.627
12058SOL    HW248648   5.938   0.889   7.478
12059SOL     OW48649   5.563   4.441   7.861
12059SOL    HW148650   5.490   4.500   7.896
12059SOL    HW248651   5.634   4.432   7.931
12060SOL     OW48652   4.187   6.987   8.231
12060SOL    HW148653   4.230   6.931   8.302
12060SOL    HW248654   4.207   7.083   8.248
12061SOL     OW48655   0.726   6.406   7.554
12061SOL    HW148656   0.822   6.400   7.581
12061SOL    HW248657   0.690   6.314   7.538
12062SOL     OW48658   3.457   0.126   7.955
12062SOL    HW148659   3.359   0.115   7.974
12062SOL    HW248660   3.509   0.107   8.038
12063SOL     OW48661   0.631   0.211   8.374
12063SOL    HW148662   0.614   0.310   8.378
12063SOL    HW248663   0.560   0.168   8.318
12064SOL     OW48664   2.054   3.966   8.712
12064SOL    HW148665   1.969   3.981   8.762
12064SOL    HW248666   2.057   3.873   8.677
12065SOL     OW48667   4.808   6.975   8.438
12065SOL    HW148668   4.807   7.071   8.413
12065SOL    HW248669   4.827   6.966   8.536
12066SOL     OW48670   0.776   0.962   8.967
12066SOL    HW148671   0.724   0.889   8.922
12066SOL    HW248672   0.869   0.963   8.930
12067SOL     OW48673   2.151   1.181   8.491
12067SOL    HW148674   2.130   1.112   8.422
12067SOL    HW248675   2.176   1.137   8.577
12068SOL     OW48676   2.286   1.889   8.048
12068SOL    HW148677   2.333   1.848   7.970
12068SOL    HW248678   2.325   1.980   8.066
12069SOL     OW48679   4.204   7.271   8.243
12069SOL    HW148680   4.109   7.281   8.212
12069SOL    HW248681   4.266   7.307   8.173
12070SOL     OW48682   1.275   3.836   8.593
12070SOL    HW148683   1.258   3.741   8.622
12070SOL    HW248684   1.297   3.837   8.496
12071SOL     OW48685   4.604   0.342   7.493
12071SOL    HW148686   4.545   0.422   7.501
12071SOL    HW248687   4.557   0.262   7.531
12072SOL     OW48688   6.559   0.680   8.704
12072SOL    HW148689   6.592   0.620   8.778
12072SOL    HW248690   6.471   0.646   8.671
12073SOL     OW48691   5.444   0.657   8.572
12073SOL    HW148692   5.456   0.639   8.474
12073SOL    HW248693   5.351   0.688   8.590
12074SOL     OW48694   1.780   3.005   8.917
12074SOL    HW148695   1.744   2.941   8.849
12074SOL    HW248696   1.777   3.098   8.880
12075SOL     OW48697   1.548   4.133   8.550
12075SOL    HW148698   1.512   4.082   8.629
12075SOL    HW248699   1.624   4.082   8.510
12076SOL     OW48700   0.216   0.617   8.756
12076SOL    HW148701   0.178   0.624   8.663
12076SOL    HW248702   0.148   0.651   8.821
12077SOL     OW48703   1.992   3.830   8.093
12077SOL    HW148704   2.081   3.791   8.071
12077SOL    HW248705   2.000   3.929   8.101
12078SOL     OW48706   0.616   0.483   8.411
12078SOL    HW148707   0.626   0.564   8.353
12078SOL    HW248708   0.685   0.487   8.484
12079SOL     OW48709   1.041   3.707   8.870
12079SOL    HW148710   1.020   3.788   8.814
12079SOL    HW248711   0.986   3.710   8.953
12080SOL     OW48712   6.986   0.819   8.468
12080SOL    HW148713   7.062   0.854   8.414
12080SOL    HW248714   6.907   0.803   8.407
12081SOL     OW48715   5.618   4.390   8.548
12081SOL    HW148716   5.620   4.387   8.448
12081SOL    HW248717   5.639   4.483   8.579
12082SOL     OW48718   0.089   4.810   7.770
12082SOL    HW148719   0.060   4.883   7.831
12082SOL    HW248720   0.175   4.836   7.725
12083SOL     OW48721   3.125   5.846   8.931
12083SOL    HW148722   3.155   5.941   8.942
12083SOL    HW248723   3.196   5.793   8.884
12084SOL     OW48724   3.276   6.704   8.842
12084SOL    HW148725   3.195   6.720   8.898
12084SOL    HW248726   3.328   6.789   8.833
12085SOL     OW48727   0.876   0.649   8.723
12085SOL    HW148728   0.847   0.559   8.690
12085SOL    HW248729   0.799   0.695   8.768
12086SOL     OW48730   3.893   0.859   7.623
12086SOL    HW148731   3.945   0.817   7.548
12086SOL    HW248732   3.939   0.839   7.710
12087SOL     OW48733   2.494   5.064   8.190
12087SOL    HW148734   2.549   5.142   8.220
12087SOL    HW248735   2.397   5.089   8.189
12088SOL     OW48736   6.210   4.090   7.551
12088SOL    HW148737   6.260   4.010   7.584
12088SOL    HW248738   6.236   4.170   7.605
12089SOL     OW48739   5.443   1.772   8.127
12089SOL    HW148740   5.368   1.803   8.068
12089SOL    HW248741   5.454   1.673   8.118
12090SOL     OW48742   0.710   2.923   8.051
12090SOL    HW148743   0.649   2.868   8.108
12090SOL    HW248744   0.719   3.015   8.089
12091SOL     OW48745   2.431   2.527   7.774
12091SOL    HW148746   2.485   2.525   7.690
12091SOL    HW248747   2.369   2.449   7.775
12092SOL     OW48748   2.265   3.145   8.306
12092SOL    HW148749   2.324   3.086   8.362
12092SOL    HW248750   2.178   3.099   8.290
12093SOL     OW48751   3.543   0.012   7.711
12093SOL    HW148752   3.503   0.026   7.802
12093SOL    HW248753   3.516   0.088   7.651
12094SOL     OW48754   5.194   4.248   8.470
12094SOL    HW148755   5.117   4.295   8.428
12094SOL    HW248756   5.226   4.175   8.409
12095SOL     OW48757   3.572   6.088   8.754
12095SOL    HW148758   3.661   6.132   8.770
12095SOL    HW248759   3.583   6.010   8.693
12096SOL     OW48760   2.778   3.970   8.528
12096SOL    HW148761   2.686   4.008   8.536
12096SOL    HW248762   2.777   3.872   8.549
12097SOL     OW48763   5.310   5.197   8.693
12097SOL    HW148764   5.306   5.106   8.651
12097SOL    HW248765   5.244   5.257   8.648
12098SOL     OW48766   1.628   0.476   7.450
12098SOL    HW148767   1.650   0.417   7.528
12098SOL    HW248768   1.548   0.439   7.402
12099SOL     OW48769   4.209   3.373   7.915
12099SOL    HW148770   4.148   3.347   7.990
12099SOL    HW248771   4.246   3.465   7.932
12100SOL     OW48772   5.690   2.027   7.729
12100SOL    HW148773   5.776   2.007   7.682
12100SOL    HW248774   5.704   2.101   7.794
12101SOL     OW48775   3.888   0.317   8.109
12101SOL    HW148776   3.856   0.315   8.204
12101SOL    HW248777   3.836   0.385   8.058
12102SOL     OW48778   6.554   6.664   8.523
12102SOL    HW148779   6.583   6.711   8.440
12102SOL    HW248780   6.551   6.729   8.599
12103SOL     OW48781   5.526   1.517   8.807
12103SOL    HW148782   5.561   1.447   8.744
12103SOL    HW248783   5.481   1.590   8.755
12104SOL     OW48784   6.195   4.683   8.040
12104SOL    HW148785   6.180   4.608   8.104
12104SOL    HW248786   6.249   4.755   8.085
12105SOL     OW48787   1.347   3.034   7.499
12105SOL    HW148788   1.294   2.973   7.439
12105SOL    HW248789   1.333   3.007   7.594
12106SOL     OW48790   6.423   0.142   7.583
12106SOL    HW148791   6.484   0.207   7.627
12106SOL    HW248792   6.459   0.118   7.493
12107SOL     OW48793   0.437   4.169   8.177
12107SOL    HW148794   0.511   4.148   8.113
12107SOL    HW248795   0.411   4.265   8.167
12108SOL     OW48796   4.388   0.711   8.209
12108SOL    HW148797   4.359   0.629   8.260
12108SOL    HW248798   4.483   0.701   8.182
12109SOL     OW48799   1.646   1.713   8.523
12109SOL    HW148800   1.699   1.689   8.442
12109SOL    HW248801   1.640   1.634   8.584
12110SOL     OW48802   5.174   4.596   8.216
12110SOL    HW148803   5.233   4.517   8.195
12110SOL    HW248804   5.210   4.644   8.296
12111SOL     OW48805   5.256   4.093   7.924
12111SOL    HW148806   5.312   4.151   7.864
12111SOL    HW248807   5.235   4.008   7.877
12112SOL     OW48808   2.498   6.648   7.451
12112SOL    HW148809   2.517   6.746   7.456
12112SOL    HW248810   2.451   6.618   7.534
12113SOL     OW48811   2.902   7.020   8.620
12113SOL    HW148812   2.884   6.924   8.599
12113SOL    HW248813   2.959   7.026   8.702
12114SOL     OW48814   5.617   2.237   7.521
12114SOL    HW148815   5.647   2.151   7.563
12114SOL    HW248816   5.526   2.260   7.555
12115SOL     OW48817   2.466   4.461   7.800
12115SOL    HW148818   2.394   4.434   7.737
12115SOL    HW248819   2.533   4.388   7.808
12116SOL     OW48820   6.104   3.512   8.495
12116SOL    HW148821   6.136   3.458   8.572
12116SOL    HW248822   6.178   3.570   8.461
12117SOL     OW48823   1.156   3.026   8.177
12117SOL    HW148824   1.097   2.965   8.124
12117SOL    HW248825   1.162   2.992   8.271
12118SOL     OW48826   1.812   3.175   8.206
12118SOL    HW148827   1.822   3.178   8.107
12118SOL    HW248828   1.890   3.126   8.246
12119SOL     OW48829   2.802   0.400   7.561
12119SOL    HW148830   2.751   0.321   7.597
12119SOL    HW248831   2.899   0.388   7.581
12120SOL     OW48832   2.424   4.122   7.681
12120SOL    HW148833   2.498   4.159   7.737
12120SOL    HW248834   2.358   4.194   7.660
12121SOL     OW48835   6.928   4.797   8.585
12121SOL    HW148836   6.989   4.718   8.589
12121SOL    HW248837   6.927   4.834   8.492
12122SOL     OW48838   1.159   2.547   8.333
12122SOL    HW148839   1.084   2.570   8.395
12122SOL    HW248840   1.243   2.593   8.364
12123SOL     OW48841   5.210   1.248   8.308
12123SOL    HW148842   5.154   1.183   8.257
12123SOL    HW248843   5.297   1.205   8.333
12124SOL     OW48844   3.919   6.984   8.170
12124SOL    HW148845   4.016   6.976   8.191
12124SOL    HW248846   3.893   6.917   8.101
12125SOL     OW48847   6.860   0.327   7.690
12125SOL    HW148848   6.907   0.296   7.772
12125SOL    HW248849   6.894   0.418   7.665
12126SOL     OW48850   3.550   5.125   8.267
12126SOL    HW148851   3.542   5.028   8.244
12126SOL    HW248852   3.599   5.174   8.195
12127SOL     OW48853   1.658   3.596   8.436
12127SOL    HW148854   1.586   3.571   8.501
12127SOL    HW248855   1.628   3.675   8.383
12128SOL     OW48856   4.954   4.445   8.410
12128SOL    HW148857   4.912   4.525   8.367
12128SOL    HW248858   5.000   4.471   8.494
12129SOL     OW48859   6.915   4.642   8.050
12129SOL    HW148860   6.935   4.627   8.147
12129SOL    HW248861   6.853   4.570   8.017
12130SOL     OW48862   5.982   2.871   7.571
12130SOL    HW148863   5.944   2.810   7.502
12130SOL    HW248864   6.082   2.863   7.571
12131SOL     OW48865   3.959   5.973   7.405
12131SOL    HW148866   4.018   6.000   7.329
12131SOL    HW248867   3.872   6.021   7.399
12132SOL     OW48868   6.575   1.609   7.729
12132SOL    HW148869   6.633   1.673   7.679
12132SOL    HW248870   6.627   1.526   7.749
12133SOL     OW48871   5.865   3.492   7.592
12133SOL    HW148872   5.889   3.476   7.687
12133SOL    HW248873   5.766   3.478   7.579
12134SOL     OW48874   4.491   0.279   8.291
12134SOL    HW148875   4.417   0.216   8.315
12134SOL    HW248876   4.519   0.263   8.196
12135SOL     OW48877   1.073   5.502   7.790
12135SOL    HW148878   1.137   5.442   7.743
12135SOL    HW248879   0.979   5.471   7.773
12136SOL     OW48880   2.249   7.032   7.875
12136SOL    HW148881   2.313   7.108   7.887
12136SOL    HW248882   2.156   7.064   7.890
12137SOL     OW48883   1.821   1.999   8.191
12137SOL    HW148884   1.753   2.057   8.236
12137SOL    HW248885   1.891   1.972   8.258
12138SOL     OW48886   6.534   6.868   8.715
12138SOL    HW148887   6.461   6.822   8.767
12138SOL    HW248888   6.589   6.923   8.776
12139SOL     OW48889   6.005   0.459   8.492
12139SOL    HW148890   5.912   0.496   8.487
12139SOL    HW248891   6.003   0.361   8.472
12140SOL     OW48892   0.144   6.490   7.424
12140SOL    HW148893   0.111   6.460   7.513
12140SOL    HW248894   0.191   6.578   7.434
12141SOL     OW48895   6.080   0.444   7.722
12141SOL    HW148896   5.985   0.420   7.705
12141SOL    HW248897   6.138   0.408   7.649
12142SOL     OW48898   2.827   1.195   7.523
12142SOL    HW148899   2.864   1.103   7.507
12142SOL    HW248900   2.877   1.261   7.467
12143SOL     OW48901   6.377   3.079   8.563
12143SOL    HW148902   6.349   3.163   8.608
12143SOL    HW248903   6.389   3.097   8.465
12144SOL     OW48904   6.168   1.117   8.230
12144SOL    HW148905   6.252   1.155   8.269
12144SOL    HW248906   6.125   1.058   8.298
12145SOL     OW48907   0.910   2.173   7.847
12145SOL    HW148908   0.989   2.189   7.907
12145SOL    HW248909   0.844   2.115   7.894
12146SOL     OW48910   6.998   7.186   8.203
12146SOL    HW148911   6.917   7.239   8.225
12146SOL    HW248912   7.049   7.166   8.287
12147SOL     OW48913   5.642   4.482   7.600
12147SOL    HW148914   5.631   4.466   7.698
12147SOL    HW248915   5.553   4.483   7.556
12148SOL     OW48916   0.249   4.805   8.399
12148SOL    HW148917   0.344   4.838   8.404
12148SOL    HW248918   0.234   4.759   8.312
12149SOL     OW48919   5.764   1.603   8.276
12149SOL    HW148920   5.664   1.609   8.270
12149SOL    HW248921   5.798   1.538   8.207
12150SOL     OW48922   1.926   1.924   0.041
12150SOL    HW148923   1.905   1.915   8.944
12150SOL    HW248924   1.930   2.021   0.065
12151SOL     OW48925   7.239   1.522   8.011
12151SOL    HW148926   7.184   1.606   8.010
12151SOL    HW248927   7.198   1.456   8.073
12152SOL     OW48928   4.753   2.717   8.033
12152SOL    HW148929   4.711   2.630   8.008
12152SOL    HW248930   4.749   2.729   8.132
12153SOL     OW48931   5.418   4.710   7.700
12153SOL    HW148932   5.378   4.675   7.785
12153SOL    HW248933   5.420   4.637   7.632
12154SOL     OW48934   2.873   1.098   8.811
12154SOL    HW148935   2.858   1.100   8.910
12154SOL    HW248936   2.786   1.118   8.764
12155SOL     OW48937   3.170   2.073   8.564
12155SOL    HW148938   3.102   2.030   8.624
12155SOL    HW248939   3.259   2.075   8.609
12156SOL     OW48940   1.093   3.436   7.915
12156SOL    HW148941   1.173   3.495   7.920
12156SOL    HW248942   1.081   3.389   8.003
12157SOL     OW48943   6.342   3.867   7.643
12157SOL    HW148944   6.416   3.853   7.709
12157SOL    HW248945   6.354   3.805   7.566
12158SOL     OW48946   7.095   6.162   8.018
12158SOL    HW148947   7.061   6.214   8.096
12158SOL    HW248948   7.057   6.069   8.020
12159SOL     OW48949   5.085   3.239   8.979
12159SOL    HW148950   5.034   3.316   8.940
12159SOL    HW248951   5.026   3.187   0.041
12160SOL     OW48952   1.759   3.977   8.463
12160SOL    HW148953   1.775   3.916   8.541
12160SOL    HW248954   1.841   4.033   8.447
12161SOL     OW48955   1.250   4.452   7.519
12161SOL    HW148956   1.200   4.521   7.467
12161SOL    HW248957   1.247   4.365   7.469
12162SOL     OW48958   6.657   5.066   7.862
12162SOL    HW148959   6.702   5.123   7.793
12162SOL    HW248960   6.722   4.999   7.897
12163SOL     OW48961   1.120   6.180   8.538
12163SOL    HW148962   1.118   6.249   8.610
12163SOL    HW248963   1.107   6.225   8.449
12164SOL     OW48964   3.297   5.149   7.800
12164SOL    HW148965   3.253   5.073   7.849
12164SOL    HW248966   3.338   5.211   7.867
12165SOL     OW48967   3.869   1.324   7.476
12165SOL    HW148968   3.794   1.390   7.486
12165SOL    HW248969   3.955   1.367   7.504
12166SOL     OW48970   4.553   4.486   8.715
12166SOL    HW148971   4.491   4.450   8.646
12166SOL    HW248972   4.512   4.478   8.806
12167SOL     OW48973   5.279   5.845   8.991
12167SOL    HW148974   5.328   5.910   8.934
12167SOL    HW248975   5.276   5.878   0.086
12168SOL     OW48976   1.957   4.777   7.555
12168SOL    HW148977   2.009   4.837   7.494
12168SOL    HW248978   1.912   4.831   7.626
12169SOL     OW48979   6.642   4.336   8.628
12169SOL    HW148980   6.692   4.389   8.697
12169SOL    HW248981   6.544   4.348   8.642
12170SOL     OW48982   0.849   4.655   7.725
12170SOL    HW148983   0.874   4.687   7.634
12170SOL    HW248984   0.865   4.727   7.792
12171SOL     OW48985   5.879   6.020   8.618
12171SOL    HW148986   5.876   6.087   8.692
12171SOL    HW248987   5.961   5.964   8.628
12172SOL     OW48988   3.090   6.469   7.964
12172SOL    HW148989   3.167   6.519   8.002
12172SOL    HW248990   3.121   6.380   7.930
12173SOL     OW48991   7.132   6.347   8.776
12173SOL    HW148992   7.134   6.442   8.747
12173SOL    HW248993   7.154   6.341   8.873
12174SOL     OW48994   0.087   5.683   8.288
12174SOL    HW148995   0.031   5.620   8.342
12174SOL    HW248996   0.157   5.725   8.347
12175SOL     OW48997   3.962   4.438   8.748
12175SOL    HW148998   3.916   4.352   8.769
12175SOL    HW248999   4.060   4.427   8.759
12176SOL     OW49000   6.858   2.394   8.795
12176SOL    HW149001   6.889   2.487   8.813
12176SOL    HW249002   6.877   2.337   8.875
12177SOL     OW49003   0.323   2.505   7.747
12177SOL    HW149004   0.241   2.537   7.699
12177SOL    HW249005   0.336   2.558   7.830
12178SOL     OW49006   3.095   1.290   7.957
12178SOL    HW149007   3.033   1.295   7.879
12178SOL    HW249008   3.045   1.260   8.038
12179SOL     OW49009   4.988   0.962   8.397
12179SOL    HW149010   4.911   1.013   8.359
12179SOL    HW249011   4.955   0.892   8.460
12180SOL     OW49012   0.374   3.519   8.867
12180SOL    HW149013   0.405   3.549   8.957
12180SOL    HW249014   0.452   3.496   8.810
12181SOL     OW49015   7.237   4.100   7.400
12181SOL    HW149016   7.263   4.195   7.383
12181SOL    HW249017   7.190   4.064   7.319
12182SOL     OW49018   5.172   7.151   8.869
12182SOL    HW149019   5.246   7.144   8.802
12182SOL    HW249020   5.102   7.213   8.835
12183SOL     OW49021   5.889   3.677   8.548
12183SOL    HW149022   5.965   3.615   8.531
12183SOL    HW249023   5.872   3.733   8.467
12184SOL     OW49024   3.050   2.493   8.431
12184SOL    HW149025   2.969   2.446   8.396
12184SOL    HW249026   3.105   2.526   8.354
12185SOL     OW49027   5.889   3.906   7.669
12185SOL    HW149028   5.807   3.865   7.709
12185SOL    HW249029   5.863   3.981   7.608
12186SOL     OW49030   0.629   3.450   7.508
12186SOL    HW149031   0.544   3.502   7.503
12186SOL    HW249032   0.609   3.356   7.534
12187SOL     OW49033   2.672   4.982   7.346
12187SOL    HW149034   2.675   4.966   7.248
12187SOL    HW249035   2.697   5.077   7.365
12188SOL     OW49036   7.288   1.529   8.858
12188SOL    HW149037   7.267   1.562   8.950
12188SOL    HW249038   7.206   1.535   8.801
12189SOL     OW49039   1.388   4.090   7.631
12189SOL    HW149040   1.343   4.042   7.707
12189SOL    HW249041   1.471   4.041   7.605
12190SOL     OW49042   5.903   2.032   8.043
12190SOL    HW149043   5.846   1.974   8.101
12190SOL    HW249044   5.847   2.103   8.001
12191SOL     OW49045   4.321   3.230   8.481
12191SOL    HW149046   4.247   3.255   8.544
12191SOL    HW249047   4.409   3.250   8.524
12192SOL     OW49048   6.470   2.424   8.555
12192SOL    HW149049   6.546   2.456   8.498
12192SOL    HW249050   6.385   2.428   8.502
12193SOL     OW49051   4.813   0.316   7.977
12193SOL    HW149052   4.835   0.395   7.921
12193SOL    HW249053   4.856   0.325   8.066
12194SOL     OW49054   6.683   4.711   8.685
12194SOL    HW149055   6.774   4.742   8.657
12194SOL    HW249056   6.615   4.746   8.621
12195SOL     OW49057   1.670   4.769   8.078
12195SOL    HW149058   1.583   4.817   8.090
12195SOL    HW249059   1.679   4.699   8.150
12196SOL     OW49060   1.598   6.945   8.227
12196SOL    HW149061   1.667   6.875   8.210
12196SOL    HW249062   1.526   6.938   8.158
12197SOL     OW49063   4.823   6.126   7.457
12197SOL    HW149064   4.809   6.076   7.543
12197SOL    HW249065   4.869   6.212   7.475
12198SOL     OW49066   6.465   2.057   7.630
12198SOL    HW149067   6.411   2.099   7.556
12198SOL    HW249068   6.516   2.128   7.678
12199SOL     OW49069   4.265   4.076   8.950
12199SOL    HW149070   4.340   4.050   0.012
12199SOL    HW249071   4.258   4.175   8.946
12200SOL     OW49072   0.885   2.532   8.098
12200SOL    HW149073   0.919   2.451   8.146
12200SOL    HW249074   0.856   2.600   8.165
12201SOL     OW49075   4.197   0.544   8.596
12201SOL    HW149076   4.243   0.519   8.511
12201SOL    HW249077   4.256   0.522   8.674
12202SOL     OW49078   3.542   3.275   7.441
12202SOL    HW149079   3.469   3.221   7.399
12202SOL    HW249080   3.630   3.232   7.422
12203SOL     OW49081   5.147   4.944   7.702
12203SOL    HW149082   5.158   5.024   7.760
12203SOL    HW249083   5.218   4.944   7.631
12204SOL     OW49084   4.509   6.620   8.406
12204SOL    HW149085   4.572   6.684   8.363
12204SOL    HW249086   4.550   6.581   8.488
12205SOL     OW49087   6.892   1.640   8.342
12205SOL    HW149088   6.883   1.738   8.325
12205SOL    HW249089   6.802   1.599   8.358
12206SOL     OW49090   6.391   0.556   7.381
12206SOL    HW149091   6.345   0.645   7.389
12206SOL    HW249092   6.489   0.568   7.396
12207SOL     OW49093   5.781   5.154   7.902
12207SOL    HW149094   5.735   5.120   7.820
12207SOL    HW249095   5.843   5.229   7.878
12208SOL     OW49096   1.411   3.411   8.109
12208SOL    HW149097   1.391   3.467   8.029
12208SOL    HW249098   1.507   3.421   8.134
12209SOL     OW49099   2.270   3.557   8.635
12209SOL    HW149100   2.303   3.525   8.724
12209SOL    HW249101   2.287   3.486   8.566
12210SOL     OW49102   6.706   2.697   7.660
12210SOL    HW149103   6.795   2.721   7.698
12210SOL    HW249104   6.713   2.612   7.609
12211SOL     OW49105   2.361   0.393   8.593
12211SOL    HW149106   2.271   0.432   8.575
12211SOL    HW249107   2.390   0.416   8.686
12212SOL     OW49108   6.349   6.279   8.190
12212SOL    HW149109   6.322   6.219   8.115
12212SOL    HW249110   6.431   6.329   8.165
12213SOL     OW49111   1.388   3.259   7.677
12213SOL    HW149112   1.351   3.190   7.740
12213SOL    HW249113   1.400   3.218   7.587
12214SOL     OW49114   3.622   5.866   7.356
12214SOL    HW149115   3.654   5.961   7.354
12214SOL    HW249116   3.641   5.826   7.446
12215SOL     OW49117   7.115   1.830   7.453
12215SOL    HW149118   7.151   1.898   7.518
12215SOL    HW249119   7.026   1.861   7.419
12216SOL     OW49120   5.856   2.694   7.408
12216SOL    HW149121   5.889   2.603   7.383
12216SOL    HW249122   5.762   2.688   7.442
12217SOL     OW49123   2.410   0.807   8.313
12217SOL    HW149124   2.404   0.831   8.410
12217SOL    HW249125   2.480   0.736   8.301
12218SOL     OW49126   0.156   2.920   8.509
12218SOL    HW149127   0.202   2.896   8.594
12218SOL    HW249128   0.209   2.887   8.432
12219SOL     OW49129   4.316   0.904   8.391
12219SOL    HW149130   4.344   0.842   8.318
12219SOL    HW249131   4.229   0.874   8.430
12220SOL     OW49132   2.249   5.193   8.182
12220SOL    HW149133   2.306   5.271   8.157
12220SOL    HW249134   2.167   5.191   8.124
12221SOL     OW49135   6.431   4.638   8.812
12221SOL    HW149136   6.380   4.719   8.844
12221SOL    HW249137   6.517   4.667   8.770
12222SOL     OW49138   6.690   0.619   7.702
12222SOL    HW149139   6.593   0.642   7.716
12222SOL    HW249140   6.729   0.587   7.788
12223SOL     OW49141   6.201   6.540   7.724
12223SOL    HW149142   6.292   6.515   7.756
12223SOL    HW249143   6.163   6.466   7.670
12224SOL     OW49144   2.233   8.948   8.743
12224SOL    HW149145   2.218   8.996   8.829
12224SOL    HW249146   2.263   0.014   8.673
12225SOL     OW49147   6.940   4.580   8.320
12225SOL    HW149148   6.849   4.544   8.339
12225SOL    HW249149   6.996   4.575   8.403
12226SOL     OW49150   5.590   3.926   8.777
12226SOL    HW149151   5.610   3.849   8.716
12226SOL    HW249152   5.628   4.009   8.738
12227SOL     OW49153   2.139   1.584   8.573
12227SOL    HW149154   2.062   1.538   8.618
12227SOL    HW249155   2.116   1.601   8.477
12228SOL     OW49156   2.404   6.433   8.993
12228SOL    HW149157   2.460   6.506   0.031
12228SOL    HW249158   2.307   6.455   0.003
12229SOL     OW49159   3.450   0.608   7.905
12229SOL    HW149160   3.407   0.640   7.820
12229SOL    HW249161   3.518   0.675   7.935
12230SOL     OW49162   1.635   2.167   8.312
12230SOL    HW149163   1.551   2.113   8.320
12230SOL    HW249164   1.669   2.188   8.403
12231SOL     OW49165   6.654   3.044   7.333
12231SOL    HW149166   6.705   3.071   7.252
12231SOL    HW249167   6.635   3.124   7.389
12232SOL     OW49168   0.645   1.133   8.109
12232SOL    HW149169   0.627   1.222   8.151
12232SOL    HW249170   0.740   1.128   8.080
12233SOL     OW49171   2.951   6.756   8.818
12233SOL    HW149172   2.990   6.847   8.834
12233SOL    HW249173   2.853   6.759   8.835
12234SOL     OW49174   2.833   3.904   7.563
12234SOL    HW149175   2.741   3.933   7.537
12234SOL    HW249176   2.845   3.807   7.544
12235SOL     OW49177   5.788   1.405   8.074
12235SOL    HW149178   5.851   1.341   8.030
12235SOL    HW249179   5.716   1.354   8.121
12236SOL     OW49180   6.411   2.824   8.646
12236SOL    HW149181   6.491   2.783   8.603
12236SOL    HW249182   6.403   2.919   8.616
12237SOL     OW49183   1.326   2.707   8.787
12237SOL    HW149184   1.356   2.803   8.783
12237SOL    HW249185   1.228   2.702   8.765
12238SOL     OW49186   3.423   6.979   8.011
12238SOL    HW149187   3.480   6.978   7.929
12238SOL    HW249188   3.444   6.901   8.069
12239SOL     OW49189   2.837   4.546   8.833
12239SOL    HW149190   2.845   4.446   8.835
12239SOL    HW249191   2.917   4.587   8.876
12240SOL     OW49192   5.897   1.595   8.814
12240SOL    HW149193   5.855   1.598   8.724
12240SOL    HW249194   5.891   1.502   8.851
12241SOL     OW49195   6.527   5.609   8.817
12241SOL    HW149196   6.432   5.625   8.842
12241SOL    HW249197   6.579   5.694   8.826
12242SOL     OW49198   3.682   0.098   8.652
12242SOL    HW149199   3.690   0.033   8.729
12242SOL    HW249200   3.743   0.069   8.578
12243SOL     OW49201   0.948   2.623   8.488
12243SOL    HW149202   0.898   2.662   8.411
12243SOL    HW249203   0.884   2.575   8.548
12244SOL     OW49204   6.908   6.973   8.047
12244SOL    HW149205   6.956   7.048   8.093
12244SOL    HW249206   6.908   6.893   8.106
12245SOL     OW49207   2.576   6.249   7.988
12245SOL    HW149208   2.565   6.328   7.928
12245SOL    HW249209   2.487   6.206   8.004
12246SOL     OW49210   2.490   0.421   8.848
12246SOL    HW149211   2.440   0.373   8.919
12246SOL    HW249212   2.539   0.499   8.887
12247SOL     OW49213   2.023   4.507   8.610
12247SOL    HW149214   1.946   4.570   8.594
12247SOL    HW249215   1.988   4.423   8.651
12248SOL     OW49216   1.865   7.329   7.768
12248SOL    HW149217   1.796   7.394   7.799
12248SOL    HW249218   1.878   7.339   7.669
12249SOL     OW49219   3.669   5.250   8.055
12249SOL    HW149220   3.699   5.339   8.020
12249SOL    HW249221   3.710   5.177   7.999
12250SOL     OW49222   3.736   3.758   7.614
12250SOL    HW149223   3.714   3.683   7.551
12250SOL    HW249224   3.786   3.722   7.692
12251SOL     OW49225   2.776   2.251   7.639
12251SOL    HW149226   2.833   2.300   7.573
12251SOL    HW249227   2.704   2.202   7.590
12252SOL     OW49228   3.414   2.951   8.450
12252SOL    HW149229   3.395   2.905   8.537
12252SOL    HW249230   3.333   3.004   8.422
12253SOL     OW49231   1.033   6.356   7.941
12253SOL    HW149232   1.058   6.344   7.845
12253SOL    HW249233   0.938   6.387   7.947
12254SOL     OW49234   1.391   2.976   8.763
12254SOL    HW149235   1.337   3.027   8.830
12254SOL    HW249236   1.398   3.029   8.678
12255SOL     OW49237   0.900   0.312   8.997
12255SOL    HW149238   0.927   0.335   0.090
12255SOL    HW249239   0.976   0.330   8.935
12256SOL     OW49240   5.883   4.223   7.921
12256SOL    HW149241   5.956   4.169   7.963
12256SOL    HW249242   5.904   4.238   7.824
12257SOL     OW49243   2.416   1.776   7.837
12257SOL    HW149244   2.462   1.688   7.851
12257SOL    HW249245   2.478   1.838   7.787
12258SOL     OW49246   6.316   4.963   7.626
12258SOL    HW149247   6.398   4.954   7.569
12258SOL    HW249248   6.254   4.887   7.607
12259SOL     OW49249   5.053   1.378   7.642
12259SOL    HW149250   5.020   1.458   7.591
12259SOL    HW249251   4.976   1.328   7.680
12260SOL     OW49252   2.538   5.005   7.923
12260SOL    HW149253   2.517   5.017   8.020
12260SOL    HW249254   2.531   4.908   7.900
12261SOL     OW49255   6.041   1.934   8.809
12261SOL    HW149256   6.099   2.015   8.818
12261SOL    HW249257   5.986   1.923   8.892
12262SOL     OW49258   2.208   6.386   8.639
12262SOL    HW149259   2.219   6.478   8.677
12262SOL    HW249260   2.299   6.345   8.626
12263SOL     OW49261   2.672   7.112   8.502
12263SOL    HW149262   2.746   7.092   8.566
12263SOL    HW249263   2.614   7.031   8.492
12264SOL     OW49264   7.133   3.180   8.866
12264SOL    HW149265   7.093   3.136   8.946
12264SOL    HW249266   7.060   3.200   8.800
12265SOL     OW49267   5.705   0.906   8.347
12265SOL    HW149268   5.786   0.856   8.319
12265SOL    HW249269   5.690   0.893   8.445
12266SOL     OW49270   3.030   5.227   8.674
12266SOL    HW149271   3.127   5.220   8.653
12266SOL    HW249272   2.987   5.137   8.662
12267SOL     OW49273   3.878   7.144   8.937
12267SOL    HW149274   3.804   7.080   8.917
12267SOL    HW249275   3.937   7.153   8.857
12268SOL     OW49276   2.941   6.914   7.955
12268SOL    HW149277   3.025   6.946   8.000
12268SOL    HW249278   2.917   6.823   7.990
12269SOL     OW49279   6.373   1.691   7.895
12269SOL    HW149280   6.356   1.788   7.877
12269SOL    HW249281   6.446   1.658   7.835
12270SOL     OW49282   2.722   1.285   8.005
12270SOL    HW149283   2.792   1.264   8.072
12270SOL    HW249284   2.764   1.292   7.914
12271SOL     OW49285   4.080   0.763   8.468
12271SOL    HW149286   4.116   0.691   8.528
12271SOL    HW249287   4.049   0.722   8.383
12272SOL     OW49288   3.899   6.320   7.734
12272SOL    HW149289   3.914   6.225   7.764
12272SOL    HW249290   3.986   6.360   7.707
12273SOL     OW49291   7.013   2.125   7.762
12273SOL    HW149292   7.097   2.084   7.727
12273SOL    HW249293   6.934   2.077   7.724
12274SOL     OW49294   6.266   2.420   8.372
12274SOL    HW149295   6.174   2.382   8.362
12274SOL    HW249296   6.307   2.433   8.282
12275SOL     OW49297   6.541   2.885   7.531
12275SOL    HW149298   6.586   2.919   7.449
12275SOL    HW249299   6.601   2.819   7.577
12276SOL     OW49300   2.020   2.262   7.483
12276SOL    HW149301   1.972   2.200   7.544
12276SOL    HW249302   2.026   2.352   7.525
12277SOL     OW49303   6.996   0.574   7.694
12277SOL    HW149304   7.014   0.575   7.793
12277SOL    HW249305   6.935   0.649   7.670
12278SOL     OW49306   6.338   1.059   7.844
12278SOL    HW149307   6.382   0.973   7.872
12278SOL    HW249308   6.408   1.129   7.832
12279SOL     OW49309   2.848   1.649   8.722
12279SOL    HW149310   2.808   1.560   8.704
12279SOL    HW249311   2.812   1.716   8.656
12280SOL     OW49312   4.902   6.879   7.466
12280SOL    HW149313   4.825   6.887   7.402
12280SOL    HW249314   4.871   6.902   7.558
12281SOL     OW49315   0.040   2.716   8.173
12281SOL    HW149316   0.012   2.627   8.207
12281SOL    HW249317   8.959   2.773   8.157
12282SOL     OW49318   5.936   5.198   0.015
12282SOL    HW149319   5.918   5.256   8.936
12282SOL    HW249320   5.850   5.164   0.052
12283SOL     OW49321   7.211   0.883   8.315
12283SOL    HW149322   7.252   0.805   8.361
12283SOL    HW249323   7.274   0.960   8.316
12284SOL     OW49324   0.546   1.244   7.710
12284SOL    HW149325   0.589   1.329   7.743
12284SOL    HW249326   0.610   1.196   7.651
12285SOL     OW49327   5.755   2.655   8.746
12285SOL    HW149328   5.817   2.617   8.677
12285SOL    HW249329   5.790   2.635   8.837
12286SOL     OW49330   3.152   7.297   7.497
12286SOL    HW149331   3.077   7.264   7.554
12286SOL    HW249332   3.234   7.311   7.553
12287SOL     OW49333   3.965   1.171   8.380
12287SOL    HW149334   3.893   1.236   8.354
12287SOL    HW249335   3.926   1.100   8.438
12288SOL     OW49336   3.779   3.142   7.399
12288SOL    HW149337   3.760   3.107   7.307
12288SOL    HW249338   3.877   3.141   7.415
12289SOL     OW49339   1.032   0.961   8.871
12289SOL    HW149340   1.068   0.883   8.821
12289SOL    HW249341   1.108   1.015   8.909
12290SOL     OW49342   3.281   2.866   0.073
12290SOL    HW149343   3.222   2.789   0.094
12290SOL    HW249344   3.227   2.951   0.072
12291SOL     OW49345   2.116   3.254   7.930
12291SOL    HW149346   2.182   3.290   7.996
12291SOL    HW249347   2.144   3.162   7.902
12292SOL     OW49348   3.158   6.124   8.944
12292SOL    HW149349   3.126   6.137   0.038
12292SOL    HW249350   3.085   6.148   8.880
12293SOL     OW49351   6.037   5.560   8.711
12293SOL    HW149352   6.019   5.537   8.615
12293SOL    HW249353   5.990   5.494   8.770
12294SOL     OW49354   3.578   4.154   7.451
12294SOL    HW149355   3.524   4.085   7.404
12294SOL    HW249356   3.668   4.117   7.475
12295SOL     OW49357   0.428   6.873   8.002
12295SOL    HW149358   0.528   6.879   8.008
12295SOL    HW249359   0.388   6.963   8.015
12296SOL     OW49360   4.335   1.123   8.761
12296SOL    HW149361   4.259   1.061   8.778
12296SOL    HW249362   4.343   1.139   8.663
12297SOL     OW49363   3.595   0.069   8.207
12297SOL    HW149364   3.664   0.040   8.274
12297SOL    HW249365   3.572   0.165   8.223
12298SOL     OW49366   4.537   2.517   8.486
12298SOL    HW149367   4.501   2.567   8.407
12298SOL    HW249368   4.634   2.540   8.498
12299SOL     OW49369   3.411   3.421   8.705
12299SOL    HW149370   3.376   3.394   8.616
12299SOL    HW249371   3.339   3.412   8.774
12300SOL     OW49372   1.177   2.659   8.075
12300SOL    HW149373   1.104   2.723   8.053
12300SOL    HW249374   1.154   2.610   8.160
12301SOL     OW49375   5.370   7.126   8.681
12301SOL    HW149376   5.469   7.124   8.696
12301SOL    HW249377   5.348   7.194   8.612
12302SOL     OW49378   3.045   4.555   8.448
12302SOL    HW149379   3.083   4.622   8.511
12302SOL    HW249380   3.051   4.590   8.354
12303SOL     OW49381   0.479   4.561   7.650
12303SOL    HW149382   0.392   4.512   7.648
12303SOL    HW249383   0.535   4.525   7.724
12304SOL     OW49384   0.666   3.668   8.536
12304SOL    HW149385   0.760   3.696   8.514
12304SOL    HW249386   0.604   3.696   8.463
12305SOL     OW49387   1.078   2.204   8.814
12305SOL    HW149388   1.042   2.297   8.817
12305SOL    HW249389   1.019   2.147   8.756
12306SOL     OW49390   3.029   5.639   8.636
12306SOL    HW149391   2.961   5.565   8.635
12306SOL    HW249392   2.986   5.724   8.665
12307SOL     OW49393   0.426   2.726   8.495
12307SOL    HW149394   0.480   2.710   8.578
12307SOL    HW249395   0.484   2.716   8.415
12308SOL     OW49396   3.098   6.575   8.663
12308SOL    HW149397   3.186   6.610   8.695
12308SOL    HW249398   3.025   6.634   8.697
12309SOL     OW49399   0.624   4.503   7.427
12309SOL    HW149400   0.577   4.537   7.508
12309SOL    HW249401   0.665   4.580   7.377
12310SOL     OW49402   5.941   5.344   7.789
12310SOL    HW149403   5.869   5.376   7.726
12310SOL    HW249404   6.007   5.289   7.738
12311SOL     OW49405   3.925   7.264   8.199
12311SOL    HW149406   3.910   7.166   8.189
12311SOL    HW249407   3.888   7.295   8.286
12312SOL     OW49408   6.357   0.778   8.405
12312SOL    HW149409   6.302   0.700   8.373
12312SOL    HW249410   6.318   0.813   8.490
12313SOL     OW49411   0.058   2.556   7.943
12313SOL    HW149412   0.073   2.624   8.015
12313SOL    HW249413   8.960   2.537   7.935
12314SOL     OW49414   3.070   0.157   7.388
12314SOL    HW149415   2.973   0.151   7.364
12314SOL    HW249416   3.119   0.080   7.348
12315SOL     OW49417   2.228   2.337   7.753
12315SOL    HW149418   2.169   2.393   7.695
12315SOL    HW249419   2.235   2.245   7.715
12316SOL     OW49420   0.994   8.962   8.770
12316SOL    HW149421   0.985   8.882   8.829
12316SOL    HW249422   0.931   0.033   8.800
12317SOL     OW49423   3.696   1.871   8.352
12317SOL    HW149424   3.768   1.826   8.404
12317SOL    HW249425   3.615   1.882   8.410
12318SOL     OW49426   2.891   4.276   8.865
12318SOL    HW149427   2.917   4.234   8.778
12318SOL    HW249428   2.971   4.280   8.925
12319SOL     OW49429   0.722   1.997   7.981
12319SOL    HW149430   0.634   1.984   7.935
12319SOL    HW249431   0.786   1.927   7.950
12320SOL     OW49432   5.596   3.444   7.601
12320SOL    HW149433   5.562   3.473   7.690
12320SOL    HW249434   5.545   3.491   7.529
12321SOL     OW49435   2.443   3.533   8.228
12321SOL    HW149436   2.540   3.535   8.204
12321SOL    HW249437   2.396   3.466   8.170
12322SOL     OW49438   4.087   6.347   7.340
12322SOL    HW149439   4.084   6.330   7.438
12322SOL    HW249440   4.120   6.440   7.323
12323SOL     OW49441   6.968   6.883   7.481
12323SOL    HW149442   6.935   6.976   7.465
12323SOL    HW249443   6.906   6.836   7.545
12324SOL     OW49444   6.087   5.839   8.621
12324SOL    HW149445   6.123   5.806   8.533
12324SOL    HW249446   6.062   5.760   8.677
12325SOL     OW49447   7.288   4.360   7.332
12325SOL    HW149448   7.383   4.351   7.304
12325SOL    HW249449   7.269   4.455   7.356
12326SOL     OW49450   0.100   3.447   8.875
12326SOL    HW149451   0.199   3.462   8.877
12326SOL    HW249452   0.080   3.361   8.828
12327SOL     OW49453   5.582   5.064   7.423
12327SOL    HW149454   5.607   5.015   7.340
12327SOL    HW249455   5.599   5.161   7.411
12328SOL     OW49456   6.463   4.006   8.117
12328SOL    HW149457   6.486   4.025   8.212
12328SOL    HW249458   6.447   3.908   8.105
12329SOL     OW49459   4.262   6.546   8.075
12329SOL    HW149460   4.283   6.643   8.066
12329SOL    HW249461   4.340   6.498   8.115
12330SOL     OW49462   5.714   5.658   8.858
12330SOL    HW149463   5.675   5.749   8.872
12330SOL    HW249464   5.725   5.642   8.760
12331SOL     OW49465   6.833   6.501   8.143
12331SOL    HW149466   6.895   6.432   8.179
12331SOL    HW249467   6.753   6.457   8.103
12332SOL     OW49468   1.557   4.367   8.043
12332SOL    HW149469   1.593   4.306   7.973
12332SOL    HW249470   1.483   4.422   8.005
12333SOL     OW49471   4.154   6.025   8.423
12333SOL    HW149472   4.216   5.954   8.456
12333SOL    HW249473   4.075   5.982   8.378
12334SOL     OW49474   0.809   5.014   7.550
12334SOL    HW149475   0.812   5.066   7.465
12334SOL    HW249476   0.843   4.921   7.534
12335SOL     OW49477   2.510   2.856   8.083
12335SOL    HW149478   2.529   2.797   8.005
12335SOL    HW249479   2.417   2.841   8.115
12336SOL     OW49480   4.833   7.229   8.335
12336SOL    HW149481   4.896   7.261   8.406
12336SOL    HW249482   4.882   7.224   8.247
12337SOL     OW49483   1.471   3.721   7.507
12337SOL    HW149484   1.392   3.691   7.560
12337SOL    HW249485   1.536   3.645   7.500
12338SOL     OW49486   2.899   5.491   7.616
12338SOL    HW149487   2.979   5.445   7.655
12338SOL    HW249488   2.926   5.536   7.530
12339SOL     OW49489   1.557   7.198   7.520
12339SOL    HW149490   1.544   7.277   7.580
12339SOL    HW249491   1.558   7.115   7.576
12340SOL     OW49492   6.884   7.138   7.424
12340SOL    HW149493   6.948   7.212   7.403
12340SOL    HW249494   6.822   7.167   7.496
12341SOL     OW49495   4.695   7.003   7.850
12341SOL    HW149496   4.714   7.091   7.806
12341SOL    HW249497   4.777   6.970   7.897
12342SOL     OW49498   1.637   4.383   8.621
12342SOL    HW149499   1.597   4.298   8.588
12342SOL    HW249500   1.575   4.425   8.688
12343SOL     OW49501   2.402   5.217   8.658
12343SOL    HW149502   2.455   5.137   8.684
12343SOL    HW249503   2.331   5.191   8.593
12344SOL     OW49504   5.660   5.040   7.684
12344SOL    HW149505   5.641   5.050   7.586
12344SOL    HW249506   5.575   5.050   7.736
12345SOL     OW49507   2.328   6.243   8.217
12345SOL    HW149508   2.390   6.195   8.279
12345SOL    HW249509   2.302   6.331   8.257
12346SOL     OW49510   6.679   1.812   8.562
12346SOL    HW149511   6.634   1.857   8.484
12346SOL    HW249512   6.702   1.881   8.631
12347SOL     OW49513   6.897   6.757   8.213
12347SOL    HW149514   6.877   6.663   8.186
12347SOL    HW249515   6.982   6.760   8.265
12348SOL     OW49516   0.345   3.763   7.900
12348SOL    HW149517   0.375   3.824   7.973
12348SOL    HW249518   0.291   3.689   7.938
12349SOL     OW49519   5.794   4.099   7.491
12349SOL    HW149520   5.868   4.162   7.469
12349SOL    HW249521   5.783   4.033   7.416
12350SOL     OW49522   3.011   3.437   8.491
12350SOL    HW149523   2.962   3.354   8.467
12350SOL    HW249524   2.976   3.514   8.436
12351SOL     OW49525   1.870   3.882   7.595
12351SOL    HW149526   1.875   3.980   7.617
12351SOL    HW249527   1.907   3.829   7.671
12352SOL     OW49528   1.641   2.857   8.731
12352SOL    HW149529   1.642   2.845   8.632
12352SOL    HW249530   1.552   2.895   8.758
12353SOL     OW49531   0.401   5.989   8.896
12353SOL    HW149532   0.351   5.963   8.814
12353SOL    HW249533   0.337   6.024   8.964
12354SOL     OW49534   0.331   1.149   8.578
12354SOL    HW149535   0.332   1.097   8.492
12354SOL    HW249536   0.237   1.157   8.610
12355SOL     OW49537   5.589   0.523   7.852
12355SOL    HW149538   5.611   0.603   7.908
12355SOL    HW249539   5.672   0.485   7.812
12356SOL     OW49540   1.177   7.054   8.111
12356SOL    HW149541   1.210   7.093   8.198
12356SOL    HW249542   1.246   6.991   8.075
12357SOL     OW49543   3.557   3.889   7.775
12357SOL    HW149544   3.544   3.815   7.841
12357SOL    HW249545   3.617   3.859   7.701
12358SOL     OW49546   4.494   1.203   7.864
12358SOL    HW149547   4.550   1.285   7.854
12358SOL    HW249548   4.426   1.217   7.936
12359SOL     OW49549   1.774   2.917   7.938
12359SOL    HW149550   1.806   3.012   7.939
12359SOL    HW249551   1.793   2.876   7.848
12360SOL     OW49552   2.825   4.381   8.463
12360SOL    HW149553   2.793   4.364   8.370
12360SOL    HW249554   2.894   4.453   8.462
12361SOL     OW49555   5.644   2.765   8.162
12361SOL    HW149556   5.688   2.752   8.073
12361SOL    HW249557   5.585   2.846   8.159
12362SOL     OW49558   1.657   3.521   7.486
12362SOL    HW149559   1.734   3.580   7.461
12362SOL    HW249560   1.650   3.446   7.421
12363SOL     OW49561   1.850   4.969   8.543
12363SOL    HW149562   1.835   5.063   8.576
12363SOL    HW249563   1.947   4.948   8.543
12364SOL     OW49564   6.465   5.127   8.921
12364SOL    HW149565   6.555   5.159   8.893
12364SOL    HW249566   6.436   5.177   0.003
12365SOL     OW49567   4.865   5.941   7.945
12365SOL    HW149568   4.928   5.892   8.004
12365SOL    HW249569   4.879   6.040   7.955
12366SOL     OW49570   1.296   2.217   8.519
12366SOL    HW149571   1.362   2.292   8.525
12366SOL    HW249572   1.209   2.245   8.558
12367SOL     OW49573   2.131   2.816   8.459
12367SOL    HW149574   2.068   2.747   8.494
12367SOL    HW249575   2.192   2.845   8.532
12368SOL     OW49576   4.622   1.160   8.739
12368SOL    HW149577   4.524   1.143   8.752
12368SOL    HW249578   4.659   1.204   8.820
12369SOL     OW49579   6.918   2.976   8.519
12369SOL    HW149580   6.862   3.029   8.455
12369SOL    HW249581   7.006   2.954   8.476
12370SOL     OW49582   2.593   5.374   8.543
12370SOL    HW149583   2.523   5.325   8.594
12370SOL    HW249584   2.593   5.344   8.448
12371SOL     OW49585   5.942   3.183   7.721
12371SOL    HW149586   5.950   3.093   7.763
12371SOL    HW249587   5.865   3.184   7.657
12372SOL     OW49588   3.610   0.763   7.527
12372SOL    HW149589   3.639   0.670   7.550
12372SOL    HW249590   3.682   0.828   7.552
12373SOL     OW49591   2.393   0.877   8.575
12373SOL    HW149592   2.488   0.864   8.606
12373SOL    HW249593   2.348   0.944   8.633
12374SOL     OW49594   0.370   5.201   7.751
12374SOL    HW149595   0.342   5.115   7.709
12374SOL    HW249596   0.290   5.260   7.765
12375SOL     OW49597   0.486   5.084   8.194
12375SOL    HW149598   0.516   5.089   8.099
12375SOL    HW249599   0.490   5.175   8.235
12376SOL     OW49600   0.118   0.035   0.160
12376SOL    HW149601   0.107   8.962   0.227
12376SOL    HW249602   0.028   0.065   0.129
12377SOL     OW49603   2.003   7.153   7.931
12377SOL    HW149604   2.039   7.216   8.000
12377SOL    HW249605   1.946   7.204   7.867
12378SOL     OW49606   4.573   3.686   8.689
12378SOL    HW149607   4.604   3.751   8.620
12378SOL    HW249608   4.474   3.691   8.697
12379SOL     OW49609   2.424   5.886   8.501
12379SOL    HW149610   2.433   5.898   8.600
12379SOL    HW249611   2.447   5.971   8.454
12380SOL     OW49612   4.116   2.623   7.611
12380SOL    HW149613   4.102   2.568   7.694
12380SOL    HW249614   4.166   2.569   7.543
12381SOL     OW49615   6.078   7.304   7.438
12381SOL    HW149616   6.088   7.393   7.392
12381SOL    HW249617   6.157   7.289   7.498
12382SOL     OW49618   4.279   2.207   8.802
12382SOL    HW149619   4.332   2.236   8.722
12382SOL    HW249620   4.293   2.273   8.876
12383SOL     OW49621   1.066   6.302   8.298
12383SOL    HW149622   1.041   6.231   8.232
12383SOL    HW249623   1.002   6.379   8.290
12384SOL     OW49624   2.123   5.562   7.922
12384SOL    HW149625   2.157   5.651   7.951
12384SOL    HW249626   2.200   5.506   7.891
12385SOL     OW49627   4.173   6.450   8.515
12385SOL    HW149628   4.217   6.377   8.464
12385SOL    HW249629   4.144   6.522   8.453
12386SOL     OW49630   3.779   7.255   7.583
12386SOL    HW149631   3.729   7.169   7.571
12386SOL    HW249632   3.873   7.234   7.611
12387SOL     OW49633   2.321   3.901   7.802
12387SOL    HW149634   2.289   3.833   7.736
12387SOL    HW249635   2.358   3.980   7.753
12388SOL     OW49636   7.039   7.367   7.404
12388SOL    HW149637   6.987   7.405   7.480
12388SOL    HW249638   7.135   7.392   7.414
12389SOL     OW49639   5.862   1.339   8.910
12389SOL    HW149640   5.858   1.240   8.922
12389SOL    HW249641   5.788   1.382   8.961
12390SOL     OW49642   5.236   4.979   8.130
12390SOL    HW149643   5.330   4.981   8.164
12390SOL    HW249644   5.224   4.898   8.072
12391SOL     OW49645   5.328   2.788   8.361
12391SOL    HW149646   5.400   2.725   8.332
12391SOL    HW249647   5.283   2.827   8.281
12392SOL     OW49648   2.879   1.656   7.530
12392SOL    HW149649   2.967   1.635   7.489
12392SOL    HW249650   2.880   1.631   7.627
12393SOL     OW49651   3.690   6.416   8.467
12393SOL    HW149652   3.770   6.368   8.504
12393SOL    HW249653   3.631   6.351   8.419
12394SOL     OW49654   7.082   0.708   8.896
12394SOL    HW149655   7.073   0.633   8.963
12394SOL    HW249656   7.134   0.783   8.937
12395SOL     OW49657   4.782   4.399   7.496
12395SOL    HW149658   4.719   4.433   7.426
12395SOL    HW249659   4.855   4.467   7.511
12396SOL     OW49660   1.028   4.760   8.857
12396SOL    HW149661   0.945   4.774   8.803
12396SOL    HW249662   1.061   4.848   8.891
12397SOL     OW49663   5.683   1.259   7.785
12397SOL    HW149664   5.666   1.356   7.799
12397SOL    HW249665   5.764   1.231   7.835
12398SOL     OW49666   4.969   3.838   7.843
12398SOL    HW149667   4.984   3.914   7.780
12398SOL    HW249668   4.951   3.754   7.792
12399SOL     OW49669   2.531   6.884   8.462
12399SOL    HW149670   2.459   6.915   8.400
12399SOL    HW249671   2.494   6.815   8.524
12400SOL     OW49672   4.338   6.550   8.727
12400SOL    HW149673   4.429   6.517   8.703
12400SOL    HW249674   4.271   6.516   8.661
12401SOL     OW49675   5.726   5.605   8.110
12401SOL    HW149676   5.663   5.680   8.089
12401SOL    HW249677   5.674   5.525   8.137
12402SOL     OW49678   1.316   5.245   8.171
12402SOL    HW149679   1.416   5.254   8.172
12402SOL    HW249680   1.277   5.321   8.120
12403SOL     OW49681   2.852   4.538   7.609
12403SOL    HW149682   2.912   4.598   7.556
12403SOL    HW249683   2.772   4.513   7.554
12404SOL     OW49684   0.777   2.499   8.654
12404SOL    HW149685   0.698   2.552   8.684
12404SOL    HW249686   0.832   2.474   8.734
12405SOL     OW49687   6.071   0.299   8.879
12405SOL    HW149688   6.140   0.283   8.949
12405SOL    HW249689   6.108   0.358   8.808
12406SOL     OW49690   5.635   1.792   7.890
12406SOL    HW149691   5.653   1.872   7.832
12406SOL    HW249692   5.585   1.821   7.972
12407SOL     OW49693   6.751   7.209   7.654
12407SOL    HW149694   6.731   7.137   7.721
12407SOL    HW249695   6.666   7.257   7.631
12408SOL     OW49696   2.476   3.836   8.835
12408SOL    HW149697   2.488   3.792   8.746
12408SOL    HW249698   2.565   3.854   8.876
12409SOL     OW49699   5.480   2.844   8.947
12409SOL    HW149700   5.454   2.933   8.984
12409SOL    HW249701   5.523   2.789   0.019
12410SOL     OW49702   4.742   0.057   8.935
12410SOL    HW149703   4.781   0.124   8.998
12410SOL    HW249704   4.729   0.099   8.845
12411SOL     OW49705   2.578   5.650   8.464
12411SOL    HW149706   2.574   5.568   8.521
12411SOL    HW249707   2.517   5.720   8.501
12412SOL     OW49708   5.082   6.998   7.301
12412SOL    HW149709   5.022   7.055   7.245
12412SOL    HW249710   5.028   6.950   7.370
12413SOL     OW49711   4.263   2.484   8.260
12413SOL    HW149712   4.210   2.514   8.340
12413SOL    HW249713   4.344   2.541   8.251
12414SOL     OW49714   1.040   4.237   8.152
12414SOL    HW149715   1.037   4.315   8.214
12414SOL    HW249716   1.094   4.261   8.071
12415SOL     OW49717   6.021   4.246   7.423
12415SOL    HW149718   6.089   4.185   7.462
12415SOL    HW249719   6.045   4.266   7.328
12416SOL     OW49720   2.538   4.735   7.814
12416SOL    HW149721   2.548   4.786   7.729
12416SOL    HW249722   2.510   4.641   7.793
12417SOL     OW49723   6.049   3.200   8.824
12417SOL    HW149724   5.990   3.124   8.851
12417SOL    HW249725   6.040   3.274   8.891
12418SOL     OW49726   2.516   5.632   8.201
12418SOL    HW149727   2.542   5.629   8.298
12418SOL    HW249728   2.589   5.676   8.149
12419SOL     OW49729   0.215   5.052   8.117
12419SOL    HW149730   0.310   5.059   8.149
12419SOL    HW249731   0.156   5.031   8.195
12420SOL     OW49732   4.548   0.799   7.409
12420SOL    HW149733   4.605   0.880   7.423
12420SOL    HW249734   4.576   0.752   7.325
12421SOL     OW49735   2.334   4.870   7.529
12421SOL    HW149736   2.344   4.771   7.516
12421SOL    HW249737   2.421   4.907   7.563
12422SOL     OW49738   1.651   1.388   7.942
12422SOL    HW149739   1.629   1.301   7.899
12422SOL    HW249740   1.703   1.372   8.026
12423SOL     OW49741   6.101   3.685   8.223
12423SOL    HW149742   6.110   3.670   8.125
12423SOL    HW249743   6.191   3.682   8.266
12424SOL     OW49744   2.681   0.171   7.644
12424SOL    HW149745   2.637   0.133   7.725
12424SOL    HW249746   2.635   0.138   7.562
12425SOL     OW49747   1.396   4.088   7.949
12425SOL    HW149748   1.324   4.156   7.936
12425SOL    HW249749   1.483   4.125   7.915
12426SOL     OW49750   0.280   3.757   8.756
12426SOL    HW149751   0.291   3.756   8.657
12426SOL    HW249752   0.319   3.673   8.795
12427SOL     OW49753   1.239   0.810   8.503
12427SOL    HW149754   1.203   0.794   8.595
12427SOL    HW249755   1.254   0.722   8.457
12428SOL     OW49756   4.767   1.031   7.592
12428SOL    HW149757   4.757   1.096   7.516
12428SOL    HW249758   4.677   1.014   7.632
12429SOL     OW49759   1.542   0.064   7.658
12429SOL    HW149760   1.476   8.994   7.684
12429SOL    HW249761   1.493   0.143   7.619
12430SOL     OW49762   2.234   4.231   8.208
12430SOL    HW149763   2.208   4.274   8.294
12430SOL    HW249764   2.276   4.299   8.148
12431SOL     OW49765   2.855   2.094   8.067
12431SOL    HW149766   2.781   2.146   8.026
12431SOL    HW249767   2.938   2.149   8.070
12432SOL     OW49768   7.346   2.842   7.504
12432SOL    HW149769   7.348   2.846   7.404
12432SOL    HW249770   7.253   2.859   7.536
12433SOL     OW49771   2.918   1.944   0.141
12433SOL    HW149772   2.849   1.956   0.069
12433SOL    HW249773   2.931   1.847   0.158
12434SOL     OW49774   3.679   0.508   7.605
12434SOL    HW149775   3.770   0.467   7.617
12434SOL    HW249776   3.620   0.480   7.679
12435SOL     OW49777   1.620   4.711   0.115
12435SOL    HW149778   1.700   4.741   0.167
12435SOL    HW249779   1.650   4.682   0.023
12436SOL     OW49780   0.498   3.776   7.670
12436SOL    HW149781   0.589   3.795   7.707
12436SOL    HW249782   0.431   3.777   7.744
12437SOL     OW49783   7.161   6.774   8.321
12437SOL    HW149784   7.198   6.796   8.412
12437SOL    HW249785   7.220   6.812   8.251
12438SOL     OW49786   2.727   0.324   8.709
12438SOL    HW149787   2.813   0.362   8.743
12438SOL    HW249788   2.652   0.356   8.766
12439SOL     OW49789   2.483   5.929   8.766
12439SOL    HW149790   2.480   5.839   8.810
12439SOL    HW249791   2.442   5.997   8.826
12440SOL     OW49792   0.311   3.367   8.210
12440SOL    HW149793   0.335   3.378   8.307
12440SOL    HW249794   0.264   3.280   8.198
12441SOL     OW49795   3.754   2.216   8.441
12441SOL    HW149796   3.775   2.312   8.423
12441SOL    HW249797   3.783   2.161   8.363
12442SOL     OW49798   3.444   1.877   8.477
12442SOL    HW149799   3.361   1.869   8.422
12442SOL    HW249800   3.437   1.958   8.535
12443SOL     OW49801   7.121   3.271   8.430
12443SOL    HW149802   7.137   3.354   8.376
12443SOL    HW249803   7.206   3.219   8.438
12444SOL     OW49804   3.028   6.039   8.057
12444SOL    HW149805   3.053   5.998   8.145
12444SOL    HW249806   2.929   6.032   8.044
12445SOL     OW49807   5.972   5.534   7.989
12445SOL    HW149808   5.960   5.466   7.916
12445SOL    HW249809   5.882   5.561   8.025
12446SOL     OW49810   7.195   4.352   7.895
12446SOL    HW149811   7.221   4.307   7.810
12446SOL    HW249812   7.109   4.402   7.882
12447SOL     OW49813   2.496   5.673   8.873
12447SOL    HW149814   2.442   5.589   8.863
12447SOL    HW249815   2.593   5.652   8.858
12448SOL     OW49816   4.821   5.354   8.773
12448SOL    HW149817   4.834   5.277   8.711
12448SOL    HW249818   4.907   5.404   8.784
12449SOL     OW49819   5.614   3.677   8.608
12449SOL    HW149820   5.581   3.604   8.549
12449SOL    HW249821   5.713   3.684   8.601
12450SOL     OW49822   0.182   0.326   8.808
12450SOL    HW149823   0.199   0.419   8.775
12450SOL    HW249824   0.131   0.275   8.739
12451SOL     OW49825   4.430   0.040   8.691
12451SOL    HW149826   4.434   8.966   8.759
12451SOL    HW249827   4.355   0.102   8.714
12452SOL     OW49828   5.092   1.836   7.366
12452SOL    HW149829   5.095   1.817   7.268
12452SOL    HW249830   5.181   1.815   7.406
12453SOL     OW49831   2.252   1.495   8.217
12453SOL    HW149832   2.284   1.438   8.293
12453SOL    HW249833   2.175   1.551   8.247
12454SOL     OW49834   7.004   6.312   8.250
12454SOL    HW149835   7.001   6.225   8.300
12454SOL    HW249836   7.040   6.383   8.310
12455SOL     OW49837   1.819   0.686   8.273
12455SOL    HW149838   1.881   0.739   8.214
12455SOL    HW249839   1.724   0.709   8.250
12456SOL     OW49840   1.790   6.756   8.167
12456SOL    HW149841   1.844   6.690   8.220
12456SOL    HW249842   1.850   6.808   8.107
12457SOL     OW49843   1.977   5.453   7.443
12457SOL    HW149844   1.889   5.444   7.489
12457SOL    HW249845   2.022   5.536   7.475
12458SOL     OW49846   2.463   2.389   0.204
12458SOL    HW149847   2.378   2.338   0.220
12458SOL    HW249848   2.541   2.331   0.226
12459SOL     OW49849   3.273   5.688   8.759
12459SOL    HW149850   3.187   5.653   8.721
12459SOL    HW249851   3.310   5.759   8.698
12460SOL     OW49852   4.581   3.117   7.956
12460SOL    HW149853   4.675   3.148   7.969
12460SOL    HW249854   4.548   3.074   8.040
12461SOL     OW49855   5.956   6.729   8.686
12461SOL    HW149856   5.860   6.706   8.702
12461SOL    HW249857   5.972   6.743   8.589
12462SOL     OW49858   4.559   4.166   8.240
12462SOL    HW149859   4.487   4.143   8.305
12462SOL    HW249860   4.639   4.199   8.289
12463SOL     OW49861   4.141   1.720   8.256
12463SOL    HW149862   4.106   1.639   8.209
12463SOL    HW249863   4.149   1.701   8.354
12464SOL     OW49864   6.493   0.227   7.912
12464SOL    HW149865   6.429   0.297   7.943
12464SOL    HW249866   6.541   0.258   7.830
12465SOL     OW49867   1.049   1.333   7.879
12465SOL    HW149868   1.137   1.313   7.921
12465SOL    HW249869   1.063   1.368   7.786
12466SOL     OW49870   1.623   0.144   8.027
12466SOL    HW149871   1.680   0.103   7.956
12466SOL    HW249872   1.587   0.231   7.994
12467SOL     OW49873   2.503   6.738   7.962
12467SOL    HW149874   2.418   6.791   7.959
12467SOL    HW249875   2.564   6.768   7.889
12468SOL     OW49876   0.236   2.863   8.765
12468SOL    HW149877   0.273   2.786   8.817
12468SOL    HW249878   0.167   2.910   8.820
12469SOL     OW49879   1.030   6.122   8.082
12469SOL    HW149880   1.039   6.209   8.033
12469SOL    HW249881   0.992   6.053   8.020
12470SOL     OW49882   4.922   6.762   8.193
12470SOL    HW149883   4.830   6.767   8.231
12470SOL    HW249884   4.988   6.741   8.265
12471SOL     OW49885   1.029   2.323   8.232
12471SOL    HW149886   1.090   2.392   8.271
12471SOL    HW249887   1.067   2.290   8.146
12472SOL     OW49888   1.856   0.124   7.508
12472SOL    HW149889   1.818   0.057   7.444
12472SOL    HW249890   1.911   0.190   7.459
12473SOL     OW49891   4.845   3.000   8.776
12473SOL    HW149892   4.937   2.968   8.800
12473SOL    HW249893   4.848   3.050   8.689
12474SOL     OW49894   2.885   2.608   7.621
12474SOL    HW149895   2.917   2.528   7.570
12474SOL    HW249896   2.932   2.690   7.588
12475SOL     OW49897   1.378   2.624   7.601
12475SOL    HW149898   1.280   2.625   7.618
12475SOL    HW249899   1.411   2.529   7.597
12476SOL     OW49900   2.970   6.173   7.723
12476SOL    HW149901   3.050   6.179   7.783
12476SOL    HW249902   2.909   6.251   7.741
12477SOL     OW49903   6.389   6.879   7.653
12477SOL    HW149904   6.454   6.808   7.627
12477SOL    HW249905   6.297   6.853   7.624
12478SOL     OW49906   4.739   1.471   8.107
12478SOL    HW149907   4.643   1.500   8.101
12478SOL    HW249908   4.773   1.488   8.200
12479SOL     OW49909   6.100   0.932   7.764
12479SOL    HW149910   6.132   0.843   7.732
12479SOL    HW249911   6.179   0.990   7.783
12480SOL     OW49912   5.788   4.902   8.014
12480SOL    HW149913   5.799   4.993   7.974
12480SOL    HW249914   5.702   4.862   7.983
12481SOL     OW49915   7.089   2.358   7.451
12481SOL    HW149916   7.119   2.416   7.375
12481SOL    HW249917   7.016   2.297   7.420
12482SOL     OW49918   3.526   1.016   7.930
12482SOL    HW149919   3.557   1.054   7.843
12482SOL    HW249920   3.453   1.074   7.967
12483SOL     OW49921   1.777   6.603   8.660
12483SOL    HW149922   1.777   6.539   8.737
12483SOL    HW249923   1.796   6.553   8.576
12484SOL     OW49924   3.423   2.082   8.675
12484SOL    HW149925   3.518   2.053   8.667
12484SOL    HW249926   3.419   2.172   8.718
12485SOL     OW49927   0.723   3.169   8.167
12485SOL    HW149928   0.783   3.210   8.235
12485SOL    HW249929   0.662   3.239   8.130
12486SOL     OW49930   0.625   4.077   7.938
12486SOL    HW149931   0.678   4.159   7.959
12486SOL    HW249932   0.551   4.101   7.875
12487SOL     OW49933   5.222   0.541   7.583
12487SOL    HW149934   5.256   0.582   7.668
12487SOL    HW249935   5.299   0.527   7.521
12488SOL     OW49936   2.478   3.727   8.570
12488SOL    HW149937   2.409   3.663   8.602
12488SOL    HW249938   2.448   3.769   8.485
12489SOL     OW49939   6.341   0.902   8.161
12489SOL    HW149940   6.347   0.856   8.250
12489SOL    HW249941   6.275   0.977   8.168
12490SOL     OW49942   3.223   0.101   8.518
12490SOL    HW149943   3.192   0.196   8.528
12490SOL    HW249944   3.144   0.043   8.495
12491SOL     OW49945   3.320   1.726   7.590
12491SOL    HW149946   3.336   1.777   7.506
12491SOL    HW249947   3.311   1.790   7.667
12492SOL     OW49948   2.184   3.334   0.272
12492SOL    HW149949   2.161   3.317   0.368
12492SOL    HW249950   2.177   3.250   0.220
12493SOL     OW49951   1.601   1.144   7.783
12493SOL    HW149952   1.663   1.067   7.769
12493SOL    HW249953   1.508   1.111   7.797
12494SOL     OW49954   6.189   6.902   7.332
12494SOL    HW149955   6.109   6.920   7.389
12494SOL    HW249956   6.216   6.806   7.341
12495SOL     OW49957   4.726   6.368   8.131
12495SOL    HW149958   4.629   6.389   8.144
12495SOL    HW249959   4.760   6.319   8.212
12496SOL     OW49960   6.015   3.709   7.526
12496SOL    HW149961   5.973   3.783   7.579
12496SOL    HW249962   5.958   3.627   7.533
12497SOL     OW49963   6.398   1.364   8.849
12497SOL    HW149964   6.302   1.348   8.872
12497SOL    HW249965   6.415   1.462   8.840
12498SOL     OW49966   5.253   3.905   7.695
12498SOL    HW149967   5.171   3.960   7.677
12498SOL    HW249968   5.298   3.882   7.608
12499SOL     OW49969   0.921   4.763   7.469
12499SOL    HW149970   0.998   4.704   7.444
12499SOL    HW249971   0.847   4.752   7.402
12500SOL     OW49972   1.762   6.208   7.716
12500SOL    HW149973   1.801   6.138   7.656
12500SOL    HW249974   1.835   6.254   7.767
12501SOL     OW49975   6.008   3.368   7.389
12501SOL    HW149976   6.088   3.327   7.434
12501SOL    HW249977   5.949   3.410   7.458
12502SOL     OW49978   3.198   5.316   0.070
12502SOL    HW149979   3.193   5.337   0.167
12502SOL    HW249980   3.106   5.298   0.035
12503SOL     OW49981   6.618   1.588   8.407
12503SOL    HW149982   6.644   1.658   8.474
12503SOL    HW249983   6.518   1.579   8.405
12504SOL     OW49984   3.143   4.448   8.091
12504SOL    HW149985   3.139   4.537   8.137
12504SOL    HW249986   3.052   4.424   8.058
12505SOL     OW49987   6.098   6.310   8.763
12505SOL    HW149988   6.158   6.238   8.729
12505SOL    HW249989   6.010   6.271   8.789
12506SOL     OW49990   3.218   4.075   7.460
12506SOL    HW149991   3.247   4.019   7.537
12506SOL    HW249992   3.131   4.040   7.424
12507SOL     OW49993   2.262   4.340   7.646
12507SOL    HW149994   2.174   4.332   7.694
12507SOL    HW249995   2.245   4.369   7.551
12508SOL     OW49996   5.655   4.280   8.928
12508SOL    HW149997   5.698   4.228   0.001
12508SOL    HW249998   5.679   4.240   8.839
12509SOL     OW49999   4.772   6.001   7.691
12509SOL    HW150000   4.677   6.026   7.709
12509SOL    HW250001   4.814   5.970   7.776
12510SOL     OW50002   6.325   4.888   8.910
12510SOL    HW150003   6.237   4.904   8.955
12510SOL    HW250004   6.375   4.974   8.902
12511SOL     OW50005   1.896   2.092   7.664
12511SOL    HW150006   1.883   2.117   7.760
12511SOL    HW250007   1.911   1.993   7.658
12512SOL     OW50008   2.630   5.299   8.272
12512SOL    HW150009   2.707   5.362   8.279
12512SOL    HW250010   2.564   5.334   8.206
12513SOL     OW50011   5.264   6.869   8.712
12513SOL    HW150012   5.306   6.957   8.689
12513SOL    HW250013   5.203   6.881   8.791
12514SOL     OW50014   3.805   4.003   7.496
12514SOL    HW150015   3.774   3.918   7.537
12514SOL    HW250016   3.896   3.990   7.457
12515SOL     OW50017   0.042   1.726   7.632
12515SOL    HW150018   0.056   1.628   7.618
12515SOL    HW250019   0.027   1.744   7.730
12516SOL     OW50020   7.153   2.934   8.381
12516SOL    HW150021   7.192   2.844   8.365
12516SOL    HW250022   7.225   2.997   8.409
12517SOL     OW50023   4.092   3.688   7.772
12517SOL    HW150024   4.166   3.654   7.831
12517SOL    HW250025   4.127   3.700   7.679
12518SOL     OW50026   0.110   7.301   8.926
12518SOL    HW150027   0.039   7.297   8.856
12518SOL    HW250028   0.200   7.307   8.881
12519SOL     OW50029   1.615   3.407   7.733
12519SOL    HW150030   1.628   3.462   7.651
12519SOL    HW250031   1.526   3.361   7.728
12520SOL     OW50032   1.918   4.968   7.757
12520SOL    HW150033   1.901   5.062   7.728
12520SOL    HW250034   2.017   4.954   7.768
12521SOL     OW50035   2.738   3.491   7.668
12521SOL    HW150036   2.674   3.425   7.629
12521SOL    HW250037   2.797   3.446   7.735
12522SOL     OW50038   1.607   3.822   8.293
12522SOL    HW150039   1.662   3.890   8.341
12522SOL    HW250040   1.644   3.808   8.201
12523SOL     OW50041   5.071   3.681   8.772
12523SOL    HW150042   5.032   3.740   8.701
12523SOL    HW250043   5.170   3.676   8.761
12524SOL     OW50044   1.460   5.735   8.007
12524SOL    HW150045   1.487   5.828   7.982
12524SOL    HW250046   1.375   5.737   8.059
12525SOL     OW50047   0.563   2.491   7.614
12525SOL    HW150048   0.469   2.486   7.649
12525SOL    HW250049   0.580   2.583   7.578
12526SOL     OW50050   1.494   1.600   8.062
12526SOL    HW150051   1.527   1.523   8.009
12526SOL    HW250052   1.568   1.666   8.075
12527SOL     OW50053   0.783   4.035   8.565
12527SOL    HW150054   0.815   4.053   8.472
12527SOL    HW250055   0.861   4.008   8.622
12528SOL     OW50056   3.061   0.616   8.885
12528SOL    HW150057   3.014   0.692   8.839
12528SOL    HW250058   3.033   0.530   8.842
12529SOL     OW50059   6.851   4.897   7.947
12529SOL    HW150060   6.943   4.928   7.923
12529SOL    HW250061   6.856   4.805   7.986
12530SOL     OW50062   7.174   2.288   8.201
12530SOL    HW150063   7.103   2.276   8.132
12530SOL    HW250064   7.263   2.266   8.160
12531SOL     OW50065   6.310   6.046   7.446
12531SOL    HW150066   6.394   6.021   7.494
12531SOL    HW250067   6.245   5.970   7.451
12532SOL     OW50068   4.972   1.605   7.486
12532SOL    HW150069   5.017   1.693   7.477
12532SOL    HW250070   4.962   1.563   7.396
12533SOL     OW50071   0.031   6.672   7.829
12533SOL    HW150072   8.977   6.643   7.908
12533SOL    HW250073   8.970   6.704   7.757
12534SOL     OW50074   4.103   1.081   8.146
12534SOL    HW150075   4.063   1.118   8.230
12534SOL    HW250076   4.166   1.148   8.107
12535SOL     OW50077   1.679   4.611   8.301
12535SOL    HW150078   1.604   4.546   8.309
12535SOL    HW250079   1.663   4.689   8.362
12536SOL     OW50080   2.906   2.508   8.773
12536SOL    HW150081   2.958   2.436   8.727
12536SOL    HW250082   2.968   2.581   8.803
12537SOL     OW50083   1.454   4.352   7.665
12537SOL    HW150084   1.383   4.408   7.623
12537SOL    HW250085   1.429   4.255   7.655
12538SOL     OW50086   0.495   1.617   8.142
12538SOL    HW150087   0.543   1.701   8.166
12538SOL    HW250088   0.473   1.618   8.044
12539SOL     OW50089   0.867   3.138   8.591
12539SOL    HW150090   0.803   3.180   8.655
12539SOL    HW250091   0.944   3.099   8.642
12540SOL     OW50092   6.956   6.771   8.808
12540SOL    HW150093   6.923   6.808   8.895
12540SOL    HW250094   6.946   6.839   8.736
12541SOL     OW50095   2.431   2.415   8.615
12541SOL    HW150096   2.506   2.413   8.681
12541SOL    HW250097   2.413   2.322   8.582
12542SOL     OW50098   6.479   2.506   7.502
12542SOL    HW150099   6.433   2.459   7.427
12542SOL    HW250100   6.416   2.515   7.579
12543SOL     OW50101   6.245   1.743   8.136
12543SOL    HW150102   6.286   1.722   8.047
12543SOL    HW250103   6.294   1.692   8.208
12544SOL     OW50104   1.510   2.398   8.523
12544SOL    HW150105   1.529   2.443   8.435
12544SOL    HW250106   1.583   2.334   8.545
12545SOL     OW50107   6.547   0.388   8.207
12545SOL    HW150108   6.572   0.445   8.285
12545SOL    HW250109   6.596   0.301   8.212
12546SOL     OW50110   1.456   0.326   8.912
12546SOL    HW150111   1.451   0.227   8.929
12546SOL    HW250112   1.415   0.346   8.823
12547SOL     OW50113   1.748   4.663   8.875
12547SOL    HW150114   1.835   4.687   8.920
12547SOL    HW250115   1.762   4.656   8.776
12548SOL     OW50116   3.511   2.564   7.631
12548SOL    HW150117   3.497   2.638   7.564
12548SOL    HW250118   3.586   2.589   7.692
12549SOL     OW50119   7.258   6.297   7.376
12549SOL    HW150120   7.289   6.230   7.443
12549SOL    HW250121   7.309   6.382   7.388
12550SOL     OW50122   3.744   2.899   7.884
12550SOL    HW150123   3.810   2.948   7.941
12550SOL    HW250124   3.747   2.935   7.791
12551SOL     OW50125   5.682   6.404   8.832
12551SOL    HW150126   5.583   6.401   8.844
12551SOL    HW250127   5.709   6.494   8.797
12552SOL     OW50128   5.678   7.237   7.962
12552SOL    HW150129   5.620   7.220   7.882
12552SOL    HW250130   5.764   7.187   7.952
12553SOL     OW50131   4.310   6.580   7.762
12553SOL    HW150132   4.357   6.661   7.727
12553SOL    HW250133   4.308   6.583   7.862
12554SOL     OW50134   2.142   1.717   0.424
12554SOL    HW150135   2.099   1.790   0.478
12554SOL    HW250136   2.126   1.734   0.327
12555SOL     OW50137   2.853   3.553   8.782
12555SOL    HW150138   2.916   3.615   8.830
12555SOL    HW250139   2.817   3.597   8.701
12556SOL     OW50140   4.448   0.608   7.803
12556SOL    HW150141   4.546   0.622   7.819
12556SOL    HW250142   4.413   0.537   7.863
12557SOL     OW50143   6.137   2.751   8.642
12557SOL    HW150144   6.231   2.783   8.636
12557SOL    HW250145   6.128   2.688   8.719
12558SOL     OW50146   6.320   4.673   7.794
12558SOL    HW150147   6.259   4.699   7.720
12558SOL    HW250148   6.272   4.683   7.881
12559SOL     OW50149   1.999   3.483   7.828
12559SOL    HW150150   2.046   3.402   7.861
12559SOL    HW250151   1.909   3.490   7.870
12560SOL     OW50152   5.373   4.304   8.920
12560SOL    HW150153   5.469   4.291   8.943
12560SOL    HW250154   5.365   4.318   8.821
12561SOL     OW50155   3.091   1.773   7.943
12561SOL    HW150156   3.146   1.691   7.957
12561SOL    HW250157   3.056   1.806   8.031
12562SOL     OW50158   2.591   1.230   8.367
12562SOL    HW150159   2.664   1.298   8.360
12562SOL    HW250160   2.505   1.276   8.386
12563SOL     OW50161   2.553   2.790   8.353
12563SOL    HW150162   2.559   2.805   8.254
12563SOL    HW250163   2.496   2.862   8.395
12564SOL     OW50164   1.197   2.934   8.446
12564SOL    HW150165   1.265   3.004   8.467
12564SOL    HW250166   1.242   2.846   8.435
12565SOL     OW50167   2.259   2.806   8.194
12565SOL    HW150168   2.229   2.803   8.289
12565SOL    HW250169   2.179   2.820   8.135
12566SOL     OW50170   2.847   1.900   7.878
12566SOL    HW150171   2.848   1.978   7.940
12566SOL    HW250172   2.940   1.864   7.868
12567SOL     OW50173   1.299   7.141   8.339
12567SOL    HW150174   1.316   7.238   8.360
12567SOL    HW250175   1.362   7.084   8.392
12568SOL     OW50176   4.667   6.804   8.285
12568SOL    HW150177   4.710   6.869   8.348
12568SOL    HW250178   4.621   6.854   8.212
12569SOL     OW50179   3.547   5.082   8.541
12569SOL    HW150180   3.554   5.099   8.442
12569SOL    HW250181   3.621   5.022   8.570
12570SOL     OW50182   2.604   4.325   8.637
12570SOL    HW150183   2.575   4.238   8.599
12570SOL    HW250184   2.683   4.359   8.586
12571SOL     OW50185   1.526   5.581   7.547
12571SOL    HW150186   1.458   5.601   7.476
12571SOL    HW250187   1.540   5.662   7.603
12572SOL     OW50188   6.140   6.573   8.816
12572SOL    HW150189   6.128   6.477   8.791
12572SOL    HW250190   6.071   6.629   8.771
12573SOL     OW50191   0.440   6.065   8.536
12573SOL    HW150192   0.390   6.085   8.452
12573SOL    HW250193   0.376   6.040   8.608
12574SOL     OW50194   4.856   1.227   7.772
12574SOL    HW150195   4.780   1.291   7.786
12574SOL    HW250196   4.826   1.151   7.714
12575SOL     OW50197   1.971   3.757   7.811
12575SOL    HW150198   1.986   3.658   7.815
12575SOL    HW250199   1.973   3.795   7.903
12576SOL     OW50200   0.681   2.104   8.844
12576SOL    HW150201   0.756   2.100   8.779
12576SOL    HW250202   0.698   2.176   8.911
12577SOL     OW50203   4.477   1.535   8.078
12577SOL    HW150204   4.427   1.506   8.159
12577SOL    HW250205   4.416   1.533   7.998
12578SOL     OW50206   6.307   7.237   7.621
12578SOL    HW150207   6.391   7.288   7.600
12578SOL    HW250208   6.322   7.140   7.602
12579SOL     OW50209   4.055   6.006   8.060
12579SOL    HW150210   4.007   5.976   8.143
12579SOL    HW250211   4.092   6.098   8.075
12580SOL     OW50212   3.720   6.038   8.393
12580SOL    HW150213   3.654   6.108   8.367
12580SOL    HW250214   3.680   5.977   8.461
12581SOL     OW50215   0.112   3.897   7.504
12581SOL    HW150216   0.027   3.845   7.516
12581SOL    HW250217   0.148   3.881   7.412
12582SOL     OW50218   3.475   6.784   8.202
12582SOL    HW150219   3.452   6.812   8.295
12582SOL    HW250220   3.571   6.756   8.198
12583SOL     OW50221   2.779   3.283   8.712
12583SOL    HW150222   2.821   3.371   8.734
12583SOL    HW250223   2.681   3.297   8.693
12584SOL     OW50224   6.635   5.325   8.404
12584SOL    HW150225   6.586   5.376   8.475
12584SOL    HW250226   6.627   5.227   8.421
12585SOL     OW50227   5.509   7.184   7.439
12585SOL    HW150228   5.547   7.275   7.423
12585SOL    HW250229   5.545   7.121   7.371
12586SOL     OW50230   4.165   6.620   7.337
12586SOL    HW150231   4.231   6.651   7.268
12586SOL    HW250232   4.163   6.685   7.413
12587SOL     OW50233   1.911   2.782   8.130
12587SOL    HW150234   1.954   2.704   8.084
12587SOL    HW250235   1.852   2.830   8.065
12588SOL     OW50236   3.127   2.194   7.418
12588SOL    HW150237   3.137   2.117   7.355
12588SOL    HW250238   3.180   2.175   7.501
12589SOL     OW50239   5.058   7.235   8.508
12589SOL    HW150240   5.146   7.283   8.507
12589SOL    HW250241   5.069   7.145   8.466
12590SOL     OW50242   3.109   7.370   8.233
12590SOL    HW150243   3.148   7.278   8.224
12590SOL    HW250244   3.043   7.370   8.308
12591SOL     OW50245   1.607   3.952   7.548
12591SOL    HW150246   1.700   3.927   7.574
12591SOL    HW250247   1.553   3.869   7.532
12592SOL     OW50248   0.991   2.864   8.024
12592SOL    HW150249   0.894   2.871   8.047
12592SOL    HW250250   1.006   2.894   7.930
12593SOL     OW50251   3.734   0.639   8.708
12593SOL    HW150252   3.739   0.543   8.683
12593SOL    HW250253   3.709   0.693   8.627
12594SOL     OW50254   2.451   3.243   7.859
12594SOL    HW150255   2.525   3.186   7.894
12594SOL    HW250256   2.418   3.204   7.772
12595SOL     OW50257   4.661   0.688   8.547
12595SOL    HW150258   4.637   0.767   8.491
12595SOL    HW250259   4.657   0.605   8.492
12596SOL     OW50260   0.343   0.118   8.583
12596SOL    HW150261   0.420   0.056   8.598
12596SOL    HW250262   0.376   0.211   8.569
12597SOL     OW50263   1.501   2.940   7.953
12597SOL    HW150264   1.474   3.016   8.012
12597SOL    HW250265   1.600   2.932   7.952
12598SOL     OW50266   6.557   6.643   7.618
12598SOL    HW150267   6.524   6.577   7.686
12598SOL    HW250268   6.546   6.605   7.527
12599SOL     OW50269   3.332   5.211   8.641
12599SOL    HW150270   3.413   5.166   8.603
12599SOL    HW250271   3.346   5.228   8.739
12600SOL     OW50272   5.565   7.122   7.719
12600SOL    HW150273   5.536   7.150   7.627
12600SOL    HW250274   5.637   7.053   7.711
12601SOL     OW50275   0.054   1.456   7.625
12601SOL    HW150276   0.001   1.436   7.707
12601SOL    HW250277   0.139   1.403   7.626
12602SOL     OW50278   1.996   0.518   7.613
12602SOL    HW150279   1.916   0.575   7.596
12602SOL    HW250280   2.000   0.495   7.710
12603SOL     OW50281   2.406   3.113   7.613
12603SOL    HW150282   2.417   3.015   7.633
12603SOL    HW250283   2.325   3.126   7.556
12604SOL     OW50284   5.123   5.357   8.570
12604SOL    HW150285   5.102   5.414   8.649
12604SOL    HW250286   5.096   5.404   8.486
12605SOL     OW50287   5.684   4.560   8.924
12605SOL    HW150288   5.672   4.460   8.925
12605SOL    HW250289   5.748   4.587   8.996
12606SOL     OW50290   3.389   1.108   8.496
12606SOL    HW150291   3.451   1.156   8.433
12606SOL    HW250292   3.383   1.159   8.582
12607SOL     OW50293   1.911   1.486   8.690
12607SOL    HW150294   1.823   1.473   8.645
12607SOL    HW250295   1.898   1.537   8.775
12608SOL     OW50296   4.054   5.033   7.875
12608SOL    HW150297   3.957   5.037   7.899
12608SOL    HW250298   4.089   4.941   7.895
12609SOL     OW50299   5.759   3.333   8.568
12609SOL    HW150300   5.723   3.240   8.565
12609SOL    HW250301   5.701   3.393   8.514
12610SOL     OW50302   0.529   2.702   8.209
12610SOL    HW150303   0.542   2.609   8.245
12610SOL    HW250304   0.504   2.696   8.112
12611SOL     OW50305   1.980   3.022   7.646
12611SOL    HW150306   1.911   3.094   7.650
12611SOL    HW250307   1.935   2.932   7.650
12612SOL     OW50308   5.041   5.821   8.122
12612SOL    HW150309   5.128   5.773   8.109
12612SOL    HW250310   5.006   5.802   8.213
12613SOL     OW50311   1.630   6.831   8.670
12613SOL    HW150312   1.545   6.811   8.718
12613SOL    HW250313   1.684   6.748   8.661
12614SOL     OW50314   4.875   1.994   7.449
12614SOL    HW150315   4.954   1.941   7.418
12614SOL    HW250316   4.907   2.081   7.486
12615SOL     OW50317   6.293   0.430   7.900
12615SOL    HW150318   6.268   0.428   7.997
12615SOL    HW250319   6.211   0.429   7.844
12616SOL     OW50320   5.683   7.154   8.891
12616SOL    HW150321   5.769   7.145   8.941
12616SOL    HW250322   5.696   7.215   8.812
12617SOL     OW50323   3.155   0.299   7.864
12617SOL    HW150324   3.159   0.221   7.926
12617SOL    HW250325   3.155   0.384   7.917
12618SOL     OW50326   6.821   0.767   8.212
12618SOL    HW150327   6.803   0.812   8.124
12618SOL    HW250328   6.741   0.779   8.271
12619SOL     OW50329   7.254   7.306   7.787
12619SOL    HW150330   7.179   7.246   7.760
12619SOL    HW250331   7.243   7.332   7.883
12620SOL     OW50332   2.751   6.022   7.982
12620SOL    HW150333   2.703   6.105   8.009
12620SOL    HW250334   2.737   6.006   7.884
12621SOL     OW50335   6.080   3.627   7.962
12621SOL    HW150336   6.027   3.558   7.911
12621SOL    HW250337   6.096   3.706   7.903
12622SOL     OW50338   0.378   5.595   8.019
12622SOL    HW150339   0.425   5.671   7.973
12622SOL    HW250340   0.280   5.612   8.021
12623SOL     OW50341   2.408   6.196   8.854
12623SOL    HW150342   2.414   6.276   8.915
12623SOL    HW250343   2.452   6.218   8.767
12624SOL     OW50344   6.757   7.293   8.308
12624SOL    HW150345   6.712   7.215   8.265
12624SOL    HW250346   6.750   7.284   8.408
12625SOL     OW50347   0.445   4.355   7.926
12625SOL    HW150348   0.414   4.400   8.010
12625SOL    HW250349   0.526   4.402   7.891
12626SOL     OW50350   1.571   0.650   7.860
12626SOL    HW150351   1.633   0.706   7.915
12626SOL    HW250352   1.526   0.706   7.791
12627SOL     OW50353   1.597   0.929   8.703
12627SOL    HW150354   1.686   0.884   8.701
12627SOL    HW250355   1.568   0.941   8.798
12628SOL     OW50356   3.693   3.522   7.465
12628SOL    HW150357   3.752   3.548   7.388
12628SOL    HW250358   3.633   3.448   7.437
12629SOL     OW50359   3.389   7.387   0.001
12629SOL    HW150360   3.309   7.383   0.061
12629SOL    HW250361   3.361   7.376   8.906
12630SOL     OW50362   3.788   2.476   8.354
12630SOL    HW150363   3.845   2.434   8.284
12630SOL    HW250364   3.720   2.535   8.310
12631SOL     OW50365   7.339   6.881   8.133
12631SOL    HW150366   7.429   6.851   8.163
12631SOL    HW250367   7.332   6.871   8.033
12632SOL     OW50368   0.439   6.864   8.443
12632SOL    HW150369   0.431   6.963   8.457
12632SOL    HW250370   0.443   6.818   8.532
12633SOL     OW50371   0.186   1.047   7.656
12633SOL    HW150372   0.209   1.030   7.560
12633SOL    HW250373   0.238   0.985   7.714
12634SOL     OW50374   3.774   0.309   8.361
12634SOL    HW150375   3.781   0.348   8.453
12634SOL    HW250376   3.682   0.327   8.325
12635SOL     OW50377   2.078   2.310   7.985
12635SOL    HW150378   2.137   2.310   7.904
12635SOL    HW250379   2.005   2.242   7.972
12636SOL     OW50380   2.935   4.180   8.610
12636SOL    HW150381   2.891   4.093   8.587
12636SOL    HW250382   2.892   4.254   8.559
12637SOL     OW50383   1.935   4.540   8.228
12637SOL    HW150384   2.001   4.606   8.264
12637SOL    HW250385   1.843   4.564   8.258
12638SOL     OW50386   6.579   2.468   8.807
12638SOL    HW150387   6.661   2.412   8.793
12638SOL    HW250388   6.522   2.465   8.724
12639SOL     OW50389   2.958   0.842   8.742
12639SOL    HW150390   2.928   0.929   8.780
12639SOL    HW250391   3.027   0.858   8.672
12640SOL     OW50392   5.095   1.083   8.097
12640SOL    HW150393   5.101   1.036   8.008
12640SOL    HW250394   5.012   1.139   8.099
12641SOL     OW50395   0.373   1.976   8.224
12641SOL    HW150396   0.304   1.909   8.200
12641SOL    HW250397   0.463   1.932   8.223
12642SOL     OW50398   0.804   2.725   8.281
12642SOL    HW150399   0.836   2.813   8.314
12642SOL    HW250400   0.705   2.728   8.265
12643SOL     OW50401   7.234   8.915   8.336
12643SOL    HW150402   7.290   8.989   8.374
12643SOL    HW250403   7.179   8.951   8.261
12644SOL     OW50404   6.819   4.572   7.655
12644SOL    HW150405   6.805   4.475   7.675
12644SOL    HW250406   6.730   4.617   7.647
12645SOL     OW50407   3.361   3.104   7.325
12645SOL    HW150408   3.395   3.085   7.233
12645SOL    HW250409   3.282   3.046   7.345
12646SOL     OW50410   4.689   3.595   8.922
12646SOL    HW150411   4.622   3.582   8.996
12646SOL    HW250412   4.642   3.631   8.841
12647SOL     OW50413   2.849   5.003   8.645
12647SOL    HW150414   2.837   4.903   8.642
12647SOL    HW250415   2.836   5.040   8.553
12648SOL     OW50416   2.577   8.942   8.517
12648SOL    HW150417   2.569   8.906   8.424
12648SOL    HW250418   2.530   8.881   8.580
12649SOL     OW50419   7.074   2.869   7.549
12649SOL    HW150420   7.049   2.814   7.469
12649SOL    HW250421   7.031   2.830   7.630
12650SOL     OW50422   3.161   4.337   8.578
12650SOL    HW150423   3.125   4.412   8.522
12650SOL    HW250424   3.091   4.266   8.587
12651SOL     OW50425   3.040   7.020   8.863
12651SOL    HW150426   3.002   7.105   8.899
12651SOL    HW250427   3.116   6.990   8.921
12652SOL     OW50428   0.280   4.360   8.973
12652SOL    HW150429   0.189   4.375   8.934
12652SOL    HW250430   0.341   4.325   8.903
12653SOL     OW50431   6.107   2.030   8.482
12653SOL    HW150432   6.028   1.977   8.514
12653SOL    HW250433   6.113   2.024   8.383
12654SOL     OW50434   0.106   5.643   8.020
12654SOL    HW150435   0.012   5.646   7.987
12654SOL    HW250436   0.108   5.657   8.119
12655SOL     OW50437   4.406   3.948   7.513
12655SOL    HW150438   4.384   3.972   7.607
12655SOL    HW250439   4.504   3.926   7.506
12656SOL     OW50440   4.614   4.624   0.117
12656SOL    HW150441   4.585   4.682   0.193
12656SOL    HW250442   4.676   4.675   0.057
12657SOL     OW50443   3.066   2.903   8.717
12657SOL    HW150444   3.071   2.834   8.789
12657SOL    HW250445   3.039   2.860   8.631
12658SOL     OW50446   6.715   4.088   8.041
12658SOL    HW150447   6.743   4.151   8.113
12658SOL    HW250448   6.623   4.053   8.059
12659SOL     OW50449   1.702   1.780   8.073
12659SOL    HW150450   1.740   1.865   8.110
12659SOL    HW250451   1.713   1.779   7.974
12660SOL     OW50452   5.633   1.339   8.622
12660SOL    HW150453   5.568   1.278   8.577
12660SOL    HW250454   5.708   1.286   8.661
12661SOL     OW50455   2.567   0.084   7.408
12661SOL    HW150456   2.499   0.025   7.452
12661SOL    HW250457   2.521   0.149   7.347
12662SOL     OW50458   6.346   5.605   7.502
12662SOL    HW150459   6.376   5.605   7.407
12662SOL    HW250460   6.279   5.533   7.516
12663SOL     OW50461   3.004   5.002   7.591
12663SOL    HW150462   3.089   5.028   7.546
12663SOL    HW250463   3.022   4.927   7.655
12664SOL     OW50464   5.301   0.412   8.514
12664SOL    HW150465   5.307   0.402   8.414
12664SOL    HW250466   5.364   0.483   8.544
12665SOL     OW50467   4.895   6.213   7.960
12665SOL    HW150468   4.830   6.265   8.015
12665SOL    HW250469   4.932   6.271   7.888
12666SOL     OW50470   6.370   6.188   7.706
12666SOL    HW150471   6.435   6.117   7.680
12666SOL    HW250472   6.299   6.196   7.636
12667SOL     OW50473   5.195   1.420   8.528
12667SOL    HW150474   5.194   1.369   8.442
12667SOL    HW250475   5.208   1.356   8.604
12668SOL     OW50476   6.873   1.689   8.735
12668SOL    HW150477   6.804   1.719   8.669
12668SOL    HW250478   6.868   1.746   8.817
12669SOL     OW50479   3.082   3.428   7.466
12669SOL    HW150480   3.039   3.352   7.515
12669SOL    HW250481   3.176   3.439   7.497
12670SOL     OW50482   6.748   4.453   7.953
12670SOL    HW150483   6.754   4.391   7.875
12670SOL    HW250484   6.653   4.481   7.967
12671SOL     OW50485   6.608   5.065   8.520
12671SOL    HW150486   6.570   4.973   8.507
12671SOL    HW250487   6.698   5.058   8.564
12672SOL     OW50488   1.604   6.107   7.446
12672SOL    HW150489   1.559   6.158   7.519
12672SOL    HW250490   1.547   6.030   7.418
12673SOL     OW50491   3.110   3.099   0.061
12673SOL    HW150492   3.077   3.160   0.133
12673SOL    HW250493   3.052   3.108   8.980
12674SOL     OW50494   4.809   1.489   8.377
12674SOL    HW150495   4.758   1.413   8.417
12674SOL    HW250496   4.867   1.531   8.446
12675SOL     OW50497   5.662   1.467   0.044
12675SOL    HW150498   5.600   1.451   0.121
12675SOL    HW250499   5.608   1.492   8.963
12676SOL     OW50500   2.590   0.603   8.282
12676SOL    HW150501   2.552   0.553   8.203
12676SOL    HW250502   2.601   0.540   8.359
12677SOL     OW50503   0.206   0.657   7.810
12677SOL    HW150504   0.220   0.570   7.858
12677SOL    HW250505   0.245   0.732   7.865
12678SOL     OW50506   5.548   2.595   8.492
12678SOL    HW150507   5.634   2.644   8.478
12678SOL    HW250508   5.516   2.610   8.586
12679SOL     OW50509   3.560   1.351   7.914
12679SOL    HW150510   3.487   1.298   7.958
12679SOL    HW250511   3.519   1.419   7.853
12680SOL     OW50512   3.630   3.265   8.772
12680SOL    HW150513   3.558   3.331   8.753
12680SOL    HW250514   3.590   3.174   8.782
12681SOL     OW50515   0.387   7.148   8.019
12681SOL    HW150516   0.479   7.183   8.038
12681SOL    HW250517   0.372   7.147   7.920
12682SOL     OW50518   2.771   4.742   8.645
12682SOL    HW150519   2.795   4.667   8.707
12682SOL    HW250520   2.713   4.707   8.572
12683SOL     OW50521   4.353   1.158   8.493
12683SOL    HW150522   4.419   1.208   8.436
12683SOL    HW250523   4.332   1.071   8.449
12684SOL     OW50524   5.311   4.703   8.436
12684SOL    HW150525   5.403   4.727   8.404
12684SOL    HW250526   5.317   4.660   8.526
12685SOL     OW50527   0.082   0.190   8.553
12685SOL    HW150528   0.177   0.161   8.568
12685SOL    HW250529   0.044   0.139   8.476
12686SOL     OW50530   1.266   6.149   7.597
12686SOL    HW150531   1.351   6.199   7.614
12686SOL    HW250532   1.280   6.052   7.620
12687SOL     OW50533   6.386   0.970   8.829
12687SOL    HW150534   6.425   1.057   8.798
12687SOL    HW250535   6.327   0.986   8.908
12688SOL     OW50536   2.936   2.387   7.462
12688SOL    HW150537   3.008   2.319   7.446
12688SOL    HW250538   2.910   2.428   7.374
12689SOL     OW50539   6.234   5.580   8.032
12689SOL    HW150540   6.135   5.567   8.019
12689SOL    HW250541   6.269   5.640   7.960
12690SOL     OW50542   2.200   7.234   8.356
12690SOL    HW150543   2.121   7.184   8.391
12690SOL    HW250544   2.237   7.293   8.428
12691SOL     OW50545   1.861   1.614   8.923
12691SOL    HW150546   1.857   1.707   8.886
12691SOL    HW250547   1.893   1.618   0.018
12692SOL     OW50548   2.329   3.316   8.099
12692SOL    HW150549   2.381   3.276   8.024
12692SOL    HW250550   2.313   3.246   8.169
12693SOL     OW50551   6.684   7.023   8.875
12693SOL    HW150552   6.710   7.119   8.871
12693SOL    HW250553   6.747   6.974   8.936
12694SOL     OW50554   6.742   2.449   7.511
12694SOL    HW150555   6.778   2.495   7.430
12694SOL    HW250556   6.642   2.457   7.513
12695SOL     OW50557   1.826   0.420   8.091
12695SOL    HW150558   1.726   0.416   8.093
12695SOL    HW250559   1.862   0.411   8.184
12696SOL     OW50560   2.274   6.496   8.325
12696SOL    HW150561   2.288   6.502   8.424
12696SOL    HW250562   2.353   6.535   8.278
12697SOL     OW50563   2.999   2.866   7.566
12697SOL    HW150564   3.053   2.921   7.630
12697SOL    HW250565   3.030   2.885   7.473
12698SOL     OW50566   1.336   3.580   7.907
12698SOL    HW150567   1.327   3.568   7.808
12698SOL    HW250568   1.377   3.669   7.926
12699SOL     OW50569   3.919   2.314   8.173
12699SOL    HW150570   4.012   2.312   8.138
12699SOL    HW250571   3.882   2.221   8.177
12700SOL     OW50572   6.488   1.903   8.819
12700SOL    HW150573   6.432   1.922   8.739
12700SOL    HW250574   6.581   1.936   8.803
12701SOL     OW50575   1.822   2.802   7.690
12701SOL    HW150576   1.725   2.815   7.670
12701SOL    HW250577   1.839   2.705   7.712
12702SOL     OW50578   3.926   3.720   8.954
12702SOL    HW150579   4.016   3.759   8.937
12702SOL    HW250580   3.869   3.786   0.003
12703SOL     OW50581   2.714   5.761   8.061
12703SOL    HW150582   2.781   5.708   8.009
12703SOL    HW250583   2.726   5.859   8.040
12704SOL     OW50584   2.558   1.709   8.469
12704SOL    HW150585   2.518   1.646   8.536
12704SOL    HW250586   2.493   1.725   8.395
12705SOL     OW50587   4.465   0.115   7.561
12705SOL    HW150588   4.429   0.072   7.478
12705SOL    HW250589   4.392   0.163   7.608
12706SOL     OW50590   0.405   4.133   7.771
12706SOL    HW150591   0.404   4.222   7.817
12706SOL    HW250592   0.312   4.095   7.770
12707SOL     OW50593   3.650   6.038   7.747
12707SOL    HW150594   3.649   5.952   7.695
12707SOL    HW250595   3.742   6.057   7.779
12708SOL     OW50596   2.392   3.471   8.864
12708SOL    HW150597   2.482   3.494   8.902
12708SOL    HW250598   2.323   3.481   8.936
12709SOL     OW50599   4.287   3.638   7.967
12709SOL    HW150600   4.370   3.686   7.941
12709SOL    HW250601   4.256   3.671   8.056
12710SOL     OW50602   4.772   4.233   8.399
12710SOL    HW150603   4.826   4.317   8.402
12710SOL    HW250604   4.789   4.179   8.482
12711SOL     OW50605   7.392   3.236   7.406
12711SOL    HW150606   7.403   3.320   7.354
12711SOL    HW250607   7.295   3.213   7.413
12712SOL     OW50608   0.021   1.196   7.350
12712SOL    HW150609   0.054   1.197   7.255
12712SOL    HW250610   0.083   1.142   7.406
12713SOL     OW50611   1.275   1.724   8.735
12713SOL    HW150612   1.307   1.738   8.642
12713SOL    HW250613   1.176   1.712   8.735
12714SOL     OW50614   5.991   5.606   7.421
12714SOL    HW150615   6.043   5.527   7.456
12714SOL    HW250616   5.918   5.573   7.362
12715SOL     OW50617   2.682   3.132   7.567
12715SOL    HW150618   2.583   3.144   7.574
12715SOL    HW250619   2.711   3.058   7.627
12716SOL     OW50620   1.718   4.134   0.003
12716SOL    HW150621   1.665   4.080   0.068
12716SOL    HW250622   1.736   4.081   8.920
12717SOL     OW50623   3.910   0.824   8.832
12717SOL    HW150624   3.914   0.892   8.759
12717SOL    HW250625   3.853   0.747   8.804
12718SOL     OW50626   0.430   0.109   8.212
12718SOL    HW150627   0.364   0.175   8.247
12718SOL    HW250628   0.393   0.016   8.219
12719SOL     OW50629   5.009   4.566   7.558
12719SOL    HW150630   5.047   4.488   7.607
12719SOL    HW250631   5.079   4.606   7.498
12720SOL     OW50632   5.189   0.759   8.621
12720SOL    HW150633   5.221   0.839   8.571
12720SOL    HW250634   5.089   0.756   8.617
12721SOL     OW50635   0.736   7.279   7.435
12721SOL    HW150636   0.812   7.298   7.496
12721SOL    HW250637   0.742   7.338   7.355
12722SOL     OW50638   1.524   1.944   7.802
12722SOL    HW150639   1.603   1.883   7.793
12722SOL    HW250640   1.555   2.032   7.838
12723SOL     OW50641   1.772   4.624   8.608
12723SOL    HW150642   1.726   4.698   8.559
12723SOL    HW250643   1.724   4.538   8.592
12724SOL     OW50644   1.712   6.560   7.503
12724SOL    HW150645   1.692   6.486   7.439
12724SOL    HW250646   1.807   6.554   7.533
12725SOL     OW50647   7.008   7.590   0.614
12725SOL    HW150648   7.004   7.594   0.714
12725SOL    HW250649   6.993   7.496   0.584
12726SOL     OW50650   2.453   7.646   7.309
12726SOL    HW150651   2.549   7.653   7.282
12726SOL    HW250652   2.439   7.694   7.395
12727SOL     OW50653   1.188   8.348   0.972
12727SOL    HW150654   1.215   8.283   1.043
12727SOL    HW250655   1.140   8.299   0.899
12728SOL     OW50656   4.356   7.722   6.651
12728SOL    HW150657   4.432   7.659   6.632
12728SOL    HW250658   4.355   7.744   6.748
12729SOL     OW50659   5.917   8.852   2.409
12729SOL    HW150660   5.930   8.782   2.479
12729SOL    HW250661   5.952   8.819   2.321
12730SOL     OW50662   7.186   8.559   1.368
12730SOL    HW150663   7.171   8.652   1.403
12730SOL    HW250664   7.126   8.543   1.290
12731SOL     OW50665   0.732   7.592   5.213
12731SOL    HW150666   0.658   7.625   5.270
12731SOL    HW250667   0.731   7.640   5.125
12732SOL     OW50668   7.005   8.663   0.356
12732SOL    HW150669   7.059   8.645   0.274
12732SOL    HW250670   7.061   8.712   0.422
12733SOL     OW50671   1.001   8.472   3.387
12733SOL    HW150672   1.025   8.417   3.467
12733SOL    HW250673   1.085   8.500   3.339
12734SOL     OW50674   3.026   7.579   4.180
12734SOL    HW150675   3.050   7.639   4.105
12734SOL    HW250676   3.108   7.537   4.218
12735SOL     OW50677   0.679   8.048   5.891
12735SOL    HW150678   0.698   8.146   5.897
12735SOL    HW250679   0.601   8.024   5.949
12736SOL     OW50680   6.961   7.555   7.031
12736SOL    HW150681   6.927   7.628   6.972
12736SOL    HW250682   7.059   7.565   7.044
12737SOL     OW50683   6.033   8.333   2.674
12737SOL    HW150684   6.124   8.335   2.716
12737SOL    HW250685   6.042   8.336   2.575
12738SOL     OW50686   3.974   8.436   2.094
12738SOL    HW150687   4.018   8.524   2.112
12738SOL    HW250688   3.876   8.444   2.112
12739SOL     OW50689   2.224   8.756   7.002
12739SOL    HW150690   2.148   8.790   6.947
12739SOL    HW250691   2.303   8.737   6.944
12740SOL     OW50692   5.990   7.861   4.373
12740SOL    HW150693   5.942   7.851   4.286
12740SOL    HW250694   6.007   7.770   4.412
12741SOL     OW50695   5.344   8.430   6.749
12741SOL    HW150696   5.249   8.461   6.738
12741SOL    HW250697   5.403   8.510   6.758
12742SOL     OW50698   4.147   8.180   0.718
12742SOL    HW150699   4.224   8.203   0.778
12742SOL    HW250700   4.088   8.261   0.706
12743SOL     OW50701   5.934   7.742   6.558
12743SOL    HW150702   5.956   7.647   6.579
12743SOL    HW250703   5.940   7.797   6.642
12744SOL     OW50704   6.722   7.509   0.810
12744SOL    HW150705   6.704   7.470   0.720
12744SOL    HW250706   6.730   7.435   0.877
12745SOL     OW50707   4.754   8.730   3.396
12745SOL    HW150708   4.749   8.678   3.482
12745SOL    HW250709   4.743   8.667   3.319
12746SOL     OW50710   5.838   8.368   1.507
12746SOL    HW150711   5.917   8.308   1.503
12746SOL    HW250712   5.796   8.362   1.597
12747SOL     OW50713   2.574   7.762   1.124
12747SOL    HW150714   2.643   7.734   1.190
12747SOL    HW250715   2.484   7.728   1.153
12748SOL     OW50716   4.002   8.048   3.348
12748SOL    HW150717   4.061   8.099   3.286
12748SOL    HW250718   3.992   7.954   3.316
12749SOL     OW50719   4.048   7.480   0.403
12749SOL    HW150720   4.057   7.389   0.363
12749SOL    HW250721   4.000   7.473   0.490
12750SOL     OW50722   5.471   7.469   2.584
12750SOL    HW150723   5.529   7.400   2.626
12750SOL    HW250724   5.527   7.534   2.533
12751SOL     OW50725   7.048   8.644   6.954
12751SOL    HW150726   7.040   8.744   6.948
12751SOL    HW250727   7.078   8.619   7.046
12752SOL     OW50728   1.851   8.657   0.786
12752SOL    HW150729   1.868   8.657   0.884
12752SOL    HW250730   1.936   8.679   0.737
12753SOL     OW50731   1.891   7.835   3.068
12753SOL    HW150732   1.987   7.810   3.079
12753SOL    HW250733   1.833   7.764   3.107
12754SOL     OW50734   1.874   8.832   0.222
12754SOL    HW150735   1.882   8.828   0.322
12754SOL    HW250736   1.956   8.794   0.180
12755SOL     OW50737   8.959   7.915   1.151
12755SOL    HW150738   8.872   7.923   1.199
12755SOL    HW250739   8.963   7.828   1.103
12756SOL     OW50740   5.518   8.147   1.599
12756SOL    HW150741   5.490   8.148   1.694
12756SOL    HW250742   5.546   8.054   1.573
12757SOL     OW50743   5.243   8.257   7.214
12757SOL    HW150744   5.155   8.211   7.206
12757SOL    HW250745   5.290   8.256   7.126
12758SOL     OW50746   3.125   8.367   1.288
12758SOL    HW150747   3.199   8.362   1.222
12758SOL    HW250748   3.076   8.454   1.277
12759SOL     OW50749   5.918   8.196   0.876
12759SOL    HW150750   5.912   8.231   0.782
12759SOL    HW250751   5.918   8.096   0.874
12760SOL     OW50752   6.728   8.441   6.699
12760SOL    HW150753   6.668   8.514   6.731
12760SOL    HW250754   6.805   8.432   6.762
12761SOL     OW50755   0.349   7.706   2.294
12761SOL    HW150756   0.418   7.760   2.245
12761SOL    HW250757   0.261   7.716   2.248
12762SOL     OW50758   4.923   8.343   3.171
12762SOL    HW150759   5.022   8.332   3.175
12762SOL    HW250760   4.885   8.337   3.264
12763SOL     OW50761   0.909   7.559   0.852
12763SOL    HW150762   0.899   7.555   0.951
12763SOL    HW250763   0.928   7.468   0.816
12764SOL     OW50764   5.685   8.439   0.183
12764SOL    HW150765   5.694   8.514   0.249
12764SOL    HW250766   5.749   8.366   0.207
12765SOL     OW50767   1.554   7.777   6.458
12765SOL    HW150768   1.461   7.748   6.438
12765SOL    HW250769   1.562   7.798   6.555
12766SOL     OW50770   0.600   7.915   2.577
12766SOL    HW150771   0.595   8.015   2.585
12766SOL    HW250772   0.623   7.875   2.666
12767SOL     OW50773   1.527   8.225   2.183
12767SOL    HW150774   1.445   8.188   2.227
12767SOL    HW250775   1.526   8.200   2.086
12768SOL     OW50776   3.015   7.489   2.530
12768SOL    HW150777   3.023   7.410   2.469
12768SOL    HW250778   2.964   7.463   2.612
12769SOL     OW50779   6.746   8.254   0.611
12769SOL    HW150780   6.765   8.189   0.538
12769SOL    HW250781   6.781   8.344   0.585
12770SOL     OW50782   6.757   0.047   2.685
12770SOL    HW150783   6.817   0.127   2.687
12770SOL    HW250784   6.753   0.006   2.776
12771SOL     OW50785   4.360   8.412   4.879
12771SOL    HW150786   4.291   8.350   4.917
12771SOL    HW250787   4.445   8.362   4.864
12772SOL     OW50788   5.666   7.632   2.474
12772SOL    HW150789   5.742   7.590   2.425
12772SOL    HW250790   5.700   7.672   2.560
12773SOL     OW50791   3.986   8.803   3.441
12773SOL    HW150792   4.027   8.734   3.500
12773SOL    HW250793   3.887   8.787   3.435
12774SOL     OW50794   7.192   7.903   2.457
12774SOL    HW150795   7.095   7.927   2.467
12774SOL    HW250796   7.207   7.812   2.496
12775SOL     OW50797   5.265   8.171   3.658
12775SOL    HW150798   5.269   8.148   3.755
12775SOL    HW250799   5.179   8.136   3.620
12776SOL     OW50800   4.258   7.748   1.002
12776SOL    HW150801   4.210   7.757   0.914
12776SOL    HW250802   4.271   7.651   1.022
12777SOL     OW50803   6.257   8.177   5.414
12777SOL    HW150804   6.200   8.221   5.345
12777SOL    HW250805   6.339   8.139   5.371
12778SOL     OW50806   0.099   8.308   5.661
12778SOL    HW150807   0.116   8.378   5.592
12778SOL    HW250808   0.183   8.257   5.678
12779SOL     OW50809   2.217   7.507   0.031
12779SOL    HW150810   2.289   7.569   0.063
12779SOL    HW250811   2.129   7.553   0.034
12780SOL     OW50812   1.219   8.614   0.920
12780SOL    HW150813   1.222   8.517   0.944
12780SOL    HW250814   1.126   8.649   0.935
12781SOL     OW50815   3.687   7.700   3.311
12781SOL    HW150816   3.673   7.705   3.410
12781SOL    HW250817   3.611   7.745   3.264
12782SOL     OW50818   5.552   7.405   0.999
12782SOL    HW150819   5.618   7.400   1.074
12782SOL    HW250820   5.593   7.454   0.923
12783SOL     OW50821   0.318   8.154   6.127
12783SOL    HW150822   0.303   8.058   6.102
12783SOL    HW250823   0.232   8.194   6.158
12784SOL     OW50824   2.847   8.642   6.609
12784SOL    HW150825   2.898   8.660   6.693
12784SOL    HW250826   2.893   8.685   6.532
12785SOL     OW50827   2.538   8.447   2.056
12785SOL    HW150828   2.590   8.362   2.053
12785SOL    HW250829   2.542   8.485   2.148
12786SOL     OW50830   2.650   8.799   7.193
12786SOL    HW150831   2.723   8.788   7.260
12786SOL    HW250832   2.562   8.780   7.237
12787SOL     OW50833   7.035   8.489   1.149
12787SOL    HW150834   7.030   8.421   1.076
12787SOL    HW250835   7.044   8.580   1.110
12788SOL     OW50836   3.761   7.706   1.316
12788SOL    HW150837   3.731   7.616   1.346
12788SOL    HW250838   3.853   7.724   1.350
12789SOL     OW50839   5.908   8.353   4.837
12789SOL    HW150840   5.948   8.261   4.848
12789SOL    HW250841   5.810   8.344   4.820
12790SOL     OW50842   4.871   7.368   3.472
12790SOL    HW150843   4.844   7.450   3.421
12790SOL    HW250844   4.864   7.288   3.412
12791SOL     OW50845   6.361   7.754   5.873
12791SOL    HW150846   6.321   7.767   5.964
12791SOL    HW250847   6.442   7.812   5.863
12792SOL     OW50848   6.620   7.847   1.064
12792SOL    HW150849   6.703   7.822   1.114
12792SOL    HW250850   6.609   7.946   1.067
12793SOL     OW50851   4.234   7.648   0.294
12793SOL    HW150852   4.156   7.597   0.331
12793SOL    HW250853   4.201   7.718   0.231
12794SOL     OW50854   0.598   8.025   0.891
12794SOL    HW150855   0.578   8.119   0.918
12794SOL    HW250856   0.529   7.993   0.826
12795SOL     OW50857   5.477   8.287   3.274
12795SOL    HW150858   5.554   8.265   3.214
12795SOL    HW250859   5.465   8.214   3.341
12796SOL     OW50860   1.520   8.103   0.830
12796SOL    HW150861   1.432   8.128   0.788
12796SOL    HW250862   1.595   8.133   0.770
12797SOL     OW50863   2.210   7.465   6.794
12797SOL    HW150864   2.241   7.381   6.748
12797SOL    HW250865   2.237   7.461   6.890
12798SOL     OW50866   4.562   8.357   0.324
12798SOL    HW150867   4.482   8.297   0.333
12798SOL    HW250868   4.549   8.437   0.382
12799SOL     OW50869   6.001   0.048   0.009
12799SOL    HW150870   5.984   8.991   8.928
12799SOL    HW250871   6.003   0.145   8.981
12800SOL     OW50872   4.137   8.207   2.074
12800SOL    HW150873   4.206   8.198   2.146
12800SOL    HW250874   4.079   8.286   2.093
12801SOL     OW50875   1.147   7.474   5.517
12801SOL    HW150876   1.060   7.478   5.467
12801SOL    HW250877   1.201   7.396   5.484
12802SOL     OW50878   6.806   7.904   7.075
12802SOL    HW150879   6.756   7.835   7.129
12802SOL    HW250880   6.904   7.892   7.088
12803SOL     OW50881   4.270   8.899   5.874
12803SOL    HW150882   4.254   8.996   5.890
12803SOL    HW250883   4.344   8.867   5.933
12804SOL     OW50884   0.696   7.618   5.952
12804SOL    HW150885   0.755   7.699   5.950
12804SOL    HW250886   0.601   7.647   5.968
12805SOL     OW50887   3.369   7.858   1.178
12805SOL    HW150888   3.429   7.894   1.106
12805SOL    HW250889   3.410   7.776   1.218
12806SOL     OW50890   6.202   8.572   0.642
12806SOL    HW150891   6.214   8.546   0.738
12806SOL    HW250892   6.253   8.509   0.584
12807SOL     OW50893   2.038   7.471   2.811
12807SOL    HW150894   1.944   7.473   2.846
12807SOL    HW250895   2.102   7.489   2.885
12808SOL     OW50896   3.138   7.731   2.989
12808SOL    HW150897   3.052   7.768   2.954
12808SOL    HW250898   3.165   7.652   2.933
12809SOL     OW50899   4.392   7.555   6.324
12809SOL    HW150900   4.293   7.563   6.317
12809SOL    HW250901   4.425   7.612   6.400
12810SOL     OW50902   4.696   8.807   6.854
12810SOL    HW150903   4.682   8.840   6.947
12810SOL    HW250904   4.793   8.818   6.829
12811SOL     OW50905   4.695   8.797   0.472
12811SOL    HW150906   4.719   8.829   0.563
12811SOL    HW250907   4.684   8.875   0.411
12812SOL     OW50908   2.575   8.752   6.072
12812SOL    HW150909   2.536   8.840   6.046
12812SOL    HW250910   2.524   8.678   6.028
12813SOL     OW50911   5.174   7.909   1.499
12813SOL    HW150912   5.121   7.826   1.477
12813SOL    HW250913   5.186   7.962   1.415
12814SOL     OW50914   4.872   7.910   0.452
12814SOL    HW150915   4.808   7.975   0.413
12814SOL    HW250916   4.950   7.959   0.491
12815SOL     OW50917   5.217   8.755   7.243
12815SOL    HW150918   5.147   8.819   7.211
12815SOL    HW250919   5.263   8.714   7.164
12816SOL     OW50920   6.842   0.065   4.027
12816SOL    HW150921   6.868   0.024   3.939
12816SOL    HW250922   6.744   0.088   4.026
12817SOL     OW50923   3.170   7.520   2.815
12817SOL    HW150924   3.225   7.474   2.745
12817SOL    HW250925   3.073   7.504   2.797
12818SOL     OW50926   4.188   7.920   4.077
12818SOL    HW150927   4.165   7.923   3.980
12818SOL    HW250928   4.118   7.968   4.130
12819SOL     OW50929   1.041   8.329   3.620
12819SOL    HW150930   1.065   8.386   3.698
12819SOL    HW250931   0.952   8.285   3.636
12820SOL     OW50932   3.102   8.424   4.753
12820SOL    HW150933   3.019   8.479   4.748
12820SOL    HW250934   3.148   8.440   4.840
12821SOL     OW50935   3.874   0.121   4.964
12821SOL    HW150936   3.788   0.083   4.931
12821SOL    HW250937   3.862   0.157   5.057
12822SOL     OW50938   5.671   7.761   3.728
12822SOL    HW150939   5.725   7.737   3.647
12822SOL    HW250940   5.575   7.769   3.702
12823SOL     OW50941   0.871   7.410   5.939
12823SOL    HW150942   0.802   7.482   5.946
12823SOL    HW250943   0.934   7.432   5.865
12824SOL     OW50944   4.132   8.881   3.846
12824SOL    HW150945   4.103   8.787   3.863
12824SOL    HW250946   4.148   8.927   3.934
12825SOL     OW50947   6.896   8.847   1.991
12825SOL    HW150948   6.831   8.770   1.985
12825SOL    HW250949   6.986   8.812   2.015
12826SOL     OW50950   3.366   7.776   3.878
12826SOL    HW150951   3.386   7.868   3.911
12826SOL    HW250952   3.433   7.712   3.916
12827SOL     OW50953   4.230   0.179   6.853
12827SOL    HW150954   4.135   0.149   6.848
12827SOL    HW250955   4.282   0.139   6.777
12828SOL     OW50956   0.380   8.565   3.446
12828SOL    HW150957   0.414   8.501   3.376
12828SOL    HW250958   0.284   8.585   3.428
12829SOL     OW50959   4.111   8.561   4.207
12829SOL    HW150960   4.095   8.463   4.197
12829SOL    HW250961   4.206   8.582   4.184
12830SOL     OW50962   4.853   7.937   2.576
12830SOL    HW150963   4.883   7.978   2.490
12830SOL    HW250964   4.758   7.906   2.567
12831SOL     OW50965   0.324   8.140   5.715
12831SOL    HW150966   0.403   8.088   5.683
12831SOL    HW250967   0.353   8.204   5.786
12832SOL     OW50968   0.781   8.746   0.197
12832SOL    HW150969   0.763   8.779   0.289
12832SOL    HW250970   0.778   8.646   0.196
12833SOL     OW50971   4.238   7.793   3.304
12833SOL    HW150972   4.142   7.783   3.279
12833SOL    HW250973   4.277   7.704   3.324
12834SOL     OW50974   2.306   7.683   6.657
12834SOL    HW150975   2.236   7.697   6.588
12834SOL    HW250976   2.281   7.606   6.716
12835SOL     OW50977   2.138   8.224   2.004
12835SOL    HW150978   2.133   8.253   1.908
12835SOL    HW250979   2.118   8.302   2.063
12836SOL     OW50980   5.584   8.597   5.229
12836SOL    HW150981   5.566   8.543   5.147
12836SOL    HW250982   5.511   8.581   5.296
12837SOL     OW50983   5.234   8.816   0.136
12837SOL    HW150984   5.245   8.787   0.041
12837SOL    HW250985   5.148   8.780   0.172
12838SOL     OW50986   6.518   7.640   1.713
12838SOL    HW150987   6.585   7.670   1.781
12838SOL    HW250988   6.500   7.714   1.648
12839SOL     OW50989   0.320   7.893   0.189
12839SOL    HW150990   0.239   7.865   0.137
12839SOL    HW250991   0.292   7.944   0.270
12840SOL     OW50992   5.631   7.887   4.232
12840SOL    HW150993   5.722   7.868   4.196
12840SOL    HW250994   5.617   7.838   4.318
12841SOL     OW50995   0.889   8.333   6.127
12841SOL    HW150996   0.970   8.281   6.101
12841SOL    HW250997   0.903   8.373   6.218
12842SOL     OW50998   0.982   8.434   7.317
12842SOL    HW150999   0.920   8.472   7.385
12842SOL    HW251000   0.930   8.386   7.247
12843SOL     OW51001   0.478   8.028   4.806
12843SOL    HW151002   0.382   8.011   4.783
12843SOL    HW251003   0.533   7.947   4.781
12844SOL     OW51004   5.301   7.676   6.524
12844SOL    HW151005   5.394   7.648   6.547
12844SOL    HW251006   5.287   7.663   6.425
12845SOL     OW51007   4.200   0.099   0.045
12845SOL    HW151008   4.183   0.164   0.119
12845SOL    HW251009   4.176   0.007   0.076
12846SOL     OW51010   5.528   8.454   7.114
12846SOL    HW151011   5.506   8.468   7.211
12846SOL    HW251012   5.625   8.470   7.100
12847SOL     OW51013   5.438   8.485   0.482
12847SOL    HW151014   5.354   8.538   0.470
12847SOL    HW251015   5.515   8.539   0.449
12848SOL     OW51016   6.207   7.595   5.262
12848SOL    HW151017   6.130   7.646   5.302
12848SOL    HW251018   6.245   7.533   5.331
12849SOL     OW51019   2.489   8.916   4.998
12849SOL    HW151020   2.426   8.945   5.070
12849SOL    HW251021   2.485   8.817   4.987
12850SOL     OW51022   4.262   8.891   0.518
12850SOL    HW151023   4.239   8.972   0.465
12850SOL    HW251024   4.179   8.839   0.538
12851SOL     OW51025   5.703   7.833   6.426
12851SOL    HW151026   5.665   7.906   6.484
12851SOL    HW251027   5.790   7.802   6.464
12852SOL     OW51028   5.244   7.524   3.693
12852SOL    HW151029   5.216   7.470   3.614
12852SOL    HW251030   5.334   7.565   3.677
12853SOL     OW51031   3.735   8.108   0.859
12853SOL    HW151032   3.827   8.069   0.869
12853SOL    HW251033   3.699   8.086   0.768
12854SOL     OW51034   1.939   7.779   0.562
12854SOL    HW151035   1.985   7.693   0.542
12854SOL    HW251036   1.883   7.769   0.644
12855SOL     OW51037   3.754   7.583   2.033
12855SOL    HW151038   3.769   7.680   2.014
12855SOL    HW251039   3.744   7.570   2.131
12856SOL     OW51040   6.111   8.465   6.815
12856SOL    HW151041   6.019   8.448   6.779
12856SOL    HW251042   6.105   8.485   6.912
12857SOL     OW51043   6.213   7.480   5.983
12857SOL    HW151044   6.251   7.548   5.920
12857SOL    HW251045   6.162   7.411   5.932
12858SOL     OW51046   5.019   8.770   2.418
12858SOL    HW151047   4.954   8.727   2.481
12858SOL    HW251048   5.107   8.784   2.465
12859SOL     OW51049   3.156   7.982   0.142
12859SOL    HW151050   3.120   7.990   0.049
12859SOL    HW251051   3.104   7.912   0.191
12860SOL     OW51052   4.365   8.680   0.680
12860SOL    HW151053   4.329   8.740   0.608
12860SOL    HW251054   4.382   8.734   0.763
12861SOL     OW51055   7.088   8.673   2.623
12861SOL    HW151056   6.992   8.693   2.645
12861SOL    HW251057   7.100   8.575   2.610
12862SOL     OW51058   0.749   8.375   2.762
12862SOL    HW151059   0.849   8.382   2.765
12862SOL    HW251060   0.722   8.301   2.701
12863SOL     OW51061   1.360   7.642   5.560
12863SOL    HW151062   1.403   7.614   5.646
12863SOL    HW251063   1.279   7.584   5.543
12864SOL     OW51064   4.427   7.891   1.691
12864SOL    HW151065   4.479   7.966   1.732
12864SOL    HW251066   4.467   7.804   1.718
12865SOL     OW51067   0.774   8.815   3.222
12865SOL    HW151068   0.811   8.790   3.312
12865SOL    HW251069   0.766   8.733   3.165
12866SOL     OW51070   2.565   7.360   0.515
12866SOL    HW151071   2.465   7.356   0.511
12866SOL    HW251072   2.595   7.371   0.609
12867SOL     OW51073   0.001   8.285   1.318
12867SOL    HW151074   0.017   8.381   1.295
12867SOL    HW251075   8.902   8.266   1.316
12868SOL     OW51076   6.477   8.198   0.589
12868SOL    HW151077   6.431   8.209   0.677
12868SOL    HW251078   6.575   8.214   0.600
12869SOL     OW51079   3.113   7.762   1.153
12869SOL    HW151080   3.202   7.805   1.166
12869SOL    HW251081   3.118   7.696   1.079
12870SOL     OW51082   7.280   8.277   1.789
12870SOL    HW151083   7.209   8.224   1.741
12870SOL    HW251084   7.248   8.371   1.802
12871SOL     OW51085   2.804   8.122   6.448
12871SOL    HW151086   2.802   8.208   6.499
12871SOL    HW251087   2.890   8.116   6.396
12872SOL     OW51088   7.167   8.625   0.123
12872SOL    HW151089   7.201   8.716   0.099
12872SOL    HW251090   7.243   8.560   0.121
12873SOL     OW51091   2.073   7.646   6.500
12873SOL    HW151092   2.027   7.735   6.497
12873SOL    HW251093   2.020   7.583   6.557
12874SOL     OW51094   4.468   8.889   4.979
12874SOL    HW151095   4.447   8.807   4.926
12874SOL    HW251096   4.400   8.960   4.958
12875SOL     OW51097   6.541   8.705   1.811
12875SOL    HW151098   6.568   8.656   1.728
12875SOL    HW251099   6.521   8.800   1.788
12876SOL     OW51100   1.145   7.859   2.245
12876SOL    HW151101   1.059   7.895   2.210
12876SOL    HW251102   1.158   7.765   2.211
12877SOL     OW51103   2.591   7.983   6.542
12877SOL    HW151104   2.588   7.886   6.520
12877SOL    HW251105   2.671   8.025   6.500
12878SOL     OW51106   4.425   8.837   6.775
12878SOL    HW151107   4.414   8.927   6.734
12878SOL    HW251108   4.521   8.822   6.799
12879SOL     OW51109   5.427   7.823   3.366
12879SOL    HW151110   5.474   7.846   3.281
12879SOL    HW251111   5.357   7.754   3.347
12880SOL     OW51112   1.781   8.755   1.778
12880SOL    HW151113   1.688   8.721   1.795
12880SOL    HW251114   1.788   8.850   1.809
12881SOL     OW51115   7.379   7.739   6.175
12881SOL    HW151116   7.356   7.665   6.112
12881SOL    HW251117   7.301   7.801   6.184
12882SOL     OW51118   7.037   7.872   0.644
12882SOL    HW151119   7.047   7.773   0.648
12882SOL    HW251120   7.097   7.915   0.712
12883SOL     OW51121   0.516   8.369   2.104
12883SOL    HW151122   0.467   8.384   2.018
12883SOL    HW251123   0.580   8.444   2.119
12884SOL     OW51124   4.361   8.798   1.459
12884SOL    HW151125   4.368   8.701   1.437
12884SOL    HW251126   4.334   8.809   1.554
12885SOL     OW51127   1.115   8.104   1.525
12885SOL    HW151128   1.043   8.048   1.483
12885SOL    HW251129   1.145   8.062   1.610
12886SOL     OW51130   0.156   7.539   6.362
12886SOL    HW151131   0.209   7.570   6.441
12886SOL    HW251132   0.072   7.592   6.355
12887SOL     OW51133   4.189   8.638   1.090
12887SOL    HW151134   4.098   8.606   1.115
12887SOL    HW251135   4.256   8.567   1.113
12888SOL     OW51136   0.845   7.682   1.381
12888SOL    HW151137   0.750   7.674   1.413
12888SOL    HW251138   0.852   7.644   1.288
12889SOL     OW51139   0.339   0.003   3.495
12889SOL    HW151140   0.428   8.973   3.462
12889SOL    HW251141   0.295   8.929   3.546
12890SOL     OW51142   4.599   8.200   4.227
12890SOL    HW151143   4.591   8.119   4.285
12890SOL    HW251144   4.512   8.249   4.227
12891SOL     OW51145   2.215   8.113   6.834
12891SOL    HW151146   2.263   8.026   6.841
12891SOL    HW251147   2.213   8.158   6.923
12892SOL     OW51148   3.226   7.843   2.217
12892SOL    HW151149   3.198   7.778   2.287
12892SOL    HW251150   3.313   7.814   2.177
12893SOL     OW51151   0.415   8.898   0.471
12893SOL    HW151152   0.352   8.975   0.485
12893SOL    HW251153   0.365   8.820   0.433
12894SOL     OW51154   3.412   8.730   5.824
12894SOL    HW151155   3.386   8.824   5.802
12894SOL    HW251156   3.400   8.714   5.922
12895SOL     OW51157   6.260   7.354   0.551
12895SOL    HW151158   6.325   7.425   0.523
12895SOL    HW251159   6.223   7.309   0.470
12896SOL     OW51160   4.636   7.458   0.308
12896SOL    HW151161   4.551   7.470   0.257
12896SOL    HW251162   4.713   7.496   0.256
12897SOL     OW51163   6.232   7.923   0.978
12897SOL    HW151164   6.253   7.859   0.905
12897SOL    HW251165   6.171   7.879   1.044
12898SOL     OW51166   4.230   8.239   2.918
12898SOL    HW151167   4.327   8.262   2.921
12898SOL    HW251168   4.196   8.227   3.012
12899SOL     OW51169   6.174   0.056   1.352
12899SOL    HW151170   6.146   0.136   1.405
12899SOL    HW251171   6.108   8.981   1.367
12900SOL     OW51172   1.707   8.391   3.142
12900SOL    HW151173   1.781   8.337   3.184
12900SOL    HW251174   1.665   8.338   3.068
12901SOL     OW51175   2.292   8.121   5.359
12901SOL    HW151176   2.335   8.035   5.386
12901SOL    HW251177   2.334   8.197   5.408
12902SOL     OW51178   7.194   8.082   1.289
12902SOL    HW151179   7.110   8.136   1.292
12902SOL    HW251180   7.210   8.039   1.378
12903SOL     OW51181   7.202   7.446   6.594
12903SOL    HW151182   7.231   7.434   6.499
12903SOL    HW251183   7.272   7.408   6.655
12904SOL     OW51184   1.115   8.798   2.922
12904SOL    HW151185   1.102   8.705   2.958
12904SOL    HW251186   1.028   8.848   2.928
12905SOL     OW51187   1.713   8.188   0.663
12905SOL    HW151188   1.724   8.176   0.564
12905SOL    HW251189   1.802   8.209   0.704
12906SOL     OW51190   2.437   7.971   3.581
12906SOL    HW151191   2.437   7.947   3.678
12906SOL    HW251192   2.347   7.953   3.542
12907SOL     OW51193   2.324   7.409   1.152
12907SOL    HW151194   2.324   7.505   1.181
12907SOL    HW251195   2.411   7.388   1.108
12908SOL     OW51196   0.821   7.393   1.678
12908SOL    HW151197   0.899   7.330   1.681
12908SOL    HW251198   0.852   7.485   1.701
12909SOL     OW51199   6.259   7.862   4.637
12909SOL    HW151200   6.250   7.955   4.602
12909SOL    HW251201   6.285   7.800   4.563
12910SOL     OW51202   0.587   7.649   1.456
12910SOL    HW151203   0.515   7.716   1.476
12910SOL    HW251204   0.565   7.562   1.500
12911SOL     OW51205   0.447   8.716   2.118
12911SOL    HW151206   0.530   8.661   2.132
12911SOL    HW251207   0.380   8.693   2.188
12912SOL     OW51208   2.058   8.478   2.111
12912SOL    HW151209   2.118   8.558   2.115
12912SOL    HW251210   1.999   8.484   2.031
12913SOL     OW51211   3.407   7.401   4.507
12913SOL    HW151212   3.399   7.304   4.483
12913SOL    HW251213   3.498   7.417   4.546
12914SOL     OW51214   5.294   8.488   2.480
12914SOL    HW151215   5.300   8.551   2.402
12914SOL    HW251216   5.360   8.515   2.550
12915SOL     OW51217   5.997   7.944   1.613
12915SOL    HW151218   6.021   7.852   1.581
12915SOL    HW251219   5.938   7.937   1.693
12916SOL     OW51220   3.506   8.154   6.585
12916SOL    HW151221   3.577   8.114   6.527
12916SOL    HW251222   3.525   8.131   6.681
12917SOL     OW51223   5.858   8.421   6.705
12917SOL    HW151224   5.807   8.395   6.623
12917SOL    HW251225   5.818   8.504   6.745
12918SOL     OW51226   4.578   7.370   6.240
12918SOL    HW151227   4.666   7.398   6.279
12918SOL    HW251228   4.507   7.433   6.271
12919SOL     OW51229   3.825   8.469   0.292
12919SOL    HW151230   3.856   8.537   0.227
12919SOL    HW251231   3.871   8.382   0.275
12920SOL     OW51232   0.091   8.521   0.907
12920SOL    HW151233   0.099   8.612   0.948
12920SOL    HW251234   8.996   8.491   0.910
12921SOL     OW51235   4.182   8.043   5.779
12921SOL    HW151236   4.268   8.089   5.800
12921SOL    HW251237   4.107   8.090   5.826
12922SOL     OW51238   6.379   8.107   1.580
12922SOL    HW151239   6.377   8.191   1.524
12922SOL    HW251240   6.331   8.123   1.666
12923SOL     OW51241   2.764   8.137   2.580
12923SOL    HW151242   2.714   8.179   2.656
12923SOL    HW251243   2.766   8.201   2.503
12924SOL     OW51244   1.856   8.612   3.468
12924SOL    HW151245   1.812   8.528   3.500
12924SOL    HW251246   1.941   8.588   3.421
12925SOL     OW51247   6.195   7.682   4.829
12925SOL    HW151248   6.236   7.705   4.917
12925SOL    HW251249   6.223   7.750   4.760
12926SOL     OW51250   2.504   8.625   0.505
12926SOL    HW151251   2.506   8.629   0.405
12926SOL    HW251252   2.598   8.615   0.539
12927SOL     OW51253   3.973   8.426   5.253
12927SOL    HW151254   3.968   8.382   5.342
12927SOL    HW251255   4.069   8.434   5.226
12928SOL     OW51256   1.571   8.264   8.960
12928SOL    HW151257   1.518   8.209   0.025
12928SOL    HW251258   1.593   8.352   0.003
12929SOL     OW51259   6.285   7.776   6.139
12929SOL    HW151260   6.350   7.700   6.143
12929SOL    HW251261   6.216   7.764   6.210
12930SOL     OW51262   3.054   8.136   6.330
12930SOL    HW151263   3.059   8.233   6.303
12930SOL    HW251264   3.125   8.117   6.397
12931SOL     OW51265   6.050   8.502   0.127
12931SOL    HW151266   6.006   8.578   0.080
12931SOL    HW251267   6.138   8.531   0.165
12932SOL     OW51268   1.901   8.427   1.292
12932SOL    HW151269   1.817   8.473   1.262
12932SOL    HW251270   1.931   8.363   1.222
12933SOL     OW51271   0.376   7.452   0.214
12933SOL    HW151272   0.284   7.413   0.220
12933SOL    HW251273   0.395   7.481   0.121
12934SOL     OW51274   4.803   7.908   0.027
12934SOL    HW151275   4.730   7.844   0.052
12934SOL    HW251276   4.864   7.864   8.961
12935SOL     OW51277   4.085   7.425   1.239
12935SOL    HW151278   4.132   7.445   1.153
12935SOL    HW251279   4.123   7.481   1.313
12936SOL     OW51280   6.978   7.725   2.647
12936SOL    HW151281   7.066   7.689   2.617
12936SOL    HW251282   6.904   7.668   2.613
12937SOL     OW51283   5.531   8.404   1.524
12937SOL    HW151284   5.575   8.417   1.435
12937SOL    HW251285   5.517   8.306   1.541
12938SOL     OW51286   2.420   8.542   5.971
12938SOL    HW151287   2.459   8.452   5.989
12938SOL    HW251288   2.327   8.546   6.008
12939SOL     OW51289   6.655   8.099   6.076
12939SOL    HW151290   6.599   8.172   6.114
12939SOL    HW251291   6.722   8.137   6.013
12940SOL     OW51292   3.978   7.856   0.472
12940SOL    HW151293   3.958   7.803   0.390
12940SOL    HW251294   3.906   7.841   0.540
12941SOL     OW51295   0.862   7.837   5.951
12941SOL    HW151296   0.819   7.921   5.916
12941SOL    HW251297   0.961   7.849   5.953
12942SOL     OW51298   5.066   8.182   2.656
12942SOL    HW151299   4.990   8.150   2.712
12942SOL    HW251300   5.056   8.280   2.639
12943SOL     OW51301   1.394   7.910   5.566
12943SOL    HW151302   1.490   7.931   5.549
12943SOL    HW251303   1.378   7.813   5.549
12944SOL     OW51304   7.244   8.046   0.775
12944SOL    HW151305   7.255   8.090   0.686
12944SOL    HW251306   7.262   8.112   0.848
12945SOL     OW51307   6.687   8.076   2.689
12945SOL    HW151308   6.591   8.066   2.717
12945SOL    HW251309   6.727   8.154   2.736
12946SOL     OW51310   4.390   8.340   3.567
12946SOL    HW151311   4.422   8.434   3.566
12946SOL    HW251312   4.321   8.329   3.639
12947SOL     OW51313   3.348   7.715   6.832
12947SOL    HW151314   3.406   7.701   6.912
12947SOL    HW251315   3.306   7.806   6.836
12948SOL     OW51316   4.917   7.733   3.502
12948SOL    HW151317   4.835   7.758   3.554
12948SOL    HW251318   4.891   7.676   3.424
12949SOL     OW51319   1.332   8.883   0.400
12949SOL    HW151320   1.254   8.823   0.381
12949SOL    HW251321   1.353   8.881   0.497
12950SOL     OW51322   1.845   8.413   5.144
12950SOL    HW151323   1.844   8.373   5.236
12950SOL    HW251324   1.927   8.469   5.133
12951SOL     OW51325   0.585   8.977   3.360
12951SOL    HW151326   0.526   0.027   3.297
12951SOL    HW251327   0.649   8.920   3.309
12952SOL     OW51328   4.772   8.437   6.966
12952SOL    HW151329   4.838   8.504   7.001
12952SOL    HW251330   4.809   8.393   6.884
12953SOL     OW51331   5.604   8.031   6.574
12953SOL    HW151332   5.649   8.026   6.663
12953SOL    HW251333   5.545   8.111   6.571
12954SOL     OW51334   4.955   8.053   2.344
12954SOL    HW151335   5.044   8.008   2.357
12954SOL    HW251336   4.970   8.145   2.308
12955SOL     OW51337   4.407   8.055   2.665
12955SOL    HW151338   4.315   8.060   2.625
12955SOL    HW251339   4.461   8.134   2.634
12956SOL     OW51340   0.872   8.928   2.979
12956SOL    HW151341   0.903   0.022   2.993
12956SOL    HW251342   0.835   8.892   3.064
12957SOL     OW51343   7.151   0.423   4.844
12957SOL    HW151344   7.095   0.342   4.864
12957SOL    HW251345   7.247   0.397   4.843
12958SOL     OW51346   5.599   8.377   3.759
12958SOL    HW151347   5.509   8.387   3.800
12958SOL    HW251348   5.593   8.397   3.661
12959SOL     OW51349   5.470   8.552   3.173
12959SOL    HW151350   5.378   8.572   3.140
12959SOL    HW251351   5.473   8.458   3.206
12960SOL     OW51352   1.358   7.642   6.801
12960SOL    HW151353   1.410   7.571   6.755
12960SOL    HW251354   1.393   7.732   6.775
12961SOL     OW51355   2.609   8.795   1.549
12961SOL    HW151356   2.590   8.712   1.601
12961SOL    HW251357   2.665   8.857   1.604
12962SOL     OW51358   4.211   8.360   1.542
12962SOL    HW151359   4.123   8.329   1.507
12962SOL    HW251360   4.229   8.317   1.631
12963SOL     OW51361   4.947   8.403   4.332
12963SOL    HW151362   4.944   8.430   4.236
12963SOL    HW251363   4.993   8.475   4.385
12964SOL     OW51364   1.619   8.718   0.220
12964SOL    HW151365   1.618   8.672   0.309
12964SOL    HW251366   1.700   8.776   0.214
12965SOL     OW51367   4.731   8.012   2.193
12965SOL    HW151368   4.706   7.916   2.199
12965SOL    HW251369   4.813   8.029   2.248
12966SOL     OW51370   3.269   8.017   3.445
12966SOL    HW151371   3.325   7.963   3.508
12966SOL    HW251372   3.239   7.959   3.369
12967SOL     OW51373   3.555   7.425   1.935
12967SOL    HW151374   3.622   7.481   1.983
12967SOL    HW251375   3.601   7.347   1.892
12968SOL     OW51376   7.131   8.283   2.284
12968SOL    HW151377   7.159   8.250   2.194
12968SOL    HW251378   7.187   8.240   2.355
12969SOL     OW51379   7.278   8.323   5.509
12969SOL    HW151380   7.252   8.402   5.455
12969SOL    HW251381   7.378   8.320   5.519
12970SOL     OW51382   0.689   8.579   2.141
12970SOL    HW151383   0.760   8.563   2.073
12970SOL    HW251384   0.721   8.643   2.210
12971SOL     OW51385   1.740   8.063   3.083
12971SOL    HW151386   1.792   8.118   3.148
12971SOL    HW251387   1.788   7.977   3.067
12972SOL     OW51388   4.363   7.727   0.530
12972SOL    HW151389   4.312   7.703   0.447
12972SOL    HW251390   4.425   7.652   0.554
12973SOL     OW51391   4.626   8.653   4.198
12973SOL    HW151392   4.593   8.705   4.277
12973SOL    HW251393   4.697   8.706   4.151
12974SOL     OW51394   4.020   7.639   3.535
12974SOL    HW151395   3.973   7.713   3.582
12974SOL    HW251396   4.073   7.585   3.601
12975SOL     OW51397   3.141   8.894   2.859
12975SOL    HW151398   3.121   8.840   2.777
12975SOL    HW251399   3.129   8.991   2.839
12976SOL     OW51400   6.247   8.762   7.069
12976SOL    HW151401   6.200   8.674   7.078
12976SOL    HW251402   6.182   8.832   7.040
12977SOL     OW51403   4.053   7.797   6.132
12977SOL    HW151404   4.062   7.801   6.032
12977SOL    HW251405   4.023   7.886   6.166
12978SOL     OW51406   6.180   7.468   6.842
12978SOL    HW151407   6.236   7.551   6.850
12978SOL    HW251408   6.126   7.457   6.926
12979SOL     OW51409   4.683   7.795   3.637
12979SOL    HW151410   4.607   7.729   3.640
12979SOL    HW251411   4.696   7.834   3.728
12980SOL     OW51412   6.882   8.426   1.801
12980SOL    HW151413   6.817   8.388   1.735
12980SOL    HW251414   6.836   8.496   1.856
12981SOL     OW51415   0.659   8.757   1.442
12981SOL    HW151416   0.592   8.731   1.372
12981SOL    HW251417   0.612   8.800   1.519
12982SOL     OW51418   4.899   8.328   6.746
12982SOL    HW151419   4.865   8.327   6.652
12982SOL    HW251420   4.931   8.237   6.771
12983SOL     OW51421   0.456   8.710   1.260
12983SOL    HW151422   0.410   8.627   1.227
12983SOL    HW251423   0.520   8.742   1.191
12984SOL     OW51424   4.388   0.078   6.642
12984SOL    HW151425   4.472   0.131   6.631
12984SOL    HW251426   4.352   0.052   6.552
12985SOL     OW51427   5.904   8.758   1.907
12985SOL    HW151428   5.924   8.856   1.903
12985SOL    HW251429   5.829   8.736   1.845
12986SOL     OW51430   4.492   7.673   2.979
12986SOL    HW151431   4.582   7.663   2.938
12986SOL    HW251432   4.450   7.759   2.949
12987SOL     OW51433   4.616   7.933   1.359
12987SOL    HW151434   4.618   8.005   1.428
12987SOL    HW251435   4.634   7.973   1.269
12988SOL     OW51436   2.350   7.870   6.866
12988SOL    HW151437   2.333   7.809   6.788
12988SOL    HW251438   2.331   7.821   6.951
12989SOL     OW51439   3.109   7.583   5.257
12989SOL    HW151440   3.147   7.493   5.236
12989SOL    HW251441   3.156   7.622   5.336
12990SOL     OW51442   6.437   7.550   6.142
12990SOL    HW151443   6.365   7.497   6.097
12990SOL    HW251444   6.449   7.517   6.235
12991SOL     OW51445   3.626   8.836   0.139
12991SOL    HW151446   3.632   8.857   0.042
12991SOL    HW251447   3.552   8.889   0.180
12992SOL     OW51448   3.874   8.277   1.204
12992SOL    HW151449   3.786   8.231   1.197
12992SOL    HW251450   3.945   8.220   1.164
12993SOL     OW51451   5.297   8.434   3.575
12993SOL    HW151452   5.288   8.341   3.612
12993SOL    HW251453   5.215   8.457   3.523
12994SOL     OW51454   4.243   7.569   1.429
12994SOL    HW151455   4.249   7.533   1.522
12994SOL    HW251456   4.293   7.655   1.424
12995SOL     OW51457   5.412   7.767   3.634
12995SOL    HW151458   5.320   7.793   3.662
12995SOL    HW251459   5.425   7.786   3.537
12996SOL     OW51460   0.632   0.044   3.630
12996SOL    HW151461   0.619   0.027   3.533
12996SOL    HW251462   0.556   0.098   3.666
12997SOL     OW51463   3.770   7.992   6.016
12997SOL    HW151464   3.772   7.898   5.980
12997SOL    HW251465   3.687   8.038   5.985
12998SOL     OW51466   2.067   8.619   1.412
12998SOL    HW151467   2.063   8.701   1.356
12998SOL    HW251468   2.001   8.552   1.377
12999SOL     OW51469   3.096   8.820   6.157
12999SOL    HW151470   3.011   8.788   6.114
12999SOL    HW251471   3.095   8.919   6.164
13000SOL     OW51472   3.040   8.728   7.114
13000SOL    HW151473   2.962   8.708   7.054
13000SOL    HW251474   3.123   8.688   7.075
13001SOL     OW51475   3.980   8.678   6.104
13001SOL    HW151476   3.965   8.762   6.052
13001SOL    HW251477   4.077   8.669   6.127
13002SOL     OW51478   5.835   8.542   0.954
13002SOL    HW151479   5.910   8.487   0.990
13002SOL    HW251480   5.863   8.638   0.950
13003SOL     OW51481   6.229   7.524   3.557
13003SOL    HW151482   6.187   7.531   3.648
13003SOL    HW251483   6.224   7.429   3.526
13004SOL     OW51484   0.602   7.730   3.300
13004SOL    HW151485   0.637   7.802   3.241
13004SOL    HW251486   0.671   7.705   3.367
13005SOL     OW51487   6.209   7.851   7.168
13005SOL    HW151488   6.290   7.853   7.227
13005SOL    HW251489   6.127   7.834   7.223
13006SOL     OW51490   0.111   8.645   3.423
13006SOL    HW151491   0.082   8.712   3.355
13006SOL    HW251492   0.031   8.595   3.456
13007SOL     OW51493   0.972   8.188   6.503
13007SOL    HW151494   0.915   8.140   6.569
13007SOL    HW251495   0.973   8.137   6.417
13008SOL     OW51496   0.718   7.349   6.953
13008SOL    HW151497   0.759   7.417   6.892
13008SOL    HW251498   0.735   7.257   6.917
13009SOL     OW51499   5.515   7.867   2.736
13009SOL    HW151500   5.532   7.965   2.724
13009SOL    HW251501   5.449   7.836   2.668
13010SOL     OW51502   0.563   7.478   0.698
13010SOL    HW151503   0.562   7.570   0.658
13010SOL    HW251504   0.491   7.471   0.767
13011SOL     OW51505   1.040   8.234   0.763
13011SOL    HW151506   0.991   8.320   0.748
13011SOL    HW251507   0.975   8.158   0.765
13012SOL     OW51508   4.751   8.080   5.244
13012SOL    HW151509   4.720   7.985   5.244
13012SOL    HW251510   4.818   8.093   5.317
13013SOL     OW51511   4.452   7.884   2.065
13013SOL    HW151512   4.387   7.899   2.139
13013SOL    HW251513   4.540   7.855   2.104
13014SOL     OW51514   6.774   7.896   6.221
13014SOL    HW151515   6.730   7.973   6.176
13014SOL    HW251516   6.707   7.848   6.277
13015SOL     OW51517   6.050   7.611   4.472
13015SOL    HW151518   6.020   7.530   4.422
13015SOL    HW251519   6.150   7.619   4.467
13016SOL     OW51520   5.103   7.815   2.173
13016SOL    HW151521   5.043   7.864   2.110
13016SOL    HW251522   5.069   7.721   2.184
13017SOL     OW51523   0.044   8.832   3.227
13017SOL    HW151524   0.014   8.927   3.221
13017SOL    HW251525   0.128   8.820   3.174
13018SOL     OW51526   2.627   8.416   3.211
13018SOL    HW151527   2.650   8.405   3.307
13018SOL    HW251528   2.633   8.328   3.165
13019SOL     OW51529   6.178   8.118   7.101
13019SOL    HW151530   6.196   8.020   7.112
13019SOL    HW251531   6.249   8.159   7.044
13020SOL     OW51532   6.135   7.439   3.195
13020SOL    HW151533   6.128   7.539   3.202
13020SOL    HW251534   6.054   7.404   3.147
13021SOL     OW51535   3.842   8.573   0.544
13021SOL    HW151536   3.750   8.600   0.573
13021SOL    HW251537   3.837   8.529   0.455
13022SOL     OW51538   5.262   8.212   0.146
13022SOL    HW151539   5.228   8.305   0.133
13022SOL    HW251540   5.190   8.147   0.124
13023SOL     OW51541   6.593   8.872   0.787
13023SOL    HW151542   6.518   8.841   0.729
13023SOL    HW251543   6.560   8.884   0.881
13024SOL     OW51544   6.351   7.783   4.205
13024SOL    HW151545   6.295   7.862   4.229
13024SOL    HW251546   6.436   7.815   4.161
13025SOL     OW51547   0.843   8.804   0.691
13025SOL    HW151548   0.899   8.821   0.772
13025SOL    HW251549   0.897   8.753   0.624
13026SOL     OW51550   4.125   7.603   6.303
13026SOL    HW151551   4.105   7.669   6.231
13026SOL    HW251552   4.048   7.540   6.313
13027SOL     OW51553   1.929   8.802   2.974
13027SOL    HW151554   1.933   8.794   2.874
13027SOL    HW251555   2.020   8.784   3.012
13028SOL     OW51556   6.244   7.874   1.990
13028SOL    HW151557   6.184   7.946   1.955
13028SOL    HW251558   6.334   7.883   1.949
13029SOL     OW51559   5.460   8.169   0.882
13029SOL    HW151560   5.539   8.200   0.934
13029SOL    HW251561   5.428   8.242   0.821
13030SOL     OW51562   7.081   8.642   2.074
13030SOL    HW151563   7.149   8.618   2.143
13030SOL    HW251564   6.992   8.606   2.102
13031SOL     OW51565   3.630   7.769   0.001
13031SOL    HW151566   3.602   7.734   0.090
13031SOL    HW251567   3.684   7.852   0.013
13032SOL     OW51568   4.250   8.658   6.150
13032SOL    HW151569   4.256   8.639   6.248
13032SOL    HW251570   4.328   8.714   6.122
13033SOL     OW51571   3.557   7.970   1.843
13033SOL    HW151572   3.531   7.930   1.755
13033SOL    HW251573   3.498   8.049   1.862
13034SOL     OW51574   4.950   8.415   4.045
13034SOL    HW151575   4.991   8.454   3.962
13034SOL    HW251576   4.851   8.424   4.040
13035SOL     OW51577   2.415   8.762   7.323
13035SOL    HW151578   2.418   8.825   7.400
13035SOL    HW251579   2.323   8.723   7.315
13036SOL     OW51580   4.365   8.425   5.691
13036SOL    HW151581   4.302   8.455   5.762
13036SOL    HW251582   4.436   8.494   5.679
13037SOL     OW51583   5.701   8.195   0.428
13037SOL    HW151584   5.755   8.206   0.345
13037SOL    HW251585   5.603   8.201   0.406
13038SOL     OW51586   5.214   8.382   1.727
13038SOL    HW151587   5.255   8.457   1.676
13038SOL    HW251588   5.125   8.411   1.764
13039SOL     OW51589   2.352   8.458   0.117
13039SOL    HW151590   2.365   8.359   0.115
13039SOL    HW251591   2.327   8.491   0.026
13040SOL     OW51592   2.126   8.502   7.084
13040SOL    HW151593   2.182   8.584   7.083
13040SOL    HW251594   2.042   8.518   7.033
13041SOL     OW51595   4.580   7.558   6.600
13041SOL    HW151596   4.648   7.614   6.553
13041SOL    HW251597   4.618   7.525   6.686
13042SOL     OW51598   2.298   7.468   7.050
13042SOL    HW151599   2.393   7.437   7.056
13042SOL    HW251600   2.293   7.566   7.071
13043SOL     OW51601   5.023   7.549   2.165
13043SOL    HW151602   5.069   7.537   2.076
13043SOL    HW251603   4.925   7.533   2.154
13044SOL     OW51604   3.494   7.703   2.363
13044SOL    HW151605   3.491   7.735   2.268
13044SOL    HW251606   3.401   7.682   2.394
13045SOL     OW51607   6.083   8.545   1.881
13045SOL    HW151608   6.020   8.623   1.881
13045SOL    HW251609   6.173   8.575   1.913
13046SOL     OW51610   3.710   7.443   0.321
13046SOL    HW151611   3.714   7.392   0.406
13046SOL    HW251612   3.772   7.401   0.254
13047SOL     OW51613   4.735   8.747   1.539
13047SOL    HW151614   4.670   8.823   1.544
13047SOL    HW251615   4.826   8.782   1.518
13048SOL     OW51616   6.700   7.730   7.250
13048SOL    HW151617   6.691   7.785   7.333
13048SOL    HW251618   6.734   7.639   7.273
13049SOL     OW51619   0.069   8.553   1.290
13049SOL    HW151620   0.039   8.646   1.269
13049SOL    HW251621   0.097   8.548   1.386
13050SOL     OW51622   4.878   7.841   2.999
13050SOL    HW151623   4.964   7.803   3.034
13050SOL    HW251624   4.827   7.769   2.952
13051SOL     OW51625   6.783   8.299   6.296
13051SOL    HW151626   6.856   8.326   6.233
13051SOL    HW251627   6.694   8.309   6.251
13052SOL     OW51628   4.120   8.562   3.541
13052SOL    HW151629   4.164   8.525   3.459
13052SOL    HW251630   4.168   8.530   3.623
13053SOL     OW51631   0.605   8.654   3.581
13053SOL    HW151632   0.684   8.662   3.520
13053SOL    HW251633   0.526   8.620   3.528
13054SOL     OW51634   0.445   8.449   0.599
13054SOL    HW151635   0.482   8.490   0.516
13054SOL    HW251636   0.513   8.455   0.672
13055SOL     OW51637   4.863   8.516   6.320
13055SOL    HW151638   4.937   8.582   6.311
13055SOL    HW251639   4.788   8.541   6.259
13056SOL     OW51640   7.085   8.656   0.803
13056SOL    HW151641   6.993   8.671   0.767
13056SOL    HW251642   7.089   8.685   0.899
13057SOL     OW51643   3.465   7.413   4.157
13057SOL    HW151644   3.376   7.421   4.201
13057SOL    HW251645   3.469   7.328   4.104
13058SOL     OW51646   3.948   8.614   7.225
13058SOL    HW151647   3.913   8.650   7.311
13058SOL    HW251648   4.021   8.548   7.243
13059SOL     OW51649   6.600   7.789   4.717
13059SOL    HW151650   6.583   7.710   4.659
13059SOL    HW251651   6.608   7.871   4.660
13060SOL     OW51652   1.304   8.184   0.667
13060SOL    HW151653   1.330   8.270   0.622
13060SOL    HW251654   1.211   8.192   0.702
13061SOL     OW51655   3.807   8.088   3.531
13061SOL    HW151656   3.726   8.113   3.476
13061SOL    HW251657   3.887   8.083   3.471
13062SOL     OW51658   3.844   8.186   3.794
13062SOL    HW151659   3.791   8.127   3.856
13062SOL    HW251660   3.826   8.159   3.700
13063SOL     OW51661   3.873   7.460   6.948
13063SOL    HW151662   3.942   7.420   6.888
13063SOL    HW251663   3.870   7.559   6.932
13064SOL     OW51664   1.162   8.372   6.889
13064SOL    HW151665   1.075   8.327   6.870
13064SOL    HW251666   1.154   8.428   6.971
13065SOL     OW51667   1.243   8.605   0.647
13065SOL    HW151668   1.321   8.553   0.611
13065SOL    HW251669   1.250   8.610   0.747
13066SOL     OW51670   6.625   8.376   5.747
13066SOL    HW151671   6.567   8.296   5.738
13066SOL    HW251672   6.627   8.425   5.660
13067SOL     OW51673   4.848   7.895   4.339
13067SOL    HW151674   4.923   7.891   4.405
13067SOL    HW251675   4.849   7.984   4.294
13068SOL     OW51676   6.735   8.183   2.163
13068SOL    HW151677   6.783   8.174   2.249
13068SOL    HW251678   6.801   8.183   2.087
13069SOL     OW51679   3.451   8.364   2.932
13069SOL    HW151680   3.415   8.348   2.840
13069SOL    HW251681   3.476   8.461   2.941
13070SOL     OW51682   6.224   8.042   4.016
13070SOL    HW151683   6.204   8.029   4.113
13070SOL    HW251684   6.311   8.090   4.006
13071SOL     OW51685   2.763   7.864   2.653
13071SOL    HW151686   2.748   7.959   2.627
13071SOL    HW251687   2.803   7.814   2.576
13072SOL     OW51688   2.992   7.733   1.396
13072SOL    HW151689   3.035   7.748   1.307
13072SOL    HW251690   3.011   7.639   1.426
13073SOL     OW51691   4.638   8.608   1.120
13073SOL    HW151692   4.571   8.682   1.125
13073SOL    HW251693   4.661   8.576   1.212
13074SOL     OW51694   2.067   7.758   1.996
13074SOL    HW151695   2.000   7.788   2.064
13074SOL    HW251696   2.034   7.673   1.953
13075SOL     OW51697   3.569   7.671   0.248
13075SOL    HW151698   3.538   7.691   0.341
13075SOL    HW251699   3.615   7.582   0.246
13076SOL     OW51700   2.292   7.744   7.109
13076SOL    HW151701   2.357   7.718   7.181
13076SOL    HW251702   2.216   7.795   7.150
13077SOL     OW51703   6.372   8.438   2.187
13077SOL    HW151704   6.310   8.506   2.226
13077SOL    HW251705   6.351   8.348   2.225
13078SOL     OW51706   6.738   8.051   5.333
13078SOL    HW151707   6.754   7.979   5.401
13078SOL    HW251708   6.825   8.076   5.290
13079SOL     OW51709   6.379   8.789   0.626
13079SOL    HW151710   6.309   8.720   0.645
13079SOL    HW251711   6.338   8.865   0.577
13080SOL     OW51712   6.017   8.775   2.163
13080SOL    HW151713   5.963   8.749   2.083
13080SOL    HW251714   6.102   8.819   2.133
13081SOL     OW51715   5.251   7.442   6.053
13081SOL    HW151716   5.232   7.368   6.118
13081SOL    HW251717   5.306   7.406   5.978
13082SOL     OW51718   2.326   8.401   0.929
13082SOL    HW151719   2.355   8.305   0.930
13082SOL    HW251720   2.406   8.460   0.941
13083SOL     OW51721   2.783   8.691   6.981
13083SOL    HW151722   2.733   8.735   7.055
13083SOL    HW251723   2.730   8.612   6.948
13084SOL     OW51724   2.516   8.247   5.760
13084SOL    HW151725   2.507   8.263   5.858
13084SOL    HW251726   2.601   8.287   5.727
13085SOL     OW51727   3.367   8.851   3.009
13085SOL    HW151728   3.408   8.764   2.982
13085SOL    HW251729   3.280   8.863   2.961
13086SOL     OW51730   1.225   8.102   6.603
13086SOL    HW151731   1.238   8.045   6.522
13086SOL    HW251732   1.146   8.162   6.590
13087SOL     OW51733   4.574   8.100   1.797
13087SOL    HW151734   4.565   8.125   1.894
13087SOL    HW251735   4.662   8.130   1.763
13088SOL     OW51736   4.019   7.752   1.396
13088SOL    HW151737   4.067   7.807   1.328
13088SOL    HW251738   4.080   7.680   1.428
13089SOL     OW51739   4.888   7.652   3.971
13089SOL    HW151740   4.962   7.587   3.955
13089SOL    HW251741   4.918   7.744   3.947
13090SOL     OW51742   6.790   8.110   7.263
13090SOL    HW151743   6.798   8.032   7.200
13090SOL    HW251744   6.788   8.195   7.211
13091SOL     OW51745   6.136   8.804   2.963
13091SOL    HW151746   6.036   8.801   2.972
13091SOL    HW251747   6.162   8.765   2.875
13092SOL     OW51748   5.213   8.037   2.474
13092SOL    HW151749   5.159   8.090   2.540
13092SOL    HW251750   5.229   7.945   2.511
13093SOL     OW51751   3.404   7.686   4.528
13093SOL    HW151752   3.380   7.718   4.620
13093SOL    HW251753   3.397   7.587   4.524
13094SOL     OW51754   1.282   8.109   2.272
13094SOL    HW151755   1.274   8.146   2.365
13094SOL    HW251756   1.243   8.017   2.270
13095SOL     OW51757   3.549   7.807   4.326
13095SOL    HW151758   3.581   7.731   4.270
13095SOL    HW251759   3.499   7.772   4.405
13096SOL     OW51760   3.714   8.735   3.133
13096SOL    HW151761   3.682   8.820   3.091
13096SOL    HW251762   3.813   8.727   3.122
13097SOL     OW51763   6.538   8.750   5.647
13097SOL    HW151764   6.495   8.814   5.583
13097SOL    HW251765   6.572   8.671   5.598
13098SOL     OW51766   5.536   7.897   0.211
13098SOL    HW151767   5.535   7.802   0.180
13098SOL    HW251768   5.554   7.900   0.309
13099SOL     OW51769   3.397   8.016   4.229
13099SOL    HW151770   3.447   7.939   4.269
13099SOL    HW251771   3.376   8.083   4.301
13100SOL     OW51772   5.899   7.423   4.836
13100SOL    HW151773   5.933   7.362   4.765
13100SOL    HW251774   5.899   7.517   4.801
13101SOL     OW51775   5.944   7.672   4.717
13101SOL    HW151776   5.970   7.644   4.624
13101SOL    HW251777   6.025   7.678   4.774
13102SOL     OW51778   4.582   8.470   2.060
13102SOL    HW151779   4.527   8.488   1.978
13102SOL    HW251780   4.586   8.372   2.076
13103SOL     OW51781   0.760   8.824   3.735
13103SOL    HW151782   0.724   8.913   3.708
13103SOL    HW251783   0.702   8.752   3.697
13104SOL     OW51784   5.557   8.443   3.497
13104SOL    HW151785   5.568   8.393   3.411
13104SOL    HW251786   5.460   8.445   3.522
13105SOL     OW51787   2.757   8.397   0.895
13105SOL    HW151788   2.680   8.448   0.932
13105SOL    HW251789   2.762   8.307   0.939
13106SOL     OW51790   1.871   8.321   5.408
13106SOL    HW151791   1.784   8.290   5.447
13106SOL    HW251792   1.922   8.372   5.477
13107SOL     OW51793   3.502   7.641   7.048
13107SOL    HW151794   3.523   7.544   7.035
13107SOL    HW251795   3.464   7.655   7.140
13108SOL     OW51796   4.872   8.153   4.242
13108SOL    HW151797   4.909   8.234   4.288
13108SOL    HW251798   4.775   8.167   4.223
13109SOL     OW51799   5.417   8.874   3.390
13109SOL    HW151800   5.491   8.814   3.421
13109SOL    HW251801   5.338   8.819   3.364
13110SOL     OW51802   4.774   8.622   8.952
13110SOL    HW151803   4.768   8.695   0.020
13110SOL    HW251804   4.844   8.645   8.884
13111SOL     OW51805   1.582   7.406   6.433
13111SOL    HW151806   1.598   7.483   6.371
13111SOL    HW251807   1.506   7.351   6.399
13112SOL     OW51808   3.363   7.900   7.336
13112SOL    HW151809   3.371   7.802   7.323
13112SOL    HW251810   3.286   7.920   7.397
13113SOL     OW51811   5.157   8.090   5.941
13113SOL    HW151812   5.256   8.100   5.942
13113SOL    HW251813   5.116   8.154   6.006
13114SOL     OW51814   3.229   7.429   4.298
13114SOL    HW151815   3.173   7.346   4.303
13114SOL    HW251816   3.288   7.434   4.379
13115SOL     OW51817   3.343   0.004   5.814
13115SOL    HW151818   3.284   0.069   5.767
13115SOL    HW251819   3.367   0.040   5.904
13116SOL     OW51820   1.352   7.396   1.041
13116SOL    HW151821   1.280   7.433   1.099
13116SOL    HW251822   1.431   7.457   1.042
13117SOL     OW51823   4.150   7.472   3.716
13117SOL    HW151824   4.083   7.418   3.768
13117SOL    HW251825   4.240   7.429   3.722
13118SOL     OW51826   4.682   8.711   4.760
13118SOL    HW151827   4.688   8.793   4.702
13118SOL    HW251828   4.586   8.691   4.780
13119SOL     OW51829   0.383   7.838   1.482
13119SOL    HW151830   0.381   7.867   1.578
13119SOL    HW251831   0.291   7.847   1.443
13120SOL     OW51832   0.823   8.764   2.293
13120SOL    HW151833   0.880   8.801   2.219
13120SOL    HW251834   0.881   8.736   2.369
13121SOL     OW51835   0.396   7.683   0.365
13121SOL    HW151836   0.379   7.758   0.301
13121SOL    HW251837   0.405   7.597   0.314
13122SOL     OW51838   0.231   8.049   2.920
13122SOL    HW151839   0.196   7.993   2.844
13122SOL    HW251840   0.293   8.119   2.884
13123SOL     OW51841   5.291   8.129   3.931
13123SOL    HW151842   5.220   8.105   3.997
13123SOL    HW251843   5.379   8.093   3.963
13124SOL     OW51844   4.839   7.643   6.140
13124SOL    HW151845   4.831   7.567   6.204
13124SOL    HW251846   4.931   7.644   6.101
13125SOL     OW51847   3.145   7.686   3.482
13125SOL    HW151848   3.064   7.731   3.521
13125SOL    HW251849   3.143   7.589   3.505
13126SOL     OW51850   5.086   8.066   0.544
13126SOL    HW151851   5.089   8.164   0.522
13126SOL    HW251852   5.174   8.024   0.520
13127SOL     OW51853   0.888   8.790   1.581
13127SOL    HW151854   0.817   8.771   1.513
13127SOL    HW251855   0.859   8.755   1.670
13128SOL     OW51856   2.685   7.481   5.388
13128SOL    HW151857   2.739   7.522   5.315
13128SOL    HW251858   2.622   7.549   5.425
13129SOL     OW51859   6.770   8.788   7.099
13129SOL    HW151860   6.798   8.699   7.136
13129SOL    HW251861   6.678   8.781   7.061
13130SOL     OW51862   2.644   0.025   6.528
13130SOL    HW151863   2.612   8.935   6.558
13130SOL    HW251864   2.633   0.090   6.603
13131SOL     OW51865   3.775   7.847   1.947
13131SOL    HW151866   3.862   7.896   1.941
13131SOL    HW251867   3.703   7.903   1.907
13132SOL     OW51868   2.590   8.752   6.593
13132SOL    HW151869   2.679   8.713   6.614
13132SOL    HW251870   2.561   8.722   6.502
13133SOL     OW51871   0.454   8.136   1.393
13133SOL    HW151872   0.464   8.090   1.305
13133SOL    HW251873   0.359   8.130   1.423
13134SOL     OW51874   0.573   8.226   4.640
13134SOL    HW151875   0.538   8.162   4.708
13134SOL    HW251876   0.672   8.236   4.652
13135SOL     OW51877   2.479   8.726   0.765
13135SOL    HW151878   2.397   8.781   0.780
13135SOL    HW251879   2.483   8.699   0.668
13136SOL     OW51880   0.249   8.323   0.056
13136SOL    HW151881   0.288   8.352   8.969
13136SOL    HW251882   0.282   8.231   0.078
13137SOL     OW51883   6.581   7.930   5.869
13137SOL    HW151884   6.671   7.912   5.830
13137SOL    HW251885   6.592   7.981   5.954
13138SOL     OW51886   6.632   8.594   1.571
13138SOL    HW151887   6.554   8.638   1.526
13138SOL    HW251888   6.717   8.640   1.543
13139SOL     OW51889   4.332   8.158   2.267
13139SOL    HW151890   4.324   8.059   2.279
13139SOL    HW251891   4.393   8.195   2.337
13140SOL     OW51892   6.781   8.313   7.067
13140SOL    HW151893   6.847   8.345   6.999
13140SOL    HW251894   6.728   8.390   7.101
13141SOL     OW51895   1.399   7.620   1.297
13141SOL    HW151896   1.307   7.594   1.269
13141SOL    HW251897   1.460   7.618   1.218
13142SOL     OW51898   3.467   8.286   4.849
13142SOL    HW151899   3.553   8.311   4.805
13142SOL    HW251900   3.404   8.250   4.780
13143SOL     OW51901   3.051   7.424   1.894
13143SOL    HW151902   3.144   7.439   1.862
13143SOL    HW251903   3.051   7.413   1.994
13144SOL     OW51904   1.873   7.319   7.248
13144SOL    HW151905   1.834   7.234   7.285
13144SOL    HW251906   1.803   7.367   7.195
13145SOL     OW51907   3.243   8.098   6.530
13145SOL    HW151908   3.335   8.128   6.554
13145SOL    HW251909   3.244   7.999   6.513
13146SOL     OW51910   4.640   8.019   0.751
13146SOL    HW151911   4.738   8.028   0.732
13146SOL    HW251912   4.611   8.092   0.813
13147SOL     OW51913   0.732   8.461   6.755
13147SOL    HW151914   0.670   8.454   6.677
13147SOL    HW251915   0.788   8.544   6.745
13148SOL     OW51916   4.663   7.820   5.226
13148SOL    HW151917   4.732   7.757   5.191
13148SOL    HW251918   4.572   7.783   5.208
13149SOL     OW51919   4.534   8.422   6.818
13149SOL    HW151920   4.445   8.454   6.851
13149SOL    HW251921   4.603   8.437   6.889
13150SOL     OW51922   1.367   8.181   4.142
13150SOL    HW151923   1.332   8.176   4.236
13150SOL    HW251924   1.462   8.151   4.141
13151SOL     OW51925   1.273   7.824   2.497
13151SOL    HW151926   1.228   7.841   2.409
13151SOL    HW251927   1.262   7.728   2.522
13152SOL     OW51928   1.251   8.889   0.846
13152SOL    HW151929   1.261   8.795   0.879
13152SOL    HW251930   1.322   8.908   0.778
13153SOL     OW51931   6.974   0.104   4.269
13153SOL    HW151932   6.935   0.078   4.180
13153SOL    HW251933   6.915   0.171   4.313
13154SOL     OW51934   0.531   8.281   0.942
13154SOL    HW151935   0.433   8.296   0.956
13154SOL    HW251936   0.570   8.358   0.893
13155SOL     OW51937   6.836   8.747   0.725
13155SOL    HW151938   6.749   8.788   0.753
13155SOL    HW251939   6.820   8.680   0.653
13156SOL     OW51940   3.095   7.755   3.954
13156SOL    HW151941   3.072   7.851   3.940
13156SOL    HW251942   3.191   7.739   3.932
13157SOL     OW51943   3.431   8.548   5.605
13157SOL    HW151944   3.341   8.507   5.618
13157SOL    HW251945   3.447   8.618   5.674
13158SOL     OW51946   4.124   7.531   2.231
13158SOL    HW151947   4.095   7.623   2.204
13158SOL    HW251948   4.076   7.463   2.176
13159SOL     OW51949   2.883   7.403   6.621
13159SOL    HW151950   2.941   7.352   6.557
13159SOL    HW251951   2.875   7.351   6.707
13160SOL     OW51952   0.542   7.741   0.600
13160SOL    HW151953   0.503   7.822   0.643
13160SOL    HW251954   0.491   7.720   0.517
13161SOL     OW51955   4.002   8.920   5.955
13161SOL    HW151956   4.090   8.885   5.923
13161SOL    HW251957   4.013   0.015   5.984
13162SOL     OW51958   6.201   8.352   1.712
13162SOL    HW151959   6.256   8.306   1.782
13162SOL    HW251960   6.153   8.430   1.753
13163SOL     OW51961   5.251   7.618   3.308
13163SOL    HW151962   5.208   7.547   3.363
13163SOL    HW251963   5.193   7.640   3.230
13164SOL     OW51964   3.298   8.958   0.867
13164SOL    HW151965   3.385   8.998   0.836
13164SOL    HW251966   3.278   8.990   0.960
13165SOL     OW51967   0.523   7.656   5.383
13165SOL    HW151968   0.444   7.699   5.427
13165SOL    HW251969   0.548   7.574   5.435
13166SOL     OW51970   6.922   7.560   6.279
13166SOL    HW151971   6.947   7.648   6.319
13166SOL    HW251972   6.846   7.572   6.216
13167SOL     OW51973   4.600   8.221   0.940
13167SOL    HW151974   4.505   8.248   0.955
13167SOL    HW251975   4.657   8.302   0.934
13168SOL     OW51976   5.356   7.444   2.845
13168SOL    HW151977   5.390   7.453   2.752
13168SOL    HW251978   5.378   7.353   2.881
13169SOL     OW51979   5.745   8.678   4.322
13169SOL    HW151980   5.706   8.673   4.230
13169SOL    HW251981   5.804   8.598   4.337
13170SOL     OW51982   1.223   7.556   2.539
13170SOL    HW151983   1.151   7.511   2.593
13170SOL    HW251984   1.235   7.507   2.453
13171SOL     OW51985   2.916   7.742   2.450
13171SOL    HW151986   2.949   7.661   2.499
13171SOL    HW251987   2.919   7.724   2.351
13172SOL     OW51988   0.577   8.492   1.660
13172SOL    HW151989   0.518   8.480   1.580
13172SOL    HW251990   0.656   8.431   1.652
13173SOL     OW51991   4.451   7.685   2.405
13173SOL    HW151992   4.442   7.639   2.494
13173SOL    HW251993   4.429   7.621   2.332
13174SOL     OW51994   1.124   8.110   4.027
13174SOL    HW151995   1.216   8.127   4.062
13174SOL    HW251996   1.068   8.192   4.039
13175SOL     OW51997   6.235   8.039   5.642
13175SOL    HW151998   6.230   8.094   5.558
13175SOL    HW251999   6.160   7.973   5.643
13176SOL     OW52000   3.310   7.495   1.825
13176SOL    HW152001   3.398   7.474   1.868
13176SOL    HW252002   3.300   7.594   1.815
13177SOL     OW52003   4.238   8.445   5.196
13177SOL    HW152004   4.289   8.421   5.278
13177SOL    HW252005   4.293   8.507   5.140
13178SOL     OW52006   0.338   7.669   3.289
13178SOL    HW152007   0.292   7.741   3.237
13178SOL    HW252008   0.436   7.688   3.292
13179SOL     OW52009   2.774   7.792   6.938
13179SOL    HW152010   2.819   7.831   7.019
13179SOL    HW252011   2.713   7.860   6.898
13180SOL     OW52012   6.010   8.771   7.391
13180SOL    HW152013   5.920   8.737   7.366
13180SOL    HW252014   6.065   8.695   7.427
13181SOL     OW52015   1.757   0.061   0.467
13181SOL    HW152016   1.680   0.057   0.402
13181SOL    HW252017   1.800   8.971   0.473
13182SOL     OW52018   7.225   7.651   2.553
13182SOL    HW152019   7.185   7.572   2.504
13182SOL    HW252020   7.315   7.626   2.587
13183SOL     OW52021   7.133   8.588   7.206
13183SOL    HW152022   7.124   8.617   7.301
13183SOL    HW252023   7.228   8.560   7.188
13184SOL     OW52024   5.759   8.677   7.343
13184SOL    HW152025   5.697   8.756   7.345
13184SOL    HW252026   5.729   8.609   7.410
13185SOL     OW52027   4.371   8.585   4.116
13185SOL    HW152028   4.451   8.627   4.160
13185SOL    HW252029   4.392   8.565   4.021
13186SOL     OW52030   7.183   7.742   0.368
13186SOL    HW152031   7.186   7.711   0.463
13186SOL    HW252032   7.110   7.810   0.357
13187SOL     OW52033   0.111   8.967   2.696
13187SOL    HW152034   0.024   8.947   2.740
13187SOL    HW252035   0.143   0.058   2.723
13188SOL     OW52036   4.108   8.278   4.137
13188SOL    HW152037   4.111   8.258   4.039
13188SOL    HW252038   4.069   8.200   4.186
13189SOL     OW52039   5.515   8.138   0.065
13189SOL    HW152040   5.422   8.165   0.088
13189SOL    HW252041   5.536   8.050   0.108
13190SOL     OW52042   4.746   7.511   6.844
13190SOL    HW152043   4.715   7.606   6.843
13190SOL    HW252044   4.824   7.501   6.905
13191SOL     OW52045   2.200   8.164   0.438
13191SOL    HW152046   2.299   8.166   0.454
13191SOL    HW252047   2.155   8.115   0.513
13192SOL     OW52048   3.012   8.954   1.122
13192SOL    HW152049   3.002   8.861   1.085
13192SOL    HW252050   2.926   8.981   1.165
13193SOL     OW52051   5.735   8.194   3.908
13193SOL    HW152052   5.799   8.257   3.952
13193SOL    HW252053   5.677   8.244   3.845
13194SOL     OW52054   3.553   8.575   0.978
13194SOL    HW152055   3.581   8.498   0.921
13194SOL    HW252056   3.633   8.631   1.000
13195SOL     OW52057   3.208   8.041   0.912
13195SOL    HW152058   3.155   8.059   0.829
13195SOL    HW252059   3.271   8.116   0.929
13196SOL     OW52060   0.312   7.751   5.539
13196SOL    HW152061   0.225   7.707   5.564
13196SOL    HW252062   0.295   7.847   5.514
13197SOL     OW52063   5.331   7.741   2.568
13197SOL    HW152064   5.349   7.643   2.574
13197SOL    HW252065   5.241   7.762   2.607
13198SOL     OW52066   0.765   7.803   1.920
13198SOL    HW152067   0.816   7.846   1.994
13198SOL    HW252068   0.708   7.872   1.875
13199SOL     OW52069   4.477   8.800   6.077
13199SOL    HW152070   4.535   8.721   6.093
13199SOL    HW252071   4.513   8.879   6.128
13200SOL     OW52072   6.878   8.719   1.526
13200SOL    HW152073   6.978   8.724   1.518
13200SOL    HW252074   6.847   8.779   1.599
13201SOL     OW52075   5.035   7.660   6.626
13201SOL    HW152076   5.129   7.669   6.592
13201SOL    HW252077   5.030   7.695   6.719
13202SOL     OW52078   5.609   8.106   7.017
13202SOL    HW152079   5.570   8.038   7.079
13202SOL    HW252080   5.536   8.166   6.984
13203SOL     OW52081   5.625   7.643   1.375
13203SOL    HW152082   5.572   7.587   1.439
13203SOL    HW252083   5.574   7.653   1.289
13204SOL     OW52084   3.831   8.413   2.470
13204SOL    HW152085   3.888   8.484   2.429
13204SOL    HW252086   3.837   8.419   2.570
13205SOL     OW52087   5.932   8.538   0.576
13205SOL    HW152088   5.914   8.443   0.600
13205SOL    HW252089   6.027   8.561   0.597
13206SOL     OW52090   4.969   8.601   5.405
13206SOL    HW152091   4.921   8.688   5.391
13206SOL    HW252092   5.027   8.581   5.326
13207SOL     OW52093   2.641   8.219   1.251
13207SOL    HW152094   2.710   8.223   1.323
13207SOL    HW252095   2.683   8.187   1.166
13208SOL     OW52096   3.231   8.085   2.361
13208SOL    HW152097   3.242   8.010   2.296
13208SOL    HW252098   3.147   8.071   2.414
13209SOL     OW52099   1.908   8.220   3.236
13209SOL    HW152100   1.933   8.228   3.332
13209SOL    HW252101   1.990   8.210   3.180
13210SOL     OW52102   3.309   8.680   0.900
13210SOL    HW152103   3.399   8.654   0.938
13210SOL    HW252104   3.308   8.778   0.883
13211SOL     OW52105   5.156   8.762   3.783
13211SOL    HW152106   5.170   8.828   3.857
13211SOL    HW252107   5.242   8.746   3.735
13212SOL     OW52108   5.103   8.014   1.923
13212SOL    HW152109   5.180   8.049   1.977
13212SOL    HW252110   5.109   8.051   1.830
13213SOL     OW52111   2.295   7.330   0.515
13213SOL    HW152112   2.231   7.349   0.590
13213SOL    HW252113   2.247   7.341   0.428
13214SOL     OW52114   3.249   8.859   1.747
13214SOL    HW152115   3.183   8.917   1.795
13214SOL    HW252116   3.339   8.869   1.790
13215SOL     OW52117   1.482   8.152   1.912
13215SOL    HW152118   1.387   8.128   1.934
13215SOL    HW252119   1.534   8.069   1.895
13216SOL     OW52120   4.284   7.481   1.685
13216SOL    HW152121   4.339   7.403   1.714
13216SOL    HW252122   4.204   7.489   1.745
13217SOL     OW52123   7.058   8.288   2.856
13217SOL    HW152124   7.136   8.329   2.902
13217SOL    HW252125   7.080   8.193   2.833
13218SOL     OW52126   6.532   8.631   0.458
13218SOL    HW152127   6.490   8.690   0.527
13218SOL    HW252128   6.530   8.677   0.369
13219SOL     OW52129   0.821   7.881   7.151
13219SOL    HW152130   0.891   7.861   7.082
13219SOL    HW252131   0.760   7.802   7.160
13220SOL     OW52132   6.512   7.910   1.905
13220SOL    HW152133   6.548   7.981   1.845
13220SOL    HW252134   6.578   7.834   1.911
13221SOL     OW52135   0.215   7.883   3.143
13221SOL    HW152136   0.227   7.944   3.064
13221SOL    HW252137   0.172   7.933   3.218
13222SOL     OW52138   6.073   8.118   6.436
13222SOL    HW152139   6.138   8.049   6.469
13222SOL    HW252140   6.120   8.181   6.375
13223SOL     OW52141   3.265   8.179   1.609
13223SOL    HW152142   3.198   8.109   1.584
13223SOL    HW252143   3.228   8.269   1.589
13224SOL     OW52144   5.038   7.669   1.431
13224SOL    HW152145   4.951   7.694   1.387
13224SOL    HW252146   5.024   7.588   1.489
13225SOL     OW52147   6.722   7.861   5.540
13225SOL    HW152148   6.624   7.877   5.545
13225SOL    HW252149   6.765   7.886   5.627
13226SOL     OW52150   3.125   7.382   2.157
13226SOL    HW152151   3.092   7.335   2.240
13226SOL    HW252152   3.205   7.335   2.121
13227SOL     OW52153   4.567   8.599   5.649
13227SOL    HW152154   4.654   8.583   5.695
13227SOL    HW252155   4.581   8.659   5.571
13228SOL     OW52156   1.670   8.486   0.086
13228SOL    HW152157   1.746   8.449   0.139
13228SOL    HW252158   1.644   8.574   0.123
13229SOL     OW52159   3.425   8.830   6.866
13229SOL    HW152160   3.363   8.877   6.804
13229SOL    HW252161   3.482   8.765   6.814
13230SOL     OW52162   6.280   7.890   2.783
13230SOL    HW152163   6.326   7.977   2.760
13230SOL    HW252164   6.237   7.853   2.701
13231SOL     OW52165   4.528   8.187   6.683
13231SOL    HW152166   4.542   8.207   6.586
13231SOL    HW252167   4.534   8.272   6.736
13232SOL     OW52168   1.406   8.021   6.174
13232SOL    HW152169   1.399   8.094   6.106
13232SOL    HW252170   1.501   7.992   6.182
13233SOL     OW52171   0.035   8.988   0.619
13233SOL    HW152172   0.028   8.889   0.603
13233SOL    HW252173   0.113   0.024   0.568
13234SOL     OW52174   7.053   8.162   5.462
13234SOL    HW152175   7.137   8.216   5.467
13234SOL    HW252176   7.028   8.145   5.367
13235SOL     OW52177   0.576   7.436   5.535
13235SOL    HW152178   0.551   7.476   5.623
13235SOL    HW252179   0.652   7.372   5.548
13236SOL     OW52180   2.288   8.566   8.865
13236SOL    HW152181   2.349   8.628   8.816
13236SOL    HW252182   2.193   8.592   8.848
13237SOL     OW52183   5.755   8.005   2.986
13237SOL    HW152184   5.808   7.928   3.022
13237SOL    HW252185   5.798   8.039   2.902
13238SOL     OW52186   5.875   7.819   4.130
13238SOL    HW152187   5.885   7.720   4.122
13238SOL    HW252188   5.864   7.859   4.038
13239SOL     OW52189   5.850   8.555   3.383
13239SOL    HW152190   5.923   8.599   3.435
13239SOL    HW252191   5.859   8.456   3.390
13240SOL     OW52192   7.006   7.927   5.002
13240SOL    HW152193   7.008   7.942   4.903
13240SOL    HW252194   6.946   7.850   5.023
13241SOL     OW52195   3.248   8.802   6.446
13241SOL    HW152196   3.273   8.712   6.412
13241SOL    HW252197   3.151   8.819   6.431
13242SOL     OW52198   0.296   7.366   5.771
13242SOL    HW152199   0.284   7.353   5.869
13242SOL    HW252200   0.352   7.447   5.755
13243SOL     OW52201   0.167   7.635   2.685
13243SOL    HW152202   0.172   7.644   2.784
13243SOL    HW252203   0.242   7.687   2.643
13244SOL     OW52204   2.436   7.364   2.967
13244SOL    HW152205   2.435   7.270   2.999
13244SOL    HW252206   2.448   7.365   2.868
13245SOL     OW52207   0.878   8.693   6.751
13245SOL    HW152208   0.960   8.697   6.808
13245SOL    HW252209   0.802   8.736   6.798
13246SOL     OW52210   5.017   8.435   1.317
13246SOL    HW152211   5.021   8.399   1.223
13246SOL    HW252212   4.948   8.384   1.369
13247SOL     OW52213   3.629   8.069   0.593
13247SOL    HW152214   3.597   8.164   0.586
13247SOL    HW252215   3.652   8.035   0.501
13248SOL     OW52216   2.048   7.553   0.455
13248SOL    HW152217   1.993   7.470   0.464
13248SOL    HW252218   2.083   7.560   0.362
13249SOL     OW52219   4.443   8.802   1.151
13249SOL    HW152220   4.460   8.891   1.195
13249SOL    HW252221   4.365   8.758   1.195
13250SOL     OW52222   7.279   7.591   2.147
13250SOL    HW152223   7.321   7.500   2.145
13250SOL    HW252224   7.180   7.582   2.158
13251SOL     OW52225   3.056   8.690   1.019
13251SOL    HW152226   3.052   8.658   1.114
13251SOL    HW252227   3.148   8.676   0.983
13252SOL     OW52228   3.623   8.956   3.013
13252SOL    HW152229   3.524   8.945   3.021
13252SOL    HW252230   3.651   0.039   3.061
13253SOL     OW52231   2.169   8.004   0.217
13253SOL    HW152232   2.099   7.933   0.229
13253SOL    HW252233   2.169   8.064   0.297
13254SOL     OW52234   4.365   8.332   4.221
13254SOL    HW152235   4.272   8.299   4.200
13254SOL    HW252236   4.374   8.427   4.193
13255SOL     OW52237   6.011   7.483   6.623
13255SOL    HW152238   6.060   7.492   6.709
13255SOL    HW252239   6.047   7.405   6.571
13256SOL     OW52240   5.491   8.772   0.235
13256SOL    HW152241   5.398   8.805   0.216
13256SOL    HW252242   5.514   8.793   0.330
13257SOL     OW52243   5.262   8.436   4.927
13257SOL    HW152244   5.353   8.419   4.963
13257SOL    HW252245   5.203   8.357   4.946
13258SOL     OW52246   1.164   8.628   0.030
13258SOL    HW152247   1.248   8.682   0.030
13258SOL    HW252248   1.090   8.681   8.987
13259SOL     OW52249   4.210   8.491   3.273
13259SOL    HW152250   4.121   8.463   3.237
13259SOL    HW252251   4.219   8.590   3.266
13260SOL     OW52252   1.937   8.104   6.800
13260SOL    HW152253   1.887   8.098   6.714
13260SOL    HW252254   2.035   8.104   6.781
13261SOL     OW52255   3.004   8.005   2.505
13261SOL    HW152256   2.973   7.915   2.474
13261SOL    HW252257   2.926   8.059   2.536
13262SOL     OW52258   5.183   8.602   0.476
13262SOL    HW152259   5.168   8.643   0.566
13262SOL    HW252260   5.139   8.659   0.407
13263SOL     OW52261   1.382   8.427   2.933
13263SOL    HW152262   1.460   8.364   2.935
13263SOL    HW252263   1.312   8.396   2.998
13264SOL     OW52264   3.863   8.154   2.381
13264SOL    HW152265   3.857   8.251   2.406
13264SOL    HW252266   3.819   8.140   2.292
13265SOL     OW52267   5.572   7.611   6.550
13265SOL    HW152268   5.634   7.535   6.532
13265SOL    HW252269   5.608   7.694   6.507
13266SOL     OW52270   5.191   8.337   4.151
13266SOL    HW152271   5.104   8.371   4.115
13266SOL    HW252272   5.185   8.238   4.164
13267SOL     OW52273   6.069   8.651   3.524
13267SOL    HW152274   6.100   8.739   3.488
13267SOL    HW252275   6.139   8.582   3.506
13268SOL     OW52276   7.264   8.171   2.491
13268SOL    HW152277   7.248   8.072   2.492
13268SOL    HW252278   7.361   8.189   2.504
13269SOL     OW52279   1.662   7.961   5.548
13269SOL    HW152280   1.715   7.931   5.469
13269SOL    HW252281   1.709   7.933   5.632
13270SOL     OW52282   3.667   7.501   3.743
13270SOL    HW152283   3.715   7.425   3.701
13270SOL    HW252284   3.663   7.578   3.679
13271SOL     OW52285   5.292   7.796   6.958
13271SOL    HW152286   5.284   7.819   7.055
13271SOL    HW252287   5.326   7.703   6.949
13272SOL     OW52288   1.430   8.420   1.877
13272SOL    HW152289   1.438   8.322   1.895
13272SOL    HW252290   1.360   8.436   1.807
13273SOL     OW52291   2.252   7.974   2.045
13273SOL    HW152292   2.208   8.063   2.033
13273SOL    HW252293   2.187   7.902   2.021
13274SOL     OW52294   6.933   8.200   1.977
13274SOL    HW152295   7.030   8.199   2.002
13274SOL    HW252296   6.916   8.272   1.909
13275SOL     OW52297   2.872   8.581   4.687
13275SOL    HW152298   2.895   8.549   4.595
13275SOL    HW252299   2.858   8.680   4.685
13276SOL     OW52300   6.548   8.684   3.019
13276SOL    HW152301   6.471   8.727   3.066
13276SOL    HW252302   6.582   8.608   3.073
13277SOL     OW52303   3.887   7.848   2.984
13277SOL    HW152304   3.917   7.825   3.076
13277SOL    HW252305   3.935   7.931   2.954
13278SOL     OW52306   6.844   8.895   1.723
13278SOL    HW152307   6.858   8.888   1.821
13278SOL    HW252308   6.883   8.981   1.690
13279SOL     OW52309   1.981   7.647   0.064
13279SOL    HW152310   1.960   7.704   8.984
13279SOL    HW252311   1.977   7.703   0.147
13280SOL     OW52312   1.990   8.273   1.506
13280SOL    HW152313   1.930   8.194   1.517
13280SOL    HW252314   1.950   8.336   1.441
13281SOL     OW52315   2.299   7.604   1.976
13281SOL    HW152316   2.217   7.662   1.974
13281SOL    HW252317   2.335   7.600   2.069
13282SOL     OW52318   6.964   8.169   6.476
13282SOL    HW152319   6.916   8.113   6.543
13282SOL    HW252320   6.897   8.214   6.416
13283SOL     OW52321   6.394   7.637   5.627
13283SOL    HW152322   6.374   7.667   5.720
13283SOL    HW252323   6.409   7.716   5.568
13284SOL     OW52324   5.393   7.691   1.908
13284SOL    HW152325   5.393   7.730   1.816
13284SOL    HW252326   5.391   7.764   1.976
13285SOL     OW52327   4.624   8.483   5.327
13285SOL    HW152328   4.692   8.444   5.389
13285SOL    HW252329   4.534   8.444   5.347
13286SOL     OW52330   6.597   8.156   1.788
13286SOL    HW152331   6.627   8.227   1.723
13286SOL    HW252332   6.504   8.176   1.819
13287SOL     OW52333   0.562   8.858   1.914
13287SOL    HW152334   0.510   8.809   1.984
13287SOL    HW252335   0.593   8.946   1.951
13288SOL     OW52336   0.920   8.928   1.143
13288SOL    HW152337   0.947   8.942   1.238
13288SOL    HW252338   0.984   8.977   1.083
13289SOL     OW52339   7.240   8.540   2.270
13289SOL    HW152340   7.196   8.451   2.285
13289SOL    HW252341   7.294   8.564   2.351
13290SOL     OW52342   1.934   0.027   7.094
13290SOL    HW152343   1.920   8.971   7.012
13290SOL    HW252344   2.026   0.011   7.130
13291SOL     OW52345   4.094   7.841   2.544
13291SOL    HW152346   4.006   7.841   2.497
13291SOL    HW252347   4.131   7.934   2.547
13292SOL     OW52348   1.250   7.403   4.054
13292SOL    HW152349   1.185   7.421   4.128
13292SOL    HW252350   1.343   7.406   4.090
13293SOL     OW52351   7.116   8.272   6.691
13293SOL    HW152352   7.056   8.243   6.617
13293SOL    HW252353   7.209   8.239   6.673
13294SOL     OW52354   2.751   7.422   1.217
13294SOL    HW152355   2.681   7.414   1.146
13294SOL    HW252356   2.749   7.514   1.255
13295SOL     OW52357   6.434   8.982   1.411
13295SOL    HW152358   6.340   0.008   1.388
13295SOL    HW252359   6.492   0.064   1.409
13296SOL     OW52360   2.354   8.736   1.133
13296SOL    HW152361   2.362   8.762   1.229
13296SOL    HW252362   2.277   8.673   1.122
13297SOL     OW52363   1.732   7.617   5.754
13297SOL    HW152364   1.637   7.609   5.783
13297SOL    HW252365   1.756   7.539   5.697
13298SOL     OW52366   0.914   8.491   0.742
13298SOL    HW152367   0.941   8.555   0.814
13298SOL    HW252368   0.937   8.530   0.653
13299SOL     OW52369   6.944   7.348   6.642
13299SOL    HW152370   6.940   7.326   6.739
13299SOL    HW252371   7.032   7.390   6.621
13300SOL     OW52372   0.427   8.286   5.916
13300SOL    HW152373   0.524   8.309   5.925
13300SOL    HW252374   0.394   8.248   6.002
13301SOL     OW52375   2.287   8.709   6.416
13301SOL    HW152376   2.220   8.766   6.369
13301SOL    HW252377   2.244   8.623   6.444
13302SOL     OW52378   1.478   8.125   6.716
13302SOL    HW152379   1.392   8.127   6.665
13302SOL    HW252380   1.470   8.184   6.797
13303SOL     OW52381   4.105   8.099   0.459
13303SOL    HW152382   4.121   8.126   0.553
13303SOL    HW252383   4.063   8.008   0.457
13304SOL     OW52384   3.738   7.561   5.396
13304SOL    HW152385   3.806   7.548   5.468
13304SOL    HW252386   3.722   7.474   5.350
13305SOL     OW52387   2.373   8.188   0.156
13305SOL    HW152388   2.425   8.175   0.240
13305SOL    HW252389   2.301   8.119   0.150
13306SOL     OW52390   2.411   8.379   1.798
13306SOL    HW152391   2.434   8.389   1.895
13306SOL    HW252392   2.312   8.367   1.789
13307SOL     OW52393   7.249   7.842   5.105
13307SOL    HW152394   7.222   7.755   5.145
13307SOL    HW252395   7.168   7.889   5.070
13308SOL     OW52396   2.906   7.513   7.264
13308SOL    HW152397   2.886   7.420   7.296
13308SOL    HW252398   2.827   7.572   7.282
13309SOL     OW52399   2.746   8.349   5.651
13309SOL    HW152400   2.823   8.298   5.690
13309SOL    HW252401   2.753   8.349   5.551
13310SOL     OW52402   7.164   7.841   5.594
13310SOL    HW152403   7.072   7.877   5.579
13310SOL    HW252404   7.220   7.855   5.513
13311SOL     OW52405   4.773   8.439   0.941
13311SOL    HW152406   4.731   8.506   1.003
13311SOL    HW252407   4.806   8.486   0.860
13312SOL     OW52408   1.830   7.922   3.717
13312SOL    HW152409   1.845   7.823   3.712
13312SOL    HW252410   1.914   7.970   3.691
13313SOL     OW52411   5.710   8.689   3.185
13313SOL    HW152412   5.622   8.641   3.173
13313SOL    HW252413   5.764   8.642   3.255
13314SOL     OW52414   3.289   8.568   2.605
13314SOL    HW152415   3.373   8.602   2.562
13314SOL    HW252416   3.303   8.474   2.634
13315SOL     OW52417   5.439   8.093   3.455
13315SOL    HW152418   5.382   8.114   3.535
13315SOL    HW252419   5.434   7.995   3.435
13316SOL     OW52420   4.027   8.773   0.575
13316SOL    HW152421   3.974   8.854   0.600
13316SOL    HW252422   3.966   8.695   0.563
13317SOL     OW52423   6.182   8.732   1.615
13317SOL    HW152424   6.090   8.700   1.592
13317SOL    HW252425   6.176   8.811   1.676
13318SOL     OW52426   0.071   8.604   7.122
13318SOL    HW152427   0.134   8.554   7.062
13318SOL    HW252428   0.067   8.700   7.095
13319SOL     OW52429   1.226   8.562   3.259
13319SOL    HW152430   1.255   8.646   3.306
13319SOL    HW252431   1.304   8.500   3.251
13320SOL     OW52432   5.702   0.028   4.683
13320SOL    HW152433   5.781   0.012   4.742
13320SOL    HW252434   5.718   8.986   4.593
13321SOL     OW52435   2.663   7.812   8.955
13321SOL    HW152436   2.688   7.908   8.958
13321SOL    HW252437   2.696   7.766   0.038
13322SOL     OW52438   4.819   8.350   3.424
13322SOL    HW152439   4.850   8.344   3.519
13322SOL    HW252440   4.730   8.305   3.415
13323SOL     OW52441   5.654   8.279   1.288
13323SOL    HW152442   5.728   8.289   1.354
13323SOL    HW252443   5.609   8.190   1.303
13324SOL     OW52444   5.839   8.926   3.482
13324SOL    HW152445   5.794   8.941   3.393
13324SOL    HW252446   5.850   0.014   3.529
13325SOL     OW52447   1.394   8.781   0.071
13325SOL    HW152448   1.469   8.764   0.135
13325SOL    HW252449   1.358   8.873   0.085
13326SOL     OW52450   5.297   7.467   0.204
13326SOL    HW152451   5.229   7.486   0.275
13326SOL    HW252452   5.285   7.374   0.170
13327SOL     OW52453   4.424   7.554   2.642
13327SOL    HW152454   4.360   7.615   2.689
13327SOL    HW252455   4.390   7.460   2.649
13328SOL     OW52456   0.089   8.860   7.015
13328SOL    HW152457   0.182   8.871   7.050
13328SOL    HW252458   0.091   8.866   6.915
13329SOL     OW52459   3.890   8.904   5.697
13329SOL    HW152460   3.898   8.909   5.797
13329SOL    HW252461   3.967   8.852   5.660
13330SOL     OW52462   1.742   8.619   7.090
13330SOL    HW152463   1.802   8.602   7.012
13330SOL    HW252464   1.675   8.545   7.097
13331SOL     OW52465   1.790   0.145   5.526
13331SOL    HW152466   1.739   0.084   5.466
13331SOL    HW252467   1.853   0.201   5.472
13332SOL     OW52468   0.268   7.688   1.010
13332SOL    HW152469   0.317   7.742   1.078
13332SOL    HW252470   0.209   7.748   0.956
13333SOL     OW52471   1.922   7.943   7.024
13333SOL    HW152472   1.983   7.971   7.098
13333SOL    HW252473   1.929   8.009   6.949
13334SOL     OW52474   1.964   7.451   6.674
13334SOL    HW152475   1.890   7.423   6.735
13334SOL    HW252476   2.047   7.468   6.727
13335SOL     OW52477   6.472   8.054   5.294
13335SOL    HW152478   6.456   8.054   5.196
13335SOL    HW252479   6.571   8.059   5.312
13336SOL     OW52480   0.679   8.817   0.455
13336SOL    HW152481   0.589   8.860   0.463
13336SOL    HW252482   0.729   8.827   0.541
13337SOL     OW52483   5.101   8.497   3.826
13337SOL    HW152484   5.113   8.594   3.808
13337SOL    HW252485   5.190   8.453   3.836
13338SOL     OW52486   5.438   7.528   1.557
13338SOL    HW152487   5.418   7.610   1.610
13338SOL    HW252488   5.374   7.521   1.480
13339SOL     OW52489   5.651   7.604   3.956
13339SOL    HW152490   5.660   7.663   3.876
13339SOL    HW252491   5.574   7.635   4.011
13340SOL     OW52492   5.467   7.453   3.235
13340SOL    HW152493   5.408   7.382   3.196
13340SOL    HW252494   5.410   7.524   3.275
13341SOL     OW52495   5.279   8.252   2.320
13341SOL    HW152496   5.296   8.331   2.380
13341SOL    HW252497   5.268   8.170   2.376
13342SOL     OW52498   1.867   8.358   0.253
13342SOL    HW152499   1.870   8.295   0.176
13342SOL    HW252500   1.960   8.386   0.277
13343SOL     OW52501   1.153   7.511   1.208
13343SOL    HW152502   1.074   7.534   1.152
13343SOL    HW252503   1.124   7.494   1.302
13344SOL     OW52504   5.868   7.977   2.287
13344SOL    HW152505   5.773   8.002   2.270
13344SOL    HW252506   5.887   7.888   2.246
13345SOL     OW52507   1.936   8.854   6.877
13345SOL    HW152508   1.922   8.756   6.886
13345SOL    HW252509   1.907   8.884   6.786
13346SOL     OW52510   1.739   8.106   6.586
13346SOL    HW152511   1.656   8.107   6.642
13346SOL    HW252512   1.724   8.159   6.503
13347SOL     OW52513   3.996   8.398   0.691
13347SOL    HW152514   3.932   8.449   0.634
13347SOL    HW252515   4.051   8.463   0.745
13348SOL     OW52516   7.333   8.659   1.677
13348SOL    HW152517   7.275   8.606   1.738
13348SOL    HW252518   7.415   8.607   1.655
13349SOL     OW52519   2.372   7.537   3.392
13349SOL    HW152520   2.429   7.606   3.437
13349SOL    HW252521   2.426   7.490   3.322
13350SOL     OW52522   0.114   8.382   2.660
13350SOL    HW152523   0.166   8.360   2.578
13350SOL    HW252524   0.042   8.314   2.674
13351SOL     OW52525   5.498   7.636   0.129
13351SOL    HW152526   5.423   7.577   0.159
13351SOL    HW252527   5.476   7.675   0.040
13352SOL     OW52528   4.576   7.975   4.376
13352SOL    HW152529   4.495   7.923   4.351
13352SOL    HW252530   4.657   7.917   4.368
13353SOL     OW52531   3.949   7.493   5.571
13353SOL    HW152532   3.980   7.443   5.652
13353SOL    HW252533   3.996   7.457   5.490
13354SOL     OW52534   4.387   7.775   6.926
13354SOL    HW152535   4.361   7.683   6.952
13354SOL    HW252536   4.401   7.830   7.008
13355SOL     OW52537   4.167   7.494   7.250
13355SOL    HW152538   4.075   7.459   7.232
13355SOL    HW252539   4.215   7.430   7.310
13356SOL     OW52540   4.108   8.216   3.860
13356SOL    HW152541   4.148   8.301   3.827
13356SOL    HW252542   4.011   8.212   3.834
13357SOL     OW52543   3.374   8.124   1.265
13357SOL    HW152544   3.357   8.027   1.249
13357SOL    HW252545   3.295   8.164   1.312
13358SOL     OW52546   1.150   7.393   3.795
13358SOL    HW152547   1.077   7.325   3.785
13358SOL    HW252548   1.184   7.390   3.889
13359SOL     OW52549   0.417   8.407   1.450
13359SOL    HW152550   0.442   8.311   1.441
13359SOL    HW252551   0.385   8.442   1.362
13360SOL     OW52552   5.536   8.065   4.929
13360SOL    HW152553   5.574   8.102   5.014
13360SOL    HW252554   5.444   8.031   4.946
13361SOL     OW52555   7.308   0.379   3.729
13361SOL    HW152556   7.264   0.333   3.652
13361SOL    HW252557   7.258   0.360   3.813
13362SOL     OW52558   6.546   8.196   2.475
13362SOL    HW152559   6.610   8.137   2.524
13362SOL    HW252560   6.591   8.281   2.449
13363SOL     OW52561   5.895   8.264   0.606
13363SOL    HW152562   5.981   8.252   0.557
13363SOL    HW252563   5.819   8.243   0.545
13364SOL     OW52564   4.397   7.597   6.047
13364SOL    HW152565   4.396   7.578   6.145
13364SOL    HW252566   4.473   7.659   6.026
13365SOL     OW52567   3.707   7.778   2.791
13365SOL    HW152568   3.771   7.814   2.859
13365SOL    HW252569   3.724   7.680   2.779
13366SOL     OW52570   4.490   7.938   0.225
13366SOL    HW152571   4.495   7.947   0.325
13366SOL    HW252572   4.542   8.012   0.183
13367SOL     OW52573   1.874   8.682   7.322
13367SOL    HW152574   1.843   8.622   7.395
13367SOL    HW252575   1.828   8.658   7.237
13368SOL     OW52576   3.031   8.625   1.290
13368SOL    HW152577   3.086   8.660   1.366
13368SOL    HW252578   2.934   8.643   1.307
13369SOL     OW52579   2.442   8.955   1.922
13369SOL    HW152580   2.458   0.032   1.861
13369SOL    HW252581   2.399   8.880   1.871
13370SOL     OW52582   4.750   8.218   2.993
13370SOL    HW152583   4.815   8.259   3.058
13370SOL    HW252584   4.800   8.164   2.926
13371SOL     OW52585   5.976   7.799   0.085
13371SOL    HW152586   5.898   7.853   0.052
13371SOL    HW252587   6.005   7.736   0.013
13372SOL     OW52588   6.702   8.511   2.665
13372SOL    HW152589   6.750   8.599   2.668
13372SOL    HW252590   6.704   8.475   2.572
13373SOL     OW52591   2.536   8.631   0.233
13373SOL    HW152592   2.472   8.568   0.189
13373SOL    HW252593   2.629   8.609   0.206
13374SOL     OW52594   4.014   8.049   4.256
13374SOL    HW152595   4.049   8.021   4.345
13374SOL    HW252596   3.915   8.030   4.252
13375SOL     OW52597   2.043   8.960   2.079
13375SOL    HW152598   2.026   0.019   2.000
13375SOL    HW252599   2.095   0.011   2.148
13376SOL     OW52600   1.395   7.779   7.242
13376SOL    HW152601   1.410   7.703   7.179
13376SOL    HW252602   1.302   7.774   7.279
13377SOL     OW52603   6.274   8.253   6.281
13377SOL    HW152604   6.307   8.167   6.244
13377SOL    HW252605   6.309   8.266   6.373
13378SOL     OW52606   1.965   8.464   5.893
13378SOL    HW152607   1.968   8.368   5.867
13378SOL    HW252608   1.871   8.490   5.913
13379SOL     OW52609   4.908   8.126   1.252
13379SOL    HW152610   4.833   8.079   1.206
13379SOL    HW252611   4.872   8.178   1.329
13380SOL     OW52612   0.070   8.883   1.522
13380SOL    HW152613   0.164   8.851   1.523
13380SOL    HW252614   0.016   8.829   1.587
13381SOL     OW52615   2.683   8.905   2.039
13381SOL    HW152616   2.705   8.813   2.005
13381SOL    HW252617   2.592   8.931   2.007
13382SOL     OW52618   0.244   8.013   5.478
13382SOL    HW152619   0.265   8.067   5.560
13382SOL    HW252620   0.284   8.058   5.398
13383SOL     OW52621   3.049   0.086   6.191
13383SOL    HW152622   2.978   0.102   6.260
13383SOL    HW252623   3.037   0.151   6.116
13384SOL     OW52624   6.921   7.897   0.941
13384SOL    HW152625   6.918   7.902   1.041
13384SOL    HW252626   6.885   7.982   0.903
13385SOL     OW52627   0.296   8.218   0.592
13385SOL    HW152628   0.356   8.298   0.595
13385SOL    HW252629   0.211   8.239   0.642
13386SOL     OW52630   6.305   7.764   5.068
13386SOL    HW152631   6.262   7.853   5.083
13386SOL    HW252632   6.278   7.702   5.141
13387SOL     OW52633   3.950   8.453   3.173
13387SOL    HW152634   3.880   8.451   3.244
13387SOL    HW252635   3.925   8.391   3.099
13388SOL     OW52636   4.889   8.569   0.719
13388SOL    HW152637   4.932   8.658   0.735
13388SOL    HW252638   4.871   8.558   0.621
13389SOL     OW52639   6.089   0.139   4.222
13389SOL    HW152640   6.009   0.145   4.163
13389SOL    HW252641   6.171   0.162   4.170
13390SOL     OW52642   0.346   7.537   1.606
13390SOL    HW152643   0.349   7.439   1.586
13390SOL    HW252644   0.277   7.580   1.549
13391SOL     OW52645   1.960   8.219   5.778
13391SOL    HW152646   1.994   8.125   5.774
13391SOL    HW252647   1.980   8.266   5.692
13392SOL     OW52648   6.088   7.555   7.305
13392SOL    HW152649   6.185   7.572   7.318
13392SOL    HW252650   6.037   7.641   7.312
13393SOL     OW52651   7.006   8.135   5.727
13393SOL    HW152652   7.100   8.139   5.762
13393SOL    HW252653   7.007   8.145   5.628
13394SOL     OW52654   6.067   7.440   1.932
13394SOL    HW152655   5.993   7.388   1.975
13394SOL    HW252656   6.096   7.513   1.994
13395SOL     OW52657   5.962   8.163   6.694
13395SOL    HW152658   5.994   8.152   6.600
13395SOL    HW252659   5.929   8.256   6.708
13396SOL     OW52660   3.708   7.542   2.294
13396SOL    HW152661   3.630   7.595   2.325
13396SOL    HW252662   3.758   7.506   2.373
13397SOL     OW52663   5.620   8.181   5.163
13397SOL    HW152664   5.546   8.159   5.227
13397SOL    HW252665   5.707   8.186   5.214
13398SOL     OW52666   0.279   8.765   2.778
13398SOL    HW152667   0.227   8.843   2.743
13398SOL    HW252668   0.368   8.761   2.732
13399SOL     OW52669   3.163   7.445   0.594
13399SOL    HW152670   3.085   7.413   0.540
13399SOL    HW252671   3.157   7.408   0.686
13400SOL     OW52672   5.543   7.928   1.012
13400SOL    HW152673   5.588   7.866   0.948
13400SOL    HW252674   5.505   8.006   0.962
13401SOL     OW52675   6.644   7.369   0.582
13401SOL    HW152676   6.578   7.437   0.549
13401SOL    HW252677   6.595   7.286   0.607
13402SOL     OW52678   7.013   7.563   2.188
13402SOL    HW152679   7.015   7.526   2.281
13402SOL    HW252680   6.927   7.538   2.144
13403SOL     OW52681   2.432   8.648   5.716
13403SOL    HW152682   2.357   8.607   5.664
13403SOL    HW252683   2.428   8.618   5.811
13404SOL     OW52684   5.344   8.586   1.590
13404SOL    HW152685   5.408   8.515   1.559
13404SOL    HW252686   5.391   8.675   1.592
13405SOL     OW52687   1.672   8.287   2.418
13405SOL    HW152688   1.758   8.332   2.395
13405SOL    HW252689   1.620   8.269   2.335
13406SOL     OW52690   3.537   8.628   2.948
13406SOL    HW152691   3.593   8.650   3.028
13406SOL    HW252692   3.588   8.648   2.865
13407SOL     OW52693   3.357   8.201   4.424
13407SOL    HW152694   3.436   8.261   4.412
13407SOL    HW252695   3.326   8.206   4.519
13408SOL     OW52696   6.052   7.525   1.132
13408SOL    HW152697   6.006   7.529   1.220
13408SOL    HW252698   6.148   7.498   1.145
13409SOL     OW52699   4.243   7.866   0.099
13409SOL    HW152700   4.176   7.939   0.091
13409SOL    HW252701   4.321   7.898   0.152
13410SOL     OW52702   4.961   8.872   6.802
13410SOL    HW152703   4.961   8.927   6.719
13410SOL    HW252704   4.998   8.927   6.878
13411SOL     OW52705   0.417   7.817   1.201
13411SOL    HW152706   0.511   7.825   1.168
13411SOL    HW252707   0.417   7.821   1.301
13412SOL     OW52708   2.426   8.849   3.128
13412SOL    HW152709   2.435   8.761   3.175
13412SOL    HW252710   2.472   8.920   3.182
13413SOL     OW52711   6.202   8.006   4.290
13413SOL    HW152712   6.122   7.954   4.318
13413SOL    HW252713   6.228   8.070   4.363
13414SOL     OW52714   4.999   8.578   7.050
13414SOL    HW152715   4.998   8.527   7.137
13414SOL    HW252716   5.093   8.590   7.020
13415SOL     OW52717   2.189   8.783   1.603
13415SOL    HW152718   2.236   8.750   1.685
13415SOL    HW252719   2.142   8.707   1.559
13416SOL     OW52720   7.335   7.812   0.890
13416SOL    HW152721   7.327   7.733   0.828
13416SOL    HW252722   7.304   7.894   0.843
13417SOL     OW52723   7.319   7.610   0.707
13417SOL    HW152724   7.395   7.612   0.642
13417SOL    HW252725   7.276   7.519   0.704
13418SOL     OW52726   4.807   8.297   1.448
13418SOL    HW152727   4.745   8.374   1.433
13418SOL    HW252728   4.804   8.270   1.544
13419SOL     OW52729   0.391   7.529   1.876
13419SOL    HW152730   0.392   7.541   1.777
13419SOL    HW252731   0.318   7.466   1.901
13420SOL     OW52732   3.985   8.714   3.089
13420SOL    HW152733   4.063   8.750   3.140
13420SOL    HW252734   3.974   8.616   3.109
13421SOL     OW52735   2.630   7.561   3.702
13421SOL    HW152736   2.618   7.462   3.699
13421SOL    HW252737   2.718   7.583   3.745
13422SOL     OW52738   2.842   8.983   0.450
13422SOL    HW152739   2.871   0.074   0.481
13422SOL    HW252740   2.745   8.970   0.470
13423SOL     OW52741   5.079   8.249   5.007
13423SOL    HW152742   5.101   8.241   5.104
13423SOL    HW252743   4.981   8.240   4.994
13424SOL     OW52744   1.402   8.001   2.665
13424SOL    HW152745   1.363   7.937   2.598
13424SOL    HW252746   1.404   7.957   2.755
13425SOL     OW52747   2.076   7.969   5.762
13425SOL    HW152748   2.167   7.991   5.727
13425SOL    HW252749   2.084   7.918   5.848
13426SOL     OW52750   6.184   7.483   0.785
13426SOL    HW152751   6.206   7.431   0.702
13426SOL    HW252752   6.093   7.458   0.816
13427SOL     OW52753   1.024   8.646   6.528
13427SOL    HW152754   1.059   8.734   6.496
13427SOL    HW252755   0.962   8.661   6.605
13428SOL     OW52756   5.794   8.798   5.175
13428SOL    HW152757   5.714   8.740   5.194
13428SOL    HW252758   5.763   8.892   5.157
13429SOL     OW52759   5.090   8.614   4.465
13429SOL    HW152760   5.178   8.648   4.433
13429SOL    HW252761   5.096   8.589   4.561
13430SOL     OW52762   5.155   8.270   5.276
13430SOL    HW152763   5.250   8.240   5.286
13430SOL    HW252764   5.153   8.368   5.256
13431SOL     OW52765   5.989   8.138   7.298
13431SOL    HW152766   6.048   8.141   7.217
13431SOL    HW252767   5.897   8.165   7.273
13432SOL     OW52768   1.980   7.518   1.897
13432SOL    HW152769   1.887   7.495   1.867
13432SOL    HW252770   2.039   7.438   1.886
13433SOL     OW52771   2.647   8.495   4.833
13433SOL    HW152772   2.731   8.529   4.790
13433SOL    HW252773   2.624   8.405   4.795
13434SOL     OW52774   5.568   7.477   6.800
13434SOL    HW152775   5.564   7.539   6.722
13434SOL    HW252776   5.592   7.385   6.768
13435SOL     OW52777   6.456   8.060   5.017
13435SOL    HW152778   6.510   7.978   5.001
13435SOL    HW252779   6.504   8.140   4.981
13436SOL     OW52780   6.457   7.849   1.527
13436SOL    HW152781   6.431   7.943   1.552
13436SOL    HW252782   6.390   7.812   1.464
13437SOL     OW52783   2.517   8.000   1.970
13437SOL    HW152784   2.555   7.908   1.960
13437SOL    HW252785   2.422   7.993   2.001
13438SOL     OW52786   4.968   8.280   0.244
13438SOL    HW152787   4.989   8.193   0.200
13438SOL    HW252788   5.022   8.353   0.202
13439SOL     OW52789   3.634   8.133   1.169
13439SOL    HW152790   3.539   8.148   1.197
13439SOL    HW252791   3.639   8.125   1.070
13440SOL     OW52792   1.093   7.987   3.786
13440SOL    HW152793   0.996   7.987   3.765
13440SOL    HW252794   1.108   8.029   3.876
13441SOL     OW52795   2.084   8.009   0.634
13441SOL    HW152796   2.031   7.929   0.606
13441SOL    HW252797   2.131   7.989   0.720
13442SOL     OW52798   5.824   7.931   3.881
13442SOL    HW152799   5.789   8.025   3.885
13442SOL    HW252800   5.763   7.875   3.826
13443SOL     OW52801   5.594   8.904   7.360
13443SOL    HW152802   5.586   8.997   7.323
13443SOL    HW252803   5.544   8.898   7.446
13444SOL     OW52804   5.619   8.728   3.510
13444SOL    HW152805   5.704   8.779   3.512
13444SOL    HW252806   5.638   8.632   3.489
13445SOL     OW52807   5.426   8.230   0.375
13445SOL    HW152808   5.375   8.230   0.289
13445SOL    HW252809   5.427   8.323   0.412
13446SOL     OW52810   3.904   7.444   6.321
13446SOL    HW152811   3.835   7.503   6.279
13446SOL    HW252812   3.912   7.359   6.269
13447SOL     OW52813   3.718   8.752   3.408
13447SOL    HW152814   3.665   8.678   3.451
13447SOL    HW252815   3.707   8.748   3.309
13448SOL     OW52816   1.532   8.447   7.183
13448SOL    HW152817   1.573   8.442   7.274
13448SOL    HW252818   1.462   8.518   7.182
13449SOL     OW52819   0.858   8.871   2.698
13449SOL    HW152820   0.844   8.874   2.797
13449SOL    HW252821   0.769   8.869   2.652
13450SOL     OW52822   5.269   7.867   6.146
13450SOL    HW152823   5.363   7.846   6.172
13450SOL    HW252824   5.270   7.943   6.080
13451SOL     OW52825   4.217   8.688   6.686
13451SOL    HW152826   4.232   8.664   6.590
13451SOL    HW252827   4.293   8.744   6.718
13452SOL     OW52828   2.107   8.040   6.383
13452SOL    HW152829   2.063   7.984   6.454
13452SOL    HW252830   2.203   8.055   6.406
13453SOL     OW52831   5.237   8.287   6.335
13453SOL    HW152832   5.157   8.279   6.275
13453SOL    HW252833   5.310   8.227   6.302
13454SOL     OW52834   4.824   8.605   2.025
13454SOL    HW152835   4.801   8.701   2.045
13454SOL    HW252836   4.741   8.549   2.031
13455SOL     OW52837   2.593   8.556   1.689
13455SOL    HW152838   2.674   8.515   1.648
13455SOL    HW252839   2.528   8.484   1.714
13456SOL     OW52840   1.005   7.823   6.958
13456SOL    HW152841   1.070   7.890   6.923
13456SOL    HW252842   1.031   7.732   6.926
13457SOL     OW52843   6.470   7.470   6.403
13457SOL    HW152844   6.565   7.455   6.430
13457SOL    HW252845   6.426   7.382   6.384
13458SOL     OW52846   3.893   7.750   5.658
13458SOL    HW152847   3.913   7.658   5.623
13458SOL    HW252848   3.904   7.816   5.583
13459SOL     OW52849   5.756   7.511   7.008
13459SOL    HW152850   5.685   7.486   6.942
13459SOL    HW252851   5.782   7.607   6.994
13460SOL     OW52852   4.418   8.099   5.374
13460SOL    HW152853   4.515   8.073   5.382
13460SOL    HW252854   4.385   8.076   5.283
13461SOL     OW52855   4.834   8.186   1.717
13461SOL    HW152856   4.922   8.154   1.684
13461SOL    HW252857   4.842   8.214   1.813
13462SOL     OW52858   2.938   8.738   0.385
13462SOL    HW152859   2.905   8.831   0.402
13462SOL    HW252860   2.889   8.699   0.307
13463SOL     OW52861   1.256   8.132   5.651
13463SOL    HW152862   1.330   8.188   5.689
13463SOL    HW252863   1.294   8.051   5.606
13464SOL     OW52864   3.888   7.589   0.009
13464SOL    HW152865   3.802   7.600   8.958
13464SOL    HW252866   3.891   7.498   0.048
13465SOL     OW52867   0.056   8.218   6.200
13465SOL    HW152868   0.049   8.121   6.222
13465SOL    HW252869   8.978   8.245   6.143
13466SOL     OW52870   4.830   8.506   5.973
13466SOL    HW152871   4.824   8.442   5.896
13466SOL    HW252872   4.925   8.533   5.986
13467SOL     OW52873   6.099   7.798   6.921
13467SOL    HW152874   6.146   7.800   7.010
13467SOL    HW252875   6.132   7.874   6.864
13468SOL     OW52876   5.634   7.603   7.372
13468SOL    HW152877   5.672   7.674   7.313
13468SOL    HW252878   5.652   7.513   7.331
13469SOL     OW52879   5.889   7.473   3.658
13469SOL    HW152880   5.961   7.520   3.709
13469SOL    HW252881   5.849   7.536   3.592
13470SOL     OW52882   5.654   7.610   3.104
13470SOL    HW152883   5.593   7.544   3.149
13470SOL    HW252884   5.614   7.701   3.110
13471SOL     OW52885   1.599   8.863   1.268
13471SOL    HW152886   1.640   8.834   1.355
13471SOL    HW252887   1.535   8.793   1.237
13472SOL     OW52888   5.640   8.287   4.795
13472SOL    HW152889   5.605   8.201   4.833
13472SOL    HW252890   5.601   8.300   4.703
13473SOL     OW52891   4.390   8.157   7.149
13473SOL    HW152892   4.305   8.204   7.125
13473SOL    HW252893   4.468   8.217   7.132
13474SOL     OW52894   3.334   8.149   1.875
13474SOL    HW152895   3.273   8.077   1.908
13474SOL    HW252896   3.318   8.163   1.777
13475SOL     OW52897   2.234   8.559   0.530
13475SOL    HW152898   2.332   8.577   0.520
13475SOL    HW252899   2.200   8.513   0.448
13476SOL     OW52900   4.809   7.468   6.359
13476SOL    HW152901   4.851   7.408   6.427
13476SOL    HW252902   4.797   7.559   6.399
13477SOL     OW52903   6.485   8.077   2.118
13477SOL    HW152904   6.498   8.009   2.046
13477SOL    HW252905   6.573   8.118   2.142
13478SOL     OW52906   4.474   8.597   3.583
13478SOL    HW152907   4.573   8.605   3.595
13478SOL    HW252908   4.437   8.685   3.555
13479SOL     OW52909   5.938   7.919   2.556
13479SOL    HW152910   6.030   7.881   2.549
13479SOL    HW252911   5.907   7.948   2.465
13480SOL     OW52912   3.342   8.294   2.682
13480SOL    HW152913   3.271   8.231   2.714
13480SOL    HW252914   3.401   8.246   2.617
13481SOL     OW52915   6.381   8.222   6.530
13481SOL    HW152916   6.481   8.226   6.531
13481SOL    HW252917   6.352   8.127   6.536
13482SOL     OW52918   3.531   8.623   2.483
13482SOL    HW152919   3.541   8.531   2.444
13482SOL    HW252920   3.618   8.672   2.476
13483SOL     OW52921   6.376   8.800   6.105
13483SOL    HW152922   6.316   8.721   6.102
13483SOL    HW252923   6.451   8.789   6.040
13484SOL     OW52924   0.521   8.726   2.650
13484SOL    HW152925   0.488   8.648   2.597
13484SOL    HW252926   0.567   8.791   2.589
13485SOL     OW52927   2.325   8.710   1.833
13485SOL    HW152928   2.275   8.699   1.919
13485SOL    HW252929   2.392   8.637   1.825
13486SOL     OW52930   1.611   8.032   5.902
13486SOL    HW152931   1.647   8.093   5.973
13486SOL    HW252932   1.686   7.979   5.862
13487SOL     OW52933   4.570   8.219   3.404
13487SOL    HW152934   4.504   8.254   3.470
13487SOL    HW252935   4.566   8.119   3.403
13488SOL     OW52936   4.959   7.427   1.559
13488SOL    HW152937   4.975   7.358   1.488
13488SOL    HW252938   4.942   7.381   1.647
13489SOL     OW52939   1.159   8.731   1.628
13489SOL    HW152940   1.063   8.735   1.603
13489SOL    HW252941   1.190   8.822   1.657
13490SOL     OW52942   2.631   8.494   1.228
13490SOL    HW152943   2.600   8.517   1.135
13490SOL    HW252944   2.626   8.394   1.240
13491SOL     OW52945   5.624   8.629   4.077
13491SOL    HW152946   5.598   8.696   4.007
13491SOL    HW252947   5.543   8.580   4.108
13492SOL     OW52948   4.655   8.613   6.655
13492SOL    HW152949   4.612   8.535   6.699
13492SOL    HW252950   4.674   8.684   6.723
13493SOL     OW52951   5.709   8.435   2.929
13493SOL    HW152952   5.624   8.400   2.890
13493SOL    HW252953   5.720   8.531   2.903
13494SOL     OW52954   0.908   8.271   6.849
13494SOL    HW152955   0.892   8.181   6.809
13494SOL    HW252956   0.845   8.337   6.809
13495SOL     OW52957   5.255   8.276   2.973
13495SOL    HW152958   5.189   8.339   2.932
13495SOL    HW252959   5.248   8.279   3.073
13496SOL     OW52960   3.926   8.020   6.242
13496SOL    HW152961   3.860   8.016   6.167
13496SOL    HW252962   3.894   7.964   6.318
13497SOL     OW52963   6.741   7.885   0.653
13497SOL    HW152964   6.835   7.872   0.685
13497SOL    HW252965   6.679   7.834   0.712
13498SOL     OW52966   6.523   8.625   6.752
13498SOL    HW152967   6.509   8.685   6.673
13498SOL    HW252968   6.462   8.546   6.745
13499SOL     OW52969   3.690   7.380   4.318
13499SOL    HW152970   3.681   7.406   4.414
13499SOL    HW252971   3.604   7.396   4.271
13500SOL     OW52972   2.182   8.465   6.500
13500SOL    HW152973   2.150   8.417   6.418
13500SOL    HW252974   2.238   8.404   6.555
13501SOL     OW52975   1.827   7.885   5.348
13501SOL    HW152976   1.870   7.795   5.351
13501SOL    HW252977   1.897   7.956   5.345
13502SOL     OW52978   4.936   8.227   1.979
13502SOL    HW152979   4.949   8.256   2.074
13502SOL    HW252980   4.981   8.139   1.963
13503SOL     OW52981   0.066   7.710   7.190
13503SOL    HW152982   8.991   7.763   7.230
13503SOL    HW252983   0.033   7.618   7.166
13504SOL     OW52984   3.184   7.830   3.244
13504SOL    HW152985   3.180   7.764   3.319
13504SOL    HW252986   3.170   7.783   3.157
13505SOL     OW52987   4.748   8.141   0.341
13505SOL    HW152988   4.830   8.189   0.309
13505SOL    HW252989   4.673   8.207   0.351
13506SOL     OW52990   1.539   7.466   6.699
13506SOL    HW152991   1.614   7.512   6.745
13506SOL    HW252992   1.560   7.456   6.602
13507SOL     OW52993   4.145   8.430   7.289
13507SOL    HW152994   4.201   8.386   7.359
13507SOL    HW252995   4.132   8.367   7.212
13508SOL     OW52996   0.513   7.877   2.138
13508SOL    HW152997   0.551   7.965   2.108
13508SOL    HW252998   0.450   7.842   2.069
13509SOL     OW52999   1.504   8.996   1.554
13509SOL    HW153000   1.565   8.917   1.540
13509SOL    HW253001   1.421   8.984   1.499
13510SOL     OW53002   6.726   0.021   5.963
13510SOL    HW153003   6.805   0.057   5.915
13510SOL    HW253004   6.688   0.092   6.023
13511SOL     OW53005   5.571   7.897   1.482
13511SOL    HW153006   5.542   7.952   1.404
13511SOL    HW253007   5.615   7.813   1.450
13512SOL     OW53008   0.306   8.658   0.352
13512SOL    HW153009   0.403   8.634   0.355
13512SOL    HW253010   0.251   8.575   0.342
13513SOL     OW53011   5.588   8.569   0.820
13513SOL    HW153012   5.664   8.543   0.880
13513SOL    HW253013   5.527   8.491   0.809
13514SOL     OW53014   6.264   7.763   1.343
13514SOL    HW153015   6.335   7.719   1.288
13514SOL    HW253016   6.193   7.799   1.283
13515SOL     OW53017   6.290   7.737   0.779
13515SOL    HW153018   6.254   7.644   0.786
13515SOL    HW253019   6.390   7.736   0.791
13516SOL     OW53020   3.372   7.810   3.605
13516SOL    HW153021   3.298   7.758   3.562
13516SOL    HW253022   3.366   7.800   3.705
13517SOL     OW53023   2.877   7.659   3.793
13517SOL    HW153024   2.948   7.675   3.861
13517SOL    HW253025   2.892   7.720   3.715
13518SOL     OW53026   5.088   7.487   0.380
13518SOL    HW153027   5.056   7.576   0.348
13518SOL    HW253028   5.036   7.460   0.461
13519SOL     OW53029   1.617   8.450   6.832
13519SOL    HW153030   1.704   8.405   6.849
13519SOL    HW253031   1.542   8.389   6.860
13520SOL     OW53032   5.231   7.572   7.304
13520SOL    HW153033   5.290   7.501   7.264
13520SOL    HW253034   5.136   7.542   7.300
13521SOL     OW53035   4.023   7.971   1.974
13521SOL    HW153036   4.051   8.056   2.019
13521SOL    HW253037   4.073   7.960   1.889
13522SOL     OW53038   6.955   0.149   3.373
13522SOL    HW153039   7.035   0.207   3.389
13522SOL    HW253040   6.873   0.206   3.367
13523SOL     OW53041   4.740   7.855   5.789
13523SOL    HW153042   4.834   7.861   5.823
13523SOL    HW253043   4.735   7.784   5.719
13524SOL     OW53044   2.777   8.663   1.375
13524SOL    HW153045   2.719   8.604   1.319
13524SOL    HW253046   2.720   8.729   1.424
13525SOL     OW53047   1.458   8.256   3.720
13525SOL    HW153048   1.382   8.205   3.681
13525SOL    HW253049   1.478   8.336   3.663
13526SOL     OW53050   6.569   8.514   5.979
13526SOL    HW153051   6.573   8.613   5.964
13526SOL    HW253052   6.589   8.467   5.893
13527SOL     OW53053   1.746   8.370   3.559
13527SOL    HW153054   1.659   8.419   3.559
13527SOL    HW253055   1.729   8.272   3.567
13528SOL     OW53056   4.103   7.378   5.370
13528SOL    HW153057   4.174   7.448   5.368
13528SOL    HW253058   4.141   7.293   5.408
13529SOL     OW53059   3.843   7.468   6.592
13529SOL    HW153060   3.804   7.559   6.607
13529SOL    HW253061   3.862   7.456   6.494
13530SOL     OW53062   2.099   7.782   1.194
13530SOL    HW153063   2.009   7.746   1.166
13530SOL    HW253064   2.101   7.881   1.179
13531SOL     OW53065   1.023   8.129   5.789
13531SOL    HW153066   1.108   8.132   5.736
13531SOL    HW253067   0.950   8.092   5.732
13532SOL     OW53068   5.664   7.726   4.717
13532SOL    HW153069   5.647   7.805   4.777
13532SOL    HW253070   5.760   7.699   4.724
13533SOL     OW53071   6.184   8.264   1.276
13533SOL    HW153072   6.250   8.317   1.328
13533SOL    HW253073   6.120   8.220   1.338
13534SOL     OW53074   4.781   8.844   0.108
13534SOL    HW153075   4.780   8.909   0.032
13534SOL    HW253076   4.738   8.886   0.188
13535SOL     OW53077   0.285   7.430   2.302
13535SOL    HW153078   0.325   7.522   2.302
13535SOL    HW253079   0.258   7.406   2.395
13536SOL     OW53080   3.894   8.392   6.727
13536SOL    HW153081   3.869   8.354   6.638
13536SOL    HW253082   3.973   8.342   6.763
13537SOL     OW53083   5.034   8.824   5.929
13537SOL    HW153084   5.014   8.866   5.841
13537SOL    HW253085   4.964   8.851   5.996
13538SOL     OW53086   1.901   7.501   0.818
13538SOL    HW153087   1.864   7.593   0.810
13538SOL    HW253088   1.843   7.447   0.880
13539SOL     OW53089   4.628   7.551   1.173
13539SOL    HW153090   4.608   7.563   1.076
13539SOL    HW253091   4.559   7.493   1.215
13540SOL     OW53092   6.954   7.476   4.939
13540SOL    HW153093   7.033   7.446   4.992
13540SOL    HW253094   6.917   7.560   4.979
13541SOL     OW53095   3.354   8.732   6.108
13541SOL    HW153096   3.256   8.750   6.113
13541SOL    HW253097   3.404   8.804   6.156
13542SOL     OW53098   4.200   8.596   1.891
13542SOL    HW153099   4.129   8.542   1.845
13542SOL    HW253100   4.290   8.562   1.865
13543SOL     OW53101   7.247   7.798   2.827
13543SOL    HW153102   7.176   7.731   2.806
13543SOL    HW253103   7.322   7.752   2.876
13544SOL     OW53104   5.058   8.945   6.290
13544SOL    HW153105   5.056   8.972   6.386
13544SOL    HW253106   5.070   8.846   6.283
13545SOL     OW53107   3.737   8.266   1.943
13545SOL    HW153108   3.747   8.256   1.844
13545SOL    HW253109   3.712   8.361   1.964
13546SOL     OW53110   4.701   8.529   1.714
13546SOL    HW153111   4.716   8.610   1.657
13546SOL    HW253112   4.789   8.494   1.745
13547SOL     OW53113   1.918   8.402   2.348
13547SOL    HW153114   1.984   8.382   2.420
13547SOL    HW253115   1.966   8.429   2.264
13548SOL     OW53116   6.095   7.751   3.488
13548SOL    HW153117   6.147   7.667   3.502
13548SOL    HW253118   6.104   7.810   3.568
13549SOL     OW53119   3.431   8.895   7.302
13549SOL    HW153120   3.470   8.926   7.216
13549SOL    HW253121   3.332   8.904   7.299
13550SOL     OW53122   1.000   7.437   2.665
13550SOL    HW153123   0.964   7.530   2.676
13550SOL    HW253124   0.940   7.385   2.605
13551SOL     OW53125   1.625   8.233   6.350
13551SOL    HW153126   1.543   8.289   6.363
13551SOL    HW253127   1.654   8.239   6.255
13552SOL     OW53128   6.055   8.373   1.041
13552SOL    HW153129   6.012   8.301   0.987
13552SOL    HW253130   6.092   8.335   1.125
13553SOL     OW53131   6.176   8.588   2.296
13553SOL    HW153132   6.111   8.651   2.254
13553SOL    HW253133   6.126   8.517   2.346
13554SOL     OW53134   1.875   8.817   0.495
13554SOL    HW153135   1.793   8.786   0.543
13554SOL    HW253136   1.955   8.799   0.552
13555SOL     OW53137   6.155   7.484   2.327
13555SOL    HW153138   6.175   7.387   2.315
13555SOL    HW253139   6.171   7.532   2.241
13556SOL     OW53140   6.844   7.921   5.780
13556SOL    HW153141   6.899   8.001   5.758
13556SOL    HW253142   6.884   7.873   5.858
13557SOL     OW53143   7.060   8.161   1.663
13557SOL    HW153144   6.973   8.113   1.672
13557SOL    HW253145   7.046   8.249   1.619
13558SOL     OW53146   5.698   7.484   5.591
13558SOL    HW153147   5.607   7.481   5.550
13558SOL    HW253148   5.768   7.481   5.520
13559SOL     OW53149   1.418   8.290   6.937
13559SOL    HW153150   1.325   8.316   6.913
13559SOL    HW253151   1.440   8.322   7.029
13560SOL     OW53152   4.188   8.193   3.191
13560SOL    HW153153   4.261   8.125   3.185
13560SOL    HW253154   4.219   8.271   3.244
13561SOL     OW53155   5.580   0.283   1.071
13561SOL    HW153156   5.639   0.251   0.997
13561SOL    HW253157   5.511   0.213   1.090
13562SOL     OW53158   7.315   7.759   5.809
13562SOL    HW153159   7.378   7.836   5.815
13562SOL    HW253160   7.252   7.774   5.733
13563SOL     OW53161   2.593   8.668   3.582
13563SOL    HW153162   2.618   8.763   3.562
13563SOL    HW253163   2.613   8.648   3.678
13564SOL     OW53164   5.122   7.691   3.058
13564SOL    HW153165   5.092   7.611   3.006
13564SOL    HW253166   5.208   7.725   3.020
13565SOL     OW53167   6.671   8.097   6.930
13565SOL    HW153168   6.704   8.181   6.973
13565SOL    HW253169   6.710   8.018   6.978
13566SOL     OW53170   1.828   8.189   0.035
13566SOL    HW153171   1.898   8.199   8.965
13566SOL    HW253172   1.739   8.213   8.998
13567SOL     OW53173   6.332   8.623   1.975
13567SOL    HW153174   6.408   8.646   1.915
13567SOL    HW253175   6.361   8.553   2.040
13568SOL     OW53176   6.717   8.404   2.415
13568SOL    HW153177   6.697   8.441   2.325
13568SOL    HW253178   6.791   8.337   2.409
13569SOL     OW53179   3.357   8.544   0.656
13569SOL    HW153180   3.344   8.568   0.752
13569SOL    HW253181   3.274   8.567   0.605
13570SOL     OW53182   0.290   7.472   6.123
13570SOL    HW153183   0.262   7.379   6.097
13570SOL    HW253184   0.241   7.499   6.206
13571SOL     OW53185   5.817   0.225   4.464
13571SOL    HW153186   5.842   0.222   4.561
13571SOL    HW253187   5.801   0.132   4.431
13572SOL     OW53188   1.250   7.401   2.308
13572SOL    HW153189   1.347   7.397   2.285
13572SOL    HW253190   1.222   7.314   2.347
13573SOL     OW53191   4.818   8.335   5.759
13573SOL    HW153192   4.805   8.357   5.662
13573SOL    HW253193   4.759   8.258   5.784
13574SOL     OW53194   4.769   7.403   4.364
13574SOL    HW153195   4.858   7.358   4.374
13574SOL    HW253196   4.782   7.493   4.324
13575SOL     OW53197   2.662   8.409   3.489
13575SOL    HW153198   2.643   8.503   3.514
13575SOL    HW253199   2.599   8.348   3.537
13576SOL     OW53200   1.330   8.923   3.055
13576SOL    HW153201   1.246   8.895   3.008
13576SOL    HW253202   1.401   8.854   3.040
13577SOL     OW53203   5.558   7.612   5.802
13577SOL    HW153204   5.617   7.582   5.727
13577SOL    HW253205   5.507   7.534   5.838
13578SOL     OW53206   3.468   7.604   1.226
13578SOL    HW153207   3.400   7.536   1.201
13578SOL    HW253208   3.535   7.563   1.288
13579SOL     OW53209   0.123   8.773   1.007
13579SOL    HW153210   0.104   8.797   1.102
13579SOL    HW253211   0.214   8.805   0.982
13580SOL     OW53212   0.168   8.535   1.542
13580SOL    HW153213   0.227   8.456   1.557
13580SOL    HW253214   0.223   8.618   1.542
13581SOL     OW53215   4.143   8.806   5.639
13581SOL    HW153216   4.200   8.830   5.718
13581SOL    HW253217   4.159   8.873   5.566
13582SOL     OW53218   1.695   8.229   7.129
13582SOL    HW153219   1.643   8.143   7.130
13582SOL    HW253220   1.635   8.305   7.151
13583SOL     OW53221   2.456   7.471   1.526
13583SOL    HW153222   2.463   7.557   1.476
13583SOL    HW253223   2.463   7.489   1.624
13584SOL     OW53224   5.081   7.470   2.890
13584SOL    HW153225   5.041   7.463   2.799
13584SOL    HW253226   5.180   7.456   2.884
13585SOL     OW53227   5.668   7.764   0.811
13585SOL    HW153228   5.677   7.665   0.798
13585SOL    HW253229   5.629   7.805   0.729
13586SOL     OW53230   3.498   8.898   1.868
13586SOL    HW153231   3.499   8.982   1.922
13586SOL    HW253232   3.592   8.863   1.860
13587SOL     OW53233   0.434   8.531   2.486
13587SOL    HW153234   0.366   8.560   2.418
13587SOL    HW253235   0.482   8.450   2.453
13588SOL     OW53236   4.385   8.369   5.415
13588SOL    HW153237   4.396   8.270   5.404
13588SOL    HW253238   4.370   8.390   5.512
13589SOL     OW53239   4.867   0.064   3.713
13589SOL    HW153240   4.940   0.094   3.775
13589SOL    HW253241   4.869   0.118   3.630
13590SOL     OW53242   4.844   7.449   3.054
13590SOL    HW153243   4.791   7.366   3.075
13590SOL    HW253244   4.933   7.422   3.017
13591SOL     OW53245   6.675   7.615   5.665
13591SOL    HW153246   6.707   7.687   5.604
13591SOL    HW253247   6.576   7.605   5.657
13592SOL     OW53248   5.092   8.523   5.169
13592SOL    HW153249   5.147   8.530   5.085
13592SOL    HW253250   4.996   8.508   5.144
13593SOL     OW53251   4.290   8.782   4.583
13593SOL    HW153252   4.301   8.881   4.588
13593SOL    HW253253   4.204   8.760   4.538
13594SOL     OW53254   2.686   8.647   1.933
13594SOL    HW153255   2.641   8.579   1.991
13594SOL    HW253256   2.659   8.632   1.838
13595SOL     OW53257   1.293   7.657   6.117
13595SOL    HW153258   1.244   7.734   6.078
13595SOL    HW253259   1.277   7.576   6.061
13596SOL     OW53260   1.467   8.418   3.281
13596SOL    HW153261   1.558   8.425   3.240
13596SOL    HW253262   1.417   8.342   3.240
13597SOL     OW53263   0.988   8.347   4.062
13597SOL    HW153264   0.899   8.385   4.089
13597SOL    HW253265   1.022   8.396   3.982
13598SOL     OW53266   3.663   7.426   4.595
13598SOL    HW153267   3.671   7.354   4.664
13598SOL    HW253268   3.711   7.508   4.626
13599SOL     OW53269   0.707   7.827   2.326
13599SOL    HW153270   0.631   7.840   2.262
13599SOL    HW253271   0.677   7.852   2.418
13600SOL     OW53272   1.002   8.263   2.560
13600SOL    HW153273   1.095   8.232   2.538
13600SOL    HW253274   1.002   8.311   2.648
13601SOL     OW53275   0.691   8.765   1.111
13601SOL    HW153276   0.727   8.674   1.133
13601SOL    HW253277   0.758   8.835   1.137
13602SOL     OW53278   5.425   0.033   3.621
13602SOL    HW153279   5.427   8.978   3.538
13602SOL    HW253280   5.512   0.024   3.669
13603SOL     OW53281   5.448   7.710   4.120
13603SOL    HW153282   5.356   7.746   4.109
13603SOL    HW253283   5.507   7.780   4.159
13604SOL     OW53284   4.297   7.475   1.041
13604SOL    HW153285   4.344   7.441   1.122
13604SOL    HW253286   4.268   7.397   0.985
13605SOL     OW53287   4.349   7.531   7.044
13605SOL    HW153288   4.274   7.520   7.109
13605SOL    HW253289   4.432   7.491   7.081
13606SOL     OW53290   6.817   7.476   7.255
13606SOL    HW153291   6.859   7.501   7.168
13606SOL    HW253292   6.884   7.431   7.313
13607SOL     OW53293   1.998   8.292   3.493
13607SOL    HW153294   1.908   8.321   3.525
13607SOL    HW253295   2.045   8.369   3.451
13608SOL     OW53296   5.154   7.547   1.920
13608SOL    HW153297   5.249   7.578   1.911
13608SOL    HW253298   5.093   7.618   1.884
13609SOL     OW53299   5.898   7.920   0.856
13609SOL    HW153300   5.981   7.872   0.828
13609SOL    HW253301   5.818   7.865   0.832
13610SOL     OW53302   2.145   8.406   0.312
13610SOL    HW153303   2.212   8.425   0.240
13610SOL    HW253304   2.163   8.317   0.352
13611SOL     OW53305   4.736   8.563   3.172
13611SOL    HW153306   4.802   8.489   3.166
13611SOL    HW253307   4.644   8.525   3.182
13612SOL     OW53308   4.241   8.053   6.525
13612SOL    HW153309   4.252   8.056   6.624
13612SOL    HW253310   4.183   7.975   6.500
13613SOL     OW53311   3.308   7.804   0.821
13613SOL    HW153312   3.339   7.836   0.731
13613SOL    HW253313   3.267   7.880   0.871
13614SOL     OW53314   2.972   7.619   2.203
13614SOL    HW153315   3.034   7.542   2.190
13614SOL    HW253316   2.974   7.678   2.122
13615SOL     OW53317   3.320   8.324   2.242
13615SOL    HW153318   3.285   8.240   2.284
13615SOL    HW253319   3.403   8.353   2.290
13616SOL     OW53320   4.842   7.641   5.111
13616SOL    HW153321   4.836   7.690   5.024
13616SOL    HW253322   4.838   7.543   5.093
13617SOL     OW53323   5.912   8.249   2.210
13617SOL    HW153324   5.905   8.150   2.225
13617SOL    HW253325   5.913   8.268   2.112
13618SOL     OW53326   4.821   8.389   5.490
13618SOL    HW153327   4.881   8.465   5.467
13618SOL    HW253328   4.863   8.303   5.460
13619SOL     OW53329   2.932   8.581   0.793
13619SOL    HW153330   2.974   8.629   0.871
13619SOL    HW253331   2.874   8.507   0.827
13620SOL     OW53332   1.602   8.208   2.673
13620SOL    HW153333   1.628   8.240   2.582
13620SOL    HW253334   1.538   8.132   2.665
13621SOL     OW53335   2.806   7.522   7.004
13621SOL    HW153336   2.854   7.517   7.092
13621SOL    HW253337   2.793   7.617   6.978
13622SOL     OW53338   0.475   8.397   3.254
13622SOL    HW153339   0.448   8.409   3.158
13622SOL    HW253340   0.574   8.389   3.260
13623SOL     OW53341   3.520   8.652   6.660
13623SOL    HW153342   3.467   8.718   6.606
13623SOL    HW253343   3.504   8.560   6.625
13624SOL     OW53344   3.776   8.758   1.019
13624SOL    HW153345   3.751   8.790   0.928
13624SOL    HW253346   3.785   8.836   1.081
13625SOL     OW53347   1.732   8.606   2.973
13625SOL    HW153348   1.803   8.674   2.988
13625SOL    HW253349   1.731   8.540   3.048
13626SOL     OW53350   5.568   8.928   2.808
13626SOL    HW153351   5.630   8.851   2.798
13626SOL    HW253352   5.617   0.006   2.849
13627SOL     OW53353   4.852   7.907   6.226
13627SOL    HW153354   4.840   7.815   6.190
13627SOL    HW253355   4.942   7.916   6.268
13628SOL     OW53356   6.648   8.471   3.172
13628SOL    HW153357   6.726   8.503   3.226
13628SOL    HW253358   6.670   8.382   3.132
13629SOL     OW53359   0.105   7.822   0.035
13629SOL    HW153360   0.013   7.827   0.073
13629SOL    HW253361   0.114   7.740   8.979
13630SOL     OW53362   0.852   8.028   0.774
13630SOL    HW153363   0.854   7.936   0.736
13630SOL    HW253364   0.765   8.043   0.821
13631SOL     OW53365   4.152   7.547   5.940
13631SOL    HW153366   4.246   7.560   5.974
13631SOL    HW253367   4.114   7.635   5.914
13632SOL     OW53368   3.648   7.665   1.751
13632SOL    HW153369   3.706   7.722   1.810
13632SOL    HW253370   3.636   7.575   1.793
13633SOL     OW53371   1.252   7.404   3.317
13633SOL    HW153372   1.310   7.324   3.331
13633SOL    HW253373   1.249   7.458   3.402
13634SOL     OW53374   3.031   7.628   1.701
13634SOL    HW153375   3.033   7.572   1.618
13634SOL    HW253376   3.020   7.568   1.780
13635SOL     OW53377   1.650   7.397   7.051
13635SOL    HW153378   1.603   7.341   7.119
13635SOL    HW253379   1.688   7.337   6.980
13636SOL     OW53380   5.687   8.238   3.117
13636SOL    HW153381   5.713   8.151   3.075
13636SOL    HW253382   5.706   8.313   3.053
13637SOL     OW53383   2.853   7.379   4.283
13637SOL    HW153384   2.903   7.459   4.251
13637SOL    HW253385   2.828   7.322   4.204
13638SOL     OW53386   6.974   8.122   5.199
13638SOL    HW153387   6.989   8.049   5.133
13638SOL    HW253388   6.986   8.211   5.155
13639SOL     OW53389   5.359   8.396   3.896
13639SOL    HW153390   5.369   8.444   3.983
13639SOL    HW253391   5.331   8.302   3.913
13640SOL     OW53392   6.287   8.353   2.794
13640SOL    HW153393   6.347   8.430   2.773
13640SOL    HW253394   6.261   8.356   2.890
13641SOL     OW53395   1.724   8.159   0.389
13641SOL    HW153396   1.775   8.236   0.350
13641SOL    HW253397   1.734   8.080   0.329
13642SOL     OW53398   3.480   7.833   1.613
13642SOL    HW153399   3.517   7.870   1.528
13642SOL    HW253400   3.542   7.762   1.648
13643SOL     OW53401   2.197   7.989   0.879
13643SOL    HW153402   2.148   7.985   0.966
13643SOL    HW253403   2.279   8.045   0.890
13644SOL     OW53404   3.175   7.542   6.961
13644SOL    HW153405   3.143   7.600   7.035
13644SOL    HW253406   3.228   7.596   6.895
13645SOL     OW53407   3.666   7.539   5.012
13645SOL    HW153408   3.681   7.619   5.070
13645SOL    HW253409   3.588   7.487   5.047
13646SOL     OW53410   5.088   8.678   6.269
13646SOL    HW153411   5.101   8.633   6.180
13646SOL    HW253412   5.139   8.629   6.339
13647SOL     OW53413   5.866   8.111   2.744
13647SOL    HW153414   5.899   8.041   2.681
13647SOL    HW253415   5.919   8.195   2.732
13648SOL     OW53416   5.799   8.511   3.892
13648SOL    HW153417   5.731   8.468   3.833
13648SOL    HW253418   5.753   8.556   3.969
13649SOL     OW53419   7.268   7.533   0.222
13649SOL    HW153420   7.267   7.453   0.282
13649SOL    HW253421   7.230   7.611   0.270
13650SOL     OW53422   3.381   8.245   0.952
13650SOL    HW153423   3.362   8.304   1.031
13650SOL    HW253424   3.458   8.283   0.900
13651SOL     OW53425   7.280   8.193   5.758
13651SOL    HW153426   7.272   8.229   5.665
13651SOL    HW253427   7.319   8.263   5.818
13652SOL     OW53428   0.633   8.106   5.378
13652SOL    HW153429   0.634   8.091   5.477
13652SOL    HW253430   0.724   8.086   5.341
13653SOL     OW53431   6.878   7.445   0.192
13653SOL    HW153432   6.831   7.368   0.235
13653SOL    HW253433   6.890   7.519   0.258
13654SOL     OW53434   6.006   7.729   5.399
13654SOL    HW153435   5.993   7.807   5.338
13654SOL    HW253436   6.013   7.760   5.493
13655SOL     OW53437   3.173   7.950   1.969
13655SOL    HW153438   3.192   7.919   2.062
13655SOL    HW253439   3.209   7.883   1.904
13656SOL     OW53440   3.999   8.617   2.378
13656SOL    HW153441   4.081   8.595   2.431
13656SOL    HW253442   4.027   8.650   2.287
13657SOL     OW53443   5.112   8.562   4.730
13657SOL    HW153444   5.178   8.514   4.789
13657SOL    HW253445   5.031   8.585   4.783
13658SOL     OW53446   1.921   8.668   1.054
13658SOL    HW153447   1.842   8.630   1.101
13658SOL    HW253448   2.002   8.615   1.077
13659SOL     OW53449   0.651   8.888   2.473
13659SOL    HW153450   0.711   8.841   2.408
13659SOL    HW253451   0.607   8.965   2.428
13660SOL     OW53452   5.267   8.260   1.083
13660SOL    HW153453   5.315   8.221   1.004
13660SOL    HW253454   5.172   8.281   1.057
13661SOL     OW53455   3.767   8.732   4.891
13661SOL    HW153456   3.838   8.704   4.956
13661SOL    HW253457   3.810   8.757   4.804
13662SOL     OW53458   5.873   7.430   5.108
13662SOL    HW153459   5.887   7.421   5.010
13662SOL    HW253460   5.825   7.516   5.128
13663SOL     OW53461   5.985   8.084   4.868
13663SOL    HW153462   5.907   8.060   4.925
13663SOL    HW253463   5.977   8.039   4.779
13664SOL     OW53464   7.251   8.957   7.112
13664SOL    HW153465   7.161   8.929   7.078
13664SOL    HW253466   7.252   8.950   7.212
13665SOL     OW53467   0.749   8.391   3.308
13665SOL    HW153468   0.714   8.360   3.396
13665SOL    HW253469   0.845   8.418   3.317
13666SOL     OW53470   3.509   7.666   0.959
13666SOL    HW153471   3.480   7.649   1.053
13666SOL    HW253472   3.437   7.716   0.910
13667SOL     OW53473   6.188   8.603   6.087
13667SOL    HW153474   6.110   8.664   6.077
13667SOL    HW253475   6.158   8.508   6.076
13668SOL     OW53476   4.970   7.430   2.637
13668SOL    HW153477   4.876   7.463   2.632
13668SOL    HW253478   5.007   7.421   2.544
13669SOL     OW53479   0.939   8.430   6.377
13669SOL    HW153480   0.967   8.509   6.432
13669SOL    HW253481   0.951   8.346   6.432
13670SOL     OW53482   3.520   8.241   7.055
13670SOL    HW153483   3.519   8.339   7.076
13670SOL    HW253484   3.532   8.189   7.139
13671SOL     OW53485   6.547   7.418   7.294
13671SOL    HW153486   6.643   7.436   7.276
13671SOL    HW253487   6.513   7.349   7.230
13672SOL     OW53488   1.095   8.741   0.284
13672SOL    HW153489   1.053   8.825   0.250
13672SOL    HW253490   1.122   8.684   0.206
13673SOL     OW53491   6.362   7.692   6.517
13673SOL    HW153492   6.394   7.609   6.473
13673SOL    HW253493   6.367   7.682   6.616
13674SOL     OW53494   5.155   8.715   0.730
13674SOL    HW153495   5.153   8.677   0.822
13674SOL    HW253496   5.246   8.751   0.711
13675SOL     OW53497   2.508   7.646   5.537
13675SOL    HW153498   2.579   7.646   5.608
13675SOL    HW253499   2.448   7.567   5.550
13676SOL     OW53500   4.642   7.980   3.099
13676SOL    HW153501   4.719   7.919   3.080
13676SOL    HW253502   4.665   8.073   3.068
13677SOL     OW53503   2.200   8.754   3.009
13677SOL    HW153504   2.279   8.792   3.057
13677SOL    HW253505   2.216   8.757   2.910
13678SOL     OW53506   1.096   7.577   6.865
13678SOL    HW153507   1.184   7.606   6.827
13678SOL    HW253508   1.111   7.521   6.947
13679SOL     OW53509   3.626   8.415   5.455
13679SOL    HW153510   3.554   8.466   5.503
13679SOL    HW253511   3.625   8.440   5.358
13680SOL     OW53512   1.155   7.874   5.984
13680SOL    HW153513   1.237   7.870   5.926
13680SOL    HW253514   1.144   7.967   6.020
13681SOL     OW53515   5.374   8.509   5.959
13681SOL    HW153516   5.435   8.430   5.966
13681SOL    HW253517   5.428   8.592   5.949
13682SOL     OW53518   4.695   7.939   7.192
13682SOL    HW153519   4.598   7.914   7.194
13682SOL    HW253520   4.721   7.960   7.098
13683SOL     OW53521   2.379   8.804   1.395
13683SOL    HW153522   2.307   8.812   1.463
13683SOL    HW253523   2.468   8.810   1.439
13684SOL     OW53524   4.409   0.000   7.314
13684SOL    HW153525   4.362   0.049   7.240
13684SOL    HW253526   4.412   8.903   7.292
13685SOL     OW53527   3.262   7.955   2.886
13685SOL    HW153528   3.223   7.868   2.915
13685SOL    HW253529   3.234   8.027   2.950
13686SOL     OW53530   7.146   7.658   6.767
13686SOL    HW153531   7.164   7.587   6.698
13686SOL    HW253532   7.080   7.723   6.731
13687SOL     OW53533   3.941   7.944   5.454
13687SOL    HW153534   3.868   8.012   5.456
13687SOL    HW253535   4.029   7.988   5.472
13688SOL     OW53536   5.102   8.119   1.672
13688SOL    HW153537   5.136   8.053   1.605
13688SOL    HW253538   5.154   8.205   1.663
13689SOL     OW53539   6.958   7.630   0.884
13689SOL    HW153540   6.949   7.728   0.902
13689SOL    HW253541   6.868   7.592   0.863
13690SOL     OW53542   5.886   7.515   2.358
13690SOL    HW153543   5.985   7.501   2.357
13690SOL    HW253544   5.841   7.429   2.380
13691SOL     OW53545   0.624   8.334   7.348
13691SOL    HW153546   0.654   8.245   7.315
13691SOL    HW253547   0.551   8.369   7.289
13692SOL     OW53548   2.792   8.051   1.602
13692SOL    HW153549   2.813   8.120   1.533
13692SOL    HW253550   2.710   8.078   1.653
13693SOL     OW53551   2.191   8.977   7.171
13693SOL    HW153552   2.245   0.042   7.117
13693SOL    HW253553   2.209   8.884   7.140
13694SOL     OW53554   3.174   8.443   1.547
13694SOL    HW153555   3.176   8.543   1.543
13694SOL    HW253556   3.155   8.407   1.456
13695SOL     OW53557   1.688   8.411   1.993
13695SOL    HW153558   1.676   8.368   2.083
13695SOL    HW253559   1.599   8.420   1.948
13696SOL     OW53560   3.844   7.463   2.519
13696SOL    HW153561   3.934   7.506   2.506
13696SOL    HW253562   3.813   7.479   2.613
13697SOL     OW53563   2.266   8.523   5.521
13697SOL    HW153564   2.289   8.592   5.452
13697SOL    HW253565   2.327   8.444   5.510
13698SOL     OW53566   2.891   7.849   3.242
13698SOL    HW153567   2.851   7.905   3.314
13698SOL    HW253568   2.988   7.836   3.260
13699SOL     OW53569   5.029   8.044   0.128
13699SOL    HW153570   5.095   7.975   0.157
13699SOL    HW253571   4.946   7.999   0.093
13700SOL     OW53572   4.330   8.040   5.126
13700SOL    HW153573   4.284   8.114   5.077
13700SOL    HW253574   4.293   7.952   5.096
13701SOL     OW53575   5.725   7.799   7.203
13701SOL    HW153576   5.757   7.792   7.108
13701SOL    HW253577   5.641   7.853   7.206
13702SOL     OW53578   7.295   7.553   5.986
13702SOL    HW153579   7.330   7.470   5.943
13702SOL    HW253580   7.295   7.628   5.919
13703SOL     OW53581   5.022   8.294   2.234
13703SOL    HW153582   4.997   8.390   2.246
13703SOL    HW253583   5.118   8.282   2.258
13704SOL     OW53584   4.908   8.825   4.440
13704SOL    HW153585   4.962   8.743   4.460
13704SOL    HW253586   4.839   8.837   4.511
13705SOL     OW53587   4.517   7.625   1.722
13705SOL    HW153588   4.436   7.576   1.691
13705SOL    HW253589   4.593   7.608   1.659
13706SOL     OW53590   4.130   8.240   7.092
13706SOL    HW153591   4.089   8.153   7.122
13706SOL    HW253592   4.112   8.253   6.995
13707SOL     OW53593   3.349   8.035   0.333
13707SOL    HW153594   3.285   8.016   0.259
13707SOL    HW253595   3.414   8.104   0.304
13708SOL     OW53596   1.392   7.870   5.842
13708SOL    HW153597   1.466   7.925   5.878
13708SOL    HW253598   1.382   7.888   5.744
13709SOL     OW53599   1.272   8.211   2.534
13709SOL    HW153600   1.320   8.140   2.586
13709SOL    HW253601   1.288   8.300   2.577
13710SOL     OW53602   6.088   7.872   3.842
13710SOL    HW153603   5.991   7.894   3.852
13710SOL    HW253604   6.141   7.930   3.904
13711SOL     OW53605   4.551   7.930   3.436
13711SOL    HW153606   4.610   7.894   3.508
13711SOL    HW253607   4.555   7.870   3.356
13712SOL     OW53608   4.335   7.445   2.932
13712SOL    HW153609   4.394   7.523   2.953
13712SOL    HW253610   4.243   7.478   2.910
13713SOL     OW53611   0.967   8.974   1.844
13713SOL    HW153612   1.051   8.959   1.792
13713SOL    HW253613   0.940   0.070   1.836
13714SOL     OW53614   0.995   8.844   2.084
13714SOL    HW153615   1.073   8.888   2.129
13714SOL    HW253616   0.975   8.892   1.998
13715SOL     OW53617   5.382   7.789   1.649
13715SOL    HW153618   5.296   7.827   1.614
13715SOL    HW253619   5.459   7.829   1.599
13716SOL     OW53620   1.843   8.324   6.922
13716SOL    HW153621   1.797   8.291   7.004
13716SOL    HW253622   1.884   8.247   6.873
13717SOL     OW53623   4.133   7.767   0.763
13717SOL    HW153624   4.048   7.713   0.762
13717SOL    HW253625   4.175   7.764   0.673
13718SOL     OW53626   1.515   7.836   0.915
13718SOL    HW153627   1.427   7.840   0.962
13718SOL    HW253628   1.536   7.926   0.877
13719SOL     OW53629   2.462   8.643   4.977
13719SOL    HW153630   2.379   8.588   4.985
13719SOL    HW253631   2.532   8.592   4.927
13720SOL     OW53632   4.910   7.415   0.575
13720SOL    HW153633   4.864   7.502   0.590
13720SOL    HW253634   4.851   7.355   0.520
13721SOL     OW53635   2.508   8.036   3.319
13721SOL    HW153636   2.486   8.019   3.415
13721SOL    HW253637   2.427   8.021   3.263
13722SOL     OW53638   4.341   8.192   0.082
13722SOL    HW153639   4.336   8.186   0.181
13722SOL    HW253640   4.425   8.148   0.050
13723SOL     OW53641   2.227   0.370   1.641
13723SOL    HW153642   2.224   0.287   1.587
13723SOL    HW253643   2.248   0.348   1.736
13724SOL     OW53644   4.878   8.052   2.819
13724SOL    HW153645   4.888   7.982   2.889
13724SOL    HW253646   4.858   8.009   2.731
13725SOL     OW53647   5.042   8.273   6.115
13725SOL    HW153648   4.948   8.239   6.119
13725SOL    HW253649   5.041   8.370   6.091
13726SOL     OW53650   5.448   8.444   1.194
13726SOL    HW153651   5.529   8.390   1.216
13726SOL    HW253652   5.374   8.383   1.166
13727SOL     OW53653   6.796   8.569   0.525
13727SOL    HW153654   6.862   8.589   0.453
13727SOL    HW253655   6.703   8.584   0.491
13728SOL     OW53656   2.917   7.846   2.881
13728SOL    HW153657   2.861   7.844   2.798
13728SOL    HW253658   2.900   7.931   2.931
13729SOL     OW53659   5.403   0.083   1.144
13729SOL    HW153660   5.335   0.124   1.205
13729SOL    HW253661   5.396   8.984   1.148
13730SOL     OW53662   6.306   7.531   4.085
13730SOL    HW153663   6.310   7.620   4.130
13730SOL    HW253664   6.390   7.517   4.033
13731SOL     OW53665   4.332   8.853   0.902
13731SOL    HW153666   4.234   8.834   0.904
13731SOL    HW253667   4.373   8.824   0.989
13732SOL     OW53668   2.934   8.733   1.851
13732SOL    HW153669   2.998   8.659   1.833
13732SOL    HW253670   2.851   8.696   1.893
13733SOL     OW53671   1.713   7.604   6.878
13733SOL    HW153672   1.703   7.531   6.945
13733SOL    HW253673   1.686   7.691   6.919
13734SOL     OW53674   6.535   8.327   6.171
13734SOL    HW153675   6.544   8.399   6.103
13734SOL    HW253676   6.441   8.323   6.204
13735SOL     OW53677   2.757   7.644   6.697
13735SOL    HW153678   2.777   7.688   6.784
13735SOL    HW253679   2.814   7.563   6.686
13736SOL     OW53680   1.670   8.173   1.057
13736SOL    HW153681   1.625   8.205   1.140
13736SOL    HW253682   1.602   8.157   0.985
13737SOL     OW53683   6.698   8.334   1.604
13737SOL    HW153684   6.665   8.428   1.591
13737SOL    HW253685   6.699   8.287   1.516
13738SOL     OW53686   5.649   8.084   1.968
13738SOL    HW153687   5.571   8.133   1.930
13738SOL    HW253688   5.633   8.065   2.065
13739SOL     OW53689   2.230   8.189   5.093
13739SOL    HW153690   2.232   8.288   5.089
13739SOL    HW253691   2.250   8.159   5.187
13740SOL     OW53692   0.526   8.895   1.643
13740SOL    HW153693   0.522   8.873   1.740
13740SOL    HW253694   0.585   8.974   1.629
13741SOL     OW53695   2.012   8.084   5.354
13741SOL    HW153696   1.965   8.171   5.367
13741SOL    HW253697   2.111   8.099   5.357
13742SOL     OW53698   7.333   7.481   4.813
13742SOL    HW153699   7.345   7.578   4.832
13742SOL    HW253700   7.422   7.438   4.799
13743SOL     OW53701   2.633   7.754   1.928
13743SOL    HW153702   2.664   7.694   2.002
13743SOL    HW253703   2.710   7.777   1.869
13744SOL     OW53704   4.970   8.556   2.252
13744SOL    HW153705   4.916   8.579   2.171
13744SOL    HW253706   4.987   8.639   2.305
13745SOL     OW53707   0.167   7.570   0.481
13745SOL    HW153708   0.251   7.609   0.442
13745SOL    HW253709   0.179   7.472   0.494
13746SOL     OW53710   2.510   8.904   0.267
13746SOL    HW153711   2.511   8.804   0.261
13746SOL    HW253712   2.521   8.932   0.362
13747SOL     OW53713   6.311   0.238   2.449
13747SOL    HW153714   6.396   0.193   2.478
13747SOL    HW253715   6.273   0.190   2.370
13748SOL     OW53716   5.377   7.721   2.935
13748SOL    HW153717   5.376   7.624   2.910
13748SOL    HW253718   5.419   7.773   2.861
13749SOL     OW53719   4.596   7.333   7.004
13749SOL    HW153720   4.605   7.376   7.094
13749SOL    HW253721   4.644   7.388   6.936
13750SOL     OW53722   2.762   8.141   1.016
13750SOL    HW153723   2.704   8.072   0.973
13750SOL    HW253724   2.850   8.101   1.041
13751SOL     OW53725   4.355   8.174   0.364
13751SOL    HW153726   4.258   8.165   0.387
13751SOL    HW253727   4.408   8.109   0.417
13752SOL     OW53728   6.620   8.128   1.091
13752SOL    HW153729   6.653   8.161   1.179
13752SOL    HW253730   6.521   8.141   1.084
13753SOL     OW53731   2.598   7.983   6.815
13753SOL    HW153732   2.510   7.948   6.846
13753SOL    HW253733   2.601   7.982   6.715
13754SOL     OW53734   3.424   8.946   6.279
13754SOL    HW153735   3.467   0.025   6.322
13754SOL    HW253736   3.359   8.905   6.342
13755SOL     OW53737   3.442   8.622   7.377
13755SOL    HW153738   3.435   8.717   7.349
13755SOL    HW253739   3.477   8.617   7.470
13756SOL     OW53740   3.998   8.000   0.857
13756SOL    HW153741   4.046   8.068   0.801
13756SOL    HW253742   4.032   7.909   0.835
13757SOL     OW53743   6.441   7.983   0.419
13757SOL    HW153744   6.451   8.057   0.486
13757SOL    HW253745   6.398   7.904   0.463
13758SOL     OW53746   0.666   8.495   7.024
13758SOL    HW153747   0.735   8.443   7.074
13758SOL    HW253748   0.681   8.487   6.926
13759SOL     OW53749   2.551   7.434   3.211
13759SOL    HW153750   2.603   7.519   3.215
13759SOL    HW253751   2.515   7.421   3.119
13760SOL     OW53752   5.059   8.454   2.894
13760SOL    HW153753   4.970   8.426   2.931
13760SOL    HW253754   5.055   8.458   2.795
13761SOL     OW53755   3.188   8.459   6.812
13761SOL    HW153756   3.214   8.532   6.875
13761SOL    HW253757   3.235   8.375   6.838
13762SOL     OW53758   2.455   7.910   5.460
13762SOL    HW153759   2.464   7.815   5.488
13762SOL    HW253760   2.531   7.935   5.400
13763SOL     OW53761   4.821   7.574   0.137
13763SOL    HW153762   4.894   7.626   0.181
13763SOL    HW253763   4.744   7.635   0.116
13764SOL     OW53764   4.226   8.458   3.786
13764SOL    HW153765   4.321   8.471   3.817
13764SOL    HW253766   4.166   8.520   3.837
13765SOL     OW53767   4.432   7.629   1.980
13765SOL    HW153768   4.427   7.725   2.006
13765SOL    HW253769   4.456   7.622   1.883
13766SOL     OW53770   0.686   8.110   7.194
13766SOL    HW153771   0.739   8.025   7.187
13766SOL    HW253772   0.612   8.109   7.126
13767SOL     OW53773   4.447   8.480   1.817
13767SOL    HW153774   4.535   8.497   1.772
13767SOL    HW253775   4.414   8.389   1.791
13768SOL     OW53776   4.802   8.227   5.019
13768SOL    HW153777   4.728   8.228   4.952
13768SOL    HW253778   4.775   8.171   5.097
13769SOL     OW53779   5.941   7.940   4.641
13769SOL    HW153780   5.955   7.938   4.542
13769SOL    HW253781   5.939   7.847   4.677
13770SOL     OW53782   3.070   8.735   2.636
13770SOL    HW153783   3.012   8.677   2.693
13770SOL    HW253784   3.154   8.686   2.613
13771SOL     OW53785   6.320   7.666   4.450
13771SOL    HW153786   6.338   7.699   4.357
13771SOL    HW253787   6.400   7.615   4.483
13772SOL     OW53788   4.572   7.530   0.572
13772SOL    HW153789   4.582   7.496   0.478
13772SOL    HW253790   4.649   7.590   0.594
13773SOL     OW53791   3.564   8.839   5.032
13773SOL    HW153792   3.484   8.780   5.035
13773SOL    HW253793   3.638   8.793   4.982
13774SOL     OW53794   4.804   7.579   3.298
13774SOL    HW153795   4.830   7.539   3.211
13774SOL    HW253796   4.717   7.628   3.289
13775SOL     OW53797   4.754   7.632   5.621
13775SOL    HW153798   4.801   7.639   5.532
13775SOL    HW253799   4.809   7.576   5.683
13776SOL     OW53800   1.300   7.711   6.386
13776SOL    HW153801   1.293   7.678   6.292
13776SOL    HW253802   1.262   7.804   6.392
13777SOL     OW53803   5.735   8.423   5.395
13777SOL    HW153804   5.697   8.494   5.335
13777SOL    HW253805   5.694   8.430   5.486
13778SOL     OW53806   3.762   7.767   3.947
13778SOL    HW153807   3.837   7.716   3.906
13778SOL    HW253808   3.685   7.705   3.964
13779SOL     OW53809   4.744   7.631   2.877
13779SOL    HW153810   4.749   7.597   2.783
13779SOL    HW253811   4.781   7.562   2.940
13780SOL     OW53812   3.851   7.368   1.079
13780SOL    HW153813   3.927   7.380   1.143
13780SOL    HW253814   3.813   7.457   1.055
13781SOL     OW53815   3.603   8.633   0.329
13781SOL    HW153816   3.669   8.560   0.310
13781SOL    HW253817   3.607   8.701   0.255
13782SOL     OW53818   4.692   7.479   2.613
13782SOL    HW153819   4.690   7.456   2.516
13782SOL    HW253820   4.604   7.516   2.641
13783SOL     OW53821   4.396   7.502   2.214
13783SOL    HW153822   4.416   7.537   2.123
13783SOL    HW253823   4.297   7.491   2.225
13784SOL     OW53824   3.008   8.720   0.034
13784SOL    HW153825   3.069   8.786   0.076
13784SOL    HW253826   3.019   8.724   8.934
13785SOL     OW53827   6.095   7.598   3.787
13785SOL    HW153828   6.099   7.694   3.816
13785SOL    HW253829   6.096   7.540   3.868
13786SOL     OW53830   0.322   7.772   1.974
13786SOL    HW153831   0.349   7.682   1.940
13786SOL    HW253832   0.240   7.763   2.030
13787SOL     OW53833   2.208   7.923   3.447
13787SOL    HW153834   2.223   7.966   3.357
13787SOL    HW253835   2.171   7.831   3.434
13788SOL     OW53836   5.710   8.957   3.245
13788SOL    HW153837   5.700   8.861   3.219
13788SOL    HW253838   5.622   0.004   3.235
13789SOL     OW53839   3.168   8.954   7.220
13789SOL    HW153840   3.180   0.020   7.147
13789SOL    HW253841   3.121   8.872   7.185
13790SOL     OW53842   6.404   7.665   0.001
13790SOL    HW153843   6.381   7.730   8.928
13790SOL    HW253844   6.430   7.716   0.083
13791SOL     OW53845   4.477   7.949   6.425
13791SOL    HW153846   4.533   7.923   6.504
13791SOL    HW253847   4.387   7.978   6.457
13792SOL     OW53848   4.876   8.783   3.034
13792SOL    HW153849   4.971   8.752   3.035
13792SOL    HW253850   4.819   8.718   3.084
13793SOL     OW53851   2.054   8.057   3.628
13793SOL    HW153852   2.030   8.144   3.585
13793SOL    HW253853   2.109   8.002   3.566
13794SOL     OW53854   1.196   7.993   6.858
13794SOL    HW153855   1.199   8.026   6.764
13794SOL    HW253856   1.268   8.037   6.911
13795SOL     OW53857   4.082   7.498   2.784
13795SOL    HW153858   4.088   7.462   2.691
13795SOL    HW253859   4.124   7.588   2.788
13796SOL     OW53860   3.424   8.029   3.964
13796SOL    HW153861   3.410   8.023   4.063
13796SOL    HW253862   3.374   8.107   3.928
13797SOL     OW53863   2.814   8.359   6.599
13797SOL    HW153864   2.911   8.337   6.608
13797SOL    HW253865   2.802   8.458   6.596
13798SOL     OW53866   5.419   8.764   0.695
13798SOL    HW153867   5.472   8.803   0.619
13798SOL    HW253868   5.477   8.704   0.749
13799SOL     OW53869   2.687   8.625   5.613
13799SOL    HW153870   2.597   8.648   5.651
13799SOL    HW253871   2.714   8.534   5.645
13800SOL     OW53872   3.180   8.339   2.003
13800SOL    HW153873   3.239   8.278   1.949
13800SOL    HW253874   3.220   8.350   2.094
13801SOL     OW53875   3.607   8.352   0.826
13801SOL    HW153876   3.589   8.353   0.728
13801SOL    HW253877   3.669   8.276   0.847
13802SOL     OW53878   3.920   7.377   7.205
13802SOL    HW153879   3.913   7.278   7.215
13802SOL    HW253880   3.897   7.403   7.111
13803SOL     OW53881   6.248   7.383   5.072
13803SOL    HW153882   6.216   7.466   5.117
13803SOL    HW253883   6.231   7.389   4.974
13804SOL     OW53884   0.848   7.502   6.769
13804SOL    HW153885   0.937   7.531   6.803
13804SOL    HW253886   0.850   7.499   6.669
13805SOL     OW53887   4.362   7.556   3.381
13805SOL    HW153888   4.399   7.574   3.472
13805SOL    HW253889   4.327   7.463   3.377
13806SOL     OW53890   2.115   8.325   6.264
13806SOL    HW153891   2.186   8.258   6.288
13806SOL    HW253892   2.031   8.276   6.241
13807SOL     OW53893   1.822   7.777   7.292
13807SOL    HW153894   1.739   7.791   7.345
13807SOL    HW253895   1.817   7.829   7.207
13808SOL     OW53896   4.962   8.459   1.839
13808SOL    HW153897   4.924   8.530   1.898
13808SOL    HW253898   4.956   8.371   1.885
13809SOL     OW53899   0.679   8.069   1.549
13809SOL    HW153900   0.653   8.037   1.640
13809SOL    HW253901   0.597   8.091   1.496
13810SOL     OW53902   2.038   0.289   7.018
13810SOL    HW153903   1.972   0.227   7.060
13810SOL    HW253904   2.103   0.236   6.962
13811SOL     OW53905   6.986   8.266   1.315
13811SOL    HW153906   6.996   8.335   1.243
13811SOL    HW253907   7.002   8.308   1.404
13812SOL     OW53908   6.723   8.192   1.352
13812SOL    HW153909   6.715   8.098   1.386
13812SOL    HW253910   6.819   8.213   1.334
13813SOL     OW53911   4.334   8.170   6.078
13813SOL    HW153912   4.349   8.183   5.980
13813SOL    HW253913   4.386   8.091   6.110
13814SOL     OW53914   5.623   8.044   0.686
13814SOL    HW153915   5.684   8.113   0.646
13814SOL    HW253916   5.563   8.088   0.753
13815SOL     OW53917   7.237   7.571   7.012
13815SOL    HW153918   7.276   7.480   7.004
13815SOL    HW253919   7.214   7.606   6.921
13816SOL     OW53920   6.283   7.892   3.070
13816SOL    HW153921   6.275   7.888   2.970
13816SOL    HW253922   6.340   7.970   3.095
13817SOL     OW53923   0.416   7.684   5.994
13817SOL    HW153924   0.359   7.764   6.012
13817SOL    HW253925   0.377   7.604   6.039
13818SOL     OW53926   4.211   7.804   5.049
13818SOL    HW153927   4.203   7.745   4.969
13818SOL    HW253928   4.120   7.818   5.090
13819SOL     OW53929   5.382   8.525   4.156
13819SOL    HW153930   5.360   8.598   4.220
13819SOL    HW253931   5.313   8.453   4.163
13820SOL     OW53932   0.258   8.316   0.978
13820SOL    HW153933   0.201   8.393   0.949
13820SOL    HW253934   0.203   8.233   0.982
13821SOL     OW53935   5.426   7.532   2.138
13821SOL    HW153936   5.433   7.583   2.051
13821SOL    HW253937   5.332   7.537   2.171
13822SOL     OW53938   3.470   7.798   2.104
13822SOL    HW153939   3.497   7.772   2.011
13822SOL    HW253940   3.475   7.897   2.114
13823SOL     OW53941   2.104   0.041   1.644
13823SOL    HW153942   2.161   0.088   1.576
13823SOL    HW253943   2.121   8.943   1.641
13824SOL     OW53944   5.124   8.740   3.291
13824SOL    HW153945   5.059   8.814   3.309
13824SOL    HW253946   5.134   8.729   3.192
13825SOL     OW53947   3.869   8.453   2.754
13825SOL    HW153948   3.806   8.530   2.761
13825SOL    HW253949   3.857   8.392   2.832
13826SOL     OW53950   4.293   7.889   2.289
13826SOL    HW153951   4.341   7.821   2.344
13826SOL    HW253952   4.204   7.853   2.261
13827SOL     OW53953   1.934   8.251   1.074
13827SOL    HW153954   1.963   8.262   0.979
13827SOL    HW253955   1.838   8.222   1.076
13828SOL     OW53956   6.201   8.041   0.302
13828SOL    HW153957   6.140   7.962   0.312
13828SOL    HW253958   6.291   8.018   0.338
13829SOL     OW53959   5.935   8.992   3.818
13829SOL    HW153960   5.942   8.894   3.801
13829SOL    HW253961   5.938   0.041   3.731
13830SOL     OW53962   5.413   8.522   0.146
13830SOL    HW153963   5.493   8.462   0.137
13830SOL    HW253964   5.443   8.613   0.174
13831SOL     OW53965   2.539   8.662   6.331
13831SOL    HW153966   2.558   8.704   6.242
13831SOL    HW253967   2.443   8.678   6.356
13832SOL     OW53968   2.480   7.594   5.915
13832SOL    HW153969   2.429   7.679   5.916
13832SOL    HW253970   2.554   7.599   5.847
13833SOL     OW53971   5.282   7.570   1.331
13833SOL    HW153972   5.194   7.609   1.359
13833SOL    HW253973   5.332   7.636   1.275
13834SOL     OW53974   2.351   8.551   3.514
13834SOL    HW153975   2.434   8.600   3.539
13834SOL    HW253976   2.324   8.490   3.588
13835SOL     OW53977   1.060   0.247   1.510
13835SOL    HW153978   1.016   0.301   1.439
13835SOL    HW253979   1.159   0.260   1.506
13836SOL     OW53980   2.085   8.748   0.658
13836SOL    HW153981   2.136   8.783   0.737
13836SOL    HW253982   2.141   8.680   0.610
13837SOL     OW53983   5.431   8.120   6.249
13837SOL    HW153984   5.481   8.044   6.291
13837SOL    HW253985   5.436   8.113   6.150
13838SOL     OW53986   3.470   8.064   2.135
13838SOL    HW153987   3.566   8.089   2.151
13838SOL    HW253988   3.427   8.133   2.078
13839SOL     OW53989   4.335   7.863   4.305
13839SOL    HW153990   4.293   7.875   4.215
13839SOL    HW253991   4.268   7.884   4.377
13840SOL     OW53992   0.106   7.359   5.570
13840SOL    HW153993   0.177   7.359   5.640
13840SOL    HW253994   0.037   7.290   5.593
13841SOL     OW53995   5.041   8.175   5.695
13841SOL    HW153996   5.087   8.137   5.775
13841SOL    HW253997   4.969   8.238   5.725
13842SOL     OW53998   0.702   8.320   5.931
13842SOL    HW153999   0.764   8.328   6.009
13842SOL    HW254000   0.743   8.364   5.852
13843SOL     OW54001   0.440   7.593   5.730
13843SOL    HW154002   0.442   7.635   5.821
13843SOL    HW254003   0.402   7.659   5.664
13844SOL     OW54004   1.493   8.233   5.757
13844SOL    HW154005   1.540   8.157   5.803
13844SOL    HW254006   1.538   8.252   5.670
13845SOL     OW54007   4.053   8.831   0.875
13845SOL    HW154008   4.063   8.753   0.812
13845SOL    HW254009   4.001   8.802   0.955
13846SOL     OW54010   1.140   7.613   1.872
13846SOL    HW154011   1.134   7.608   1.972
13846SOL    HW254012   1.050   7.633   1.834
13847SOL     OW54013   1.357   8.754   3.408
13847SOL    HW154014   1.314   8.839   3.378
13847SOL    HW254015   1.456   8.767   3.414
13848SOL     OW54016   5.743   7.382   1.188
13848SOL    HW154017   5.793   7.440   1.252
13848SOL    HW254018   5.799   7.304   1.162
13849SOL     OW54019   2.601   8.271   6.761
13849SOL    HW154020   2.606   8.174   6.785
13849SOL    HW254021   2.677   8.294   6.700
13850SOL     OW54022   4.136   7.793   6.499
13850SOL    HW154023   4.210   7.770   6.563
13850SOL    HW254024   4.133   7.726   6.426
13851SOL     OW54025   4.977   7.875   7.137
13851SOL    HW154026   4.882   7.874   7.167
13851SOL    HW254027   4.983   7.836   7.045
13852SOL     OW54028   3.529   7.703   0.514
13852SOL    HW154029   3.495   7.612   0.540
13852SOL    HW254030   3.460   7.772   0.539
13853SOL     OW54031   6.237   8.439   3.470
13853SOL    HW154032   6.159   8.378   3.458
13853SOL    HW254033   6.308   8.416   3.404
13854SOL     OW54034   1.927   0.325   0.972
13854SOL    HW154035   1.893   0.276   1.052
13854SOL    HW254036   2.003   0.385   0.998
13855SOL     OW54037   2.682   8.217   2.043
13855SOL    HW154038   2.628   8.136   2.022
13855SOL    HW254039   2.779   8.197   2.031
13856SOL     OW54040   3.020   7.775   0.272
13856SOL    HW154041   3.051   7.706   0.206
13856SOL    HW254042   3.059   7.756   0.362
13857SOL     OW54043   5.737   8.225   7.238
13857SOL    HW154044   5.704   8.190   7.149
13857SOL    HW254045   5.668   8.205   7.308
13858SOL     OW54046   1.688   8.535   1.158
13858SOL    HW154047   1.605   8.582   1.185
13858SOL    HW254048   1.668   8.471   1.084
13859SOL     OW54049   5.204   8.326   3.238
13859SOL    HW154050   5.299   8.304   3.261
13859SOL    HW254051   5.165   8.383   3.310
13860SOL     OW54052   0.969   8.693   2.508
13860SOL    HW154053   1.068   8.691   2.504
13860SOL    HW254054   0.940   8.748   2.587
13861SOL     OW54055   3.930   8.874   2.861
13861SOL    HW154056   3.980   8.818   2.794
13861SOL    HW254057   3.945   8.838   2.953
13862SOL     OW54058   4.182   8.245   5.015
13862SOL    HW154059   4.191   8.313   5.087
13862SOL    HW254060   4.092   8.201   5.021
13863SOL     OW54061   3.624   0.003   5.251
13863SOL    HW154062   3.646   8.946   5.330
13863SOL    HW254063   3.601   8.944   5.173
13864SOL     OW54064   6.086   7.404   3.982
13864SOL    HW154065   6.094   7.308   3.958
13864SOL    HW254066   6.168   7.434   4.030
13865SOL     OW54067   6.702   8.219   3.063
13865SOL    HW154068   6.778   8.164   3.098
13865SOL    HW254069   6.722   8.247   2.970
13866SOL     OW54070   5.709   7.483   0.777
13866SOL    HW154071   5.798   7.471   0.822
13866SOL    HW254072   5.695   7.409   0.712
13867SOL     OW54073   3.034   7.466   1.479
13867SOL    HW154074   3.117   7.425   1.443
13867SOL    HW254075   2.965   7.394   1.493
13868SOL     OW54076   2.223   7.437   6.377
13868SOL    HW154077   2.260   7.389   6.457
13868SOL    HW254078   2.172   7.517   6.407
13869SOL     OW54079   2.128   8.420   0.744
13869SOL    HW154080   2.160   8.469   0.663
13869SOL    HW254081   2.202   8.416   0.812
13870SOL     OW54082   0.232   7.897   6.050
13870SOL    HW154083   0.167   7.899   6.126
13870SOL    HW254084   0.185   7.921   5.965
13871SOL     OW54085   6.330   7.459   1.018
13871SOL    HW154086   6.368   7.366   1.017
13871SOL    HW254087   6.279   7.475   0.934
13872SOL     OW54088   2.683   7.662   3.261
13872SOL    HW154089   2.761   7.723   3.243
13872SOL    HW254090   2.639   7.690   3.347
13873SOL     OW54091   0.959   8.698   0.959
13873SOL    HW154092   0.955   8.784   1.010
13873SOL    HW254093   0.915   8.626   1.011
13874SOL     OW54094   1.626   8.788   3.475
13874SOL    HW154095   1.709   8.732   3.467
13874SOL    HW254096   1.620   8.824   3.569
13875SOL     OW54097   3.262   7.768   1.780
13875SOL    HW154098   3.177   7.737   1.736
13875SOL    HW254099   3.327   7.798   1.710
13876SOL     OW54100   2.990   8.005   1.076
13876SOL    HW154101   3.007   7.916   1.119
13876SOL    HW254102   3.069   8.030   1.020
13877SOL     OW54103   5.589   8.849   0.488
13877SOL    HW154104   5.652   8.795   0.543
13877SOL    HW254105   5.639   8.922   0.441
13878SOL     OW54106   4.079   8.092   0.044
13878SOL    HW154107   4.017   8.115   8.970
13878SOL    HW254108   4.165   8.142   0.033
13879SOL     OW54109   1.355   8.677   3.667
13879SOL    HW154110   1.412   8.747   3.711
13879SOL    HW254111   1.337   8.704   3.572
13880SOL     OW54112   5.001   7.727   0.286
13880SOL    HW154113   5.083   7.775   0.255
13880SOL    HW254114   4.946   7.789   0.342
13881SOL     OW54115   7.147   8.517   1.835
13881SOL    HW154116   7.056   8.481   1.814
13881SOL    HW254117   7.142   8.571   1.919
13882SOL     OW54118   3.774   8.630   6.786
13882SOL    HW154119   3.686   8.635   6.740
13882SOL    HW254120   3.816   8.540   6.769
13883SOL     OW54121   2.946   8.916   2.455
13883SOL    HW154122   2.875   8.870   2.402
13883SOL    HW254123   2.991   8.850   2.515
13884SOL     OW54124   7.358   7.610   5.472
13884SOL    HW154125   7.345   7.700   5.429
13884SOL    HW254126   7.268   7.569   5.490
13885SOL     OW54127   4.116   8.331   2.687
13885SOL    HW154128   4.025   8.366   2.709
13885SOL    HW254129   4.162   8.304   2.771
13886SOL     OW54130   0.322   8.769   1.501
13886SOL    HW154131   0.387   8.817   1.559
13886SOL    HW254132   0.363   8.752   1.411
13887SOL     OW54133   5.442   8.999   4.048
13887SOL    HW154134   5.488   0.082   4.018
13887SOL    HW254135   5.474   8.921   3.995
13888SOL     OW54136   6.217   8.707   2.718
13888SOL    HW154137   6.244   8.797   2.685
13888SOL    HW254138   6.299   8.651   2.731
13889SOL     OW54139   4.376   7.812   1.429
13889SOL    HW154140   4.374   7.842   1.524
13889SOL    HW254141   4.463   7.839   1.387
13890SOL     OW54142   2.121   8.055   1.147
13890SOL    HW154143   2.053   8.126   1.129
13890SOL    HW254144   2.205   8.097   1.181
13891SOL     OW54145   5.539   7.860   3.114
13891SOL    HW154146   5.470   7.829   3.049
13891SOL    HW254147   5.601   7.924   3.070
13892SOL     OW54148   0.403   7.967   0.700
13892SOL    HW154149   0.380   8.061   0.674
13892SOL    HW254150   0.325   7.907   0.681
13893SOL     OW54151   4.842   8.634   2.581
13893SOL    HW154152   4.850   8.703   2.653
13893SOL    HW254153   4.746   8.622   2.558
13894SOL     OW54154   1.220   7.463   1.650
13894SOL    HW154155   1.150   7.466   1.579
13894SOL    HW254156   1.189   7.514   1.731
13895SOL     OW54157   5.860   8.796   2.975
13895SOL    HW154158   5.813   8.764   2.893
13895SOL    HW254159   5.814   8.759   3.056
13896SOL     OW54160   1.361   8.243   6.009
13896SOL    HW154161   1.404   8.308   6.072
13896SOL    HW254162   1.404   8.250   5.919
13897SOL     OW54163   2.207   8.377   1.356
13897SOL    HW154164   2.147   8.319   1.410
13897SOL    HW254165   2.206   8.470   1.392
13898SOL     OW54166   5.104   8.566   6.013
13898SOL    HW154167   5.089   8.656   5.974
13898SOL    HW254168   5.197   8.536   5.992
13899SOL     OW54169   4.650   7.414   1.894
13899SOL    HW154170   4.573   7.353   1.871
13899SOL    HW254171   4.633   7.504   1.856
13900SOL     OW54172   3.799   7.514   2.786
13900SOL    HW154173   3.763   7.453   2.856
13900SOL    HW254174   3.898   7.525   2.798
13901SOL     OW54175   6.614   7.574   0.284
13901SOL    HW154176   6.577   7.660   0.249
13901SOL    HW254177   6.706   7.590   0.320
13902SOL     OW54178   3.845   8.457   3.850
13902SOL    HW154179   3.839   8.358   3.847
13902SOL    HW254180   3.838   8.494   3.757
13903SOL     OW54181   6.219   7.408   4.790
13903SOL    HW154182   6.214   7.507   4.797
13903SOL    HW254183   6.149   7.375   4.727
13904SOL     OW54184   4.991   8.423   7.278
13904SOL    HW154185   4.967   8.330   7.252
13904SOL    HW254186   5.083   8.425   7.316
13905SOL     OW54187   5.093   7.931   6.351
13905SOL    HW154188   5.156   7.913   6.275
13905SOL    HW254189   5.145   7.942   6.435
13906SOL     OW54190   0.070   8.111   0.962
13906SOL    HW154191   0.002   8.125   0.889
13906SOL    HW254192   0.026   8.064   1.039
13907SOL     OW54193   6.680   7.954   0.038
13907SOL    HW154194   6.718   7.959   8.946
13907SOL    HW254195   6.670   8.047   0.075
13908SOL     OW54196   3.611   8.178   3.054
13908SOL    HW154197   3.549   8.247   3.016
13908SOL    HW254198   3.589   8.089   3.016
13909SOL     OW54199   5.332   7.985   0.452
13909SOL    HW154200   5.364   8.077   0.428
13909SOL    HW254201   5.411   7.928   0.475
13910SOL     OW54202   3.071   8.500   1.798
13910SOL    HW154203   3.115   8.467   1.715
13910SOL    HW254204   3.103   8.448   1.877
13911SOL     OW54205   1.801   8.397   2.794
13911SOL    HW154206   1.759   8.472   2.845
13911SOL    HW254207   1.730   8.342   2.750
13912SOL     OW54208   1.549   7.603   1.066
13912SOL    HW154209   1.643   7.594   1.099
13912SOL    HW254210   1.543   7.679   1.002
13913SOL     OW54211   4.974   8.866   1.461
13913SOL    HW154212   5.040   8.791   1.454
13913SOL    HW254213   4.953   8.900   1.370
13914SOL     OW54214   2.562   7.388   7.050
13914SOL    HW154215   2.638   7.448   7.025
13914SOL    HW254216   2.596   7.297   7.071
13915SOL     OW54217   4.178   7.995   1.744
13915SOL    HW154218   4.194   8.093   1.758
13915SOL    HW254219   4.265   7.948   1.729
13916SOL     OW54220   4.662   7.816   0.949
13916SOL    HW154221   4.615   7.729   0.934
13916SOL    HW254222   4.664   7.867   0.863
13917SOL     OW54223   0.053   7.964   1.724
13917SOL    HW154224   0.013   7.905   1.654
13917SOL    HW254225   8.981   8.016   1.769
13918SOL     OW54226   3.834   8.598   5.497
13918SOL    HW154227   3.768   8.523   5.490
13918SOL    HW254228   3.906   8.572   5.562
13919SOL     OW54229   1.528   7.857   6.732
13919SOL    HW154230   1.504   7.953   6.718
13919SOL    HW254231   1.585   7.848   6.814
13920SOL     OW54232   1.221   7.970   6.365
13920SOL    HW154233   1.130   7.992   6.329
13920SOL    HW254234   1.290   7.990   6.295
13921SOL     OW54235   2.588   8.485   6.933
13921SOL    HW154236   2.547   8.453   7.019
13921SOL    HW254237   2.594   8.410   6.868
13922SOL     OW54238   1.110   7.591   2.150
13922SOL    HW154239   1.013   7.593   2.172
13922SOL    HW254240   1.155   7.521   2.206
13923SOL     OW54241   5.347   8.642   7.027
13923SOL    HW154242   5.377   8.660   6.933
13923SOL    HW254243   5.399   8.566   7.065
13924SOL     OW54244   0.644   7.564   2.002
13924SOL    HW154245   0.553   7.549   1.963
13924SOL    HW254246   0.680   7.651   1.969
13925SOL     OW54247   6.456   8.571   2.779
13925SOL    HW154248   6.539   8.547   2.729
13925SOL    HW254249   6.481   8.615   2.865
13926SOL     OW54250   5.946   8.723   3.766
13926SOL    HW154251   5.985   8.693   3.679
13926SOL    HW254252   5.900   8.647   3.810
13927SOL     OW54253   3.473   8.125   2.496
13927SOL    HW154254   3.389   8.101   2.446
13927SOL    HW254255   3.527   8.043   2.511
13928SOL     OW54256   3.549   8.166   1.570
13928SOL    HW154257   3.450   8.171   1.578
13928SOL    HW254258   3.575   8.090   1.510
13929SOL     OW54259   4.093   7.564   2.500
13929SOL    HW154260   4.107   7.662   2.515
13929SOL    HW254261   4.115   7.542   2.405
13930SOL     OW54262   5.866   8.209   5.299
13930SOL    HW154263   5.955   8.237   5.265
13930SOL    HW254264   5.820   8.287   5.340
13931SOL     OW54265   4.085   8.694   2.118
13931SOL    HW154266   4.136   8.659   2.040
13931SOL    HW254267   4.080   8.794   2.113
13932SOL     OW54268   3.922   7.432   0.639
13932SOL    HW154269   3.925   7.354   0.702
13932SOL    HW254270   3.904   7.516   0.691
13933SOL     OW54271   0.243   8.069   7.365
13933SOL    HW154272   0.273   8.003   7.434
13933SOL    HW254273   0.162   8.034   7.318
13934SOL     OW54274   3.713   8.860   0.771
13934SOL    HW154275   3.670   8.797   0.707
13934SOL    HW254276   3.789   8.908   0.725
13935SOL     OW54277   5.432   7.457   4.226
13935SOL    HW154278   5.441   7.548   4.186
13935SOL    HW254279   5.522   7.415   4.233
13936SOL     OW54280   3.746   8.000   4.240
13936SOL    HW154281   3.677   7.939   4.279
13936SOL    HW254282   3.727   8.015   4.143
13937SOL     OW54283   5.093   8.337   0.483
13937SOL    HW154284   5.040   8.316   0.401
13937SOL    HW254285   5.131   8.429   0.475
13938SOL     OW54286   7.414   7.648   1.913
13938SOL    HW154287   7.414   7.558   1.868
13938SOL    HW254288   7.365   7.641   2.000
13939SOL     OW54289   6.994   8.920   7.007
13939SOL    HW154290   6.978   0.018   7.022
13939SOL    HW254291   6.912   8.869   7.035
13940SOL     OW54292   3.076   8.024   3.882
13940SOL    HW154293   3.132   8.097   3.922
13940SOL    HW254294   3.062   8.041   3.785
13941SOL     OW54295   6.232   8.402   7.298
13941SOL    HW154296   6.258   8.310   7.328
13941SOL    HW254297   6.197   8.453   7.376
13942SOL     OW54298   2.440   8.311   5.499
13942SOL    HW154299   2.454   8.291   5.595
13942SOL    HW254300   2.528   8.319   5.453
13943SOL     OW54301   0.092   8.640   2.521
13943SOL    HW154302   0.074   8.719   2.579
13943SOL    HW254303   0.087   8.556   2.575
13944SOL     OW54304   5.132   8.070   4.160
13944SOL    HW154305   5.037   8.085   4.189
13944SOL    HW254306   5.152   7.972   4.162
13945SOL     OW54307   1.243   8.135   3.612
13945SOL    HW154308   1.179   8.210   3.596
13945SOL    HW254309   1.200   8.066   3.670
13946SOL     OW54310   4.782   7.715   1.329
13946SOL    HW154311   4.727   7.798   1.341
13946SOL    HW254312   4.736   7.653   1.265
13947SOL     OW54313   6.252   8.890   5.330
13947SOL    HW154314   6.192   8.810   5.334
13947SOL    HW254315   6.241   8.936   5.241
13948SOL     OW54316   3.777   8.288   1.671
13948SOL    HW154317   3.846   8.277   1.599
13948SOL    HW254318   3.691   8.247   1.641
13949SOL     OW54319   6.119   7.717   3.208
13949SOL    HW154320   6.179   7.780   3.158
13949SOL    HW254321   6.114   7.744   3.304
13950SOL     OW54322   4.207   8.265   1.808
13950SOL    HW154323   4.126   8.323   1.796
13950SOL    HW254324   4.212   8.235   1.903
13951SOL     OW54325   1.355   8.208   1.446
13951SOL    HW154326   1.265   8.173   1.474
13951SOL    HW254327   1.414   8.215   1.527
13952SOL     OW54328   6.014   7.423   7.058
13952SOL    HW154329   5.921   7.453   7.040
13952SOL    HW254330   6.044   7.459   7.147
13953SOL     OW54331   3.553   8.089   7.284
13953SOL    HW154332   3.586   8.114   7.375
13953SOL    HW254333   3.481   8.021   7.291
13954SOL     OW54334   3.771   8.177   5.450
13954SOL    HW154335   3.861   8.215   5.473
13954SOL    HW254336   3.702   8.250   5.453
13955SOL     OW54337   4.950   8.938   1.187
13955SOL    HW154338   5.026   8.875   1.170
13955SOL    HW254339   4.982   0.032   1.175
13956SOL     OW54340   3.308   8.228   6.880
13956SOL    HW154341   3.386   8.235   6.942
13956SOL    HW254342   3.290   8.132   6.859
13957SOL     OW54343   1.966   8.209   0.780
13957SOL    HW154344   2.009   8.139   0.723
13957SOL    HW254345   2.014   8.296   0.768
13958SOL     OW54346   7.040   8.405   1.543
13958SOL    HW154347   7.106   8.461   1.494
13958SOL    HW254348   6.983   8.464   1.601
13959SOL     OW54349   0.616   8.759   0.848
13959SOL    HW154350   0.644   8.770   0.943
13959SOL    HW254351   0.691   8.786   0.788
13960SOL     OW54352   4.057   8.544   5.656
13960SOL    HW154353   4.091   8.513   5.745
13960SOL    HW254354   4.092   8.635   5.636
13961SOL     OW54355   6.707   7.713   1.908
13961SOL    HW154356   6.781   7.780   1.917
13961SOL    HW254357   6.728   7.633   1.964
13962SOL     OW54358   4.491   8.310   2.971
13962SOL    HW154359   4.481   8.357   3.059
13962SOL    HW254360   4.583   8.273   2.964
13963SOL     OW54361   6.517   8.716   7.009
13963SOL    HW154362   6.522   8.688   6.914
13963SOL    HW254363   6.422   8.740   7.032
13964SOL     OW54364   6.154   8.959   1.778
13964SOL    HW154365   6.197   0.041   1.741
13964SOL    HW254366   6.079   8.985   1.839
13965SOL     OW54367   3.852   8.285   2.974
13965SOL    HW154368   3.909   8.206   2.951
13965SOL    HW254369   3.763   8.254   3.008
13966SOL     OW54370   6.445   7.657   1.175
13966SOL    HW154371   6.501   7.721   1.124
13966SOL    HW254372   6.412   7.585   1.114
13967SOL     OW54373   5.143   8.654   1.412
13967SOL    HW154374   5.215   8.628   1.476
13967SOL    HW254375   5.096   8.571   1.380
13968SOL     OW54376   5.898   7.365   3.055
13968SOL    HW154377   5.832   7.343   3.127
13968SOL    HW254378   5.855   7.421   2.985
13969SOL     OW54379   1.075   0.061   0.962
13969SOL    HW154380   1.146   0.005   0.921
13969SOL    HW254381   1.026   0.111   0.891
13970SOL     OW54382   1.914   8.995   4.314
13970SOL    HW154383   1.863   8.972   4.231
13970SOL    HW254384   1.864   0.064   4.366
13971SOL     OW54385   5.892   7.561   1.356
13971SOL    HW154386   5.954   7.601   1.424
13971SOL    HW254387   5.801   7.601   1.365
13972SOL     OW54388   7.351   8.214   2.827
13972SOL    HW154389   7.433   8.166   2.857
13972SOL    HW254390   7.282   8.148   2.797
13973SOL     OW54391   2.712   7.573   2.120
13973SOL    HW154392   2.689   7.477   2.136
13973SOL    HW254393   2.803   7.592   2.158
13974SOL     OW54394   0.738   8.471   0.199
13974SOL    HW154395   0.730   8.425   0.111
13974SOL    HW254396   0.767   8.405   0.268
13975SOL     OW54397   1.670   8.763   1.515
13975SOL    HW154398   1.733   8.768   1.592
13975SOL    HW254399   1.633   8.670   1.509
13976SOL     OW54400   3.959   0.219   2.632
13976SOL    HW154401   3.920   0.199   2.722
13976SOL    HW254402   3.991   0.313   2.630
13977SOL     OW54403   1.086   8.355   4.324
13977SOL    HW154404   1.149   8.279   4.342
13977SOL    HW254405   1.055   8.349   4.229
13978SOL     OW54406   5.385   8.386   0.735
13978SOL    HW154407   5.286   8.395   0.744
13978SOL    HW254408   5.412   8.416   0.644
13979SOL     OW54409   1.240   8.538   6.675
13979SOL    HW154410   1.160   8.566   6.621
13979SOL    HW254411   1.211   8.475   6.747
13980SOL     OW54412   1.445   8.659   6.811
13980SOL    HW154413   1.519   8.592   6.813
13980SOL    HW254414   1.372   8.627   6.751
13981SOL     OW54415   0.848   8.375   2.368
13981SOL    HW154416   0.901   8.326   2.437
13981SOL    HW254417   0.861   8.474   2.380
13982SOL     OW54418   1.562   8.502   1.570
13982SOL    HW154419   1.560   8.556   1.655
13982SOL    HW254420   1.571   8.405   1.593
13983SOL     OW54421   3.174   7.590   0.940
13983SOL    HW154422   3.217   7.659   0.882
13983SOL    HW254423   3.149   7.510   0.885
13984SOL     OW54424   2.829   7.813   1.747
13984SOL    HW154425   2.900   7.755   1.706
13984SOL    HW254426   2.818   7.896   1.692
13985SOL     OW54427   0.686   7.716   4.974
13985SOL    HW154428   0.701   7.753   4.882
13985SOL    HW254429   0.589   7.698   4.988
13986SOL     OW54430   4.986   8.071   6.786
13986SOL    HW154431   5.083   8.058   6.806
13986SOL    HW254432   4.968   8.042   6.692
13987SOL     OW54433   5.944   7.414   0.907
13987SOL    HW154434   5.978   7.462   0.988
13987SOL    HW254435   5.917   7.321   0.933
13988SOL     OW54436   2.152   7.753   3.119
13988SOL    HW154437   2.139   7.731   3.215
13988SOL    HW254438   2.175   7.670   3.068
13989SOL     OW54439   6.573   7.806   4.985
13989SOL    HW154440   6.582   7.796   4.886
13989SOL    HW254441   6.481   7.777   5.013
13990SOL     OW54442   3.871   7.717   0.261
13990SOL    HW154443   3.888   7.691   0.166
13990SOL    HW254444   3.828   7.641   0.310
13991SOL     OW54445   3.748   7.818   0.628
13991SOL    HW154446   3.679   7.762   0.583
13991SOL    HW254447   3.716   7.913   0.634
13992SOL     OW54448   1.939   8.338   4.303
13992SOL    HW154449   2.029   8.300   4.281
13992SOL    HW254450   1.910   8.397   4.228
13993SOL     OW54451   5.128   7.772   3.673
13993SOL    HW154452   5.055   7.773   3.605
13993SOL    HW254453   5.158   7.678   3.689
13994SOL     OW54454   6.816   8.029   1.672
13994SOL    HW154455   6.739   8.076   1.717
13994SOL    HW254456   6.784   7.990   1.586
13995SOL     OW54457   3.931   8.652   5.096
13995SOL    HW154458   3.950   8.564   5.138
13995SOL    HW254459   3.952   8.726   5.160
13996SOL     OW54460   3.878   8.816   4.650
13996SOL    HW154461   3.940   8.786   4.577
13996SOL    HW254462   3.852   8.911   4.636
13997SOL     OW54463   0.351   8.838   0.851
13997SOL    HW154464   0.449   8.818   0.853
13997SOL    HW254465   0.306   8.775   0.787
13998SOL     OW54466   6.742   7.475   6.473
13998SOL    HW154467   6.806   7.495   6.398
13998SOL    HW254468   6.791   7.429   6.547
13999SOL     OW54469   1.928   7.765   6.796
13999SOL    HW154470   1.945   7.813   6.882
13999SOL    HW254471   1.860   7.694   6.811
14000SOL     OW54472   5.497   7.818   2.360
14000SOL    HW154473   5.569   7.752   2.380
14000SOL    HW254474   5.423   7.808   2.426
14001SOL     OW54475   6.233   7.553   1.722
14001SOL    HW154476   6.321   7.593   1.748
14001SOL    HW254477   6.184   7.525   1.804
14002SOL     OW54478   3.262   7.334   1.388
14002SOL    HW154479   3.300   7.243   1.375
14002SOL    HW254480   3.266   7.385   1.302
14003SOL     OW54481   5.816   7.922   1.117
14003SOL    HW154482   5.853   7.932   1.025
14003SOL    HW254483   5.718   7.939   1.116
14004SOL     OW54484   4.484   8.501   3.875
14004SOL    HW154485   4.559   8.465   3.932
14004SOL    HW254486   4.522   8.539   3.791
14005SOL     OW54487   1.699   8.231   6.079
14005SOL    HW154488   1.791   8.204   6.108
14005SOL    HW254489   1.703   8.316   6.027
14006SOL     OW54490   0.960   7.786   3.228
14006SOL    HW154491   0.887   7.844   3.192
14006SOL    HW254492   0.929   7.741   3.312
14007SOL     OW54493   7.025   8.359   5.072
14007SOL    HW154494   7.114   8.340   5.030
14007SOL    HW254495   7.020   8.455   5.099
14008SOL     OW54496   7.195   8.636   3.420
14008SOL    HW154497   7.113   8.619   3.366
14008SOL    HW254498   7.172   8.636   3.517
14009SOL     OW54499   3.560   0.224   5.067
14009SOL    HW154500   3.615   0.304   5.091
14009SOL    HW254501   3.559   0.160   5.144
14010SOL     OW54502   4.909   8.083   0.753
14010SOL    HW154503   4.975   8.070   0.679
14010SOL    HW254504   4.943   8.154   0.816
14011SOL     OW54505   2.485   7.577   1.782
14011SOL    HW154506   2.548   7.644   1.821
14011SOL    HW254507   2.402   7.573   1.838
14012SOL     OW54508   7.066   8.746   1.064
14012SOL    HW154509   7.116   8.827   1.032
14012SOL    HW254510   7.002   8.773   1.135
14013SOL     OW54511   5.528   8.603   4.478
14013SOL    HW154512   5.611   8.634   4.433
14013SOL    HW254513   5.542   8.512   4.517
14014SOL     OW54514   3.531   7.937   2.945
14014SOL    HW154515   3.439   7.945   2.906
14014SOL    HW254516   3.587   7.880   2.885
14015SOL     OW54517   5.011   7.765   1.842
14015SOL    HW154518   5.046   7.853   1.872
14015SOL    HW254519   4.937   7.779   1.776
14016SOL     OW54520   6.898   8.815   1.266
14016SOL    HW154521   6.879   8.767   1.352
14016SOL    HW254522   6.888   8.914   1.280
14017SOL     OW54523   0.858   7.531   1.138
14017SOL    HW154524   0.864   7.444   1.186
14017SOL    HW254525   0.764   7.545   1.105
14018SOL     OW54526   5.100   7.671   6.056
14018SOL    HW154527   5.162   7.739   6.094
14018SOL    HW254528   5.147   7.584   6.045
14019SOL     OW54529   6.893   8.192   2.389
14019SOL    HW154530   6.914   8.121   2.457
14019SOL    HW254531   6.978   8.231   2.354
14020SOL     OW54532   4.930   8.152   3.889
14020SOL    HW154533   4.836   8.118   3.889
14020SOL    HW254534   4.941   8.217   3.964
14021SOL     OW54535   1.757   7.967   0.188
14021SOL    HW154536   1.676   7.920   0.152
14021SOL    HW254537   1.783   8.040   0.125
14022SOL     OW54538   2.558   7.708   6.530
14022SOL    HW154539   2.629   7.686   6.596
14022SOL    HW254540   2.468   7.696   6.572
14023SOL     OW54541   1.016   8.340   1.953
14023SOL    HW154542   1.024   8.324   1.855
14023SOL    HW254543   0.986   8.434   1.970
14024SOL     OW54544   5.772   8.678   6.779
14024SOL    HW154545   5.781   8.741   6.857
14024SOL    HW254546   5.840   8.702   6.710
14025SOL     OW54547   5.451   8.267   6.551
14025SOL    HW154548   5.383   8.259   6.478
14025SOL    HW254549   5.413   8.322   6.626
14026SOL     OW54550   4.042   8.678   2.708
14026SOL    HW154551   3.987   8.599   2.735
14026SOL    HW254552   4.110   8.650   2.641
14027SOL     OW54553   0.813   7.767   0.692
14027SOL    HW154554   0.846   7.690   0.747
14027SOL    HW254555   0.720   7.749   0.661
14028SOL     OW54556   0.210   7.473   3.129
14028SOL    HW154557   0.257   7.525   3.201
14028SOL    HW254558   0.153   7.403   3.171
14029SOL     OW54559   6.336   8.137   0.078
14029SOL    HW154560   6.271   8.106   0.148
14029SOL    HW254561   6.308   8.227   0.045
14030SOL     OW54562   5.913   8.300   0.251
14030SOL    HW154563   5.974   8.272   0.325
14030SOL    HW254564   5.957   8.374   0.199
14031SOL     OW54565   0.113   7.728   2.151
14031SOL    HW154566   0.090   7.631   2.145
14031SOL    HW254567   0.031   7.781   2.171
14032SOL     OW54568   5.088   8.528   6.716
14032SOL    HW154569   5.020   8.456   6.729
14032SOL    HW254570   5.048   8.616   6.741
14033SOL     OW54571   1.897   7.655   3.697
14033SOL    HW154572   1.903   7.594   3.618
14033SOL    HW254573   1.947   7.616   3.774
14034SOL     OW54574   7.239   8.541   5.345
14034SOL    HW154575   7.159   8.567   5.290
14034SOL    HW254576   7.321   8.583   5.307
14035SOL     OW54577   3.439   7.456   0.578
14035SOL    HW154578   3.341   7.440   0.567
14035SOL    HW254579   3.490   7.379   0.539
14036SOL     OW54580   4.136   7.946   3.795
14036SOL    HW154581   4.133   8.044   3.813
14036SOL    HW254582   4.197   7.928   3.717
14037SOL     OW54583   0.594   7.559   1.059
14037SOL    HW154584   0.608   7.658   1.057
14037SOL    HW254585   0.522   7.534   0.994
14038SOL     OW54586   3.318   8.561   6.340
14038SOL    HW154587   3.385   8.505   6.388
14038SOL    HW254588   3.356   8.590   6.251
14039SOL     OW54589   3.973   8.404   6.040
14039SOL    HW154590   4.010   8.352   6.117
14039SOL    HW254591   3.953   8.498   6.069
14040SOL     OW54592   0.782   8.320   1.628
14040SOL    HW154593   0.758   8.227   1.598
14040SOL    HW254594   0.879   8.325   1.648
14041SOL     OW54595   2.163   8.529   1.114
14041SOL    HW154596   2.207   8.481   1.037
14041SOL    HW254597   2.168   8.472   1.196
14042SOL     OW54598   1.648   7.420   3.726
14042SOL    HW154599   1.600   7.508   3.726
14042SOL    HW254600   1.691   7.405   3.815
14043SOL     OW54601   4.599   7.726   0.100
14043SOL    HW154602   4.554   7.801   0.148
14043SOL    HW254603   4.536   7.647   0.097
14044SOL     OW54604   6.709   7.930   1.440
14044SOL    HW154605   6.749   7.874   1.368
14044SOL    HW254606   6.619   7.894   1.464
14045SOL     OW54607   4.827   8.773   4.057
14045SOL    HW154608   4.916   8.786   4.100
14045SOL    HW254609   4.837   8.781   3.958
14046SOL     OW54610   5.481   8.040   1.266
14046SOL    HW154611   5.500   8.007   1.173
14046SOL    HW254612   5.383   8.051   1.278
14047SOL     OW54613   1.935   8.576   6.889
14047SOL    HW154614   2.013   8.587   6.828
14047SOL    HW254615   1.904   8.481   6.887
14048SOL     OW54616   0.128   7.893   1.377
14048SOL    HW154617   0.076   7.900   1.292
14048SOL    HW254618   0.146   7.984   1.413
14049SOL     OW54619   0.662   7.831   1.075
14049SOL    HW154620   0.638   7.897   1.004
14049SOL    HW254621   0.751   7.856   1.114
14050SOL     OW54622   2.445   8.979   5.998
14050SOL    HW154623   2.431   0.070   5.959
14050SOL    HW254624   2.356   8.937   6.017
14051SOL     OW54625   2.722   7.707   7.303
14051SOL    HW154626   2.731   7.720   7.402
14051SOL    HW254627   2.771   7.780   7.256
14052SOL     OW54628   3.705   8.453   5.184
14052SOL    HW154629   3.702   8.532   5.122
14052SOL    HW254630   3.800   8.436   5.212
14053SOL     OW54631   7.022   8.290   0.972
14053SOL    HW154632   7.111   8.246   0.955
14053SOL    HW254633   6.950   8.234   0.932
14054SOL     OW54634   2.842   7.578   5.184
14054SOL    HW154635   2.938   7.581   5.212
14054SOL    HW254636   2.834   7.537   5.093
14055SOL     OW54637   0.903   7.952   1.435
14055SOL    HW154638   0.885   7.856   1.415
14055SOL    HW254639   0.821   7.993   1.474
14056SOL     OW54640   3.728   8.648   7.061
14056SOL    HW154641   3.750   8.645   6.963
14056SOL    HW254642   3.812   8.632   7.114
14057SOL     OW54643   3.975   8.239   0.257
14057SOL    HW154644   3.999   8.183   0.178
14057SOL    HW254645   4.012   8.198   0.340
14058SOL     OW54646   1.418   7.570   7.064
14058SOL    HW154647   1.500   7.512   7.064
14058SOL    HW254648   1.399   7.599   6.970
14059SOL     OW54649   5.478   8.331   2.822
14059SOL    HW154650   5.513   8.250   2.774
14059SOL    HW254651   5.402   8.305   2.881
14060SOL     OW54652   5.391   8.271   6.967
14060SOL    HW154653   5.366   8.318   6.881
14060SOL    HW254654   5.442   8.334   7.025
14061SOL     OW54655   4.869   8.828   2.761
14061SOL    HW154656   4.865   8.818   2.860
14061SOL    HW254657   4.895   8.922   2.738
14062SOL     OW54658   3.459   7.324   0.264
14062SOL    HW154659   3.545   7.360   0.302
14062SOL    HW254660   3.456   7.344   0.166
14063SOL     OW54661   5.786   8.879   6.969
14063SOL    HW154662   5.708   8.844   7.021
14063SOL    HW254663   5.769   8.975   6.945
14064SOL     OW54664   3.191   7.514   5.727
14064SOL    HW154665   3.214   7.552   5.638
14064SOL    HW254666   3.163   7.587   5.789
14065SOL     OW54667   3.254   8.210   4.680
14065SOL    HW154668   3.196   8.129   4.672
14065SOL    HW254669   3.197   8.290   4.700
14066SOL     OW54670   3.476   7.821   3.190
14066SOL    HW154671   3.503   7.866   3.105
14066SOL    HW254672   3.377   7.833   3.204
14067SOL     OW54673   7.071   7.451   2.438
14067SOL    HW154674   7.021   7.418   2.518
14067SOL    HW254675   7.142   7.385   2.414
14068SOL     OW54676   6.245   8.877   2.045
14068SOL    HW154677   6.286   8.787   2.035
14068SOL    HW254678   6.235   8.919   1.955
14069SOL     OW54679   4.229   7.723   2.754
14069SOL    HW154680   4.178   7.771   2.683
14069SOL    HW254681   4.275   7.789   2.813
14070SOL     OW54682   6.584   7.372   1.680
14070SOL    HW154683   6.495   7.330   1.660
14070SOL    HW254684   6.573   7.470   1.691
14071SOL     OW54685   0.546   7.998   5.647
14071SOL    HW154686   0.567   7.911   5.603
14071SOL    HW254687   0.613   8.016   5.720
14072SOL     OW54688   1.525   7.828   0.107
14072SOL    HW154689   1.489   7.775   0.184
14072SOL    HW254690   1.504   7.780   0.022
14073SOL     OW54691   3.886   7.654   0.794
14073SOL    HW154692   3.849   7.646   0.887
14073SOL    HW254693   3.829   7.716   0.740
14074SOL     OW54694   2.595   8.555   2.311
14074SOL    HW154695   2.541   8.589   2.388
14074SOL    HW254696   2.656   8.482   2.343
14075SOL     OW54697   6.331   8.182   1.893
14075SOL    HW154698   6.377   8.170   1.981
14075SOL    HW254699   6.237   8.147   1.899
14076SOL     OW54700   5.524   8.796   1.547
14076SOL    HW154701   5.532   8.758   1.455
14076SOL    HW254702   5.511   8.895   1.541
14077SOL     OW54703   6.486   7.329   0.233
14077SOL    HW154704   6.536   7.413   0.255
14077SOL    HW254705   6.428   7.345   0.153
14078SOL     OW54706   4.387   7.981   0.913
14078SOL    HW154707   4.347   7.897   0.950
14078SOL    HW254708   4.456   7.959   0.845
14079SOL     OW54709   5.049   7.375   2.378
14079SOL    HW154710   5.003   7.293   2.344
14079SOL    HW254711   5.047   7.446   2.308
14080SOL     OW54712   3.217   7.874   2.624
14080SOL    HW154713   3.141   7.928   2.588
14080SOL    HW254714   3.240   7.906   2.716
14081SOL     OW54715   1.583   8.237   2.946
14081SOL    HW154716   1.630   8.162   2.993
14081SOL    HW254717   1.589   8.223   2.847
14082SOL     OW54718   1.359   8.664   7.210
14082SOL    HW154719   1.326   8.712   7.291
14082SOL    HW254720   1.416   8.725   7.156
14083SOL     OW54721   0.109   7.991   5.818
14083SOL    HW154722   0.065   7.949   5.738
14083SOL    HW254723   0.187   8.046   5.789
14084SOL     OW54724   3.282   8.640   7.007
14084SOL    HW154725   3.351   8.583   7.052
14084SOL    HW254726   3.327   8.715   6.959
14085SOL     OW54727   3.551   7.596   3.971
14085SOL    HW154728   3.524   7.530   4.042
14085SOL    HW254729   3.592   7.547   3.894
14086SOL     OW54730   4.110   0.231   4.489
14086SOL    HW154731   4.098   0.205   4.585
14086SOL    HW254732   4.100   0.330   4.479
14087SOL     OW54733   3.083   8.316   6.606
14087SOL    HW154734   3.142   8.237   6.591
14087SOL    HW254735   3.121   8.373   6.679
14088SOL     OW54736   2.762   7.701   0.185
14088SOL    HW154737   2.746   7.610   0.222
14088SOL    HW254738   2.851   7.734   0.215
14089SOL     OW54739   5.204   8.567   0.966
14089SOL    HW154740   5.168   8.490   0.913
14089SOL    HW254741   5.296   8.544   0.999
14090SOL     OW54742   6.864   7.649   0.380
14090SOL    HW154743   6.906   7.621   0.466
14090SOL    HW254744   6.888   7.744   0.360
14091SOL     OW54745   2.770   8.010   3.419
14091SOL    HW154746   2.678   8.023   3.382
14091SOL    HW254747   2.810   8.099   3.440
14092SOL     OW54748   1.559   8.233   1.643
14092SOL    HW154749   1.635   8.178   1.607
14092SOL    HW254750   1.540   8.205   1.737
14093SOL     OW54751   2.930   7.834   3.581
14093SOL    HW154752   2.982   7.915   3.610
14093SOL    HW254753   2.847   7.863   3.533
14094SOL     OW54754   4.687   8.946   4.616
14094SOL    HW154755   4.708   8.989   4.528
14094SOL    HW254756   4.593   8.968   4.642
14095SOL     OW54757   4.619   7.760   6.018
14095SOL    HW154758   4.695   7.712   6.064
14095SOL    HW254759   4.652   7.798   5.932
14096SOL     OW54760   4.530   7.576   0.909
14096SOL    HW154761   4.441   7.547   0.944
14096SOL    HW254762   4.541   7.542   0.815
14097SOL     OW54763   5.142   8.690   3.014
14097SOL    HW154764   5.117   8.601   2.976
14097SOL    HW254765   5.209   8.734   2.954
14098SOL     OW54766   1.330   8.371   3.939
14098SOL    HW154767   1.381   8.334   3.862
14098SOL    HW254768   1.340   8.310   4.018
14099SOL     OW54769   6.061   7.802   1.155
14099SOL    HW154770   5.973   7.848   1.161
14099SOL    HW254771   6.047   7.705   1.137
14100SOL     OW54772   4.654   8.257   7.146
14100SOL    HW154773   4.693   8.331   7.090
14100SOL    HW254774   4.704   8.172   7.128
14101SOL     OW54775   3.499   8.513   7.130
14101SOL    HW154776   3.583   8.559   7.101
14101SOL    HW254777   3.478   8.538   7.224
14102SOL     OW54778   0.855   8.696   3.458
14102SOL    HW154779   0.899   8.740   3.538
14102SOL    HW254780   0.908   8.616   3.431
14103SOL     OW54781   2.094   8.041   7.229
14103SOL    HW154782   2.142   8.113   7.180
14103SOL    HW254783   2.131   8.034   7.322
14104SOL     OW54784   6.052   7.808   0.347
14104SOL    HW154785   5.971   7.776   0.396
14104SOL    HW254786   6.036   7.802   0.248
14105SOL     OW54787   2.808   8.602   0.173
14105SOL    HW154788   2.846   8.512   0.195
14105SOL    HW254789   2.871   8.651   0.113
14106SOL     OW54790   6.254   8.500   0.899
14106SOL    HW154791   6.322   8.544   0.958
14106SOL    HW254792   6.179   8.464   0.955
14107SOL     OW54793   4.582   8.206   6.410
14107SOL    HW154794   4.550   8.112   6.397
14107SOL    HW254795   4.541   8.265   6.342
14108SOL     OW54796   5.858   8.821   0.898
14108SOL    HW154797   5.777   8.852   0.949
14108SOL    HW254798   5.831   8.792   0.806
14109SOL     OW54799   7.174   8.782   0.566
14109SOL    HW154800   7.143   8.875   0.584
14109SOL    HW254801   7.159   8.726   0.648
14110SOL     OW54802   6.526   0.077   2.538
14110SOL    HW154803   6.450   0.030   2.583
14110SOL    HW254804   6.609   0.068   2.593
14111SOL     OW54805   7.202   8.187   2.039
14111SOL    HW154806   7.224   8.089   2.042
14111SOL    HW254807   7.245   8.228   1.958
14112SOL     OW54808   5.961   8.607   2.670
14112SOL    HW154809   5.969   8.507   2.675
14112SOL    HW254810   6.050   8.649   2.684
14113SOL     OW54811   2.841   8.487   1.579
14113SOL    HW154812   2.911   8.512   1.645
14113SOL    HW254813   2.833   8.559   1.510
14114SOL     OW54814   7.013   8.938   4.496
14114SOL    HW154815   7.041   8.993   4.575
14114SOL    HW254816   7.007   8.996   4.415
14115SOL     OW54817   6.360   8.406   6.734
14115SOL    HW154818   6.267   8.428   6.762
14115SOL    HW254819   6.359   8.343   6.657
14116SOL     OW54820   5.398   8.675   3.672
14116SOL    HW154821   5.359   8.586   3.648
14116SOL    HW254822   5.476   8.696   3.613
14117SOL     OW54823   3.714   7.745   5.192
14117SOL    HW154824   3.687   7.837   5.219
14117SOL    HW254825   3.720   7.687   5.273
14118SOL     OW54826   4.258   8.326   6.417
14118SOL    HW154827   4.267   8.247   6.477
14118SOL    HW254828   4.191   8.306   6.345
14119SOL     OW54829   1.492   8.905   3.745
14119SOL    HW154830   1.397   8.935   3.755
14119SOL    HW254831   1.553   8.984   3.752
14120SOL     OW54832   6.873   0.329   2.374
14120SOL    HW154833   6.848   0.418   2.334
14120SOL    HW254834   6.948   0.290   2.320
14121SOL     OW54835   3.876   8.704   0.154
14121SOL    HW154836   3.793   8.760   0.156
14121SOL    HW254837   3.956   8.763   0.167
14122SOL     OW54838   5.889   7.723   2.182
14122SOL    HW154839   5.835   7.703   2.101
14122SOL    HW254840   5.878   7.649   2.249
14123SOL     OW54841   1.912   8.514   1.874
14123SOL    HW154842   1.888   8.602   1.833
14123SOL    HW254843   1.831   8.471   1.913
14124SOL     OW54844   3.627   7.875   2.539
14124SOL    HW154845   3.573   7.813   2.482
14124SOL    HW254846   3.643   7.834   2.628
14125SOL     OW54847   2.204   7.497   3.030
14125SOL    HW154848   2.154   7.439   3.094
14125SOL    HW254849   2.291   7.454   3.007
14126SOL     OW54850   4.500   7.972   6.155
14126SOL    HW154851   4.493   7.949   6.252
14126SOL    HW254852   4.541   7.896   6.105
14127SOL     OW54853   4.196   8.767   3.266
14127SOL    HW154854   4.125   8.792   3.331
14127SOL    HW254855   4.270   8.833   3.269
14128SOL     OW54856   5.213   8.031   2.830
14128SOL    HW154857   5.169   8.090   2.761
14128SOL    HW254858   5.248   8.088   2.905
14129SOL     OW54859   5.156   7.517   4.202
14129SOL    HW154860   5.133   7.503   4.105
14129SOL    HW254861   5.252   7.496   4.216
14130SOL     OW54862   6.055   8.752   5.109
14130SOL    HW154863   5.959   8.765   5.135
14130SOL    HW254864   6.098   8.841   5.094
14131SOL     OW54865   4.064   7.491   1.851
14131SOL    HW154866   3.990   7.558   1.848
14131SOL    HW254867   4.052   7.431   1.930
14132SOL     OW54868   3.107   8.624   0.572
14132SOL    HW154869   3.050   8.663   0.500
14132SOL    HW254870   3.051   8.606   0.653
14133SOL     OW54871   4.993   8.304   1.060
14133SOL    HW154872   4.916   8.350   1.015
14133SOL    HW254873   4.957   8.232   1.120
14134SOL     OW54874   0.863   8.207   2.142
14134SOL    HW154875   0.918   8.252   2.072
14134SOL    HW254876   0.858   8.265   2.223
14135SOL     OW54877   4.489   8.422   3.225
14135SOL    HW154878   4.397   8.452   3.251
14135SOL    HW254879   4.519   8.349   3.287
14136SOL     OW54880   6.043   7.500   6.207
14136SOL    HW154881   6.104   7.490   6.128
14136SOL    HW254882   6.074   7.577   6.263
14137SOL     OW54883   7.145   8.785   1.523
14137SOL    HW154884   7.216   8.743   1.580
14137SOL    HW254885   7.141   8.883   1.543
14138SOL     OW54886   5.491   8.661   6.787
14138SOL    HW154887   5.590   8.650   6.796
14138SOL    HW254888   5.472   8.737   6.724
14139SOL     OW54889   1.634   8.437   4.965
14139SOL    HW154890   1.662   8.399   4.876
14139SOL    HW254891   1.708   8.425   5.031
14140SOL     OW54892   4.805   7.675   0.606
14140SOL    HW154893   4.819   7.758   0.551
14140SOL    HW254894   4.851   7.685   0.694
14141SOL     OW54895   2.222   8.825   6.071
14141SOL    HW154896   2.205   8.727   6.059
14141SOL    HW254897   2.177   8.857   6.155
14142SOL     OW54898   5.104   7.490   3.930
14142SOL    HW154899   5.158   7.503   3.848
14142SOL    HW254900   5.085   7.393   3.944
14143SOL     OW54901   2.932   8.063   7.377
14143SOL    HW154902   2.943   8.161   7.391
14143SOL    HW254903   2.848   8.032   7.422
14144SOL     OW54904   4.674   8.419   4.066
14144SOL    HW154905   4.650   8.338   4.120
14144SOL    HW254906   4.658   8.501   4.121
14145SOL     OW54907   4.962   7.483   7.013
14145SOL    HW154908   4.963   7.487   7.112
14145SOL    HW254909   5.006   7.399   6.981
14146SOL     OW54910   2.216   8.242   7.083
14146SOL    HW154911   2.311   8.257   7.108
14146SOL    HW254912   2.167   8.330   7.081
14147SOL     OW54913   5.239   7.836   7.222
14147SOL    HW154914   5.144   7.863   7.206
14147SOL    HW254915   5.242   7.743   7.257
14148SOL     OW54916   4.190   7.886   1.228
14148SOL    HW154917   4.217   7.839   1.145
14148SOL    HW254918   4.262   7.875   1.297
14149SOL     OW54919   5.316   8.124   2.074
14149SOL    HW154920   5.347   8.031   2.094
14149SOL    HW254921   5.306   8.175   2.160
14150SOL     OW54922   1.308   7.468   3.590
14150SOL    HW154923   1.366   7.541   3.627
14150SOL    HW254924   1.244   7.437   3.660
14151SOL     OW54925   4.217   7.631   4.836
14151SOL    HW154926   4.303   7.586   4.859
14151SOL    HW254927   4.161   7.569   4.781
14152SOL     OW54928   6.050   8.198   1.523
14152SOL    HW154929   6.033   8.103   1.550
14152SOL    HW254930   6.105   8.244   1.593
14153SOL     OW54931   6.994   8.973   0.747
14153SOL    HW154932   6.930   0.050   0.750
14153SOL    HW254933   6.943   8.888   0.737
14154SOL     OW54934   6.439   7.937   8.904
14154SOL    HW154935   6.377   8.005   8.944
14154SOL    HW254936   6.522   7.931   8.958
14155SOL     OW54937   4.001   7.997   1.533
14155SOL    HW154938   3.991   7.907   1.491
14155SOL    HW254939   4.061   7.990   1.613
14156SOL     OW54940   4.804   7.641   4.239
14156SOL    HW154941   4.829   7.641   4.142
14156SOL    HW254942   4.819   7.733   4.277
14157SOL     OW54943   1.052   8.553   3.035
14157SOL    HW154944   0.957   8.562   3.064
14157SOL    HW254945   1.111   8.553   3.116
14158SOL     OW54946   5.532   7.802   6.212
14158SOL    HW154947   5.599   7.815   6.285
14158SOL    HW254948   5.516   7.704   6.198
14159SOL     OW54949   2.870   8.918   6.845
14159SOL    HW154950   2.855   8.996   6.906
14159SOL    HW254951   2.835   8.835   6.887
14160SOL     OW54952   4.285   8.603   6.425
14160SOL    HW154953   4.382   8.628   6.423
14160SOL    HW254954   4.276   8.504   6.436
14161SOL     OW54955   6.222   8.193   5.879
14161SOL    HW154956   6.206   8.134   5.800
14161SOL    HW254957   6.319   8.213   5.886
14162SOL     OW54958   5.083   8.495   3.415
14162SOL    HW154959   4.986   8.473   3.427
14162SOL    HW254960   5.091   8.588   3.378
14163SOL     OW54961   2.341   7.671   1.247
14163SOL    HW154962   2.251   7.709   1.227
14163SOL    HW254963   2.372   7.706   1.335
14164SOL     OW54964   5.885   7.545   4.104
14164SOL    HW154965   5.950   7.491   4.051
14164SOL    HW254966   5.797   7.548   4.055
14165SOL     OW54967   2.136   8.497   3.087
14165SOL    HW154968   2.164   8.592   3.070
14165SOL    HW254969   2.102   8.456   3.002
14166SOL     OW54970   7.141   7.426   6.183
14166SOL    HW154971   7.058   7.473   6.215
14166SOL    HW254972   7.179   7.476   6.106
14167SOL     OW54973   2.364   7.414   5.583
14167SOL    HW154974   2.435   7.361   5.630
14167SOL    HW254975   2.275   7.371   5.599
14168SOL     OW54976   2.412   8.143   0.959
14168SOL    HW154977   2.397   8.155   1.057
14168SOL    HW254978   2.485   8.076   0.944
14169SOL     OW54979   4.314   8.221   1.008
14169SOL    HW154980   4.346   8.133   0.975
14169SOL    HW254981   4.223   8.210   1.049
14170SOL     OW54982   7.134   8.040   2.773
14170SOL    HW154983   7.068   8.023   2.700
14170SOL    HW254984   7.177   7.954   2.800
14171SOL     OW54985   5.587   8.317   5.947
14171SOL    HW154986   5.665   8.309   6.008
14171SOL    HW254987   5.620   8.333   5.853
14172SOL     OW54988   6.834   7.717   5.055
14172SOL    HW154989   6.742   7.749   5.033
14172SOL    HW254990   6.834   7.674   5.145
14173SOL     OW54991   4.428   7.679   5.167
14173SOL    HW154992   4.353   7.728   5.122
14173SOL    HW254993   4.394   7.634   5.249
14174SOL     OW54994   3.465   0.024   7.058
14174SOL    HW154995   3.377   0.071   7.049
14174SOL    HW254996   3.471   8.952   6.990
14175SOL     OW54997   6.717   8.033   0.432
14175SOL    HW154998   6.625   8.020   0.398
14175SOL    HW254999   6.730   7.979   0.516
14176SOL     OW55000   2.239   7.334   1.408
14176SOL    HW155001   2.312   7.377   1.462
14176SOL    HW255002   2.257   7.349   1.311
14177SOL     OW55003   2.265   7.999   3.190
14177SOL    HW155004   2.224   8.078   3.145
14177SOL    HW255005   2.231   7.915   3.147
14178SOL     OW55006   3.568   8.362   2.390
14178SOL    HW155007   3.539   8.274   2.428
14178SOL    HW255008   3.665   8.377   2.412
14179SOL     OW55009   1.092   8.485   3.844
14179SOL    HW155010   1.082   8.584   3.835
14179SOL    HW255011   1.185   8.462   3.873
14180SOL     OW55012   1.999   8.913   0.929
14180SOL    HW155013   1.955   8.838   0.978
14180SOL    HW255014   1.930   8.975   0.893
14181SOL     OW55015   3.381   7.922   0.580
14181SOL    HW155016   3.350   7.956   0.492
14181SOL    HW255017   3.458   7.978   0.612
14182SOL     OW55018   0.636   8.488   0.792
14182SOL    HW155019   0.620   8.585   0.814
14182SOL    HW255020   0.733   8.475   0.770
14183SOL     OW55021   3.554   7.494   6.403
14183SOL    HW155022   3.512   7.555   6.471
14183SOL    HW255023   3.615   7.547   6.344
14184SOL     OW55024   4.590   7.877   2.554
14184SOL    HW155025   4.523   7.935   2.602
14184SOL    HW255026   4.542   7.811   2.497
14185SOL     OW55027   2.958   8.165   2.011
14185SOL    HW155028   3.008   8.081   1.990
14185SOL    HW255029   3.021   8.242   2.010
14186SOL     OW55030   4.907   7.414   6.633
14186SOL    HW155031   4.968   7.492   6.619
14186SOL    HW255032   4.840   7.436   6.703
14187SOL     OW55033   4.411   8.676   4.810
14187SOL    HW155034   4.361   8.704   4.728
14187SOL    HW255035   4.385   8.582   4.834
14188SOL     OW55036   2.107   8.511   3.368
14188SOL    HW155037   2.196   8.531   3.408
14188SOL    HW255038   2.115   8.507   3.268
14189SOL     OW55039   4.608   7.392   2.350
14189SOL    HW155040   4.585   7.309   2.401
14189SOL    HW255041   4.527   7.424   2.300
14190SOL     OW55042   6.802   0.280   4.384
14190SOL    HW155043   6.726   0.240   4.435
14190SOL    HW255044   6.805   0.378   4.400
14191SOL     OW55045   3.338   8.681   5.039
14191SOL    HW155046   3.321   8.585   5.017
14191SOL    HW255047   3.252   8.730   5.045
14192SOL     OW55048   0.593   7.993   1.802
14192SOL    HW155049   0.497   7.974   1.780
14192SOL    HW255050   0.597   8.051   1.884
14193SOL     OW55051   5.752   8.720   0.667
14193SOL    HW155052   5.824   8.661   0.630
14193SOL    HW255053   5.689   8.666   0.723
14194SOL     OW55054   4.775   7.986   6.942
14194SOL    HW155055   4.739   7.905   6.897
14194SOL    HW255056   4.852   8.023   6.889
14195SOL     OW55057   6.386   8.022   6.204
14195SOL    HW155058   6.485   8.008   6.211
14195SOL    HW255059   6.342   7.937   6.176
14196SOL     OW55060   5.483   7.542   6.167
14196SOL    HW155061   5.395   7.514   6.130
14196SOL    HW255062   5.554   7.481   6.132
14197SOL     OW55063   6.698   7.432   2.313
14197SOL    HW155064   6.729   7.501   2.379
14197SOL    HW255065   6.645   7.362   2.361
14198SOL     OW55066   5.963   8.889   1.405
14198SOL    HW155067   5.909   8.961   1.447
14198SOL    HW255068   5.947   8.803   1.453
14199SOL     OW55069   3.663   7.446   1.371
14199SOL    HW155070   3.691   7.412   1.461
14199SOL    HW255071   3.653   7.369   1.309
14200SOL     OW55072   5.531   8.052   4.033
14200SOL    HW155073   5.563   7.997   4.110
14200SOL    HW255074   5.607   8.101   3.992
14201SOL     OW55075   1.269   8.154   4.397
14201SOL    HW155076   1.290   8.206   4.480
14201SOL    HW255077   1.284   8.057   4.413
14202SOL     OW55078   2.486   7.757   1.487
14202SOL    HW155079   2.474   7.740   1.585
14202SOL    HW255080   2.494   7.855   1.471
14203SOL     OW55081   6.939   7.806   6.017
14203SOL    HW155082   6.874   7.829   6.090
14203SOL    HW255083   6.914   7.717   5.978
14204SOL     OW55084   4.680   7.467   3.926
14204SOL    HW155085   4.697   7.416   3.841
14204SOL    HW255086   4.749   7.538   3.936
14205SOL     OW55087   2.755   8.796   2.292
14205SOL    HW155088   2.732   8.849   2.210
14205SOL    HW255089   2.698   8.714   2.297
14206SOL     OW55090   6.713   7.587   6.113
14206SOL    HW155091   6.613   7.580   6.114
14206SOL    HW255092   6.746   7.578   6.019
14207SOL     OW55093   5.690   7.366   3.821
14207SOL    HW155094   5.660   7.445   3.873
14207SOL    HW255095   5.763   7.393   3.758
14208SOL     OW55096   5.562   0.211   2.250
14208SOL    HW155097   5.617   0.200   2.333
14208SOL    HW255098   5.622   0.209   2.170
14209SOL     OW55099   0.901   7.654   1.735
14209SOL    HW155100   0.848   7.703   1.804
14209SOL    HW255101   0.907   7.710   1.652
14210SOL     OW55102   6.452   8.109   3.144
14210SOL    HW155103   6.415   8.183   3.201
14210SOL    HW255104   6.538   8.138   3.103
14211SOL     OW55105   6.406   8.369   3.262
14211SOL    HW155106   6.339   8.387   3.190
14211SOL    HW255107   6.493   8.413   3.239
14212SOL     OW55108   4.822   8.480   5.122
14212SOL    HW155109   4.748   8.493   5.188
14212SOL    HW255110   4.816   8.388   5.083
14213SOL     OW55111   6.889   7.922   1.911
14213SOL    HW155112   6.871   7.947   1.816
14213SOL    HW255113   6.909   8.004   1.965
14214SOL     OW55114   2.850   8.738   6.086
14214SOL    HW155115   2.752   8.754   6.073
14214SOL    HW255116   2.865   8.642   6.108
14215SOL     OW55117   3.900   7.859   3.658
14215SOL    HW155118   3.974   7.885   3.719
14215SOL    HW255119   3.865   7.940   3.611
14216SOL     OW55120   0.216   8.277   1.699
14216SOL    HW155121   0.146   8.289   1.770
14216SOL    HW255122   0.307   8.289   1.740
14217SOL     OW55123   4.996   8.695   0.223
14217SOL    HW155124   4.931   8.754   0.175
14217SOL    HW255125   4.949   8.646   0.296
14218SOL     OW55126   1.803   7.883   5.769
14218SOL    HW155127   1.900   7.903   5.758
14218SOL    HW255128   1.789   7.784   5.766
14219SOL     OW55129   6.278   7.963   6.544
14219SOL    HW155130   6.313   7.871   6.528
14219SOL    HW255131   6.249   7.972   6.640
14220SOL     OW55132   5.762   7.744   2.703
14220SOL    HW155133   5.680   7.795   2.731
14220SOL    HW255134   5.830   7.808   2.666
14221SOL     OW55135   3.143   8.728   1.527
14221SOL    HW155136   3.167   8.753   1.621
14221SOL    HW255137   3.149   8.809   1.468
14222SOL     OW55138   5.679   8.240   1.011
14222SOL    HW155139   5.769   8.236   0.970
14222SOL    HW255140   5.688   8.265   1.108
14223SOL     OW55141   2.774   8.922   1.728
14223SOL    HW155142   2.752   8.989   1.799
14223SOL    HW255143   2.846   8.861   1.761
14224SOL     OW55144   2.767   8.615   0.573
14224SOL    HW155145   2.815   8.604   0.660
14224SOL    HW255146   2.829   8.656   0.506
14225SOL     OW55147   4.070   8.108   1.103
14225SOL    HW155148   4.108   8.036   1.161
14225SOL    HW255149   4.037   8.067   1.018
14226SOL     OW55150   6.626   8.517   7.164
14226SOL    HW155151   6.586   8.588   7.106
14226SOL    HW255152   6.556   8.485   7.229
14227SOL     OW55153   4.971   7.476   7.295
14227SOL    HW155154   4.909   7.528   7.353
14227SOL    HW255155   4.981   7.383   7.330
14228SOL     OW55156   1.533   8.792   7.034
14228SOL    HW155157   1.617   8.743   7.057
14228SOL    HW255158   1.497   8.759   6.947
14229SOL     OW55159   3.764   7.739   5.908
14229SOL    HW155160   3.801   7.747   5.816
14229SOL    HW255161   3.768   7.644   5.938
14230SOL     OW55162   3.942   8.113   5.046
14230SOL    HW155163   3.845   8.141   5.047
14230SOL    HW255164   3.952   8.025   5.092
14231SOL     OW55165   6.328   8.965   7.251
14231SOL    HW155166   6.240   0.002   7.281
14231SOL    HW255167   6.313   8.886   7.191
14232SOL     OW55168   6.963   7.913   0.385
14232SOL    HW155169   6.990   7.910   0.482
14232SOL    HW255170   6.882   7.970   0.375
14233SOL     OW55171   4.191   8.498   5.901
14233SOL    HW155172   4.114   8.449   5.941
14233SOL    HW255173   4.232   8.557   5.970
14234SOL     OW55174   6.361   8.417   0.471
14234SOL    HW155175   6.399   8.333   0.510
14234SOL    HW255176   6.431   8.488   0.470
14235SOL     OW55177   3.697   8.026   3.963
14235SOL    HW155178   3.597   8.028   3.956
14235SOL    HW255179   3.729   7.931   3.953
14236SOL     OW55180   1.905   8.116   6.222
14236SOL    HW155181   1.829   8.053   6.235
14236SOL    HW255182   1.984   8.085   6.274
14237SOL     OW55183   3.717   7.719   6.656
14237SOL    HW155184   3.624   7.706   6.625
14237SOL    HW255185   3.717   7.760   6.748
14238SOL     OW55186   7.312   8.245   0.959
14238SOL    HW155187   7.343   8.244   1.054
14238SOL    HW255188   7.312   8.339   0.925
14239SOL     OW55189   0.563   8.578   0.385
14239SOL    HW155190   0.610   8.661   0.415
14239SOL    HW255191   0.617   8.534   0.313
14240SOL     OW55192   6.303   8.216   2.347
14240SOL    HW155193   6.276   8.124   2.319
14240SOL    HW255194   6.392   8.211   2.393
14241SOL     OW55195   2.191   8.720   2.083
14241SOL    HW155196   2.268   8.764   2.129
14241SOL    HW255197   2.118   8.788   2.068
14242SOL     OW55198   3.939   8.547   1.136
14242SOL    HW155199   3.864   8.598   1.093
14242SOL    HW255200   3.908   8.453   1.156
14243SOL     OW55201   5.230   7.941   6.582
14243SOL    HW155202   5.271   7.851   6.579
14243SOL    HW255203   5.250   7.985   6.670
14244SOL     OW55204   4.898   8.033   6.525
14244SOL    HW155205   4.965   7.996   6.460
14244SOL    HW255206   4.881   8.129   6.503
14245SOL     OW55207   1.458   7.598   5.818
14245SOL    HW155208   1.405   7.534   5.874
14245SOL    HW255209   1.433   7.692   5.843
14246SOL     OW55210   6.185   8.025   6.791
14246SOL    HW155211   6.105   8.083   6.774
14246SOL    HW255212   6.256   8.078   6.838
14247SOL     OW55213   1.021   7.455   7.317
14247SOL    HW155214   0.930   7.452   7.275
14247SOL    HW255215   1.012   7.459   7.416
14248SOL     OW55216   1.055   8.323   1.680
14248SOL    HW155217   1.073   8.243   1.622
14248SOL    HW255218   1.131   8.387   1.672
14249SOL     OW55219   3.985   8.425   1.813
14249SOL    HW155220   3.909   8.385   1.763
14249SOL    HW255221   3.968   8.419   1.912
14250SOL     OW55222   4.216   8.545   2.539
14250SOL    HW155223   4.193   8.458   2.583
14250SOL    HW255224   4.308   8.572   2.565
14251SOL     OW55225   2.525   8.290   6.039
14251SOL    HW155226   2.508   8.196   6.068
14251SOL    HW255227   2.575   8.338   6.111
14252SOL     OW55228   0.249   8.770   3.620
14252SOL    HW155229   0.339   8.726   3.630
14252SOL    HW255230   0.198   8.726   3.547
14253SOL     OW55231   2.154   8.613   6.730
14253SOL    HW155232   2.153   8.560   6.646
14253SOL    HW255233   2.248   8.620   6.765
14254SOL     OW55234   4.646   7.764   6.830
14254SOL    HW155235   4.553   7.767   6.868
14254SOL    HW255236   4.651   7.821   6.748
14255SOL     OW55237   4.371   8.529   1.400
14255SOL    HW155238   4.315   8.470   1.458
14255SOL    HW255239   4.368   8.496   1.306
14256SOL     OW55240   3.529   7.419   0.833
14256SOL    HW155241   3.529   7.505   0.885
14256SOL    HW255242   3.498   7.436   0.740
14257SOL     OW55243   2.888   8.484   6.168
14257SOL    HW155244   2.959   8.457   6.233
14257SOL    HW255245   2.799   8.449   6.199
14258SOL     OW55246   4.832   7.365   5.067
14258SOL    HW155247   4.757   7.346   5.004
14258SOL    HW255248   4.913   7.313   5.040
14259SOL     OW55249   5.530   8.796   3.882
14259SOL    HW155250   5.582   8.868   3.836
14259SOL    HW255251   5.477   8.745   3.814
14260SOL     OW55252   3.407   0.115   6.057
14260SOL    HW155253   3.402   0.050   6.132
14260SOL    HW255254   3.432   0.205   6.093
14261SOL     OW55255   6.277   7.429   5.478
14261SOL    HW155256   6.198   7.388   5.523
14261SOL    HW255257   6.319   7.496   5.539
14262SOL     OW55258   6.651   8.247   6.530
14262SOL    HW155259   6.676   8.318   6.597
14262SOL    HW255260   6.695   8.267   6.443
14263SOL     OW55261   0.574   8.186   2.615
14263SOL    HW155262   0.499   8.212   2.676
14263SOL    HW255263   0.565   8.235   2.529
14264SOL     OW55264   7.285   8.850   2.575
14264SOL    HW155265   7.214   8.786   2.602
14264SOL    HW255266   7.328   8.889   2.657
14265SOL     OW55267   6.947   8.408   6.865
14265SOL    HW155268   6.987   8.495   6.894
14265SOL    HW255269   7.012   8.357   6.809
14266SOL     OW55270   5.604   7.725   4.446
14266SOL    HW155271   5.634   7.738   4.541
14266SOL    HW255272   5.552   7.640   4.440
14267SOL     OW55273   4.827   8.297   6.482
14267SOL    HW155274   4.735   8.267   6.457
14267SOL    HW255275   4.852   8.378   6.428
14268SOL     OW55276   3.984   8.813   6.780
14268SOL    HW155277   3.907   8.749   6.784
14268SOL    HW255278   4.065   8.766   6.747
14269SOL     OW55279   3.106   7.687   7.185
14269SOL    HW155280   3.190   7.684   7.239
14269SOL    HW255281   3.041   7.619   7.221
14270SOL     OW55282   6.347   8.145   1.079
14270SOL    HW155283   6.305   8.061   1.044
14270SOL    HW255284   6.289   8.184   1.150
14271SOL     OW55285   3.092   7.581   0.102
14271SOL    HW155286   3.075   7.562   0.005
14271SOL    HW255287   3.132   7.501   0.146
14272SOL     OW55288   1.025   7.479   1.452
14272SOL    HW155289   0.968   7.397   1.442
14272SOL    HW255290   0.968   7.561   1.445
14273SOL     OW55291   6.132   7.714   6.361
14273SOL    HW155292   6.213   7.705   6.418
14273SOL    HW255293   6.053   7.737   6.417
14274SOL     OW55294   3.622   8.173   3.335
14274SOL    HW155295   3.638   8.158   3.237
14274SOL    HW255296   3.527   8.202   3.349
14275SOL     OW55297   5.469   8.569   2.692
14275SOL    HW155298   5.414   8.634   2.745
14275SOL    HW255299   5.469   8.481   2.739
14276SOL     OW55300   2.351   8.023   5.697
14276SOL    HW155301   2.386   7.986   5.611
14276SOL    HW255302   2.403   8.105   5.721
14277SOL     OW55303   0.984   8.439   4.562
14277SOL    HW155304   0.958   8.535   4.562
14277SOL    HW255305   1.021   8.415   4.473
14278SOL     OW55306   0.916   8.597   1.979
14278SOL    HW155307   0.861   8.623   1.900
14278SOL    HW255308   0.956   8.678   2.020
14279SOL     OW55309   5.257   8.041   6.841
14279SOL    HW155310   5.278   7.953   6.884
14279SOL    HW255311   5.307   8.114   6.889
14280SOL     OW55312   0.779   8.574   3.092
14280SOL    HW155313   0.718   8.574   3.012
14280SOL    HW255314   0.752   8.502   3.155
14281SOL     OW55315   2.330   8.311   6.673
14281SOL    HW155316   2.281   8.239   6.722
14281SOL    HW255317   2.427   8.307   6.696
14282SOL     OW55318   4.003   8.074   2.881
14282SOL    HW155319   3.962   8.072   2.789
14282SOL    HW255320   4.094   8.115   2.875
14283SOL     OW55321   3.868   7.880   2.388
14283SOL    HW155322   3.877   7.979   2.379
14283SOL    HW255323   3.780   7.858   2.430
14284SOL     OW55324   5.327   8.728   4.350
14284SOL    HW155325   5.394   8.679   4.406
14284SOL    HW255326   5.356   8.822   4.338
14285SOL     OW55327   1.664   7.859   6.978
14285SOL    HW155328   1.606   7.910   7.042
14285SOL    HW255329   1.759   7.890   6.987
14286SOL     OW55330   2.627   8.160   3.104
14286SOL    HW155331   2.586   8.118   3.184
14286SOL    HW255332   2.579   8.129   3.022
14287SOL     OW55333   0.246   8.621   2.297
14287SOL    HW155334   0.191   8.637   2.378
14287SOL    HW255335   0.187   8.591   2.222
14288SOL     OW55336   3.680   7.818   6.925
14288SOL    HW155337   3.615   7.753   6.965
14288SOL    HW255338   3.726   7.867   6.999
14289SOL     OW55339   4.301   7.883   3.572
14289SOL    HW155340   4.389   7.920   3.542
14289SOL    HW255341   4.246   7.860   3.491
14290SOL     OW55342   5.724   8.942   4.420
14290SOL    HW155343   5.749   8.852   4.386
14290SOL    HW255344   5.632   8.966   4.387
14291SOL     OW55345   4.103   8.969   2.036
14291SOL    HW155346   4.035   8.986   1.965
14291SOL    HW255347   4.194   8.987   2.000
14292SOL     OW55348   3.495   8.420   6.499
14292SOL    HW155349   3.591   8.429   6.473
14292SOL    HW255350   3.480   8.328   6.538
14293SOL     OW55351   5.760   8.007   6.807
14293SOL    HW155352   5.835   8.065   6.775
14293SOL    HW255353   5.713   8.052   6.884
14294SOL     OW55354   2.962   7.775   1.985
14294SOL    HW155355   2.906   7.784   1.902
14294SOL    HW255356   3.031   7.847   1.985
14295SOL     OW55357   2.560   8.131   1.731
14295SOL    HW155358   2.513   8.220   1.736
14295SOL    HW255359   2.545   8.081   1.816
14296SOL     OW55360   6.388   8.176   6.906
14296SOL    HW155361   6.390   8.265   6.860
14296SOL    HW255362   6.481   8.142   6.916
14297SOL     OW55363   1.204   8.020   1.762
14297SOL    HW155364   1.255   7.934   1.766
14297SOL    HW255365   1.199   8.060   1.854
14298SOL     OW55366   0.381   8.152   5.288
14298SOL    HW155367   0.382   8.191   5.196
14298SOL    HW255368   0.474   8.137   5.320
14299SOL     OW55369   4.183   7.774   7.261
14299SOL    HW155370   4.175   7.800   7.357
14299SOL    HW255371   4.174   7.675   7.252
14300SOL     OW55372   4.411   8.941   3.273
14300SOL    HW155373   4.407   8.991   3.186
14300SOL    HW255374   4.504   8.908   3.288
14301SOL     OW55375   0.317   8.480   1.199
14301SOL    HW155376   0.314   8.413   1.124
14301SOL    HW255377   0.224   8.505   1.225
14302SOL     OW55378   2.527   7.403   4.870
14302SOL    HW155379   2.624   7.422   4.887
14302SOL    HW255380   2.472   7.473   4.915
14303SOL     OW55381   5.579   7.866   0.490
14303SOL    HW155382   5.600   7.938   0.557
14303SOL    HW255383   5.660   7.811   0.474
14304SOL     OW55384   4.412   8.186   5.817
14304SOL    HW155385   4.403   8.270   5.764
14304SOL    HW255386   4.508   8.161   5.824
14305SOL     OW55387   4.957   8.158   5.429
14305SOL    HW155388   4.990   8.147   5.522
14305SOL    HW255389   5.031   8.192   5.370
14306SOL     OW55390   5.430   8.091   5.972
14306SOL    HW155391   5.481   8.009   5.947
14306SOL    HW255392   5.487   8.172   5.957
14307SOL     OW55393   4.272   8.500   6.879
14307SOL    HW155394   4.232   8.531   6.965
14307SOL    HW255395   4.250   8.566   6.807
14308SOL     OW55396   3.372   7.619   7.302
14308SOL    HW155397   3.431   7.611   7.382
14308SOL    HW255398   3.331   7.530   7.282
14309SOL     OW55399   4.532   8.577   0.482
14309SOL    HW155400   4.586   8.660   0.474
14309SOL    HW255401   4.468   8.585   0.558
14310SOL     OW55402   0.096   8.409   6.395
14310SOL    HW155403   0.043   8.376   6.473
14310SOL    HW255404   0.089   8.344   6.319
14311SOL     OW55405   4.557   7.699   3.251
14311SOL    HW155406   4.538   7.700   3.153
14311SOL    HW255407   4.488   7.645   3.298
14312SOL     OW55408   5.180   8.934   3.997
14312SOL    HW155409   5.273   8.961   4.022
14312SOL    HW255410   5.135   8.892   4.076
14313SOL     OW55411   5.033   7.726   6.898
14313SOL    HW155412   5.014   7.637   6.939
14313SOL    HW255413   5.129   7.750   6.912
14314SOL     OW55414   1.496   8.470   3.554
14314SOL    HW155415   1.443   8.544   3.594
14314SOL    HW255416   1.476   8.464   3.456
14315SOL     OW55417   5.635   0.088   6.005
14315SOL    HW155418   5.644   0.007   5.948
14315SOL    HW255419   5.694   0.079   6.086
14316SOL     OW55420   7.086   7.499   5.454
14316SOL    HW155421   7.084   7.424   5.520
14316SOL    HW255422   6.992   7.521   5.426
14317SOL     OW55423   0.891   7.933   2.149
14317SOL    HW155424   0.887   8.033   2.149
14317SOL    HW255425   0.831   7.897   2.220
14318SOL     OW55426   4.449   7.645   3.633
14318SOL    HW155427   4.376   7.714   3.637
14318SOL    HW255428   4.422   7.565   3.687
14319SOL     OW55429   4.650   8.528   1.387
14319SOL    HW155430   4.553   8.520   1.406
14319SOL    HW255431   4.689   8.603   1.442
14320SOL     OW55432   7.370   7.745   4.870
14320SOL    HW155433   7.333   7.785   4.954
14320SOL    HW255434   7.437   7.808   4.830
14321SOL     OW55435   3.571   8.209   0.288
14321SOL    HW155436   3.621   8.124   0.304
14321SOL    HW255437   3.604   8.251   0.203
14322SOL     OW55438   2.363   8.191   1.225
14322SOL    HW155439   2.460   8.195   1.248
14322SOL    HW255440   2.314   8.263   1.275
14323SOL     OW55441   5.831   7.345   6.279
14323SOL    HW155442   5.909   7.403   6.252
14323SOL    HW255443   5.799   7.372   6.369
14324SOL     OW55444   4.660   7.953   6.637
14324SOL    HW155445   4.749   7.975   6.597
14324SOL    HW255446   4.616   8.037   6.668
14325SOL     OW55447   2.880   8.055   3.062
14325SOL    HW155448   2.796   8.109   3.068
14325SOL    HW255449   2.874   7.976   3.123
14326SOL     OW55450   0.124   7.419   1.859
14326SOL    HW155451   0.113   7.358   1.781
14326SOL    HW255452   0.086   7.509   1.837
14327SOL     OW55453   0.363   8.258   2.792
14327SOL    HW155454   0.388   8.322   2.865
14327SOL    HW255455   0.292   8.299   2.736
14328SOL     OW55456   4.006   8.308   5.502
14328SOL    HW155457   4.074   8.234   5.508
14328SOL    HW255458   4.033   8.383   5.562
14329SOL     OW55459   1.277   8.489   1.655
14329SOL    HW155460   1.352   8.483   1.589
14329SOL    HW255461   1.232   8.577   1.647
14330SOL     OW55462   4.130   8.271   6.818
14330SOL    HW155463   4.189   8.351   6.827
14330SOL    HW255464   4.187   8.190   6.803
14331SOL     OW55465   5.918   8.652   1.547
14331SOL    HW155466   5.905   8.561   1.508
14331SOL    HW255467   5.846   8.670   1.615
14332SOL     OW55468   5.716   8.690   2.764
14332SOL    HW155469   5.800   8.660   2.719
14332SOL    HW255470   5.638   8.644   2.722
14333SOL     OW55471   0.405   8.446   2.993
14333SOL    HW155472   0.316   8.486   2.969
14333SOL    HW255473   0.478   8.501   2.952
14334SOL     OW55474   4.419   7.893   7.170
14334SOL    HW155475   4.405   7.992   7.168
14334SOL    HW255476   4.338   7.849   7.208
14335SOL     OW55477   3.265   8.419   4.983
14335SOL    HW155478   3.344   8.377   4.938
14335SOL    HW255479   3.225   8.354   5.047
14336SOL     OW55480   3.732   7.659   6.263
14336SOL    HW155481   3.780   7.725   6.320
14336SOL    HW255482   3.741   7.685   6.167
14337SOL     OW55483   4.795   7.705   6.490
14337SOL    HW155484   4.787   7.795   6.447
14337SOL    HW255485   4.881   7.700   6.540
14338SOL     OW55486   5.821   7.693   3.499
14338SOL    HW155487   5.916   7.718   3.485
14338SOL    HW255488   5.770   7.707   3.414
14339SOL     OW55489   7.231   7.985   1.542
14339SOL    HW155490   7.288   7.938   1.610
14339SOL    HW255491   7.167   8.046   1.589
14340SOL     OW55492   6.984   7.813   6.373
14340SOL    HW155493   6.902   7.852   6.330
14340SOL    HW255494   7.064   7.837   6.318
14341SOL     OW55495   1.242   8.728   2.681
14341SOL    HW155496   1.190   8.758   2.761
14341SOL    HW255497   1.326   8.783   2.673
14342SOL     OW55498   5.360   7.536   6.965
14342SOL    HW155499   5.433   7.511   6.902
14342SOL    HW255500   5.364   7.477   7.046
14343SOL     OW55501   3.732   8.692   2.756
14343SOL    HW155502   3.736   8.713   2.658
14343SOL    HW255503   3.782   8.763   2.807
14344SOL     OW55504   5.754   8.614   0.376
14344SOL    HW155505   5.792   8.699   0.339
14344SOL    HW255506   5.817   8.577   0.444
14345SOL     OW55507   3.648   7.727   3.584
14345SOL    HW155508   3.719   7.785   3.623
14345SOL    HW255509   3.559   7.773   3.594
14346SOL     OW55510   3.453   7.683   6.582
14346SOL    HW155511   3.415   7.681   6.675
14346SOL    HW255512   3.392   7.735   6.522
14347SOL     OW55513   0.405   8.420   1.861
14347SOL    HW155514   0.472   8.450   1.793
14347SOL    HW255515   0.325   8.479   1.856
14348SOL     OW55516   1.675   8.113   3.596
14348SOL    HW155517   1.721   8.035   3.638
14348SOL    HW255518   1.593   8.136   3.649
14349SOL     OW55519   6.139   7.647   2.098
14349SOL    HW155520   6.188   7.722   2.053
14349SOL    HW255521   6.050   7.680   2.130
14350SOL     OW55522   6.080   7.681   1.529
14350SOL    HW155523   6.127   7.632   1.602
14350SOL    HW255524   6.147   7.714   1.462
14351SOL     OW55525   2.138   8.217   3.078
14351SOL    HW155526   2.166   8.308   3.111
14351SOL    HW255527   2.106   8.225   2.984
14352SOL     OW55528   4.728   7.577   1.561
14352SOL    HW155529   4.806   7.515   1.571
14352SOL    HW255530   4.738   7.631   1.478
14353SOL     OW55531   0.977   8.047   6.265
14353SOL    HW155532   1.015   8.089   6.182
14353SOL    HW255533   0.884   8.014   6.246
14354SOL     OW55534   5.656   8.408   1.766
14354SOL    HW155535   5.599   8.354   1.827
14354SOL    HW255536   5.613   8.413   1.676
14355SOL     OW55537   5.155   7.396   3.462
14355SOL    HW155538   5.193   7.308   3.435
14355SOL    HW255539   5.057   7.387   3.476
14356SOL     OW55540   0.764   7.440   7.213
14356SOL    HW155541   0.758   7.398   7.122
14356SOL    HW255542   0.717   7.528   7.212
14357SOL     OW55543   1.173   7.436   7.089
14357SOL    HW155544   1.263   7.479   7.099
14357SOL    HW255545   1.124   7.441   7.175
14358SOL     OW55546   4.737   8.843   2.118
14358SOL    HW155547   4.667   8.796   2.171
14358SOL    HW255548   4.761   8.929   2.164
14359SOL     OW55549   1.276   8.454   2.679
14359SOL    HW155550   1.266   8.552   2.660
14359SOL    HW255551   1.326   8.441   2.765
14360SOL     OW55552   4.611   8.108   0.023
14360SOL    HW155553   4.640   8.204   0.033
14360SOL    HW255554   4.690   8.049   0.028
14361SOL     OW55555   7.257   7.923   2.037
14361SOL    HW155556   7.317   7.893   2.111
14361SOL    HW255557   7.184   7.856   2.025
14362SOL     OW55558   1.646   8.727   0.623
14362SOL    HW155559   1.636   8.652   0.558
14362SOL    HW255560   1.708   8.699   0.697
14363SOL     OW55561   4.173   8.107   2.533
14363SOL    HW155562   4.176   8.131   2.436
14363SOL    HW255563   4.141   8.186   2.586
14364SOL     OW55564   2.703   7.441   0.281
14364SOL    HW155565   2.656   7.420   0.367
14364SOL    HW255566   2.781   7.380   0.270
14365SOL     OW55567   5.455   7.543   4.632
14365SOL    HW155568   5.365   7.574   4.660
14365SOL    HW255569   5.525   7.598   4.677
14366SOL     OW55570   1.249   8.158   1.163
14366SOL    HW155571   1.278   8.168   1.258
14366SOL    HW255572   1.263   8.064   1.133
14367SOL     OW55573   4.667   8.381   0.059
14367SOL    HW155574   4.716   8.466   0.037
14367SOL    HW255575   4.643   8.381   0.156
14368SOL     OW55576   1.514   7.405   0.345
14368SOL    HW155577   1.456   7.474   0.303
14368SOL    HW255578   1.585   7.449   0.400
14369SOL     OW55579   4.504   8.795   4.395
14369SOL    HW155580   4.431   8.772   4.459
14369SOL    HW255581   4.521   8.894   4.397
14370SOL     OW55582   6.185   8.035   5.056
14370SOL    HW155583   6.128   8.049   4.975
14370SOL    HW255584   6.281   8.050   5.032
14371SOL     OW55585   3.674   7.952   0.339
14371SOL    HW155586   3.760   7.905   0.320
14371SOL    HW255587   3.597   7.895   0.311
14372SOL     OW55588   3.864   7.829   6.444
14372SOL    HW155589   3.809   7.799   6.522
14372SOL    HW255590   3.961   7.822   6.467
14373SOL     OW55591   4.898   8.368   3.691
14373SOL    HW155592   4.976   8.418   3.728
14373SOL    HW255593   4.896   8.276   3.731
14374SOL     OW55594   2.727   7.673   1.337
14374SOL    HW155595   2.818   7.706   1.362
14374SOL    HW255596   2.661   7.703   1.406
14375SOL     OW55597   1.076   7.456   4.260
14375SOL    HW155598   1.002   7.522   4.271
14375SOL    HW255599   1.126   7.449   4.346
14376SOL     OW55600   4.055   8.745   4.434
14376SOL    HW155601   4.065   8.678   4.360
14376SOL    HW255602   4.060   8.837   4.396
14377SOL     OW55603   3.638   8.210   5.066
14377SOL    HW155604   3.660   8.298   5.109
14377SOL    HW255605   3.578   8.225   4.988
14378SOL     OW55606   1.010   8.772   3.842
14378SOL    HW155607   1.029   8.838   3.915
14378SOL    HW255608   0.917   8.787   3.806
14379SOL     OW55609   3.083   8.416   6.349
14379SOL    HW155610   3.076   8.388   6.444
14379SOL    HW255611   3.165   8.473   6.336
14380SOL     OW55612   2.133   7.672   3.379
14380SOL    HW155613   2.218   7.619   3.383
14380SOL    HW255614   2.058   7.617   3.415
14381SOL     OW55615   4.049   7.796   2.194
14381SOL    HW155616   3.975   7.818   2.258
14381SOL    HW255617   4.037   7.850   2.110
14382SOL     OW55618   0.686   8.776   6.922
14382SOL    HW155619   0.734   8.852   6.965
14382SOL    HW255620   0.671   8.704   6.991
14383SOL     OW55621   0.165   7.621   1.417
14383SOL    HW155622   0.138   7.717   1.410
14383SOL    HW255623   0.139   7.572   1.333
14384SOL     OW55624   0.839   7.606   2.203
14384SOL    HW155625   0.801   7.679   2.260
14384SOL    HW255626   0.771   7.578   2.135
14385SOL     OW55627   1.954   7.486   3.477
14385SOL    HW155628   2.032   7.426   3.491
14385SOL    HW255629   1.892   7.447   3.409
14386SOL     OW55630   4.410   7.397   1.279
14386SOL    HW155631   4.453   7.328   1.337
14386SOL    HW255632   4.354   7.458   1.335
14387SOL     OW55633   6.786   8.053   6.672
14387SOL    HW155634   6.727   8.109   6.615
14387SOL    HW255635   6.756   8.060   6.768
14388SOL     OW55636   2.257   8.867   0.872
14388SOL    HW155637   2.302   8.840   0.957
14388SOL    HW255638   2.164   8.897   0.892
14389SOL     OW55639   6.809   8.232   5.895
14389SOL    HW155640   6.884   8.201   5.837
14389SOL    HW255641   6.748   8.291   5.841
14390SOL     OW55642   1.839   7.993   0.915
14390SOL    HW155643   1.890   8.064   0.866
14390SOL    HW255644   1.772   8.036   0.975
14391SOL     OW55645   2.416   8.669   6.812
14391SOL    HW155646   2.478   8.606   6.858
14391SOL    HW255647   2.464   8.714   6.737
14392SOL     OW55648   6.336   8.799   3.147
14392SOL    HW155649   6.311   8.859   3.223
14392SOL    HW255650   6.263   8.799   3.079
14393SOL     OW55651   6.096   8.522   7.087
14393SOL    HW155652   5.998   8.510   7.106
14393SOL    HW255653   6.149   8.472   7.155
14394SOL     OW55654   4.368   7.906   2.896
14394SOL    HW155655   4.390   7.972   2.824
14394SOL    HW255656   4.362   7.954   2.984
14395SOL     OW55657   3.170   0.092   5.488
14395SOL    HW155658   3.163   8.992   5.493
14395SOL    HW255659   3.164   0.131   5.579
14396SOL     OW55660   2.018   8.442   5.608
14396SOL    HW155661   2.003   8.477   5.700
14396SOL    HW255662   2.107   8.474   5.574
14397SOL     OW55663   5.715   8.335   6.489
14397SOL    HW155664   5.618   8.318   6.507
14397SOL    HW255665   5.750   8.268   6.424
14398SOL     OW55666   6.641   8.441   2.149
14398SOL    HW155667   6.669   8.346   2.143
14398SOL    HW255668   6.542   8.446   2.161
14399SOL     OW55669   6.442   7.546   0.489
14399SOL    HW155670   6.390   7.631   0.502
14399SOL    HW255671   6.504   7.557   0.411
14400SOL     OW55672   3.257   8.939   6.683
14400SOL    HW155673   3.265   8.891   6.597
14400SOL    HW255674   3.171   8.990   6.685
14401SOL     OW55675   1.009   8.656   0.531
14401SOL    HW155676   1.096   8.641   0.577
14401SOL    HW255677   1.024   8.682   0.436
14402SOL     OW55678   4.740   8.600   3.646
14402SOL    HW155679   4.785   8.672   3.700
14402SOL    HW255680   4.786   8.513   3.662
14403SOL     OW55681   1.699   7.545   0.498
14403SOL    HW155682   1.742   7.636   0.489
14403SOL    HW255683   1.657   7.538   0.589
14404SOL     OW55684   7.119   8.396   2.606
14404SOL    HW155685   7.090   8.362   2.696
14404SOL    HW255686   7.171   8.324   2.559
14405SOL     OW55687   6.739   8.864   2.920
14405SOL    HW155688   6.783   8.899   3.003
14405SOL    HW255689   6.663   8.804   2.946
14406SOL     OW55690   1.099   8.696   6.905
14406SOL    HW155691   1.105   8.641   6.988
14406SOL    HW255692   1.191   8.725   6.878
14407SOL     OW55693   1.923   7.381   0.165
14407SOL    HW155694   1.879   7.311   0.109
14407SOL    HW255695   1.926   7.467   0.114
14408SOL     OW55696   0.439   8.410   7.156
14408SOL    HW155697   0.521   8.445   7.111
14408SOL    HW255698   0.362   8.412   7.091
14409SOL     OW55699   1.265   7.435   5.958
14409SOL    HW155700   1.210   7.411   5.878
14409SOL    HW255701   1.263   7.359   6.024
14410SOL     OW55702   6.927   7.984   2.585
14410SOL    HW155703   6.839   8.015   2.621
14410SOL    HW255704   6.940   7.887   2.608
14411SOL     OW55705   3.779   8.759   2.485
14411SOL    HW155706   3.790   8.857   2.470
14411SOL    HW255707   3.859   8.710   2.450
14412SOL     OW55708   4.739   8.899   0.725
14412SOL    HW155709   4.643   8.927   0.723
14412SOL    HW255710   4.763   8.870   0.818
14413SOL     OW55711   6.115   8.257   0.440
14413SOL    HW155712   6.145   8.176   0.391
14413SOL    HW255713   6.191   8.321   0.451
14414SOL     OW55714   3.531   8.329   0.556
14414SOL    HW155715   3.541   8.315   0.457
14414SOL    HW255716   3.463   8.401   0.573
14415SOL     OW55717   7.204   7.398   5.045
14415SOL    HW155718   7.263   7.345   5.107
14415SOL    HW255719   7.255   7.419   4.961
14416SOL     OW55720   4.561   8.194   2.078
14416SOL    HW155721   4.473   8.175   2.121
14416SOL    HW255722   4.629   8.130   2.113
14417SOL     OW55723   5.852   7.933   1.853
14417SOL    HW155724   5.831   7.839   1.879
14417SOL    HW255725   5.780   7.994   1.888
14418SOL     OW55726   4.882   8.796   3.779
14418SOL    HW155727   4.862   8.889   3.750
14418SOL    HW255728   4.980   8.779   3.772
14419SOL     OW55729   5.224   7.875   0.222
14419SOL    HW155730   5.260   7.914   0.307
14419SOL    HW255731   5.299   7.863   0.157
14420SOL     OW55732   1.220   8.155   2.005
14420SOL    HW155733   1.235   8.139   2.103
14420SOL    HW255734   1.148   8.223   1.993
14421SOL     OW55735   6.369   8.261   0.827
14421SOL    HW155736   6.365   8.207   0.912
14421SOL    HW255737   6.327   8.350   0.842
14422SOL     OW55738   5.208   8.532   6.459
14422SOL    HW155739   5.163   8.524   6.548
14422SOL    HW255740   5.222   8.440   6.421
14423SOL     OW55741   3.283   7.431   1.134
14423SOL    HW155742   3.240   7.491   1.067
14423SOL    HW255743   3.270   7.336   1.107
14424SOL     OW55744   1.641   8.529   0.431
14424SOL    HW155745   1.718   8.472   0.403
14424SOL    HW255746   1.562   8.471   0.451
14425SOL     OW55747   5.179   7.795   4.120
14425SOL    HW155748   5.148   7.708   4.160
14425SOL    HW255749   5.125   7.816   4.039
14426SOL     OW55750   3.727   8.852   5.466
14426SOL    HW155751   3.744   8.754   5.467
14426SOL    HW255752   3.753   8.891   5.554
14427SOL     OW55753   6.410   8.711   1.470
14427SOL    HW155754   6.326   8.710   1.524
14427SOL    HW255755   6.425   8.803   1.433
14428SOL     OW55756   4.617   8.742   5.415
14428SOL    HW155757   4.566   8.803   5.355
14428SOL    HW255758   4.622   8.651   5.373
14429SOL     OW55759   5.330   8.780   2.819
14429SOL    HW155760   5.409   8.838   2.835
14429SOL    HW255761   5.287   8.803   2.732
14430SOL     OW55762   7.141   8.167   6.252
14430SOL    HW155763   7.094   8.236   6.197
14430SOL    HW255764   7.095   8.157   6.340
14431SOL     OW55765   3.853   8.517   3.586
14431SOL    HW155766   3.812   8.481   3.503
14431SOL    HW255767   3.950   8.536   3.570
14432SOL     OW55768   6.480   8.900   1.042
14432SOL    HW155769   6.488   8.936   1.134
14432SOL    HW255770   6.466   8.801   1.046
14433SOL     OW55771   2.682   7.273   3.391
14433SOL    HW155772   2.778   7.267   3.362
14433SOL    HW255773   2.633   7.336   3.330
14434SOL     OW55774   2.549   7.720   3.499
14434SOL    HW155775   2.524   7.812   3.530
14434SOL    HW255776   2.581   7.666   3.576
14435SOL     OW55777   7.331   7.866   5.373
14435SOL    HW155778   7.409   7.927   5.393
14435SOL    HW255779   7.307   7.874   5.276
14436SOL     OW55780   0.172   8.542   2.878
14436SOL    HW155781   0.150   8.482   2.801
14436SOL    HW255782   0.213   8.627   2.844
14437SOL     OW55783   5.560   7.854   5.937
14437SOL    HW155784   5.559   7.771   5.882
14437SOL    HW255785   5.563   7.831   6.034
14438SOL     OW55786   2.372   8.099   6.408
14438SOL    HW155787   2.439   8.071   6.477
14438SOL    HW255788   2.412   8.091   6.317
14439SOL     OW55789   1.734   0.355   0.314
14439SOL    HW155790   1.794   0.402   0.378
14439SOL    HW255791   1.786   0.283   0.267
14440SOL     OW55792   3.480   8.511   3.352
14440SOL    HW155793   3.430   8.425   3.351
14440SOL    HW255794   3.434   8.578   3.293
14441SOL     OW55795   6.582   8.786   5.919
14441SOL    HW155796   6.636   8.868   5.937
14441SOL    HW255797   6.566   8.777   5.820
14442SOL     OW55798   5.101   7.833   2.670
14442SOL    HW155799   5.131   7.891   2.745
14442SOL    HW255800   5.008   7.858   2.644
14443SOL     OW55801   6.824   8.757   2.680
14443SOL    HW155802   6.794   8.831   2.619
14443SOL    HW255803   6.804   8.782   2.775
14444SOL     OW55804   4.453   7.524   4.928
14444SOL    HW155805   4.466   7.566   5.018
14444SOL    HW255806   4.514   7.445   4.919
14445SOL     OW55807   0.908   7.467   5.391
14445SOL    HW155808   0.849   7.514   5.326
14445SOL    HW255809   0.858   7.391   5.432
14446SOL     OW55810   4.308   8.058   6.790
14446SOL    HW155811   4.326   7.975   6.842
14446SOL    HW255812   4.395   8.100   6.764
14447SOL     OW55813   5.823   8.481   7.156
14447SOL    HW155814   5.802   8.554   7.221
14447SOL    HW255815   5.800   8.393   7.198
14448SOL     OW55816   6.113   8.267   5.199
14448SOL    HW155817   6.146   8.194   5.138
14448SOL    HW255818   6.098   8.350   5.145
14449SOL     OW55819   1.656   0.015   5.323
14449SOL    HW155820   1.702   0.030   5.236
14449SOL    HW255821   1.561   0.047   5.317
14450SOL     OW55822   2.798   8.588   4.060
14450SOL    HW155823   2.872   8.632   4.111
14450SOL    HW255824   2.739   8.538   4.124
14451SOL     OW55825   5.559   8.816   7.101
14451SOL    HW155826   5.560   8.835   7.199
14451SOL    HW255827   5.478   8.762   7.078
14452SOL     OW55828   0.852   8.310   7.114
14452SOL    HW155829   0.883   8.291   7.021
14452SOL    HW255830   0.794   8.235   7.145
14453SOL     OW55831   4.172   8.085   5.510
14453SOL    HW155832   4.182   8.063   5.608
14453SOL    HW255833   4.261   8.084   5.466
14454SOL     OW55834   1.453   8.926   0.658
14454SOL    HW155835   1.523   8.855   0.649
14454SOL    HW255836   1.498   0.015   0.666
14455SOL     OW55837   1.149   8.522   7.117
14455SOL    HW155838   1.227   8.574   7.153
14455SOL    HW255839   1.090   8.494   7.193
14456SOL     OW55840   2.903   7.878   7.170
14456SOL    HW155841   2.985   7.821   7.166
14456SOL    HW255842   2.917   7.953   7.235
14457SOL     OW55843   3.065   7.986   1.545
14457SOL    HW155844   2.974   8.016   1.575
14457SOL    HW255845   3.056   7.902   1.492
14458SOL     OW55846   6.072   8.351   2.404
14458SOL    HW155847   6.159   8.306   2.388
14458SOL    HW255848   6.005   8.319   2.336
14459SOL     OW55849   6.072   8.090   1.912
14459SOL    HW155850   6.029   8.179   1.925
14459SOL    HW255851   6.003   8.023   1.885
14460SOL     OW55852   1.628   8.227   5.508
14460SOL    HW155853   1.648   8.132   5.532
14460SOL    HW255854   1.575   8.230   5.423
14461SOL     OW55855   6.057   8.478   5.041
14461SOL    HW155856   6.054   8.576   5.060
14461SOL    HW255857   5.996   8.457   4.965
14462SOL     OW55858   4.544   8.663   6.410
14462SOL    HW155859   4.597   8.648   6.494
14462SOL    HW255860   4.601   8.642   6.331
14463SOL     OW55861   4.156   8.571   0.822
14463SOL    HW155862   4.175   8.589   0.918
14463SOL    HW255863   4.237   8.591   0.767
14464SOL     OW55864   5.759   7.409   6.540
14464SOL    HW155865   5.848   7.441   6.573
14464SOL    HW255866   5.726   7.335   6.599
14465SOL     OW55867   3.763   8.799   1.851
14465SOL    HW155868   3.771   8.720   1.911
14465SOL    HW255869   3.779   8.770   1.756
14466SOL     OW55870   0.142   7.926   2.685
14466SOL    HW155871   0.224   7.904   2.631
14466SOL    HW255872   0.090   7.842   2.700
14467SOL     OW55873   6.770   7.482   2.056
14467SOL    HW155874   6.760   7.401   1.998
14467SOL    HW255875   6.736   7.462   2.148
14468SOL     OW55876   6.567   7.735   0.820
14468SOL    HW155877   6.582   7.780   0.908
14468SOL    HW255878   6.617   7.649   0.818
14469SOL     OW55879   5.503   0.198   4.740
14469SOL    HW155880   5.582   0.138   4.724
14469SOL    HW255881   5.436   0.150   4.796
14470SOL     OW55882   1.533   8.006   7.178
14470SOL    HW155883   1.477   7.926   7.196
14470SOL    HW255884   1.527   8.070   7.255
14471SOL     OW55885   3.956   7.768   3.295
14471SOL    HW155886   3.987   7.721   3.377
14471SOL    HW255887   3.858   7.752   3.282
14472SOL     OW55888   1.432   7.617   1.571
14472SOL    HW155889   1.364   7.549   1.599
14472SOL    HW255890   1.431   7.627   1.471
14473SOL     OW55891   6.100   8.334   6.080
14473SOL    HW155892   6.133   8.284   6.000
14473SOL    HW255893   6.157   8.312   6.159
14474SOL     OW55894   6.960   7.828   6.650
14474SOL    HW155895   6.970   7.815   6.551
14474SOL    HW255896   6.895   7.902   6.668
14475SOL     OW55897   3.971   8.158   5.907
14475SOL    HW155898   3.901   8.098   5.945
14475SOL    HW255899   3.963   8.249   5.948
14476SOL     OW55900   6.289   7.948   2.265
14476SOL    HW155901   6.238   7.905   2.191
14476SOL    HW255902   6.371   7.992   2.227
14477SOL     OW55903   7.158   7.899   6.175
14477SOL    HW155904   7.093   7.873   6.104
14477SOL    HW255905   7.154   7.997   6.190
14478SOL     OW55906   6.847   7.580   5.873
14478SOL    HW155907   6.919   7.516   5.845
14478SOL    HW255908   6.783   7.594   5.798
14479SOL     OW55909   4.487   7.973   0.504
14479SOL    HW155910   4.546   7.992   0.583
14479SOL    HW255911   4.436   7.888   0.520
14480SOL     OW55912   4.898   8.615   4.891
14480SOL    HW155913   4.819   8.650   4.840
14480SOL    HW255914   4.867   8.572   4.975
14481SOL     OW55915   2.064   8.369   2.844
14481SOL    HW155916   1.965   8.380   2.834
14481SOL    HW255917   2.106   8.354   2.754
14482SOL     OW55918   6.442   7.889   5.518
14482SOL    HW155919   6.373   7.935   5.573
14482SOL    HW255920   6.450   7.936   5.430
14483SOL     OW55921   4.754   7.499   2.140
14483SOL    HW155922   4.712   7.451   2.217
14483SOL    HW255923   4.716   7.464   2.055
14484SOL     OW55924   2.530   8.578   0.985
14484SOL    HW155925   2.533   8.625   0.896
14484SOL    HW255926   2.477   8.632   1.050
14485SOL     OW55927   3.663   8.011   5.253
14485SOL    HW155928   3.646   8.074   5.176
14485SOL    HW255929   3.702   8.063   5.329
14486SOL     OW55930   7.169   7.610   5.212
14486SOL    HW155931   7.181   7.532   5.150
14486SOL    HW255932   7.144   7.576   5.302
14487SOL     OW55933   4.845   8.575   0.423
14487SOL    HW155934   4.789   8.657   0.438
14487SOL    HW255935   4.785   8.497   0.406
14488SOL     OW55936   1.098   8.159   6.043
14488SOL    HW155937   1.193   8.192   6.039
14488SOL    HW255938   1.062   8.151   5.951
14489SOL     OW55939   5.384   8.100   5.281
14489SOL    HW155940   5.359   8.042   5.357
14489SOL    HW255941   5.348   8.062   5.196
14490SOL     OW55942   2.114   8.354   1.757
14490SOL    HW155943   2.048   8.418   1.795
14490SOL    HW255944   2.083   8.322   1.667
14491SOL     OW55945   4.024   7.472   4.699
14491SOL    HW155946   3.977   7.427   4.775
14491SOL    HW255947   3.967   7.546   4.663
14492SOL     OW55948   4.472   8.971   0.692
14492SOL    HW155949   4.429   8.944   0.778
14492SOL    HW255950   4.411   8.948   0.616
14493SOL     OW55951   2.199   7.400   2.330
14493SOL    HW155952   2.176   7.396   2.427
14493SOL    HW255953   2.236   7.490   2.308
14494SOL     OW55954   5.993   7.960   5.254
14494SOL    HW155955   6.065   7.985   5.189
14494SOL    HW255956   5.940   8.041   5.277
14495SOL     OW55957   0.353   7.795   2.553
14495SOL    HW155958   0.347   7.755   2.462
14495SOL    HW255959   0.443   7.836   2.566
14496SOL     OW55960   4.847   8.921   6.106
14496SOL    HW155961   4.911   8.940   6.180
14496SOL    HW255962   4.753   8.940   6.138
14497SOL     OW55963   3.748   8.086   2.142
14497SOL    HW155964   3.764   7.994   2.106
14497SOL    HW255965   3.751   8.152   2.066
14498SOL     OW55966   4.552   8.680   2.243
14498SOL    HW155967   4.468   8.667   2.295
14498SOL    HW255968   4.563   8.603   2.179
14499SOL     OW55969   3.969   8.801   5.329
14499SOL    HW155970   3.967   8.713   5.375
14499SOL    HW255971   3.886   8.852   5.352
14500SOL     OW55972   6.787   8.296   2.816
14500SOL    HW155973   6.886   8.303   2.829
14500SOL    HW255974   6.754   8.377   2.767
14501SOL     OW55975   0.577   8.323   2.372
14501SOL    HW155976   0.676   8.339   2.373
14501SOL    HW255977   0.544   8.329   2.278
14502SOL     OW55978   0.610   8.577   2.870
14502SOL    HW155979   0.661   8.503   2.827
14502SOL    HW255980   0.580   8.642   2.800
14503SOL     OW55981   1.669   7.968   6.290
14503SOL    HW155982   1.638   7.895   6.352
14503SOL    HW255983   1.644   8.057   6.328
14504SOL     OW55984   3.621   7.944   1.391
14504SOL    HW155985   3.671   7.860   1.366
14504SOL    HW255986   3.630   8.011   1.318
14505SOL     OW55987   4.691   8.028   1.115
14505SOL    HW155988   4.656   8.102   1.058
14505SOL    HW255989   4.686   7.941   1.065
14506SOL     OW55990   5.426   8.241   1.856
14506SOL    HW155991   5.384   8.202   1.938
14506SOL    HW255992   5.358   8.294   1.806
14507SOL     OW55993   0.408   7.465   1.258
14507SOL    HW155994   0.479   7.507   1.202
14507SOL    HW255995   0.394   7.519   1.341
14508SOL     OW55996   5.876   7.783   3.089
14508SOL    HW155997   5.812   7.706   3.096
14508SOL    HW255998   5.965   7.756   3.125
14509SOL     OW55999   0.182   7.677   2.952
14509SOL    HW156000   0.190   7.591   3.002
14509SOL    HW256001   0.190   7.754   3.016
14510SOL     OW56002   0.847   8.232   4.670
14510SOL    HW156003   0.896   8.150   4.642
14510SOL    HW256004   0.894   8.314   4.635
14511SOL     OW56005   0.097   8.832   0.335
14511SOL    HW156006   0.042   8.798   0.411
14511SOL    HW256007   0.177   8.773   0.324
14512SOL     OW56008   1.963   7.819   0.282
14512SOL    HW156009   1.886   7.874   0.250
14512SOL    HW256010   1.958   7.809   0.381
14513SOL     OW56011   7.287   7.437   1.557
14513SOL    HW156012   7.346   7.506   1.514
14513SOL    HW256013   7.192   7.467   1.552
14514SOL     OW56014   6.112   8.911   3.432
14514SOL    HW156015   6.013   8.910   3.449
14514SOL    HW256016   6.131   8.973   3.356
14515SOL     OW56017   0.208   7.393   2.560
14515SOL    HW156018   0.185   7.480   2.604
14515SOL    HW256019   0.189   7.318   2.622
14516SOL     OW56020   7.089   7.403   4.705
14516SOL    HW156021   7.181   7.427   4.735
14516SOL    HW256022   7.024   7.424   4.779
14517SOL     OW56023   3.363   8.451   1.143
14517SOL    HW156024   3.427   8.493   1.078
14517SOL    HW256025   3.363   8.504   1.228
14518SOL     OW56026   5.819   8.286   6.095
14518SOL    HW156027   5.914   8.313   6.082
14518SOL    HW256028   5.812   8.229   6.177
14519SOL     OW56029   2.362   7.834   5.897
14519SOL    HW156030   2.362   7.905   5.827
14519SOL    HW256031   2.273   7.830   5.941
14520SOL     OW56032   5.925   8.326   1.937
14520SOL    HW156033   5.839   8.339   1.888
14520SOL    HW256034   5.984   8.406   1.924
14521SOL     OW56035   4.637   8.572   6.154
14521SOL    HW156036   4.574   8.496   6.171
14521SOL    HW256037   4.700   8.547   6.081
14522SOL     OW56038   6.287   7.776   0.506
14522SOL    HW156039   6.270   7.773   0.604
14522SOL    HW256040   6.199   7.779   0.457
14523SOL     OW56041   3.131   7.714   0.516
14523SOL    HW156042   3.151   7.621   0.546
14523SOL    HW256043   3.186   7.779   0.568
14524SOL     OW56044   6.808   8.143   0.874
14524SOL    HW156045   6.777   8.177   0.785
14524SOL    HW256046   6.732   8.144   0.939
14525SOL     OW56047   0.329   7.926   1.748
14525SOL    HW156048   0.236   7.959   1.730
14525SOL    HW256049   0.328   7.868   1.829
14526SOL     OW56050   1.479   8.871   2.730
14526SOL    HW156051   1.520   8.957   2.761
14526SOL    HW256052   1.478   8.805   2.806
14527SOL     OW56053   1.557   7.601   6.225
14527SOL    HW156054   1.471   7.624   6.179
14527SOL    HW256055   1.580   7.674   6.289
14528SOL     OW56056   1.332   7.783   1.768
14528SOL    HW156057   1.267   7.721   1.813
14528SOL    HW256058   1.380   7.735   1.695
14529SOL     OW56059   1.450   8.095   0.423
14529SOL    HW156060   1.408   8.108   0.513
14529SOL    HW256061   1.546   8.121   0.428
14530SOL     OW56062   6.406   8.122   2.703
14530SOL    HW156063   6.358   8.198   2.747
14530SOL    HW256064   6.434   8.149   2.611
14531SOL     OW56065   1.566   8.277   1.286
14531SOL    HW156066   1.599   8.364   1.323
14531SOL    HW256067   1.484   8.248   1.337
14532SOL     OW56068   5.494   7.953   7.214
14532SOL    HW156069   5.505   8.021   7.287
14532SOL    HW256070   5.403   7.911   7.221
14533SOL     OW56071   2.104   8.884   6.312
14533SOL    HW156072   2.122   8.980   6.336
14533SOL    HW256073   2.019   8.854   6.356
14534SOL     OW56074   0.188   8.407   0.323
14534SOL    HW156075   0.202   8.388   0.225
14534SOL    HW256076   0.231   8.336   0.377
14535SOL     OW56077   3.766   7.631   1.043
14535SOL    HW156078   3.771   7.669   1.136
14535SOL    HW256079   3.675   7.646   1.006
14536SOL     OW56080   5.363   7.860   2.123
14536SOL    HW156081   5.267   7.842   2.144
14536SOL    HW256082   5.419   7.836   2.202
14537SOL     OW56083   3.055   8.077   3.612
14537SOL    HW156084   3.137   8.068   3.555
14537SOL    HW256085   2.994   8.145   3.572
14538SOL     OW56086   0.616   8.119   2.050
14538SOL    HW156087   0.711   8.135   2.077
14538SOL    HW256088   0.563   8.203   2.064
14539SOL     OW56089   6.194   7.813   2.499
14539SOL    HW156090   6.230   7.869   2.425
14539SOL    HW256091   6.187   7.717   2.469
14540SOL     OW56092   2.857   8.256   1.426
14540SOL    HW156093   2.846   8.336   1.485
14540SOL    HW256094   2.941   8.265   1.372
14541SOL     OW56095   3.740   8.422   3.354
14541SOL    HW156096   3.723   8.324   3.353
14541SOL    HW256097   3.653   8.471   3.346
14542SOL     OW56098   2.638   8.411   6.266
14542SOL    HW156099   2.602   8.501   6.290
14542SOL    HW256100   2.636   8.351   6.347
14543SOL     OW56101   5.105   8.397   0.752
14543SOL    HW156102   5.106   8.354   0.661
14543SOL    HW256103   5.027   8.459   0.759
14544SOL     OW56104   4.784   8.147   6.113
14544SOL    HW156105   4.810   8.057   6.148
14544SOL    HW256106   4.703   8.179   6.161
14545SOL     OW56107   5.750   7.512   2.865
14545SOL    HW156108   5.768   7.589   2.803
14545SOL    HW256109   5.705   7.545   2.948
14546SOL     OW56110   4.882   7.601   5.382
14546SOL    HW156111   4.875   7.638   5.289
14546SOL    HW256112   4.866   7.502   5.380
14547SOL     OW56113   7.102   7.430   1.016
14547SOL    HW156114   7.199   7.425   0.991
14547SOL    HW256115   7.058   7.504   0.965
14548SOL     OW56116   5.528   8.403   5.026
14548SOL    HW156117   5.559   8.330   5.086
14548SOL    HW256118   5.571   8.393   4.936
14549SOL     OW56119   2.890   8.256   3.475
14549SOL    HW156120   2.804   8.307   3.486
14549SOL    HW256121   2.963   8.318   3.447
14550SOL     OW56122   5.049   8.453   2.619
14550SOL    HW156123   4.977   8.517   2.593
14550SOL    HW256124   5.130   8.469   2.563
14551SOL     OW56125   2.562   7.348   1.030
14551SOL    HW156126   2.587   7.360   0.934
14551SOL    HW256127   2.588   7.256   1.059
14552SOL     OW56128   6.617   7.755   6.396
14552SOL    HW156129   6.525   7.756   6.434
14552SOL    HW256130   6.663   7.670   6.420
14553SOL     OW56131   2.209   8.875   6.645
14553SOL    HW156132   2.259   8.854   6.561
14553SOL    HW256133   2.170   8.791   6.683
14554SOL     OW56134   4.654   7.752   2.212
14554SOL    HW156135   4.697   7.669   2.178
14554SOL    HW256136   4.596   7.730   2.291
14555SOL     OW56137   4.785   0.345   7.122
14555SOL    HW156138   4.736   0.280   7.179
14555SOL    HW256139   4.727   0.373   7.046
14556SOL     OW56140   5.063   8.814   4.213
14556SOL    HW156141   5.136   8.752   4.242
14556SOL    HW256142   4.999   8.828   4.289
14557SOL     OW56143   3.151   8.085   3.106
14557SOL    HW156144   3.053   8.092   3.087
14557SOL    HW256145   3.167   8.005   3.164
14558SOL     OW56146   5.535   8.692   1.292
14558SOL    HW156147   5.493   8.606   1.261
14558SOL    HW256148   5.587   8.733   1.218
14559SOL     OW56149   2.550   7.412   0.055
14559SOL    HW156150   2.607   7.426   0.136
14559SOL    HW256151   2.506   7.499   0.031
14560SOL     OW56152   3.355   8.255   3.327
14560SOL    HW156153   3.319   8.178   3.380
14560SOL    HW256154   3.314   8.254   3.236
14561SOL     OW56155   3.577   8.070   6.834
14561SOL    HW156156   3.572   8.132   6.912
14561SOL    HW256157   3.615   7.982   6.864
14562SOL     OW56158   5.448   7.705   1.155
14562SOL    HW156159   5.401   7.659   1.079
14562SOL    HW256160   5.487   7.791   1.122
14563SOL     OW56161   0.737   8.682   1.789
14563SOL    HW156162   0.680   8.616   1.739
14563SOL    HW256163   0.678   8.747   1.837
14564SOL     OW56164   5.152   8.764   1.157
14564SOL    HW156165   5.167   8.695   1.086
14564SOL    HW256166   5.163   8.722   1.247
14565SOL     OW56167   1.478   8.698   2.944
14565SOL    HW156168   1.574   8.672   2.956
14565SOL    HW256169   1.422   8.616   2.941
14566SOL     OW56170   4.028   8.001   7.185
14566SOL    HW156171   4.079   7.915   7.194
14566SOL    HW256172   3.932   7.981   7.167
14567SOL     OW56173   3.737   7.439   3.237
14567SOL    HW156174   3.709   7.533   3.256
14567SOL    HW256175   3.813   7.414   3.298
14568SOL     OW56176   2.641   8.580   3.834
14568SOL    HW156177   2.594   8.492   3.846
14568SOL    HW256178   2.705   8.594   3.910
14569SOL     OW56179   4.100   8.234   6.214
14569SOL    HW156180   4.039   8.157   6.231
14569SOL    HW256181   4.178   8.203   6.160
14570SOL     OW56182   5.027   7.884   3.903
14570SOL    HW156183   5.067   7.853   3.817
14570SOL    HW256184   5.001   7.980   3.895
14571SOL     OW56185   4.786   8.819   0.987
14571SOL    HW156186   4.742   8.740   1.030
14571SOL    HW256187   4.841   8.867   1.054
14572SOL     OW56188   5.710   8.684   1.726
14572SOL    HW156189   5.683   8.592   1.751
14572SOL    HW256190   5.639   8.726   1.669
14573SOL     OW56191   4.679   8.118   5.853
14573SOL    HW156192   4.694   8.024   5.820
14573SOL    HW256193   4.716   8.127   5.945
14574SOL     OW56194   2.595   7.942   0.922
14574SOL    HW156195   2.565   7.895   0.840
14574SOL    HW256196   2.593   7.879   1.000
14575SOL     OW56197   5.899   7.471   5.394
14575SOL    HW156198   5.932   7.566   5.394
14575SOL    HW256199   5.890   7.439   5.299
14576SOL     OW56200   0.234   8.009   0.424
14576SOL    HW156201   0.217   7.931   0.484
14576SOL    HW256202   0.268   8.086   0.478
14577SOL     OW56203   4.055   8.615   3.934
14577SOL    HW156204   4.066   8.612   4.033
14577SOL    HW256205   3.971   8.567   3.908
14578SOL     OW56206   3.954   7.400   3.406
14578SOL    HW156207   3.981   7.487   3.447
14578SOL    HW256208   4.026   7.368   3.344
14579SOL     OW56209   3.590   8.683   0.594
14579SOL    HW156210   3.508   8.638   0.630
14579SOL    HW256211   3.591   8.677   0.495
14580SOL     OW56212   4.386   8.455   1.135
14580SOL    HW156213   4.479   8.480   1.109
14580SOL    HW256214   4.361   8.368   1.092
14581SOL     OW56215   4.994   8.143   7.229
14581SOL    HW156216   4.999   8.109   7.323
14581SOL    HW256217   4.982   8.066   7.166
14582SOL     OW56218   0.188   8.146   1.460
14582SOL    HW156219   0.193   8.185   1.552
14582SOL    HW256220   0.121   8.197   1.405
14583SOL     OW56221   0.146   7.500   1.162
14583SOL    HW156222   0.218   7.441   1.199
14583SOL    HW256223   0.188   7.570   1.104
14584SOL     OW56224   5.599   8.129   2.676
14584SOL    HW156225   5.596   8.174   2.586
14584SOL    HW256226   5.694   8.125   2.708
14585SOL     OW56227   6.341   8.387   1.475
14585SOL    HW156228   6.377   8.479   1.460
14585SOL    HW256229   6.287   8.386   1.559
14586SOL     OW56230   6.476   8.150   5.738
14586SOL    HW156231   6.392   8.121   5.692
14586SOL    HW256232   6.519   8.070   5.781
14587SOL     OW56233   5.820   8.129   6.328
14587SOL    HW156234   5.772   8.042   6.342
14587SOL    HW256235   5.912   8.122   6.365
14588SOL     OW56236   5.606   8.043   2.244
14588SOL    HW156237   5.593   8.123   2.303
14588SOL    HW256238   5.561   7.964   2.285
14589SOL     OW56239   3.759   7.941   7.161
14589SOL    HW156240   3.692   8.010   7.189
14589SOL    HW256241   3.755   7.864   7.225
14590SOL     OW56242   2.957   8.815   6.405
14590SOL    HW156243   2.867   8.856   6.387
14590SOL    HW256244   3.001   8.794   6.317
14591SOL     OW56245   1.781   7.755   0.792
14591SOL    HW156246   1.683   7.743   0.807
14591SOL    HW256247   1.812   7.838   0.839
14592SOL     OW56248   4.991   7.869   5.892
14592SOL    HW156249   5.046   7.949   5.912
14592SOL    HW256250   5.024   7.791   5.946
14593SOL     OW56251   2.414   7.247   2.241
14593SOL    HW156252   2.333   7.297   2.269
14593SOL    HW256253   2.387   7.164   2.193
14594SOL     OW56254   1.944   7.895   6.557
14594SOL    HW156255   1.942   7.849   6.646
14594SOL    HW256256   1.864   7.954   6.548
14595SOL     OW56257   6.581   0.223   1.386
14595SOL    HW156258   6.520   0.251   1.312
14595SOL    HW256259   6.672   0.260   1.370
14596SOL     OW56260   5.829   7.775   6.949
14596SOL    HW156261   5.929   7.776   6.941
14596SOL    HW256262   5.791   7.848   6.892
14597SOL     OW56263   2.714   7.496   6.414
14597SOL    HW156264   2.653   7.572   6.436
14597SOL    HW256265   2.773   7.478   6.493
14598SOL     OW56266   2.447   8.616   3.258
14598SOL    HW156267   2.407   8.588   3.346
14598SOL    HW256268   2.513   8.547   3.228
14599SOL     OW56269   4.424   7.514   0.150
14599SOL    HW156270   4.388   7.436   0.098
14599SOL    HW256271   4.350   7.558   0.200
14600SOL     OW56272   4.077   7.801   5.856
14600SOL    HW156273   4.127   7.884   5.833
14600SOL    HW256274   4.007   7.784   5.787
14601SOL     OW56275   2.491   8.247   3.625
14601SOL    HW156276   2.414   8.284   3.677
14601SOL    HW256277   2.476   8.150   3.608
14602SOL     OW56278   2.164   8.538   6.071
14602SOL    HW156279   2.094   8.520   6.001
14602SOL    HW256280   2.153   8.474   6.147
14603SOL     OW56281   6.747   8.611   1.964
14603SOL    HW156282   6.672   8.651   1.911
14603SOL    HW256283   6.710   8.554   2.037
14604SOL     OW56284   4.459   8.365   6.223
14604SOL    HW156285   4.393   8.381   6.296
14604SOL    HW256286   4.420   8.303   6.156
14605SOL     OW56287   1.523   8.665   1.798
14605SOL    HW156288   1.490   8.584   1.845
14605SOL    HW256289   1.446   8.727   1.780
14606SOL     OW56290   8.989   8.418   0.013
14606SOL    HW156291   8.994   8.516   8.993
14606SOL    HW256292   0.082   8.382   0.026
14607SOL     OW56293   1.266   0.004   1.420
14607SOL    HW156294   1.313   0.029   1.335
14607SOL    HW256295   1.169   8.992   1.402
14608SOL     OW56296   1.801   7.476   2.960
14608SOL    HW156297   1.751   7.392   2.978
14608SOL    HW256298   1.778   7.544   3.030
14609SOL     OW56299   1.028   8.409   2.794
14609SOL    HW156300   1.114   8.428   2.747
14609SOL    HW256301   1.028   8.455   2.883
14610SOL     OW56302   3.861   8.069   2.647
14610SOL    HW156303   3.871   8.105   2.554
14610SOL    HW256304   3.781   8.008   2.651
14611SOL     OW56305   3.966   7.865   5.179
14611SOL    HW156306   3.974   7.888   5.276
14611SOL    HW256307   3.884   7.810   5.164
14612SOL     OW56308   4.608   7.452   7.245
14612SOL    HW156309   4.599   7.538   7.297
14612SOL    HW256310   4.663   7.387   7.298
14613SOL     OW56311   3.962   8.256   1.469
14613SOL    HW156312   3.929   8.270   1.375
14613SOL    HW256313   3.975   8.158   1.486
14614SOL     OW56314   0.382   7.463   0.903
14614SOL    HW156315   0.328   7.542   0.934
14614SOL    HW256316   0.327   7.380   0.914
14615SOL     OW56317   4.373   7.994   3.161
14615SOL    HW156318   4.337   7.920   3.218
14615SOL    HW256319   4.472   7.986   3.154
14616SOL     OW56320   4.079   8.998   4.343
14616SOL    HW156321   4.106   0.015   4.248
14616SOL    HW256322   4.088   0.083   4.396
14617SOL     OW56323   5.186   8.076   1.274
14617SOL    HW156324   5.223   8.148   1.214
14617SOL    HW256325   5.087   8.081   1.274
14618SOL     OW56326   3.231   7.669   2.446
14618SOL    HW156327   3.162   7.600   2.467
14618SOL    HW256328   3.228   7.742   2.515
14619SOL     OW56329   1.547   0.418   0.510
14619SOL    HW156330   1.603   0.386   0.434
14619SOL    HW256331   1.529   0.516   0.500
14620SOL     OW56332   7.030   7.606   7.956
14620SOL    HW156333   7.037   7.609   8.056
14620SOL    HW256334   7.003   7.514   7.928
14621SOL     OW56335   1.158   8.364   8.343
14621SOL    HW156336   1.183   8.301   8.417
14621SOL    HW256337   1.124   8.312   8.265
14622SOL     OW56338   7.188   8.588   8.683
14622SOL    HW156339   7.140   8.675   8.696
14622SOL    HW256340   7.138   8.533   8.616
14623SOL     OW56341   6.959   8.729   7.680
14623SOL    HW156342   7.025   8.715   7.606
14623SOL    HW256343   6.952   8.826   7.701
14624SOL     OW56344   4.161   8.170   8.079
14624SOL    HW156345   4.243   8.121   8.106
14624SOL    HW256346   4.173   8.268   8.096
14625SOL     OW56347   6.741   7.515   8.155
14625SOL    HW156348   6.716   7.477   8.066
14625SOL    HW256349   6.745   7.441   8.223
14626SOL     OW56350   5.807   8.426   8.942
14626SOL    HW156351   5.861   8.343   8.948
14626SOL    HW256352   5.757   8.441   0.027
14627SOL     OW56353   2.578   7.758   8.509
14627SOL    HW156354   2.644   7.741   8.582
14627SOL    HW256355   2.488   7.725   8.538
14628SOL     OW56356   4.064   7.478   7.811
14628SOL    HW156357   4.060   7.392   7.760
14628SOL    HW256358   3.995   7.477   7.884
14629SOL     OW56359   1.854   8.657   8.112
14629SOL    HW156360   1.872   8.650   8.211
14629SOL    HW256361   1.936   8.690   8.066
14630SOL     OW56362   2.086   8.844   7.591
14630SOL    HW156363   2.010   8.833   7.655
14630SOL    HW256364   2.080   8.934   7.547
14631SOL     OW56365   0.042   7.950   8.576
14631SOL    HW156366   8.990   8.034   8.561
14631SOL    HW256367   8.997   7.873   8.530
14632SOL     OW56368   3.157   8.387   8.628
14632SOL    HW156369   3.222   8.437   8.571
14632SOL    HW256370   3.088   8.450   8.663
14633SOL     OW56371   5.915   8.230   8.193
14633SOL    HW156372   5.916   8.248   8.095
14633SOL    HW256373   5.912   8.131   8.209
14634SOL     OW56374   0.900   7.548   8.213
14634SOL    HW156375   0.897   7.546   8.313
14634SOL    HW256376   0.921   7.456   8.179
14635SOL     OW56377   5.703   8.477   7.522
14635SOL    HW156378   5.691   8.512   7.615
14635SOL    HW256379   5.779   8.413   7.521
14636SOL     OW56380   6.752   8.319   7.883
14636SOL    HW156381   6.812   8.271   7.819
14636SOL    HW256382   6.772   8.416   7.882
14637SOL     OW56383   4.234   7.728   8.395
14637SOL    HW156384   4.205   7.743   8.301
14637SOL    HW256385   4.249   7.631   8.410
14638SOL     OW56386   2.230   7.506   7.409
14638SOL    HW156387   2.300   7.556   7.358
14638SOL    HW256388   2.149   7.565   7.420
14639SOL     OW56389   1.212   8.617   8.260
14639SOL    HW156390   1.213   8.526   8.300
14639SOL    HW256391   1.121   8.658   8.273
14640SOL     OW56392   5.551   7.376   8.356
14640SOL    HW156393   5.611   7.366   8.435
14640SOL    HW256394   5.596   7.434   8.288
14641SOL     OW56395   7.030   8.461   8.498
14641SOL    HW156396   7.024   8.393   8.426
14641SOL    HW256397   7.029   8.553   8.458
14642SOL     OW56398   3.757   7.700   8.657
14642SOL    HW156399   3.702   7.628   8.700
14642SOL    HW256400   3.852   7.689   8.683
14643SOL     OW56401   6.626   7.835   8.416
14643SOL    HW156402   6.707   7.805   8.465
14643SOL    HW256403   6.621   7.935   8.416
14644SOL     OW56404   4.230   7.659   7.693
14644SOL    HW156405   4.158   7.602   7.735
14644SOL    HW256406   4.188   7.732   7.641
14645SOL     OW56407   0.578   8.034   8.248
14645SOL    HW156408   0.558   8.127   8.282
14645SOL    HW256409   0.516   8.012   8.173
14646SOL     OW56410   1.555   8.127   8.201
14646SOL    HW156411   1.461   8.160   8.189
14646SOL    HW256412   1.610   8.152   8.122
14647SOL     OW56413   4.521   8.354   7.710
14647SOL    HW156414   4.438   8.299   7.719
14647SOL    HW256415   4.510   8.438   7.763
14648SOL     OW56416   5.991   0.022   7.291
14648SOL    HW156417   6.009   8.933   7.333
14648SOL    HW256418   5.892   0.039   7.291
14649SOL     OW56419   3.340   7.937   8.500
14649SOL    HW156420   3.325   7.951   8.402
14649SOL    HW256421   3.391   7.852   8.514
14650SOL     OW56422   6.186   8.568   7.979
14650SOL    HW156423   6.211   8.549   8.074
14650SOL    HW256424   6.240   8.509   7.918
14651SOL     OW56425   4.690   8.789   7.798
14651SOL    HW156426   4.722   8.832   7.883
14651SOL    HW256427   4.699   8.855   7.723
14652SOL     OW56428   5.204   7.883   8.822
14652SOL    HW156429   5.112   7.846   8.838
14652SOL    HW256430   5.199   7.956   8.754
14653SOL     OW56431   4.887   7.898   7.850
14653SOL    HW156432   4.818   7.957   7.807
14653SOL    HW256433   4.961   7.955   7.887
14654SOL     OW56434   7.274   8.932   7.395
14654SOL    HW156435   7.362   8.891   7.417
14654SOL    HW256436   7.259   0.012   7.453
14655SOL     OW56437   0.844   8.719   7.635
14655SOL    HW156438   0.782   8.762   7.700
14655SOL    HW256439   0.802   8.636   7.599
14656SOL     OW56440   5.285   8.681   7.496
14656SOL    HW156441   5.261   8.710   7.403
14656SOL    HW256442   5.201   8.670   7.549
14657SOL     OW56443   6.636   7.506   8.969
14657SOL    HW156444   6.686   7.519   0.056
14657SOL    HW256445   6.554   7.563   8.969
14658SOL     OW56446   0.284   7.880   7.564
14658SOL    HW156447   0.229   7.805   7.527
14658SOL    HW256448   0.232   7.928   7.635
14659SOL     OW56449   5.441   8.466   7.843
14659SOL    HW156450   5.363   8.528   7.835
14659SOL    HW256451   5.524   8.513   7.813
14660SOL     OW56452   4.217   8.865   7.920
14660SOL    HW156453   4.206   8.939   7.853
14660SOL    HW256454   4.127   8.829   7.944
14661SOL     OW56455   3.739   8.114   8.259
14661SOL    HW156456   3.831   8.075   8.261
14661SOL    HW256457   3.698   8.097   8.170
14662SOL     OW56458   1.955   7.776   7.899
14662SOL    HW156459   1.998   7.689   7.876
14662SOL    HW256460   1.896   7.764   7.979
14663SOL     OW56461   3.155   7.957   7.510
14663SOL    HW156462   3.081   7.999   7.456
14663SOL    HW256463   3.116   7.889   7.571
14664SOL     OW56464   4.335   8.656   8.052
14664SOL    HW156465   4.291   8.728   7.998
14664SOL    HW256466   4.362   8.693   8.141
14665SOL     OW56467   2.571   7.372   7.890
14665SOL    HW156468   2.472   7.359   7.886
14665SOL    HW256469   2.599   7.380   7.986
14666SOL     OW56470   8.907   8.190   8.527
14666SOL    HW156471   8.928   8.272   8.581
14666SOL    HW256472   8.808   8.177   8.524
14667SOL     OW56473   6.498   8.228   7.929
14667SOL    HW156474   6.474   8.242   8.025
14667SOL    HW256475   6.594   8.254   7.914
14668SOL     OW56476   3.115   7.776   8.519
14668SOL    HW156477   3.194   7.836   8.533
14668SOL    HW256478   3.133   7.714   8.442
14669SOL     OW56479   7.328   8.196   0.079
14669SOL    HW156480   7.315   8.181   0.176
14669SOL    HW256481   7.326   8.294   0.060
14670SOL     OW56482   7.152   8.693   7.475
14670SOL    HW156483   7.175   8.785   7.444
14670SOL    HW256484   7.234   8.635   7.470
14671SOL     OW56485   6.500   8.758   0.219
14671SOL    HW156486   6.552   8.736   0.136
14671SOL    HW256487   6.500   8.857   0.234
14672SOL     OW56488   7.021   7.888   7.996
14672SOL    HW156489   7.039   7.790   7.993
14672SOL    HW256490   7.089   7.934   8.054
14673SOL     OW56491   4.437   8.826   8.856
14673SOL    HW156492   4.405   8.737   8.823
14673SOL    HW256493   4.516   8.812   8.916
14674SOL     OW56494   1.116   8.106   8.779
14674SOL    HW156495   1.028   8.059   8.769
14674SOL    HW256496   1.179   8.049   8.831
14675SOL     OW56497   4.143   8.572   8.368
14675SOL    HW156498   4.061   8.555   8.422
14675SOL    HW256499   4.223   8.538   8.417
14676SOL     OW56500   0.811   7.706   8.743
14676SOL    HW156501   0.716   7.697   8.772
14676SOL    HW256502   0.828   7.649   8.663
14677SOL     OW56503   0.400   8.912   7.821
14677SOL    HW156504   0.346   8.979   7.873
14677SOL    HW256505   0.339   8.838   7.791
14678SOL     OW56506   6.274   7.369   7.872
14678SOL    HW156507   6.336   7.446   7.856
14678SOL    HW256508   6.259   7.320   7.786
14679SOL     OW56509   4.641   7.461   7.669
14679SOL    HW156510   4.550   7.470   7.627
14679SOL    HW256511   4.709   7.504   7.610
14680SOL     OW56512   6.169   7.905   8.296
14680SOL    HW156513   6.223   7.841   8.243
14680SOL    HW256514   6.129   7.859   8.375
14681SOL     OW56515   6.181   0.071   8.725
14681SOL    HW156516   6.150   0.151   8.776
14681SOL    HW256517   6.116   8.996   8.737
14682SOL     OW56518   7.224   8.103   8.677
14682SOL    HW156519   7.136   8.150   8.688
14682SOL    HW256520   7.252   8.064   8.764
14683SOL     OW56521   1.709   8.188   7.977
14683SOL    HW156522   1.724   8.214   7.882
14683SOL    HW256523   1.793   8.200   8.029
14684SOL     OW56524   2.329   7.397   8.552
14684SOL    HW156525   2.324   7.495   8.572
14684SOL    HW256526   2.415   7.377   8.505
14685SOL     OW56527   0.551   7.692   8.830
14685SOL    HW156528   0.526   7.783   8.861
14685SOL    HW256529   0.506   7.623   8.887
14686SOL     OW56530   3.802   8.477   7.615
14686SOL    HW156531   3.838   8.529   7.537
14686SOL    HW256532   3.832   8.381   7.608
14687SOL     OW56533   0.091   8.565   8.264
14687SOL    HW156534   0.105   8.647   8.318
14687SOL    HW256535   8.993   8.547   8.255
14688SOL     OW56536   2.496   8.604   7.859
14688SOL    HW156537   2.501   8.598   7.759
14688SOL    HW256538   2.588   8.593   7.897
14689SOL     OW56539   1.513   8.188   7.381
14689SOL    HW156540   1.420   8.177   7.415
14689SOL    HW256541   1.554   8.270   7.420
14690SOL     OW56542   6.103   8.529   7.511
14690SOL    HW156543   6.028   8.463   7.510
14690SOL    HW256544   6.137   8.538   7.605
14691SOL     OW56545   1.905   8.423   8.630
14691SOL    HW156546   1.821   8.470   8.601
14691SOL    HW256547   1.941   8.369   8.554
14692SOL     OW56548   0.340   7.473   7.567
14692SOL    HW156549   0.281   7.418   7.626
14692SOL    HW256550   0.284   7.534   7.512
14693SOL     OW56551   4.755   7.926   7.460
14693SOL    HW156552   4.694   7.850   7.484
14693SOL    HW256553   4.741   7.950   7.364
14694SOL     OW56554   4.063   7.421   8.608
14694SOL    HW156555   4.141   7.442   8.549
14694SOL    HW256556   4.043   7.500   8.666
14695SOL     OW56557   5.568   8.314   8.860
14695SOL    HW156558   5.649   8.366   8.886
14695SOL    HW256559   5.548   8.246   8.931
14696SOL     OW56560   3.967   7.860   7.827
14696SOL    HW156561   3.960   7.795   7.752
14696SOL    HW256562   3.889   7.850   7.888
14697SOL     OW56563   7.247   8.036   8.098
14697SOL    HW156564   7.268   8.064   8.004
14697SOL    HW256565   7.261   8.114   8.160
14698SOL     OW56566   1.353   8.892   7.752
14698SOL    HW156567   1.266   8.844   7.740
14698SOL    HW256568   1.380   8.889   7.848
14699SOL     OW56569   2.595   8.829   8.920
14699SOL    HW156570   2.599   8.773   0.002
14699SOL    HW256571   2.564   8.921   8.943
14700SOL     OW56572   1.675   8.671   7.598
14700SOL    HW156573   1.637   8.612   7.669
14700SOL    HW256574   1.749   8.726   7.636
14701SOL     OW56575   4.365   7.738   7.919
14701SOL    HW156576   4.312   7.711   7.839
14701SOL    HW256577   4.433   7.667   7.940
14702SOL     OW56578   0.700   8.721   8.809
14702SOL    HW156579   0.624   8.703   8.746
14702SOL    HW256580   0.667   8.775   8.886
14703SOL     OW56581   0.477   8.712   8.639
14703SOL    HW156582   0.413   8.640   8.611
14703SOL    HW256583   0.538   8.734   8.562
14704SOL     OW56584   5.871   8.839   0.268
14704SOL    HW156585   5.965   8.871   0.251
14704SOL    HW256586   5.819   8.843   0.183
14705SOL     OW56587   4.567   7.925   8.792
14705SOL    HW156588   4.580   7.997   8.861
14705SOL    HW256589   4.594   7.961   8.702
14706SOL     OW56590   3.640   8.893   7.483
14706SOL    HW156591   3.566   8.891   7.416
14706SOL    HW256592   3.606   8.930   7.570
14707SOL     OW56593   3.891   8.266   8.587
14707SOL    HW156594   3.802   8.224   8.566
14707SOL    HW256595   3.964   8.208   8.552
14708SOL     OW56596   4.316   7.527   8.799
14708SOL    HW156597   4.300   7.479   8.885
14708SOL    HW256598   4.316   7.625   8.815
14709SOL     OW56599   2.038   8.622   8.777
14709SOL    HW156600   2.010   8.712   8.744
14709SOL    HW256601   1.988   8.551   8.728
14710SOL     OW56602   5.825   8.485   8.264
14710SOL    HW156603   5.860   8.396   8.235
14710SOL    HW256604   5.896   8.534   8.314
14711SOL     OW56605   0.540   7.482   8.049
14711SOL    HW156606   0.549   7.575   8.015
14711SOL    HW256607   0.466   7.478   8.116
14712SOL     OW56608   1.031   8.221   8.130
14712SOL    HW156609   0.985   8.306   8.105
14712SOL    HW256610   0.964   8.147   8.133
14713SOL     OW56611   3.825   8.548   7.879
14713SOL    HW156612   3.736   8.589   7.900
14713SOL    HW256613   3.826   8.518   7.783
14714SOL     OW56614   5.285   8.262   7.484
14714SOL    HW156615   5.195   8.276   7.524
14714SOL    HW256616   5.279   8.265   7.384
14715SOL     OW56617   6.582   8.813   8.114
14715SOL    HW156618   6.504   8.797   8.053
14715SOL    HW256619   6.569   8.761   8.198
14716SOL     OW56620   0.853   8.778   8.050
14716SOL    HW156621   0.899   8.774   8.139
14716SOL    HW256622   0.913   8.738   7.981
14717SOL     OW56623   5.450   8.146   8.213
14717SOL    HW156624   5.529   8.172   8.268
14717SOL    HW256625   5.417   8.225   8.161
14718SOL     OW56626   3.736   7.748   7.349
14718SOL    HW156627   3.752   7.651   7.365
14718SOL    HW256628   3.699   7.790   7.432
14719SOL     OW56629   5.704   8.216   7.731
14719SOL    HW156630   5.738   8.215   7.637
14719SOL    HW256631   5.605   8.209   7.731
14720SOL     OW56632   5.147   8.469   0.147
14720SOL    HW156633   5.244   8.492   0.143
14720SOL    HW256634   5.093   8.552   0.160
14721SOL     OW56635   2.326   8.463   7.424
14721SOL    HW156636   2.358   8.423   7.338
14721SOL    HW256637   2.263   8.537   7.404
14722SOL     OW56638   3.757   7.479   7.753
14722SOL    HW156639   3.778   7.463   7.849
14722SOL    HW256640   3.743   7.392   7.707
14723SOL     OW56641   0.036   8.573   8.620
14723SOL    HW156642   0.038   8.672   8.638
14723SOL    HW256643   8.942   8.542   8.618
14724SOL     OW56644   0.432   8.458   7.952
14724SOL    HW156645   0.466   8.505   7.871
14724SOL    HW256646   0.503   8.456   8.022
14725SOL     OW56647   7.088   8.665   8.163
14725SOL    HW156648   7.006   8.695   8.113
14725SOL    HW256649   7.075   8.683   8.261
14726SOL     OW56650   1.308   8.216   8.095
14726SOL    HW156651   1.344   8.170   8.013
14726SOL    HW256652   1.209   8.204   8.099
14727SOL     OW56653   1.249   8.487   8.018
14727SOL    HW156654   1.285   8.396   8.039
14727SOL    HW256655   1.255   8.545   8.100
14728SOL     OW56656   3.015   7.725   8.765
14728SOL    HW156657   3.054   7.740   8.674
14728SOL    HW256658   3.036   7.633   8.796
14729SOL     OW56659   4.630   8.620   8.461
14729SOL    HW156660   4.564   8.695   8.473
14729SOL    HW256661   4.659   8.587   8.550
14730SOL     OW56662   3.536   7.568   7.520
14730SOL    HW156663   3.546   7.610   7.610
14730SOL    HW256664   3.625   7.536   7.488
14731SOL     OW56665   6.371   8.778   7.944
14731SOL    HW156666   6.292   8.719   7.961
14731SOL    HW256667   6.339   8.869   7.916
14732SOL     OW56668   2.329   8.390   8.274
14732SOL    HW156669   2.358   8.294   8.275
14732SOL    HW256670   2.409   8.449   8.282
14733SOL     OW56671   4.011   7.660   8.743
14733SOL    HW156672   4.066   7.739   8.715
14733SOL    HW256673   4.006   7.657   8.843
14734SOL     OW56674   5.541   7.924   7.570
14734SOL    HW156675   5.495   7.844   7.531
14734SOL    HW256676   5.560   7.906   7.667
14735SOL     OW56677   2.763   8.390   8.247
14735SOL    HW156678   2.682   8.439   8.277
14735SOL    HW256679   2.763   8.298   8.287
14736SOL     OW56680   4.807   8.583   7.415
14736SOL    HW156681   4.801   8.676   7.381
14736SOL    HW256682   4.871   8.531   7.358
14737SOL     OW56683   1.332   7.410   8.393
14737SOL    HW156684   1.259   7.453   8.447
14737SOL    HW256685   1.411   7.471   8.390
14738SOL     OW56686   0.442   7.926   8.933
14738SOL    HW156687   0.416   7.917   0.029
14738SOL    HW256688   0.360   7.930   8.877
14739SOL     OW56689   0.419   7.694   7.719
14739SOL    HW156690   0.389   7.773   7.664
14739SOL    HW256691   0.418   7.612   7.662
14740SOL     OW56692   5.098   8.074   7.921
14740SOL    HW156693   5.099   8.170   7.891
14740SOL    HW256694   5.182   8.029   7.892
14741SOL     OW56695   0.934   8.757   8.947
14741SOL    HW156696   0.860   8.728   8.887
14741SOL    HW256697   0.899   8.769   0.040
14742SOL     OW56698   0.484   8.180   8.594
14742SOL    HW156699   0.511   8.221   8.507
14742SOL    HW256700   0.386   8.160   8.592
14743SOL     OW56701   2.494   8.723   8.112
14743SOL    HW156702   2.411   8.775   8.134
14743SOL    HW256703   2.490   8.694   8.016
14744SOL     OW56704   0.278   8.337   7.381
14744SOL    HW156705   0.341   8.369   7.310
14744SOL    HW256706   0.273   8.237   7.378
14745SOL     OW56707   6.627   8.679   8.982
14745SOL    HW156708   6.559   8.732   8.931
14745SOL    HW256709   6.616   8.582   8.961
14746SOL     OW56710   1.383   7.657   8.632
14746SOL    HW156711   1.290   7.627   8.608
14746SOL    HW256712   1.443   7.643   8.553
14747SOL     OW56713   4.657   8.019   8.177
14747SOL    HW156714   4.751   8.028   8.142
14747SOL    HW256715   4.640   8.091   8.245
14748SOL     OW56716   1.257   8.882   8.180
14748SOL    HW156717   1.260   8.787   8.211
14748SOL    HW256718   1.333   8.899   8.118
14749SOL     OW56719   0.517   8.291   8.333
14749SOL    HW156720   0.421   8.316   8.331
14749SOL    HW256721   0.569   8.352   8.273
14750SOL     OW56722   6.855   8.765   8.057
14750SOL    HW156723   6.765   8.793   8.089
14750SOL    HW256724   6.845   8.702   7.979
14751SOL     OW56725   0.551   7.746   7.955
14751SOL    HW156726   0.514   7.832   7.991
14751SOL    HW256727   0.509   7.725   7.867
14752SOL     OW56728   6.294   8.394   8.991
14752SOL    HW156729   6.319   8.451   0.069
14752SOL    HW256730   6.202   8.417   8.961
14753SOL     OW56731   3.331   8.990   8.272
14753SOL    HW156732   3.427   0.017   8.263
14753SOL    HW256733   3.293   0.029   8.355
14754SOL     OW56734   4.606   8.214   8.364
14754SOL    HW156735   4.508   8.232   8.371
14754SOL    HW256736   4.653   8.297   8.332
14755SOL     OW56737   1.758   0.038   7.819
14755SOL    HW156738   1.682   0.048   7.755
14755SOL    HW256739   1.801   8.949   7.806
14756SOL     OW56740   7.165   7.707   7.724
14756SOL    HW156741   7.138   7.665   7.811
14756SOL    HW256742   7.115   7.792   7.712
14757SOL     OW56743   5.538   8.143   7.413
14757SOL    HW156744   5.458   8.197   7.436
14757SOL    HW256745   5.546   8.066   7.477
14758SOL     OW56746   2.204   8.161   7.750
14758SOL    HW156747   2.298   8.181   7.777
14758SOL    HW256748   2.158   8.112   7.824
14759SOL     OW56749   3.010   8.955   8.463
14759SOL    HW156750   3.001   8.863   8.424
14759SOL    HW256751   2.924   8.981   8.507
14760SOL     OW56752   3.558   8.599   8.352
14760SOL    HW156753   3.583   8.517   8.300
14760SOL    HW256754   3.635   8.663   8.350
14761SOL     OW56755   3.218   8.024   8.245
14761SOL    HW156756   3.151   8.039   8.172
14761SOL    HW256757   3.277   8.104   8.254
14762SOL     OW56758   6.892   8.749   8.940
14762SOL    HW156759   6.937   8.742   0.029
14762SOL    HW256760   6.794   8.731   8.951
14763SOL     OW56761   5.610   7.635   8.710
14763SOL    HW156762   5.554   7.666   8.787
14763SOL    HW256763   5.558   7.645   8.625
14764SOL     OW56764   5.916   8.545   7.912
14764SOL    HW156765   5.902   8.446   7.920
14764SOL    HW256766   6.012   8.566   7.932
14765SOL     OW56767   2.679   8.242   8.600
14765SOL    HW156768   2.754   8.225   8.663
14765SOL    HW256769   2.702   8.204   8.510
14766SOL     OW56770   3.331   8.713   8.240
14766SOL    HW156771   3.410   8.677   8.290
14766SOL    HW256772   3.325   8.812   8.253
14767SOL     OW56773   2.304   7.322   7.889
14767SOL    HW156774   2.236   7.333   7.962
14767SOL    HW256775   2.259   7.330   7.800
14768SOL     OW56776   3.165   8.894   0.187
14768SOL    HW156777   3.129   8.852   0.270
14768SOL    HW256778   3.259   8.924   0.203
14769SOL     OW56779   1.452   8.094   0.145
14769SOL    HW156780   1.443   8.100   0.244
14769SOL    HW256781   1.472   7.999   0.120
14770SOL     OW56782   6.524   8.639   7.763
14770SOL    HW156783   6.475   8.691   7.832
14770SOL    HW256784   6.525   8.691   7.677
14771SOL     OW56785   6.519   7.814   0.206
14771SOL    HW156786   6.487   7.876   0.278
14771SOL    HW256787   6.588   7.862   0.151
14772SOL     OW56788   4.958   7.760   8.855
14772SOL    HW156789   4.874   7.733   8.807
14772SOL    HW256790   5.013   7.679   8.874
14773SOL     OW56791   1.650   8.445   7.431
14773SOL    HW156792   1.739   8.408   7.460
14773SOL    HW256793   1.632   8.530   7.480
14774SOL     OW56794   0.055   0.020   8.075
14774SOL    HW156795   0.020   8.941   8.024
14774SOL    HW256796   0.124   0.068   8.019
14775SOL     OW56797   2.153   8.674   7.383
14775SOL    HW156798   2.142   8.729   7.466
14775SOL    HW256799   2.066   8.667   7.336
14776SOL     OW56800   5.046   8.414   8.617
14776SOL    HW156801   5.035   8.372   8.527
14776SOL    HW256802   4.973   8.384   8.678
14777SOL     OW56803   3.659   8.120   7.987
14777SOL    HW156804   3.589   8.191   7.974
14777SOL    HW256805   3.750   8.162   7.984
14778SOL     OW56806   2.050   7.535   7.815
14778SOL    HW156807   1.980   7.464   7.827
14778SOL    HW256808   2.120   7.503   7.751
14779SOL     OW56809   4.432   8.804   8.530
14779SOL    HW156810   4.441   8.895   8.571
14779SOL    HW256811   4.390   8.742   8.596
14780SOL     OW56812   3.069   8.690   8.369
14780SOL    HW156813   3.064   8.660   8.464
14780SOL    HW256814   3.162   8.677   8.335
14781SOL     OW56815   2.168   8.030   7.507
14781SOL    HW156816   2.108   7.955   7.533
14781SOL    HW256817   2.180   8.092   7.585
14782SOL     OW56818   5.456   8.870   7.598
14782SOL    HW156819   5.395   8.797   7.567
14782SOL    HW256820   5.494   8.847   7.687
14783SOL     OW56821   1.255   8.827   7.425
14783SOL    HW156822   1.353   8.846   7.436
14783SOL    HW256823   1.208   8.911   7.398
14784SOL     OW56824   5.204   8.604   7.847
14784SOL    HW156825   5.182   8.649   7.933
14784SOL    HW256826   5.153   8.647   7.773
14785SOL     OW56827   6.812   0.350   0.058
14785SOL    HW156828   6.872   0.342   0.137
14785SOL    HW256829   6.760   0.265   0.047
14786SOL     OW56830   2.007   7.663   7.456
14786SOL    HW156831   1.943   7.694   7.385
14786SOL    HW256832   2.007   7.729   7.531
14787SOL     OW56833   1.981   8.228   8.805
14787SOL    HW156834   1.946   8.140   8.772
14787SOL    HW256835   1.941   8.301   8.751
14788SOL     OW56836   6.598   8.189   0.145
14788SOL    HW156837   6.606   8.223   0.239
14788SOL    HW256838   6.502   8.174   0.123
14789SOL     OW56839   0.946   8.910   8.497
14789SOL    HW156840   0.979   8.918   8.591
14789SOL    HW256841   1.006   8.961   8.436
14790SOL     OW56842   2.741   7.433   8.625
14790SOL    HW156843   2.673   7.422   8.553
14790SOL    HW256844   2.741   7.529   8.656
14791SOL     OW56845   6.453   0.045   8.697
14791SOL    HW156846   6.353   0.056   8.697
14791SOL    HW256847   6.496   0.125   8.739
14792SOL     OW56848   2.348   8.703   8.452
14792SOL    HW156849   2.376   8.730   8.544
14792SOL    HW256850   2.269   8.643   8.457
14793SOL     OW56851   0.909   8.470   8.091
14793SOL    HW156852   0.940   8.523   8.170
14793SOL    HW256853   0.943   8.512   8.007
14794SOL     OW56854   4.053   8.118   7.828
14794SOL    HW156855   4.084   8.139   7.921
14794SOL    HW256856   4.026   8.022   7.822
14795SOL     OW56857   2.453   8.098   7.494
14795SOL    HW156858   2.458   8.155   7.577
14795SOL    HW256859   2.361   8.060   7.486
14796SOL     OW56860   4.758   8.437   8.292
14796SOL    HW156861   4.717   8.509   8.348
14796SOL    HW256862   4.795   8.478   8.208
14797SOL     OW56863   3.962   8.766   7.990
14797SOL    HW156864   3.875   8.806   8.016
14797SOL    HW256865   3.947   8.678   7.946
14798SOL     OW56866   6.187   8.763   8.982
14798SOL    HW156867   6.096   8.734   8.952
14798SOL    HW256868   6.179   8.814   0.068
14799SOL     OW56869   2.702   7.979   7.492
14799SOL    HW156870   2.608   8.014   7.492
14799SOL    HW256871   2.703   7.888   7.534
14800SOL     OW56872   5.577   8.266   8.598
14800SOL    HW156873   5.580   8.293   8.694
14800SOL    HW256874   5.535   8.176   8.589
14801SOL     OW56875   1.532   8.838   7.419
14801SOL    HW156876   1.571   8.783   7.493
14801SOL    HW256877   1.604   8.895   7.379
14802SOL     OW56878   5.266   7.327   7.687
14802SOL    HW156879   5.193   7.396   7.693
14802SOL    HW256880   5.260   7.280   7.599
14803SOL     OW56881   0.203   7.672   8.365
14803SOL    HW156882   0.263   7.715   8.432
14803SOL    HW256883   0.168   7.741   8.302
14804SOL     OW56884   0.664   8.812   7.830
14804SOL    HW156885   0.581   8.867   7.839
14804SOL    HW256886   0.719   8.822   7.913
14805SOL     OW56887   1.901   8.373   7.520
14805SOL    HW156888   1.912   8.299   7.454
14805SOL    HW256889   1.990   8.397   7.558
14806SOL     OW56890   1.139   7.534   8.558
14806SOL    HW156891   1.048   7.557   8.522
14806SOL    HW256892   1.129   7.488   8.646
14807SOL     OW56893   3.869   8.308   8.015
14807SOL    HW156894   3.853   8.394   7.968
14807SOL    HW256895   3.961   8.307   8.054
14808SOL     OW56896   5.404   7.702   7.473
14808SOL    HW156897   5.332   7.653   7.425
14808SOL    HW256898   5.493   7.666   7.445
14809SOL     OW56899   3.374   8.204   8.559
14809SOL    HW156900   3.353   8.106   8.560
14809SOL    HW256901   3.299   8.254   8.600
14810SOL     OW56902   0.357   8.359   8.803
14810SOL    HW156903   0.436   8.308   8.771
14810SOL    HW256904   0.327   8.423   8.732
14811SOL     OW56905   5.893   8.268   7.918
14811SOL    HW156906   5.979   8.264   7.867
14811SOL    HW256907   5.817   8.248   7.856
14812SOL     OW56908   4.443   7.962   7.508
14812SOL    HW156909   4.448   7.970   7.608
14812SOL    HW256910   4.483   8.043   7.466
14813SOL     OW56911   3.039   8.670   8.651
14813SOL    HW156912   3.085   8.755   8.675
14813SOL    HW256913   2.944   8.673   8.683
14814SOL     OW56914   5.975   7.833   7.314
14814SOL    HW156915   5.981   7.930   7.336
14814SOL    HW256916   5.884   7.812   7.280
14815SOL     OW56917   2.526   8.570   7.593
14815SOL    HW156918   2.460   8.534   7.527
14815SOL    HW256919   2.617   8.568   7.553
14816SOL     OW56920   4.897   8.122   8.601
14816SOL    HW156921   4.817   8.065   8.584
14816SOL    HW256922   4.875   8.190   8.671
14817SOL     OW56923   0.145   8.935   8.898
14817SOL    HW156924   0.239   8.918   8.867
14817SOL    HW256925   0.146   8.961   8.995
14818SOL     OW56926   6.945   7.886   8.308
14818SOL    HW156927   6.929   7.887   8.407
14818SOL    HW256928   6.904   7.967   8.267
14819SOL     OW56929   0.284   8.226   7.932
14819SOL    HW156930   0.345   8.306   7.937
14819SOL    HW256931   0.197   8.247   7.975
14820SOL     OW56932   4.881   8.567   8.073
14820SOL    HW156933   4.910   8.661   8.090
14820SOL    HW256934   4.865   8.554   7.975
14821SOL     OW56935   0.384   7.515   8.953
14821SOL    HW156936   0.387   7.426   8.907
14821SOL    HW256937   0.304   7.566   8.922
14822SOL     OW56938   3.176   7.435   7.975
14822SOL    HW156939   3.102   7.396   7.920
14822SOL    HW256940   3.160   7.416   8.072
14823SOL     OW56941   5.528   7.903   8.335
14823SOL    HW156942   5.582   7.848   8.272
14823SOL    HW256943   5.489   7.981   8.286
14824SOL     OW56944   6.644   7.383   7.931
14824SOL    HW156945   6.581   7.453   7.898
14824SOL    HW256946   6.592   7.300   7.954
14825SOL     OW56947   6.061   7.498   8.482
14825SOL    HW156948   6.036   7.490   8.578
14825SOL    HW256949   6.160   7.489   8.472
14826SOL     OW56950   4.181   7.873   7.516
14826SOL    HW156951   4.120   7.952   7.509
14826SOL    HW256952   4.276   7.904   7.515
14827SOL     OW56953   0.367   7.794   8.542
14827SOL    HW156954   0.460   7.817   8.514
14827SOL    HW256955   0.342   7.850   8.621
14828SOL     OW56956   7.334   7.818   8.252
14828SOL    HW156957   7.326   7.733   8.199
14828SOL    HW256958   7.301   7.895   8.198
14829SOL     OW56959   7.337   7.596   8.092
14829SOL    HW156960   7.412   7.600   8.027
14829SOL    HW256961   7.287   7.510   8.081
14830SOL     OW56962   4.828   8.327   8.771
14830SOL    HW156963   4.758   8.393   8.741
14830SOL    HW256964   4.825   8.318   8.871
14831SOL     OW56965   2.814   8.938   7.749
14831SOL    HW156966   2.812   0.021   7.693
14831SOL    HW256967   2.738   8.940   7.814
14832SOL     OW56968   6.197   7.471   8.123
14832SOL    HW156969   6.215   7.431   8.034
14832SOL    HW256970   6.105   7.446   8.154
14833SOL     OW56971   5.019   8.278   7.585
14833SOL    HW156972   5.016   8.185   7.550
14833SOL    HW256973   4.928   8.320   7.579
14834SOL     OW56974   3.652   8.143   8.522
14834SOL    HW156975   3.557   8.170   8.535
14834SOL    HW256976   3.669   8.128   8.424
14835SOL     OW56977   2.098   8.009   7.961
14835SOL    HW156978   2.047   7.926   7.938
14835SOL    HW256979   2.142   7.998   8.050
14836SOL     OW56980   5.426   8.225   7.717
14836SOL    HW156981   5.377   8.238   7.631
14836SOL    HW256982   5.426   8.311   7.768
14837SOL     OW56983   2.903   8.682   7.732
14837SOL    HW156984   2.877   8.778   7.735
14837SOL    HW256985   2.859   8.638   7.653
14838SOL     OW56986   3.783   7.480   7.420
14838SOL    HW156987   3.832   7.452   7.337
14838SOL    HW256988   3.780   7.403   7.484
14839SOL     OW56989   1.595   8.913   8.675
14839SOL    HW156990   1.577   8.834   8.735
14839SOL    HW256991   1.508   8.946   8.637
14840SOL     OW56992   2.226   8.549   7.871
14840SOL    HW156993   2.324   8.565   7.867
14840SOL    HW256994   2.195   8.509   7.784
14841SOL     OW56995   5.111   7.538   8.896
14841SOL    HW156996   5.071   7.458   8.852
14841SOL    HW256997   5.148   7.512   8.985
14842SOL     OW56998   2.662   8.521   8.577
14842SOL    HW156999   2.631   8.537   8.483
14842SOL    HW257000   2.665   8.422   8.594
14843SOL     OW57001   6.743   7.925   7.989
14843SOL    HW157002   6.840   7.906   8.003
14843SOL    HW257003   6.687   7.861   8.042
14844SOL     OW57004   4.714   8.056   7.705
14844SOL    HW157005   4.729   8.021   7.613
14844SOL    HW257006   4.704   8.156   7.701
14845SOL     OW57007   5.630   7.926   8.782
14845SOL    HW157008   5.572   7.979   8.720
14845SOL    HW257009   5.689   7.866   8.728
14846SOL     OW57010   0.273   8.686   7.688
14846SOL    HW157011   0.371   8.664   7.698
14846SOL    HW257012   0.222   8.602   7.670
14847SOL     OW57013   5.576   8.563   8.178
14847SOL    HW157014   5.657   8.526   8.223
14847SOL    HW257015   5.508   8.491   8.166
14848SOL     OW57016   6.206   7.733   8.692
14848SOL    HW157017   6.293   7.716   8.646
14848SOL    HW257018   6.138   7.765   8.626
14849SOL     OW57019   6.309   7.725   8.148
14849SOL    HW157020   6.277   7.630   8.144
14849SOL    HW257021   6.409   7.726   8.151
14850SOL     OW57022   5.040   7.479   7.703
14850SOL    HW157023   5.020   7.575   7.683
14850SOL    HW257024   5.004   7.456   7.794
14851SOL     OW57025   2.784   8.680   8.760
14851SOL    HW157026   2.732   8.629   8.691
14851SOL    HW257027   2.723   8.744   8.807
14852SOL     OW57028   2.103   7.792   8.541
14852SOL    HW157029   2.008   7.766   8.524
14852SOL    HW257030   2.114   7.891   8.527
14853SOL     OW57031   6.209   8.214   8.590
14853SOL    HW157032   6.283   8.253   8.645
14853SOL    HW257033   6.158   8.147   8.644
14854SOL     OW57034   4.791   8.855   7.336
14854SOL    HW157035   4.741   8.884   7.255
14854SOL    HW257036   4.748   8.895   7.418
14855SOL     OW57037   1.909   7.495   8.184
14855SOL    HW157038   1.870   7.583   8.156
14855SOL    HW257039   1.871   7.469   8.273
14856SOL     OW57040   4.632   7.531   8.548
14856SOL    HW157041   4.611   7.552   8.452
14856SOL    HW257042   4.569   7.461   8.581
14857SOL     OW57043   6.101   8.358   8.373
14857SOL    HW157044   6.044   8.297   8.318
14857SOL    HW257045   6.132   8.310   8.455
14858SOL     OW57046   1.877   8.791   7.793
14858SOL    HW157047   1.795   8.758   7.841
14858SOL    HW257048   1.956   8.782   7.852
14859SOL     OW57049   5.504   0.196   8.421
14859SOL    HW157050   5.465   0.257   8.352
14859SOL    HW257051   5.431   0.140   8.460
14860SOL     OW57052   1.870   8.166   7.337
14860SOL    HW157053   1.947   8.117   7.297
14860SOL    HW257054   1.807   8.193   7.264
14861SOL     OW57055   6.311   8.548   0.220
14861SOL    HW157056   6.367   8.630   0.218
14861SOL    HW257057   6.321   8.503   0.309
14862SOL     OW57058   3.348   8.571   8.006
14862SOL    HW157059   3.343   8.613   8.097
14862SOL    HW257060   3.260   8.580   7.960
14863SOL     OW57061   3.436   7.681   8.545
14863SOL    HW157062   3.396   7.590   8.535
14863SOL    HW257063   3.451   7.701   8.642
14864SOL     OW57064   0.143   8.798   8.397
14864SOL    HW157065   0.139   8.813   8.495
14864SOL    HW257066   0.233   8.825   8.362
14865SOL     OW57067   5.677   7.756   8.146
14865SOL    HW157068   5.688   7.657   8.146
14865SOL    HW257069   5.641   7.787   8.058
14866SOL     OW57070   0.699   8.760   8.473
14866SOL    HW157071   0.737   8.668   8.487
14866SOL    HW257072   0.768   8.828   8.496
14867SOL     OW57073   4.289   7.455   8.430
14867SOL    HW157074   4.346   7.413   8.501
14867SOL    HW257075   4.259   7.384   8.366
14868SOL     OW57076   5.902   7.960   8.222
14868SOL    HW157077   5.997   7.930   8.232
14868SOL    HW257078   5.848   7.886   8.182
14869SOL     OW57079   2.154   8.405   7.635
14869SOL    HW157080   2.224   8.420   7.565
14869SOL    HW257081   2.168   8.316   7.678
14870SOL     OW57082   3.318   7.806   8.120
14870SOL    HW157083   3.367   7.844   8.042
14870SOL    HW257084   3.276   7.880   8.173
14871SOL     OW57085   2.937   8.577   8.152
14871SOL    HW157086   2.980   8.625   8.228
14871SOL    HW257087   2.880   8.503   8.187
14872SOL     OW57088   3.762   8.782   8.335
14872SOL    HW157089   3.761   8.796   8.236
14872SOL    HW257090   3.817   8.853   8.378
14873SOL     OW57091   0.173   7.649   7.441
14873SOL    HW157092   0.089   7.673   7.489
14873SOL    HW257093   0.161   7.664   7.343
14874SOL     OW57094   0.836   8.026   8.138
14874SOL    HW157095   0.841   7.932   8.104
14874SOL    HW257096   0.747   8.041   8.182
14875SOL     OW57097   1.746   8.249   7.712
14875SOL    HW157098   1.809   8.305   7.658
14875SOL    HW257099   1.735   8.159   7.669
14876SOL     OW57100   3.437   7.721   8.816
14876SOL    HW157101   3.515   7.738   8.875
14876SOL    HW257102   3.357   7.698   8.871
14877SOL     OW57103   2.199   7.998   8.213
14877SOL    HW157104   2.150   7.992   8.300
14877SOL    HW257105   2.285   8.047   8.227
14878SOL     OW57106   7.262   7.496   7.581
14878SOL    HW157107   7.264   7.420   7.646
14878SOL    HW257108   7.225   7.578   7.625
14879SOL     OW57109   3.386   8.230   8.286
14879SOL    HW157110   3.378   8.236   8.385
14879SOL    HW257111   3.461   8.289   8.255
14880SOL     OW57112   6.886   7.455   7.600
14880SOL    HW157113   6.835   7.380   7.644
14880SOL    HW257114   6.876   7.538   7.655
14881SOL     OW57115   1.925   8.654   8.382
14881SOL    HW157116   1.841   8.620   8.425
14881SOL    HW257117   2.003   8.601   8.415
14882SOL     OW57118   5.235   8.227   8.395
14882SOL    HW157119   5.290   8.186   8.323
14882SOL    HW257120   5.140   8.237   8.364
14883SOL     OW57121   3.511   7.667   8.281
14883SOL    HW157122   3.479   7.675   8.375
14883SOL    HW257123   3.449   7.715   8.220
14884SOL     OW57124   1.113   8.762   7.662
14884SOL    HW157125   1.015   8.753   7.643
14884SOL    HW257126   1.162   8.780   7.577
14885SOL     OW57127   5.163   8.725   8.093
14885SOL    HW157128   5.159   8.678   8.181
14885SOL    HW257129   5.254   8.766   8.081
14886SOL     OW57130   2.434   8.780   8.703
14886SOL    HW157131   2.353   8.838   8.718
14886SOL    HW257132   2.498   8.792   8.779
14887SOL     OW57133   6.983   7.628   8.226
14887SOL    HW157134   6.974   7.724   8.253
14887SOL    HW257135   6.893   7.591   8.204
14888SOL     OW57136   5.010   8.030   7.479
14888SOL    HW157137   5.085   7.971   7.509
14888SOL    HW257138   4.925   7.978   7.480
14889SOL     OW57139   3.372   8.053   7.669
14889SOL    HW157140   3.300   8.023   7.607
14889SOL    HW257141   3.453   8.079   7.616
14890SOL     OW57142   1.026   8.993   0.170
14890SOL    HW157143   1.120   8.993   0.136
14890SOL    HW257144   1.008   0.080   0.217
14891SOL     OW57145   5.440   7.769   8.900
14891SOL    HW157146   5.350   7.806   8.876
14891SOL    HW257147   5.510   7.837   8.877
14892SOL     OW57148   4.156   7.779   8.135
14892SOL    HW157149   4.067   7.736   8.120
14892SOL    HW257150   4.212   7.768   8.054
14893SOL     OW57151   1.506   7.850   8.266
14893SOL    HW157152   1.417   7.860   8.311
14893SOL    HW257153   1.535   7.939   8.230
14894SOL     OW57154   4.912   7.403   7.934
14894SOL    HW157155   4.868   7.490   7.957
14894SOL    HW257156   4.849   7.346   7.882
14895SOL     OW57157   4.293   8.269   7.461
14895SOL    HW157158   4.291   8.248   7.559
14895SOL    HW257159   4.384   8.250   7.424
14896SOL     OW57160   5.389   8.433   8.488
14896SOL    HW157161   5.468   8.388   8.529
14896SOL    HW257162   5.321   8.364   8.463
14897SOL     OW57163   6.791   8.593   7.845
14897SOL    HW157164   6.853   8.636   7.779
14897SOL    HW257165   6.696   8.606   7.814
14898SOL     OW57166   5.320   0.028   8.520
14898SOL    HW157167   5.271   0.085   8.586
14898SOL    HW257168   5.278   8.938   8.517
14899SOL     OW57169   4.352   8.861   8.271
14899SOL    HW157170   4.255   8.838   8.261
14899SOL    HW257171   4.383   8.835   8.362
14900SOL     OW57172   1.667   8.257   8.432
14900SOL    HW157173   1.621   8.253   8.521
14900SOL    HW257174   1.608   8.216   8.363
14901SOL     OW57175   0.612   8.877   0.015
14901SOL    HW157176   0.644   8.823   0.093
14901SOL    HW257177   0.672   8.955   0.002
14902SOL     OW57178   0.189   7.583   7.840
14902SOL    HW157179   0.271   7.630   7.805
14902SOL    HW257180   0.195   7.486   7.817
14903SOL     OW57181   2.373   8.939   7.530
14903SOL    HW157182   2.292   8.989   7.499
14903SOL    HW257183   2.349   8.882   7.609
14904SOL     OW57184   2.761   8.135   8.360
14904SOL    HW157185   2.701   8.060   8.330
14904SOL    HW257186   2.851   8.098   8.383
14905SOL     OW57187   4.298   8.188   7.723
14905SOL    HW157188   4.204   8.175   7.754
14905SOL    HW257189   4.353   8.109   7.751
14906SOL     OW57190   6.623   8.112   8.422
14906SOL    HW157191   6.647   8.158   8.507
14906SOL    HW257192   6.524   8.119   8.408
14907SOL     OW57193   4.000   8.010   8.235
14907SOL    HW157194   4.048   8.074   8.175
14907SOL    HW257195   4.031   7.917   8.215
14908SOL     OW57196   6.417   8.014   7.781
14908SOL    HW157197   6.446   8.087   7.843
14908SOL    HW257198   6.388   7.935   7.835
14909SOL     OW57199   4.806   7.597   7.485
14909SOL    HW157200   4.870   7.652   7.538
14909SOL    HW257201   4.723   7.649   7.467
14910SOL     OW57202   4.412   8.428   8.955
14910SOL    HW157203   4.507   8.418   8.983
14910SOL    HW257204   4.358   8.354   8.994
14911SOL     OW57205   4.573   7.536   7.932
14911SOL    HW157206   4.587   7.505   7.838
14911SOL    HW257207   4.653   7.588   7.962
14912SOL     OW57208   3.844   7.377   8.442
14912SOL    HW157209   3.921   7.386   8.505
14912SOL    HW257210   3.812   7.468   8.416
14913SOL     OW57211   3.586   8.647   7.622
14913SOL    HW157212   3.656   8.576   7.619
14913SOL    HW257213   3.618   8.729   7.575
14914SOL     OW57214   2.886   8.763   7.340
14914SOL    HW157215   2.918   8.846   7.386
14914SOL    HW257216   2.945   8.744   7.261
14915SOL     OW57217   6.348   7.614   7.355
14915SOL    HW157218   6.383   7.708   7.359
14915SOL    HW257219   6.423   7.552   7.332
14916SOL     OW57220   5.429   8.779   8.074
14916SOL    HW157221   5.477   8.799   7.989
14916SOL    HW257222   5.476   8.705   8.122
14917SOL     OW57223   3.616   8.372   8.208
14917SOL    HW157224   3.597   8.372   8.110
14917SOL    HW257225   3.683   8.300   8.229
14918SOL     OW57226   0.630   8.091   8.813
14918SOL    HW157227   0.568   8.034   8.867
14918SOL    HW257228   0.584   8.122   8.730
14919SOL     OW57229   6.992   8.281   8.709
14919SOL    HW157230   7.001   8.340   8.629
14919SOL    HW257231   7.019   8.331   8.791
14920SOL     OW57232   6.713   8.208   8.675
14920SOL    HW157233   6.703   8.115   8.710
14920SOL    HW257234   6.807   8.238   8.686
14921SOL     OW57235   5.640   8.058   8.019
14921SOL    HW157236   5.711   8.128   8.012
14921SOL    HW257237   5.570   8.088   8.084
14922SOL     OW57238   0.251   8.355   8.336
14922SOL    HW157239   0.200   8.436   8.307
14922SOL    HW257240   0.194   8.273   8.325
14923SOL     OW57241   1.940   8.248   8.409
14923SOL    HW157242   1.961   8.255   8.311
14923SOL    HW257243   1.840   8.246   8.421
14924SOL     OW57244   6.177   8.030   7.663
14924SOL    HW157245   6.129   7.944   7.678
14924SOL    HW257246   6.270   8.023   7.700
14925SOL     OW57247   5.475   8.511   7.372
14925SOL    HW157248   5.550   8.487   7.433
14925SOL    HW257249   5.405   8.562   7.423
14926SOL     OW57250   5.267   7.547   8.662
14926SOL    HW157251   5.220   7.566   8.748
14926SOL    HW257252   5.321   7.627   8.635
14927SOL     OW57253   1.123   0.325   8.835
14927SOL    HW157254   1.182   0.385   8.782
14927SOL    HW257255   1.162   0.233   8.839
14928SOL     OW57256   2.082   8.755   7.978
14928SOL    HW157257   2.124   8.786   8.063
14928SOL    HW257258   2.137   8.681   7.939
14929SOL     OW57259   4.094   8.801   8.231
14929SOL    HW157260   4.044   8.782   8.146
14929SOL    HW257261   4.099   8.717   8.286
14930SOL     OW57262   5.734   7.329   8.557
14930SOL    HW157263   5.781   7.401   8.609
14930SOL    HW257264   5.801   7.276   8.505
14931SOL     OW57265   3.526   7.706   7.792
14931SOL    HW157266   3.500   7.615   7.825
14931SOL    HW257267   3.464   7.774   7.830
14932SOL     OW57268   1.937   0.339   8.337
14932SOL    HW157269   1.898   0.283   8.410
14932SOL    HW257270   2.006   0.399   8.375
14933SOL     OW57271   3.031   7.762   7.663
14933SOL    HW157272   3.051   7.685   7.602
14933SOL    HW257273   3.072   7.745   7.752
14934SOL     OW57274   1.697   8.533   8.491
14934SOL    HW157275   1.611   8.572   8.524
14934SOL    HW257276   1.679   8.443   8.450
14935SOL     OW57277   5.713   7.472   8.134
14935SOL    HW157278   5.804   7.457   8.171
14935SOL    HW257279   5.693   7.401   8.066
14936SOL     OW57280   3.071   7.464   8.850
14936SOL    HW157281   3.153   7.425   8.809
14936SOL    HW257282   3.015   7.391   8.889
14937SOL     OW57283   2.127   8.409   8.089
14937SOL    HW157284   2.157   8.460   8.009
14937SOL    HW257285   2.200   8.407   8.157
14938SOL     OW57286   6.323   7.463   8.371
14938SOL    HW157287   6.375   7.377   8.376
14938SOL    HW257288   6.280   7.471   8.282
14939SOL     OW57289   0.955   8.701   8.307
14939SOL    HW157290   0.956   8.782   8.365
14939SOL    HW257291   0.916   8.624   8.357
14940SOL     OW57292   2.996   8.010   8.417
14940SOL    HW157293   3.007   7.926   8.470
14940SOL    HW257294   3.078   8.026   8.361
14941SOL     OW57295   5.599   8.853   7.858
14941SOL    HW157296   5.663   8.817   7.926
14941SOL    HW257297   5.592   8.952   7.868
14942SOL     OW57298   4.063   8.115   7.433
14942SOL    HW157299   4.044   8.081   7.341
14942SOL    HW257300   4.144   8.173   7.432
14943SOL     OW57301   4.978   7.738   7.648
14943SOL    HW157302   5.064   7.780   7.619
14943SOL    HW257303   4.938   7.792   7.723
14944SOL     OW57304   0.408   8.900   8.833
14944SOL    HW157305   0.475   8.889   8.906
14944SOL    HW257306   0.426   8.833   8.761
14945SOL     OW57307   4.326   7.800   8.842
14945SOL    HW157308   4.295   7.821   8.934
14945SOL    HW257309   4.416   7.841   8.827
14946SOL     OW57310   2.132   8.060   8.484
14946SOL    HW157311   2.062   8.130   8.469
14946SOL    HW257312   2.214   8.103   8.521
14947SOL     OW57313   0.407   7.984   8.034
14947SOL    HW157314   0.381   8.075   8.001
14947SOL    HW257315   0.331   7.920   8.021
14948SOL     OW57316   1.267   7.472   8.981
14948SOL    HW157317   1.211   7.438   8.906
14948SOL    HW257318   1.208   7.512   0.051
14949SOL     OW57319   2.213   8.351   8.704
14949SOL    HW157320   2.139   8.300   8.749
14949SOL    HW257321   2.247   8.421   8.767
14950SOL     OW57322   6.610   7.639   7.634
14950SOL    HW157323   6.585   7.718   7.579
14950SOL    HW257324   6.699   7.656   7.678
14951SOL     OW57325   0.061   8.157   8.298
14951SOL    HW157326   8.997   8.156   8.222
14951SOL    HW257327   0.011   8.168   8.384
14952SOL     OW57328   6.672   7.926   7.444
14952SOL    HW157329   6.715   8.001   7.393
14952SOL    HW257330   6.685   7.942   7.542
14953SOL     OW57331   5.335   7.984   7.808
14953SOL    HW157332   5.368   8.073   7.777
14953SOL    HW257333   5.414   7.926   7.832
14954SOL     OW57334   1.531   7.609   8.405
14954SOL    HW157335   1.625   7.585   8.428
14954SOL    HW257336   1.531   7.689   8.345
14955SOL     OW57337   4.945   8.714   8.763
14955SOL    HW157338   5.038   8.678   8.756
14955SOL    HW257339   4.929   8.778   8.688
14956SOL     OW57340   4.637   7.810   8.359
14956SOL    HW157341   4.593   7.725   8.332
14956SOL    HW257342   4.650   7.868   8.278
14957SOL     OW57343   3.523   8.071   8.904
14957SOL    HW157344   3.439   8.016   8.907
14957SOL    HW257345   3.587   8.029   8.840
14958SOL     OW57346   3.866   7.455   8.010
14958SOL    HW157347   3.886   7.379   8.072
14958SOL    HW257348   3.878   7.541   8.059
14959SOL     OW57349   3.716   8.853   8.067
14959SOL    HW157350   3.662   8.794   8.007
14959SOL    HW257351   3.659   8.930   8.097
14960SOL     OW57352   5.115   8.339   7.836
14960SOL    HW157353   5.079   8.317   7.746
14960SOL    HW257354   5.150   8.432   7.836
14961SOL     OW57355   4.716   7.685   8.753
14961SOL    HW157356   4.655   7.763   8.770
14961SOL    HW257357   4.687   7.638   8.670
14962SOL     OW57358   3.667   8.264   0.029
14962SOL    HW157359   3.759   8.250   8.992
14962SOL    HW257360   3.604   8.199   8.986
14963SOL     OW57361   4.952   8.899   8.539
14963SOL    HW157362   5.041   8.859   8.520
14963SOL    HW257363   4.964   8.992   8.575
14964SOL     OW57364   1.957   8.201   8.106
14964SOL    HW157365   2.005   8.133   8.051
14964SOL    HW257366   2.006   8.288   8.102
14965SOL     OW57367   7.096   8.453   8.903
14965SOL    HW157368   7.142   8.498   8.827
14965SOL    HW257369   7.103   8.509   8.985
14966SOL     OW57370   0.624   8.738   8.209
14966SOL    HW157371   0.651   8.755   8.303
14966SOL    HW257372   0.698   8.765   8.147
14967SOL     OW57373   6.153   8.942   0.204
14967SOL    HW157374   6.095   8.991   0.139
14967SOL    HW257375   6.246   8.977   0.199
14968SOL     OW57376   6.413   7.684   8.521
14968SOL    HW157377   6.486   7.736   8.478
14968SOL    HW257378   6.390   7.605   8.464
14969SOL     OW57379   5.201   8.608   8.724
14969SOL    HW157380   5.288   8.576   8.761
14969SOL    HW257381   5.151   8.532   8.683
14970SOL     OW57382   1.079   0.050   8.301
14970SOL    HW157383   1.147   8.996   8.252
14970SOL    HW257384   1.020   0.097   8.235
14971SOL     OW57385   5.860   7.523   8.708
14971SOL    HW157386   5.920   7.561   8.779
14971SOL    HW257387   5.771   7.569   8.711
14972SOL     OW57388   0.719   8.477   7.560
14972SOL    HW157389   0.680   8.435   7.478
14972SOL    HW257390   0.759   8.406   7.617
14973SOL     OW57391   1.551   8.708   8.856
14973SOL    HW157392   1.609   8.633   8.886
14973SOL    HW257393   1.491   8.736   8.931
14974SOL     OW57394   5.379   8.379   8.094
14974SOL    HW157395   5.281   8.395   8.105
14974SOL    HW257396   5.406   8.403   8.001
14975SOL     OW57397   3.193   7.623   8.299
14975SOL    HW157398   3.232   7.678   8.225
14975SOL    HW257399   3.155   7.538   8.262
14976SOL     OW57400   5.955   7.399   8.251
14976SOL    HW157401   5.988   7.444   8.334
14976SOL    HW257402   5.933   7.304   8.271
14977SOL     OW57403   3.895   7.680   7.631
14977SOL    HW157404   3.921   7.646   7.541
14977SOL    HW257405   3.850   7.607   7.683
14978SOL     OW57406   3.729   7.839   7.967
14978SOL    HW157407   3.664   7.787   7.911
14978SOL    HW257408   3.702   7.935   7.969
14979SOL     OW57409   0.365   8.837   8.224
14979SOL    HW157410   0.461   8.806   8.221
14979SOL    HW257411   0.312   8.787   8.155
14980SOL     OW57412   3.301   7.349   8.746
14980SOL    HW157413   3.329   7.254   8.729
14980SOL    HW257414   3.304   7.400   8.660
14981SOL     OW57415   5.783   7.907   8.467
14981SOL    HW157416   5.829   7.943   8.386
14981SOL    HW257417   5.684   7.912   8.454
14982SOL     OW57418   4.922   8.090   8.137
14982SOL    HW157419   4.991   8.084   8.065
14982SOL    HW257420   4.952   8.155   8.206
14983SOL     OW57421   7.054   8.733   8.434
14983SOL    HW157422   7.123   8.799   8.403
14983SOL    HW257423   7.023   8.757   8.525
14984SOL     OW57424   7.017   8.808   8.703
14984SOL    HW157425   6.965   8.778   8.783
14984SOL    HW257426   7.038   8.905   8.712
14985SOL     OW57427   0.844   7.537   8.506
14985SOL    HW157428   0.854   7.446   8.545
14985SOL    HW257429   0.754   7.545   8.463
14986SOL     OW57430   1.759   8.020   7.546
14986SOL    HW157431   1.688   7.958   7.513
14986SOL    HW257432   1.794   8.074   7.470
14987SOL     OW57433   0.812   7.764   8.063
14987SOL    HW157434   0.843   7.683   8.113
14987SOL    HW257435   0.722   7.746   8.024
14988SOL     OW57436   6.242   8.126   7.416
14988SOL    HW157437   6.223   8.095   7.510
14988SOL    HW257438   6.157   8.128   7.364
14989SOL     OW57439   5.927   8.309   7.528
14989SOL    HW157440   5.984   8.289   7.607
14989SOL    HW257441   5.950   8.247   7.453
14990SOL     OW57442   3.439   7.457   7.880
14990SOL    HW157443   3.351   7.444   7.926
14990SOL    HW257444   3.500   7.380   7.901
14991SOL     OW57445   0.583   7.555   8.397
14991SOL    HW157446   0.594   7.654   8.395
14991SOL    HW257447   0.510   7.528   8.334
14992SOL     OW57448   0.741   8.300   8.980
14992SOL    HW157449   0.702   8.226   8.925
14992SOL    HW257450   0.837   8.312   8.956
14993SOL     OW57451   2.159   8.504   8.466
14993SOL    HW157452   2.205   8.454   8.393
14993SOL    HW257453   2.166   8.453   8.551
14994SOL     OW57454   4.561   7.716   7.461
14994SOL    HW157455   4.510   7.802   7.460
14994SOL    HW257456   4.501   7.641   7.489
14995SOL     OW57457   6.686   7.949   8.756
14995SOL    HW157458   6.732   7.879   8.702
14995SOL    HW257459   6.589   7.925   8.767
14996SOL     OW57460   5.455   8.022   8.583
14996SOL    HW157461   5.466   7.975   8.496
14996SOL    HW257462   5.359   8.024   8.609
14997SOL     OW57463   0.211   7.918   8.782
14997SOL    HW157464   0.152   7.937   8.703
14997SOL    HW257465   0.156   7.924   8.866
14998SOL     OW57466   0.622   7.832   8.431
14998SOL    HW157467   0.605   7.900   8.360
14998SOL    HW257468   0.705   7.856   8.482
14999SOL     OW57469   7.018   8.275   8.305
14999SOL    HW157470   7.108   8.247   8.271
14999SOL    HW257471   6.948   8.217   8.266
15000SOL     OW57472   0.878   7.976   8.755
15000SOL    HW157473   0.862   7.877   8.753
15000SOL    HW257474   0.793   8.023   8.780
15001SOL     OW57475   3.888   8.215   7.619
15001SOL    HW157476   3.942   8.179   7.543
15001SOL    HW257477   3.932   8.190   7.706
15002SOL     OW57478   3.374   7.371   7.627
15002SOL    HW157479   3.392   7.390   7.723
15002SOL    HW257480   3.429   7.432   7.570
15003SOL     OW57481   1.587   7.818   7.441
15003SOL    HW157482   1.549   7.775   7.523
15003SOL    HW257483   1.522   7.809   7.365
15004SOL     OW57484   3.889   7.694   8.142
15004SOL    HW157485   3.852   7.680   8.234
15004SOL    HW257486   3.826   7.750   8.089
15005SOL     OW57487   5.608   8.827   8.795
15005SOL    HW157488   5.558   8.764   8.736
15005SOL    HW257489   5.661   8.891   8.739
15006SOL     OW57490   6.543   7.375   7.565
15006SOL    HW157491   6.567   7.466   7.599
15006SOL    HW257492   6.540   7.376   7.465
15007SOL     OW57493   4.372   8.022   8.193
15007SOL    HW157494   4.333   7.931   8.208
15007SOL    HW257495   4.469   8.012   8.169
15008SOL     OW57496   2.764   7.715   7.576
15008SOL    HW157497   2.737   7.624   7.608
15008SOL    HW257498   2.855   7.737   7.612
15009SOL     OW57499   5.205   8.569   8.322
15009SOL    HW157500   5.167   8.497   8.263
15009SOL    HW257501   5.279   8.531   8.377
15010SOL     OW57502   6.853   7.685   7.750
15010SOL    HW157503   6.904   7.657   7.832
15010SOL    HW257504   6.883   7.777   7.723
15011SOL     OW57505   4.514   7.569   8.294
15011SOL    HW157506   4.428   7.546   8.340
15011SOL    HW257507   4.517   7.525   8.205
15012SOL     OW57508   6.024   7.776   8.490
15012SOL    HW157509   5.932   7.815   8.497
15012SOL    HW257510   6.017   7.677   8.479
15013SOL     OW57511   6.073   7.777   7.708
15013SOL    HW157512   5.977   7.754   7.727
15013SOL    HW257513   6.103   7.727   7.627
15014SOL     OW57514   2.794   8.562   7.503
15014SOL    HW157515   2.843   8.478   7.482
15014SOL    HW257516   2.821   8.634   7.439
15015SOL     OW57517   6.274   8.514   8.234
15015SOL    HW157518   6.332   8.571   8.292
15015SOL    HW257519   6.207   8.465   8.291
15016SOL     OW57520   5.842   8.864   8.254
15016SOL    HW157521   5.760   8.887   8.306
15016SOL    HW257522   5.816   8.808   8.174
15017SOL     OW57523   7.258   8.883   7.964
15017SOL    HW157524   7.189   8.939   8.009
15017SOL    HW257525   7.250   8.789   7.995
15018SOL     OW57526   2.879   8.445   8.873
15018SOL    HW157527   2.866   8.445   8.972
15018SOL    HW257528   2.843   8.530   8.834
15019SOL     OW57529   3.860   8.717   7.464
15019SOL    HW157530   3.787   8.786   7.459
15019SOL    HW257531   3.936   8.754   7.517
15020SOL     OW57532   3.093   8.616   7.922
15020SOL    HW157533   3.032   8.642   7.847
15020SOL    HW257534   3.040   8.602   8.006
15021SOL     OW57535   4.962   8.260   8.370
15021SOL    HW157536   4.888   8.322   8.342
15021SOL    HW257537   4.930   8.202   8.445
15022SOL     OW57538   4.813   7.661   7.983
15022SOL    HW157539   4.834   7.746   7.935
15022SOL    HW257540   4.850   7.667   8.076
15023SOL     OW57541   4.170   7.866   8.622
15023SOL    HW157542   4.198   7.816   8.540
15023SOL    HW257543   4.236   7.849   8.696
15024SOL     OW57544   7.054   8.996   8.131
15024SOL    HW157545   7.011   0.085   8.147
15024SOL    HW257546   6.984   8.929   8.106
15025SOL     OW57547   6.405   7.897   7.364
15025SOL    HW157548   6.356   7.983   7.380
15025SOL    HW257549   6.502   7.909   7.385
15026SOL     OW57550   2.334   7.666   8.613
15026SOL    HW157551   2.250   7.712   8.586
15026SOL    HW257552   2.360   7.694   8.705
15027SOL     OW57553   2.422   8.133   8.304
15027SOL    HW157554   2.410   8.154   8.401
15027SOL    HW257555   2.490   8.061   8.294
15028SOL     OW57556   4.324   8.211   8.389
15028SOL    HW157557   4.342   8.145   8.316
15028SOL    HW257558   4.242   8.184   8.439
15029SOL     OW57559   6.675   7.955   7.716
15029SOL    HW157560   6.579   7.981   7.723
15029SOL    HW257561   6.714   7.945   7.808
15030SOL     OW57562   2.207   7.325   8.809
15030SOL    HW157563   2.226   7.396   8.878
15030SOL    HW257564   2.252   7.349   8.723
15031SOL     OW57565   2.010   8.898   8.266
15031SOL    HW157566   1.965   8.824   8.316
15031SOL    HW257567   1.943   8.970   8.246
15032SOL     OW57568   3.434   7.945   7.912
15032SOL    HW157569   3.398   7.982   7.827
15032SOL    HW257570   3.504   8.006   7.948
15033SOL     OW57571   0.632   8.468   8.146
15033SOL    HW157572   0.620   8.564   8.172
15033SOL    HW257573   0.728   8.453   8.120
15034SOL     OW57574   5.751   8.720   8.039
15034SOL    HW157575   5.822   8.662   7.999
15034SOL    HW257576   5.687   8.663   8.092
15035SOL     OW57577   5.969   8.896   8.781
15035SOL    HW157578   5.896   8.916   8.715
15035SOL    HW257579   5.950   8.807   8.824
15036SOL     OW57580   3.649   7.475   8.782
15036SOL    HW157581   3.575   7.470   8.849
15036SOL    HW257582   3.652   7.390   8.729
15037SOL     OW57583   2.412   7.744   8.862
15037SOL    HW157584   2.353   7.762   8.941
15037SOL    HW257585   2.506   7.769   8.885
15038SOL     OW57586   0.942   7.566   8.961
15038SOL    HW157587   0.932   7.589   0.057
15038SOL    HW257588   0.897   7.636   8.905
15039SOL     OW57589   5.043   8.683   7.638
15039SOL    HW157590   4.996   8.749   7.579
15039SOL    HW257591   4.975   8.631   7.689
15040SOL     OW57592   5.668   8.214   8.344
15040SOL    HW157593   5.763   8.231   8.317
15040SOL    HW257594   5.655   8.242   8.439
15041SOL     OW57595   2.753   8.590   7.943
15041SOL    HW157596   2.807   8.591   8.027
15041SOL    HW257597   2.809   8.623   7.867
15042SOL     OW57598   4.085   8.094   8.487
15042SOL    HW157599   4.110   8.017   8.545
15042SOL    HW257600   4.049   8.060   8.400
15043SOL     OW57601   6.996   7.931   7.727
15043SOL    HW157602   7.002   7.933   7.827
15043SOL    HW257603   6.963   8.019   7.694
15044SOL     OW57604   6.344   8.420   7.808
15044SOL    HW157605   6.395   8.343   7.848
15044SOL    HW257606   6.409   8.489   7.776
15045SOL     OW57607   7.305   8.255   8.254
15045SOL    HW157608   7.322   8.261   8.353
15045SOL    HW257609   7.311   8.347   8.214
15046SOL     OW57610   0.533   8.594   7.732
15046SOL    HW157611   0.582   8.672   7.770
15046SOL    HW257612   0.590   8.548   7.665
15047SOL     OW57613   3.916   8.526   8.502
15047SOL    HW157614   3.829   8.557   8.463
15047SOL    HW257615   3.904   8.433   8.538
15048SOL     OW57616   1.004   8.328   8.912
15048SOL    HW157617   1.054   8.258   8.862
15048SOL    HW257618   1.068   8.397   8.947
15049SOL     OW57619   4.374   8.584   8.736
15049SOL    HW157620   4.368   8.525   8.816
15049SOL    HW257621   4.350   8.532   8.654
15050SOL     OW57622   3.567   7.417   8.171
15050SOL    HW157623   3.631   7.436   8.097
15050SOL    HW257624   3.542   7.502   8.217
15051SOL     OW57625   6.347   8.108   8.379
15051SOL    HW157626   6.291   8.033   8.341
15051SOL    HW257627   6.299   8.148   8.457
15052SOL     OW57628   3.062   7.558   7.490
15052SOL    HW157629   2.998   7.549   7.413
15052SOL    HW257630   3.107   7.471   7.506
15053SOL     OW57631   1.072   7.404   8.792
15053SOL    HW157632   1.007   7.343   8.746
15053SOL    HW257633   1.022   7.463   8.856
15054SOL     OW57634   0.295   8.507   8.572
15054SOL    HW157635   0.295   8.451   8.489
15054SOL    HW257636   0.202   8.534   8.594
15055SOL     OW57637   5.588   7.863   7.842
15055SOL    HW157638   5.616   7.939   7.901
15055SOL    HW257639   5.669   7.810   7.815
15056SOL     OW57640   4.504   8.588   7.845
15056SOL    HW157641   4.566   8.665   7.831
15056SOL    HW257642   4.447   8.604   7.925
15057SOL     OW57643   4.647   8.533   8.723
15057SOL    HW157644   4.548   8.544   8.732
15057SOL    HW257645   4.693   8.572   8.803
15058SOL     OW57646   3.632   8.107   7.553
15058SOL    HW157647   3.647   8.010   7.571
15058SOL    HW257648   3.714   8.159   7.577
15059SOL     OW57649   2.392   8.200   8.564
15059SOL    HW157650   2.487   8.210   8.595
15059SOL    HW257651   2.332   8.257   8.620
15060SOL     OW57652   0.120   7.348   0.193
15060SOL    HW157653   0.112   7.330   0.095
15060SOL    HW257654   0.043   7.404   0.223
15061SOL     OW57655   5.915   8.679   8.948
15061SOL    HW157656   5.882   8.588   8.923
15061SOL    HW257657   5.841   8.732   8.989
15062SOL     OW57658   7.354   7.981   8.912
15062SOL    HW157659   7.349   7.899   8.969
15062SOL    HW257660   7.342   8.062   8.970
15063SOL     OW57661   5.677   8.595   7.767
15063SOL    HW157662   5.652   8.691   7.783
15063SOL    HW257663   5.763   8.575   7.813
15064SOL     OW57664   6.055   7.620   8.886
15064SOL    HW157665   6.104   7.541   8.923
15064SOL    HW257666   6.113   7.668   8.820
15065SOL     OW57667   4.763   7.444   8.888
15065SOL    HW157668   4.792   7.470   8.980
15065SOL    HW257669   4.738   7.526   8.836
15066SOL     OW57670   4.566   8.202   7.411
15066SOL    HW157671   4.631   8.253   7.466
15066SOL    HW257672   4.587   8.214   7.314
15067SOL     OW57673   1.657   8.704   7.935
15067SOL    HW157674   1.624   8.619   7.895
15067SOL    HW257675   1.718   8.684   8.012
15068SOL     OW57676   2.697   7.448   7.651
15068SOL    HW157677   2.651   7.430   7.738
15068SOL    HW257678   2.771   7.382   7.639
15069SOL     OW57679   1.202   8.162   8.521
15069SOL    HW157680   1.176   8.148   8.617
15069SOL    HW257681   1.235   8.076   8.483
15070SOL     OW57682   4.753   8.372   7.581
15070SOL    HW157683   4.761   8.451   7.519
15070SOL    HW257684   4.663   8.373   7.624
15071SOL     OW57685   1.518   7.426   7.675
15071SOL    HW157686   1.465   7.503   7.641
15071SOL    HW257687   1.593   7.459   7.732
15072SOL     OW57688   3.678   7.845   7.609
15072SOL    HW157689   3.767   7.802   7.620
15072SOL    HW257690   3.612   7.803   7.672
15073SOL     OW57691   2.747   7.693   8.721
15073SOL    HW157692   2.846   7.707   8.727
15073SOL    HW257693   2.703   7.730   8.803
15074SOL     OW57694   0.179   7.646   8.831
15074SOL    HW157695   0.194   7.739   8.796
15074SOL    HW257696   0.158   7.585   8.754
15075SOL     OW57697   4.441   7.351   8.644
15075SOL    HW157698   4.495   7.297   8.709
15075SOL    HW257699   4.388   7.419   8.694
15076SOL     OW57700   2.268   8.849   8.219
15076SOL    HW157701   2.305   8.803   8.300
15076SOL    HW257702   2.175   8.880   8.238
15077SOL     OW57703   1.812   7.988   8.220
15077SOL    HW157704   1.876   8.059   8.191
15077SOL    HW257705   1.725   8.031   8.245
15078SOL     OW57706   6.454   7.572   7.843
15078SOL    HW157707   6.401   7.653   7.868
15078SOL    HW257708   6.511   7.594   7.763
15079SOL     OW57709   1.045   8.630   7.902
15079SOL    HW157710   1.125   8.582   7.937
15079SOL    HW257711   1.068   8.676   7.817
15080SOL     OW57712   1.711   7.544   7.838
15080SOL    HW157713   1.762   7.630   7.828
15080SOL    HW257714   1.662   7.544   7.925
15081SOL     OW57715   1.928   7.400   7.510
15081SOL    HW157716   1.911   7.363   7.419
15081SOL    HW257717   1.953   7.496   7.503
15082SOL     OW57718   4.746   8.892   8.057
15082SOL    HW157719   4.649   8.915   8.056
15082SOL    HW257720   4.773   8.865   8.150
15083SOL     OW57721   6.108   8.279   7.742
15083SOL    HW157722   6.133   8.186   7.717
15083SOL    HW257723   6.191   8.332   7.762
15084SOL     OW57724   3.507   8.350   7.946
15084SOL    HW157725   3.510   8.348   7.846
15084SOL    HW257726   3.441   8.420   7.975
15085SOL     OW57727   5.209   7.868   7.588
15085SOL    HW157728   5.251   7.914   7.666
15085SOL    HW257729   5.278   7.814   7.540
15086SOL     OW57730   6.419   8.283   8.179
15086SOL    HW157731   6.393   8.216   8.249
15086SOL    HW257732   6.368   8.368   8.194
15087SOL     OW57733   3.298   7.449   8.490
15087SOL    HW157734   3.257   7.513   8.425
15087SOL    HW257735   3.273   7.355   8.465
15088SOL     OW57736   1.595   8.479   7.781
15088SOL    HW157737   1.657   8.402   7.768
15088SOL    HW257738   1.501   8.447   7.775
15089SOL     OW57739   6.432   8.808   8.855
15089SOL    HW157740   6.339   8.794   8.890
15089SOL    HW257741   6.433   8.889   8.796
15090SOL     OW57742   6.559   8.989   8.446
15090SOL    HW157743   6.569   8.890   8.435
15090SOL    HW257744   6.531   0.010   8.540
15091SOL     OW57745   1.720   0.323   7.658
15091SOL    HW157746   1.800   0.350   7.712
15091SOL    HW257747   1.738   0.235   7.615
15092SOL     OW57748   8.980   0.120   7.727
15092SOL    HW157749   0.004   0.030   7.692
15092SOL    HW257750   8.890   0.146   7.691
15093SOL     OW57751   1.472   8.905   8.005
15093SOL    HW157752   1.539   8.834   7.985
15093SOL    HW257753   1.519   8.991   8.024
15094SOL     OW57754   3.039   7.984   8.888
15094SOL    HW157755   2.996   8.054   8.830
15094SOL    HW257756   3.025   7.894   8.847
15095SOL     OW57757   4.168   8.439   8.124
15095SOL    HW157758   4.146   8.475   8.215
15095SOL    HW257759   4.230   8.501   8.077
15096SOL     OW57760   6.591   7.744   8.160
15096SOL    HW157761   6.600   7.783   8.252
15096SOL    HW257762   6.643   7.659   8.154
15097SOL     OW57763   1.444   7.669   8.899
15097SOL    HW157764   1.392   7.593   8.937
15097SOL    HW257765   1.429   7.674   8.800
15098SOL     OW57766   4.453   7.971   7.784
15098SOL    HW157767   4.551   7.988   7.794
15098SOL    HW257768   4.426   7.895   7.843
15099SOL     OW57769   2.544   8.563   8.323
15099SOL    HW157770   2.552   8.612   8.237
15099SOL    HW257771   2.478   8.608   8.382
15100SOL     OW57772   4.845   8.561   7.789
15100SOL    HW157773   4.780   8.637   7.787
15100SOL    HW257774   4.808   8.485   7.735
15101SOL     OW57775   4.476   8.954   8.044
15101SOL    HW157776   4.443   8.925   8.133
15101SOL    HW257777   4.409   8.931   7.973
15102SOL     OW57778   3.715   7.971   8.731
15102SOL    HW157779   3.725   7.875   8.707
15102SOL    HW257780   3.693   8.024   8.649
15103SOL     OW57781   4.655   8.008   8.543
15103SOL    HW157782   4.631   8.087   8.486
15103SOL    HW257783   4.648   7.925   8.488
15104SOL     OW57784   0.466   7.501   8.639
15104SOL    HW157785   0.508   7.516   8.549
15104SOL    HW257786   0.492   7.575   8.701
15105SOL     OW57787   0.055   8.866   7.633
15105SOL    HW157788   8.969   8.831   7.670
15105SOL    HW257789   0.129   8.802   7.656
15106SOL     OW57790   1.975   7.869   7.636
15106SOL    HW157791   1.896   7.925   7.611
15106SOL    HW257792   1.969   7.844   7.732
15107SOL     OW57793   7.251   7.471   8.953
15107SOL    HW157794   7.303   7.537   8.898
15107SOL    HW257795   7.259   7.495   0.050
15108SOL     OW57796   3.340   8.553   8.511
15108SOL    HW157797   3.421   8.558   8.453
15108SOL    HW257798   3.352   8.610   8.592
15109SOL     OW57799   6.292   7.793   7.885
15109SOL    HW157800   6.279   7.780   7.983
15109SOL    HW257801   6.205   7.783   7.837
15110SOL     OW57802   3.150   7.701   7.903
15110SOL    HW157803   3.161   7.603   7.922
15110SOL    HW257804   3.194   7.754   7.974
15111SOL     OW57805   6.812   8.110   8.217
15111SOL    HW157806   6.773   8.093   8.126
15111SOL    HW257807   6.738   8.119   8.284
15112SOL     OW57808   1.448   8.115   7.883
15112SOL    HW157809   1.543   8.129   7.912
15112SOL    HW257810   1.427   8.177   7.807
15113SOL     OW57811   1.551   8.282   8.680
15113SOL    HW157812   1.501   8.367   8.660
15113SOL    HW257813   1.559   8.272   8.779
15114SOL     OW57814   0.206   8.413   7.639
15114SOL    HW157815   0.228   8.393   7.544
15114SOL    HW257816   0.266   8.361   7.699
15115SOL     OW57817   3.764   7.640   8.385
15115SOL    HW157818   3.764   7.671   8.480
15115SOL    HW257819   3.673   7.650   8.346
15116SOL     OW57820   2.934   8.215   8.738
15116SOL    HW157821   2.912   8.295   8.794
15116SOL    HW257822   3.010   8.238   8.677
15117SOL     OW57823   5.103   8.405   8.106
15117SOL    HW157824   5.107   8.361   8.017
15117SOL    HW257825   5.022   8.464   8.111
15118SOL     OW57826   7.104   7.432   8.383
15118SOL    HW157827   7.197   7.407   8.354
15118SOL    HW257828   7.069   7.503   8.322
15119SOL     OW57829   2.570   7.348   8.419
15119SOL    HW157830   2.592   7.360   8.322
15119SOL    HW257831   2.602   7.259   8.450
15120SOL     OW57832   5.522   8.659   8.587
15120SOL    HW157833   5.459   8.590   8.552
15120SOL    HW257834   5.615   8.636   8.559
15121SOL     OW57835   2.503   7.369   7.460
15121SOL    HW157836   2.575   7.399   7.523
15121SOL    HW257837   2.480   7.443   7.397
15122SOL     OW57838   5.445   7.693   8.493
15122SOL    HW157839   5.385   7.642   8.433
15122SOL    HW257840   5.481   7.773   8.445
15123SOL     OW57841   5.194   8.779   8.508
15123SOL    HW157842   5.196   8.717   8.429
15123SOL    HW257843   5.209   8.727   8.592
15124SOL     OW57844   4.794   8.812   8.321
15124SOL    HW157845   4.738   8.739   8.362
15124SOL    HW257846   4.853   8.851   8.390
15125SOL     OW57847   5.698   8.810   0.052
15125SOL    HW157848   5.623   8.793   0.117
15125SOL    HW257849   5.660   8.823   8.961
15126SOL     OW57850   2.597   7.923   8.294
15126SOL    HW157851   2.565   7.867   8.217
15126SOL    HW257852   2.595   7.868   8.378
15127SOL     OW57853   0.176   8.013   7.781
15127SOL    HW157854   0.176   7.940   7.849
15127SOL    HW257855   0.222   8.093   7.818
15128SOL     OW57856   3.578   8.681   7.900
15128SOL    HW157857   3.495   8.644   7.941
15128SOL    HW257858   3.569   8.680   7.800
15129SOL     OW57859   4.370   8.465   8.485
15129SOL    HW157860   4.462   8.493   8.455
15129SOL    HW257861   4.352   8.372   8.454
15130SOL     OW57862   0.192   7.505   8.594
15130SOL    HW157863   0.290   7.497   8.609
15130SOL    HW257864   0.175   7.552   8.507
15131SOL     OW57865   6.413   8.299   8.749
15131SOL    HW157866   6.510   8.278   8.749
15131SOL    HW257867   6.387   8.336   8.839
15132SOL     OW57868   1.782   7.737   8.116
15132SOL    HW157869   1.685   7.712   8.128
15132SOL    HW257870   1.799   7.825   8.159
15133SOL     OW57871   6.554   0.301   8.788
15133SOL    HW157872   6.506   0.321   8.703
15133SOL    HW257873   6.600   0.384   8.821
15134SOL     OW57874   4.403   7.510   7.547
15134SOL    HW157875   4.356   7.436   7.499
15134SOL    HW257876   4.337   7.560   7.603
15135SOL     OW57877   0.025   8.401   7.298
15135SOL    HW157878   0.037   8.481   7.241
15135SOL    HW257879   0.112   8.375   7.339
15136SOL     OW57880   1.244   0.076   8.814
15136SOL    HW157881   1.306   0.070   8.736
15136SOL    HW257882   1.159   0.027   8.793
15137SOL     OW57883   3.886   8.162   8.852
15137SOL    HW157884   3.901   8.220   8.772
15137SOL    HW257885   3.830   8.083   8.826
15138SOL     OW57886   0.356   7.464   8.258
15138SOL    HW157887   0.291   7.534   8.287
15138SOL    HW257888   0.310   7.375   8.259
15139SOL     OW57889   5.174   8.068   8.614
15139SOL    HW157890   5.206   8.133   8.546
15139SOL    HW257891   5.075   8.073   8.621
15140SOL     OW57892   1.568   0.378   7.886
15140SOL    HW157893   1.610   0.347   7.801
15140SOL    HW257894   1.564   0.478   7.887
15141SOL     OW57895   8.598   0.980   1.021
15141SOL    HW157896   8.621   0.908   1.087
15141SOL    HW257897   8.548   0.941   0.944
15142SOL     OW57898   8.116   0.268   5.199
15142SOL    HW157899   8.033   0.293   5.249
15142SOL    HW257900   8.100   0.280   5.101
15143SOL     OW57901   8.440   1.057   3.359
15143SOL    HW157902   8.459   1.029   3.453
15143SOL    HW257903   8.523   1.096   3.319
15144SOL     OW57904   8.023   0.669   5.867
15144SOL    HW157905   8.051   0.765   5.874
15144SOL    HW257906   7.937   0.656   5.916
15145SOL     OW57907   7.955   4.488   1.829
15145SOL    HW157908   7.944   4.409   1.890
15145SOL    HW257909   8.046   4.484   1.788
15146SOL     OW57910   7.608   7.216   5.632
15146SOL    HW157911   7.647   7.158   5.560
15146SOL    HW257912   7.682   7.266   5.678
15147SOL     OW57913   7.677   2.672   6.745
15147SOL    HW157914   7.749   2.605   6.761
15147SOL    HW257915   7.665   2.729   6.826
15148SOL     OW57916   8.395   3.513   3.756
15148SOL    HW157917   8.476   3.518   3.698
15148SOL    HW257918   8.381   3.601   3.802
15149SOL     OW57919   8.378   5.935   6.791
15149SOL    HW157920   8.357   5.986   6.708
15149SOL    HW257921   8.376   5.837   6.771
15150SOL     OW57922   8.484   7.289   2.823
15150SOL    HW157923   8.425   7.347   2.767
15150SOL    HW257924   8.461   7.299   2.919
15151SOL     OW57925   8.332   6.556   6.030
15151SOL    HW157926   8.370   6.627   5.970
15151SOL    HW257927   8.249   6.592   6.073
15152SOL     OW57928   7.744   4.271   1.387
15152SOL    HW157929   7.742   4.177   1.353
15152SOL    HW257930   7.835   4.293   1.422
15153SOL     OW57931   7.903   5.643   4.622
15153SOL    HW157932   7.835   5.656   4.694
15153SOL    HW257933   7.934   5.732   4.588
15154SOL     OW57934   7.889   2.149   7.125
15154SOL    HW157935   7.927   2.060   7.153
15154SOL    HW257936   7.880   2.207   7.206
15155SOL     OW57937   8.510   2.264   0.649
15155SOL    HW157938   8.574   2.204   0.697
15155SOL    HW257939   8.557   2.314   0.577
15156SOL     OW57940   7.853   2.650   0.568
15156SOL    HW157941   7.891   2.558   0.556
15156SOL    HW257942   7.910   2.716   0.521
15157SOL     OW57943   7.777   6.144   6.928
15157SOL    HW157944   7.701   6.140   6.992
15157SOL    HW257945   7.830   6.060   6.933
15158SOL     OW57946   8.311   5.962   0.547
15158SOL    HW157947   8.359   5.884   0.506
15158SOL    HW257948   8.274   6.020   0.474
15159SOL     OW57949   7.431   4.190   6.581
15159SOL    HW157950   7.361   4.250   6.543
15159SOL    HW257951   7.517   4.241   6.589
15160SOL     OW57952   8.470   3.582   2.965
15160SOL    HW157953   8.439   3.574   2.870
15160SOL    HW257954   8.566   3.609   2.966
15161SOL     OW57955   8.340   3.273   0.431
15161SOL    HW157956   8.364   3.280   0.527
15161SOL    HW257957   8.299   3.359   0.400
15162SOL     OW57958   7.429   4.481   2.374
15162SOL    HW157959   7.418   4.396   2.322
15162SOL    HW257960   7.481   4.463   2.457
15163SOL     OW57961   0.212   1.302   0.716
15163SOL    HW157962   0.161   1.247   0.782
15163SOL    HW257963   0.250   1.383   0.762
15164SOL     OW57964   7.599   2.060   3.251
15164SOL    HW157965   7.674   2.002   3.282
15164SOL    HW257966   7.512   2.013   3.267
15165SOL     OW57967   8.907   1.887   1.732
15165SOL    HW157968   8.873   1.803   1.688
15165SOL    HW257969   8.885   1.966   1.673
15166SOL     OW57970   7.350   0.527   1.165
15166SOL    HW157971   7.275   0.577   1.209
15166SOL    HW257972   7.313   0.471   1.091
15167SOL     OW57973   8.762   5.460   0.526
15167SOL    HW157974   8.800   5.552   0.529
15167SOL    HW257975   8.691   5.451   0.596
15168SOL     OW57976   7.771   6.283   6.693
15168SOL    HW157977   7.695   6.346   6.706
15168SOL    HW257978   7.778   6.222   6.772
15169SOL     OW57979   7.741   0.270   2.244
15169SOL    HW157980   7.833   0.262   2.208
15169SOL    HW257981   7.680   0.305   2.174
15170SOL     OW57982   8.188   0.041   0.821
15170SOL    HW157983   8.120   0.086   0.879
15170SOL    HW257984   8.263   0.008   0.878
15171SOL     OW57985   8.270   2.957   1.131
15171SOL    HW157986   8.257   3.054   1.151
15171SOL    HW257987   8.366   2.940   1.108
15172SOL     OW57988   8.418   2.521   5.953
15172SOL    HW157989   8.390   2.577   5.875
15172SOL    HW257990   8.462   2.578   6.022
15173SOL     OW57991   8.556   5.453   0.703
15173SOL    HW157992   8.494   5.449   0.625
15173SOL    HW257993   8.527   5.525   0.766
15174SOL     OW57994   8.943   0.424   6.407
15174SOL    HW157995   8.850   0.387   6.397
15174SOL    HW257996   8.955   0.459   6.500
15175SOL     OW57997   7.490   4.088   5.058
15175SOL    HW157998   7.425   4.098   4.984
15175SOL    HW257999   7.473   4.159   5.127
15176SOL     OW58000   8.739   6.200   6.445
15176SOL    HW158001   8.679   6.121   6.459
15176SOL    HW258002   8.729   6.234   6.352
15177SOL     OW58003   7.866   0.527   2.561
15177SOL    HW158004   7.880   0.626   2.563
15177SOL    HW258005   7.891   0.488   2.650
15178SOL     OW58006   8.879   2.032   3.530
15178SOL    HW158007   8.859   2.008   3.625
15178SOL    HW258008   8.947   2.105   3.528
15179SOL     OW58009   7.454   5.960   7.391
15179SOL    HW158010   7.438   6.030   7.460
15179SOL    HW258011   7.400   5.980   7.309
15180SOL     OW58012   8.881   0.886   2.181
15180SOL    HW158013   8.793   0.862   2.222
15180SOL    HW258014   8.879   0.867   2.083
15181SOL     OW58015   7.685   7.136   0.453
15181SOL    HW158016   7.750   7.168   0.385
15181SOL    HW258017   7.652   7.045   0.428
15182SOL     OW58018   8.420   4.005   5.363
15182SOL    HW158019   8.402   4.003   5.461
15182SOL    HW258020   8.406   3.914   5.325
15183SOL     OW58021   7.513   3.602   1.117
15183SOL    HW158022   7.461   3.608   1.203
15183SOL    HW258023   7.543   3.507   1.104
15184SOL     OW58024   7.542   0.984   5.540
15184SOL    HW158025   7.590   1.018   5.459
15184SOL    HW258026   7.596   0.912   5.583
15185SOL     OW58027   8.650   1.942   0.100
15185SOL    HW158028   8.695   1.903   0.021
15185SOL    HW258029   8.718   1.987   0.158
15186SOL     OW58030   8.113   4.709   2.111
15186SOL    HW158031   8.080   4.619   2.137
15186SOL    HW258032   8.035   4.772   2.103
15187SOL     OW58033   8.607   1.241   0.956
15187SOL    HW158034   8.620   1.147   0.988
15187SOL    HW258035   8.510   1.265   0.961
15188SOL     OW58036   8.471   2.498   3.366
15188SOL    HW158037   8.498   2.420   3.310
15188SOL    HW258038   8.426   2.465   3.449
15189SOL     OW58039   8.737   4.146   6.013
15189SOL    HW158040   8.640   4.125   6.021
15189SOL    HW258041   8.790   4.079   6.064
15190SOL     OW58042   8.172   5.395   2.125
15190SOL    HW158043   8.173   5.429   2.219
15190SOL    HW258044   8.113   5.315   2.120
15191SOL     OW58045   7.979   6.282   4.670
15191SOL    HW158046   7.895   6.281   4.616
15191SOL    HW258047   8.020   6.373   4.667
15192SOL     OW58048   0.091   5.538   4.888
15192SOL    HW158049   0.090   5.476   4.966
15192SOL    HW258050   0.148   5.499   4.815
15193SOL     OW58051   7.654   0.788   6.127
15193SOL    HW158052   7.637   0.693   6.103
15193SOL    HW258053   7.567   0.832   6.151
15194SOL     OW58054   7.894   4.891   1.054
15194SOL    HW158055   7.889   4.955   0.977
15194SOL    HW258056   7.928   4.937   1.135
15195SOL     OW58057   8.259   4.641   6.899
15195SOL    HW158058   8.236   4.584   6.978
15195SOL    HW258059   8.227   4.597   6.815
15196SOL     OW58060   8.825   3.182   5.837
15196SOL    HW158061   8.925   3.180   5.831
15196SOL    HW258062   8.797   3.154   5.929
15197SOL     OW58063   8.329   2.290   6.078
15197SOL    HW158064   8.414   2.238   6.082
15197SOL    HW258065   8.345   2.378   6.035
15198SOL     OW58066   7.474   5.408   0.411
15198SOL    HW158067   7.512   5.473   0.345
15198SOL    HW258068   7.455   5.455   0.497
15199SOL     OW58069   7.331   4.364   1.549
15199SOL    HW158070   7.304   4.276   1.587
15199SOL    HW258071   7.279   4.381   1.465
15200SOL     OW58072   7.436   4.774   5.608
15200SOL    HW158073   7.341   4.763   5.580
15200SOL    HW258074   7.496   4.736   5.538
15201SOL     OW58075   7.810   0.627   1.139
15201SOL    HW158076   7.816   0.723   1.166
15201SOL    HW258077   7.723   0.612   1.093
15202SOL     OW58078   7.933   6.458   4.391
15202SOL    HW158079   7.867   6.393   4.429
15202SOL    HW258080   7.898   6.496   4.306
15203SOL     OW58081   8.374   4.439   0.977
15203SOL    HW158082   8.396   4.393   1.062
15203SOL    HW258083   8.443   4.508   0.957
15204SOL     OW58084   8.561   2.918   1.391
15204SOL    HW158085   8.593   2.994   1.335
15204SOL    HW258086   8.498   2.952   1.460
15205SOL     OW58087   8.457   4.475   1.526
15205SOL    HW158088   8.380   4.539   1.523
15205SOL    HW258089   8.542   4.526   1.517
15206SOL     OW58090   7.950   5.904   0.068
15206SOL    HW158091   7.922   5.909   0.164
15206SOL    HW258092   7.874   5.933   0.010
15207SOL     OW58093   0.127   3.723   4.856
15207SOL    HW158094   0.209   3.772   4.883
15207SOL    HW258095   0.096   3.665   4.931
15208SOL     OW58096   8.281   2.284   1.183
15208SOL    HW158097   8.330   2.314   1.101
15208SOL    HW258098   8.223   2.358   1.216
15209SOL     OW58099   8.964   0.798   0.722
15209SOL    HW158100   8.879   0.851   0.718
15209SOL    HW258101   8.950   0.711   0.675
15210SOL     OW58102   8.735   4.121   4.465
15210SOL    HW158103   8.686   4.099   4.549
15210SOL    HW258104   8.821   4.071   4.462
15211SOL     OW58105   8.467   0.123   5.440
15211SOL    HW158106   8.367   0.128   5.435
15211SOL    HW258107   8.496   0.029   5.422
15212SOL     OW58108   8.075   0.230   5.976
15212SOL    HW158109   8.126   0.315   5.963
15212SOL    HW258110   7.977   0.251   5.984
15213SOL     OW58111   8.347   1.829   7.037
15213SOL    HW158112   8.304   1.837   6.947
15213SOL    HW258113   8.322   1.742   7.079
15214SOL     OW58114   8.668   2.322   1.591
15214SOL    HW158115   8.710   2.388   1.529
15214SOL    HW258116   8.579   2.295   1.555
15215SOL     OW58117   8.430   0.997   3.628
15215SOL    HW158118   8.443   1.045   3.715
15215SOL    HW258119   8.336   0.963   3.622
15216SOL     OW58120   8.496   5.103   3.116
15216SOL    HW158121   8.494   5.012   3.159
15216SOL    HW258122   8.429   5.107   3.043
15217SOL     OW58123   8.293   0.067   5.940
15217SOL    HW158124   8.214   0.128   5.951
15217SOL    HW258125   8.264   8.981   5.900
15218SOL     OW58126   7.562   3.711   6.941
15218SOL    HW158127   7.645   3.666   6.974
15218SOL    HW258128   7.492   3.708   7.012
15219SOL     OW58129   7.759   1.267   3.388
15219SOL    HW158130   7.828   1.218   3.335
15219SOL    HW258131   7.673   1.269   3.337
15220SOL     OW58132   7.672   0.771   5.683
15220SOL    HW158133   7.751   0.727   5.642
15220SOL    HW258134   7.700   0.821   5.765
15221SOL     OW58135   7.371   2.840   7.225
15221SOL    HW158136   7.405   2.746   7.237
15221SOL    HW258137   7.326   2.847   7.136
15222SOL     OW58138   8.219   1.456   0.188
15222SOL    HW158139   8.213   1.547   0.231
15222SOL    HW258140   8.131   1.410   0.196
15223SOL     OW58141   8.263   4.470   7.138
15223SOL    HW158142   8.208   4.389   7.158
15223SOL    HW258143   8.343   4.443   7.085
15224SOL     OW58144   7.668   5.509   5.613
15224SOL    HW158145   7.614   5.586   5.579
15224SOL    HW258146   7.752   5.501   5.560
15225SOL     OW58147   8.459   2.192   3.671
15225SOL    HW158148   8.421   2.280   3.642
15225SOL    HW258149   8.517   2.156   3.598
15226SOL     OW58150   7.565   0.429   0.273
15226SOL    HW158151   7.469   0.449   0.290
15226SOL    HW258152   7.622   0.484   0.333
15227SOL     OW58153   7.578   3.178   5.953
15227SOL    HW158154   7.486   3.177   5.990
15227SOL    HW258155   7.581   3.239   5.873
15228SOL     OW58156   7.771   7.341   5.329
15228SOL    HW158157   7.833   7.374   5.400
15228SOL    HW258158   7.678   7.371   5.350
15229SOL     OW58159   8.222   0.974   6.139
15229SOL    HW158160   8.300   0.917   6.113
15229SOL    HW258161   8.243   1.020   6.226
15230SOL     OW58162   8.339   1.067   7.318
15230SOL    HW158163   8.280   1.087   7.396
15230SOL    HW258164   8.285   1.023   7.246
15231SOL     OW58165   8.285   2.963   0.156
15231SOL    HW158166   8.344   2.985   0.079
15231SOL    HW258167   8.209   3.027   0.160
15232SOL     OW58168   7.787   0.724   4.841
15232SOL    HW158169   7.712   0.663   4.815
15232SOL    HW258170   7.871   0.671   4.851
15233SOL     OW58171   8.493   3.167   6.577
15233SOL    HW158172   8.515   3.157   6.674
15233SOL    HW258173   8.563   3.224   6.533
15234SOL     OW58174   8.308   6.294   5.965
15234SOL    HW158175   8.291   6.283   5.868
15234SOL    HW258176   8.325   6.391   5.985
15235SOL     OW58177   7.475   2.160   3.608
15235SOL    HW158178   7.474   2.205   3.519
15235SOL    HW258179   7.553   2.097   3.612
15236SOL     OW58180   8.586   1.928   2.212
15236SOL    HW158181   8.487   1.942   2.205
15236SOL    HW258182   8.630   1.961   2.129
15237SOL     OW58183   7.575   3.875   7.269
15237SOL    HW158184   7.612   3.782   7.275
15237SOL    HW258185   7.628   3.927   7.202
15238SOL     OW58186   8.944   5.253   0.526
15238SOL    HW158187   0.032   5.297   0.507
15238SOL    HW258188   8.871   5.321   0.521
15239SOL     OW58189   7.390   5.890   3.442
15239SOL    HW158190   7.290   5.898   3.432
15239SOL    HW258191   7.427   5.839   3.365
15240SOL     OW58192   8.679   4.547   1.272
15240SOL    HW158193   8.663   4.609   1.349
15240SOL    HW258194   8.767   4.501   1.283
15241SOL     OW58195   0.291   0.333   0.675
15241SOL    HW158196   0.266   0.289   0.589
15241SOL    HW258197   0.306   0.263   0.745
15242SOL     OW58198   8.090   5.444   0.420
15242SOL    HW158199   8.103   5.479   0.512
15242SOL    HW258200   8.102   5.345   0.420
15243SOL     OW58201   0.018   5.575   6.601
15243SOL    HW158202   0.097   5.625   6.639
15243SOL    HW258203   0.044   5.535   6.513
15244SOL     OW58204   7.609   2.916   2.819
15244SOL    HW158205   7.670   2.966   2.757
15244SOL    HW258206   7.656   2.898   2.905
15245SOL     OW58207   8.551   6.453   7.311
15245SOL    HW158208   8.504   6.366   7.322
15245SOL    HW258209   8.631   6.441   7.252
15246SOL     OW58210   7.705   1.837   3.385
15246SOL    HW158211   7.690   1.889   3.469
15246SOL    HW258212   7.758   1.754   3.407
15247SOL     OW58213   8.631   2.410   0.443
15247SOL    HW158214   8.577   2.484   0.402
15247SOL    HW258215   8.675   2.357   0.370
15248SOL     OW58216   8.362   2.220   6.877
15248SOL    HW158217   8.321   2.162   6.947
15248SOL    HW258218   8.461   2.206   6.876
15249SOL     OW58219   8.495   2.957   3.643
15249SOL    HW158220   8.489   2.881   3.578
15249SOL    HW258221   8.448   2.932   3.728
15250SOL     OW58222   8.280   3.705   1.045
15250SOL    HW158223   8.288   3.744   0.953
15250SOL    HW258224   8.266   3.779   1.112
15251SOL     OW58225   8.156   1.000   2.745
15251SOL    HW158226   8.251   1.029   2.752
15251SOL    HW258227   8.146   0.937   2.668
15252SOL     OW58228   8.667   0.296   5.514
15252SOL    HW158229   8.689   0.264   5.606
15252SOL    HW258230   8.595   0.240   5.475
15253SOL     OW58231   8.032   4.448   0.512
15253SOL    HW158232   8.073   4.380   0.573
15253SOL    HW258233   8.103   4.511   0.481
15254SOL     OW58234   8.665   6.319   5.720
15254SOL    HW158235   8.694   6.252   5.652
15254SOL    HW258236   8.644   6.273   5.806
15255SOL     OW58237   7.929   4.605   1.041
15255SOL    HW158238   7.864   4.557   1.100
15255SOL    HW258239   7.921   4.704   1.055
15256SOL     OW58240   8.234   1.439   3.210
15256SOL    HW158241   8.281   1.404   3.290
15256SOL    HW258242   8.216   1.364   3.146
15257SOL     OW58243   7.397   0.877   1.291
15257SOL    HW158244   7.380   0.975   1.304
15257SOL    HW258245   7.315   0.826   1.319
15258SOL     OW58246   7.684   4.610   4.698
15258SOL    HW158247   7.768   4.555   4.701
15258SOL    HW258248   7.708   4.706   4.683
15259SOL     OW58249   8.747   2.948   6.954
15259SOL    HW158250   8.826   2.914   6.903
15259SOL    HW258251   8.726   2.885   7.028
15260SOL     OW58252   8.521   4.258   5.654
15260SOL    HW158253   8.538   4.300   5.565
15260SOL    HW258254   8.518   4.329   5.725
15261SOL     OW58255   7.953   4.771   1.840
15261SOL    HW158256   7.981   4.818   1.757
15261SOL    HW258257   7.964   4.672   1.829
15262SOL     OW58258   8.009   2.342   6.957
15262SOL    HW158259   8.109   2.341   6.965
15262SOL    HW258260   7.971   2.269   7.014
15263SOL     OW58261   7.605   2.185   1.468
15263SOL    HW158262   7.510   2.165   1.443
15263SOL    HW258263   7.666   2.123   1.418
15264SOL     OW58264   7.479   3.077   0.178
15264SOL    HW158265   7.476   2.995   0.121
15264SOL    HW258266   7.440   3.154   0.128
15265SOL     OW58267   8.502   2.040   2.592
15265SOL    HW158268   8.432   1.988   2.545
15265SOL    HW258269   8.549   1.981   2.658
15266SOL     OW58270   7.372   3.504   6.782
15266SOL    HW158271   7.418   3.445   6.716
15266SOL    HW258272   7.386   3.599   6.758
15267SOL     OW58273   8.998   3.732   2.629
15267SOL    HW158274   0.007   3.816   2.682
15267SOL    HW258275   0.054   3.738   2.546
15268SOL     OW58276   8.519   4.335   1.189
15268SOL    HW158277   8.586   4.289   1.131
15268SOL    HW258278   8.561   4.415   1.231
15269SOL     OW58279   8.409   0.639   2.256
15269SOL    HW158280   8.320   0.647   2.212
15269SOL    HW258281   8.443   0.545   2.246
15270SOL     OW58282   7.769   5.346   0.775
15270SOL    HW158283   7.745   5.434   0.736
15270SOL    HW258284   7.820   5.292   0.708
15271SOL     OW58285   8.492   4.213   7.205
15271SOL    HW158286   8.425   4.139   7.205
15271SOL    HW258287   8.568   4.189   7.264
15272SOL     OW58288   8.733   2.746   1.055
15272SOL    HW158289   8.769   2.784   0.970
15272SOL    HW258290   8.806   2.741   1.123
15273SOL     OW58291   7.350   2.986   3.768
15273SOL    HW158292   7.302   3.073   3.755
15273SOL    HW258293   7.404   2.966   3.686
15274SOL     OW58294   7.492   3.562   3.133
15274SOL    HW158295   7.432   3.544   3.211
15274SOL    HW258296   7.465   3.648   3.090
15275SOL     OW58297   8.041   2.300   4.610
15275SOL    HW158298   8.023   2.205   4.586
15275SOL    HW258299   8.013   2.360   4.535
15276SOL     OW58300   7.484   3.750   6.209
15276SOL    HW158301   7.445   3.758   6.301
15276SOL    HW258302   7.584   3.746   6.216
15277SOL     OW58303   8.144   5.517   1.667
15277SOL    HW158304   8.225   5.572   1.685
15277SOL    HW258305   8.073   5.574   1.626
15278SOL     OW58306   8.606   2.496   2.765
15278SOL    HW158307   8.551   2.518   2.845
15278SOL    HW258308   8.561   2.425   2.711
15279SOL     OW58309   7.820   1.046   2.091
15279SOL    HW158310   7.759   1.067   2.014
15279SOL    HW258311   7.885   1.121   2.102
15280SOL     OW58312   8.574   0.867   1.458
15280SOL    HW158313   8.476   0.886   1.447
15280SOL    HW258314   8.593   0.841   1.552
15281SOL     OW58315   7.586   0.246   6.308
15281SOL    HW158316   7.609   0.248   6.405
15281SOL    HW258317   7.514   0.313   6.290
15282SOL     OW58318   8.371   3.575   5.466
15282SOL    HW158319   8.376   3.651   5.401
15282SOL    HW258320   8.329   3.496   5.421
15283SOL     OW58321   8.065   0.273   1.345
15283SOL    HW158322   8.006   0.277   1.427
15283SOL    HW258323   8.045   0.189   1.294
15284SOL     OW58324   7.848   1.615   3.444
15284SOL    HW158325   7.892   1.579   3.362
15284SOL    HW258326   7.836   1.541   3.510
15285SOL     OW58327   7.869   1.658   0.499
15285SOL    HW158328   7.816   1.741   0.480
15285SOL    HW258329   7.869   1.600   0.418
15286SOL     OW58330   7.745   3.859   0.784
15286SOL    HW158331   7.753   3.958   0.794
15286SOL    HW258332   7.653   3.830   0.811
15287SOL     OW58333   8.021   6.411   7.195
15287SOL    HW158334   7.960   6.413   7.116
15287SOL    HW258335   8.027   6.503   7.235
15288SOL     OW58336   8.566   5.547   0.137
15288SOL    HW158337   8.658   5.584   0.123
15288SOL    HW258338   8.571   5.467   0.196
15289SOL     OW58339   7.937   6.502   6.348
15289SOL    HW158340   7.963   6.454   6.432
15289SOL    HW258341   7.838   6.499   6.338
15290SOL     OW58342   7.731   3.639   6.476
15290SOL    HW158343   7.735   3.730   6.517
15290SOL    HW258344   7.768   3.572   6.540
15291SOL     OW58345   8.231   5.543   4.207
15291SOL    HW158346   8.328   5.520   4.198
15291SOL    HW258347   8.208   5.551   4.303
15292SOL     OW58348   8.556   3.758   2.336
15292SOL    HW158349   8.625   3.751   2.408
15292SOL    HW258350   8.551   3.671   2.287
15293SOL     OW58351   8.454   6.375   6.985
15293SOL    HW158352   8.507   6.299   7.023
15293SOL    HW258353   8.504   6.414   6.907
15294SOL     OW58354   8.645   2.528   6.507
15294SOL    HW158355   8.637   2.456   6.575
15294SOL    HW258356   8.555   2.545   6.466
15295SOL     OW58357   8.501   1.466   2.919
15295SOL    HW158358   8.491   1.372   2.952
15295SOL    HW258359   8.414   1.515   2.930
15296SOL     OW58360   8.538   4.937   3.513
15296SOL    HW158361   8.631   4.973   3.524
15296SOL    HW258362   8.473   4.999   3.558
15297SOL     OW58363   7.675   4.310   2.098
15297SOL    HW158364   7.681   4.269   2.007
15297SOL    HW258365   7.687   4.238   2.167
15298SOL     OW58366   7.761   4.946   1.428
15298SOL    HW158367   7.695   4.990   1.490
15298SOL    HW258368   7.712   4.885   1.366
15299SOL     OW58369   7.566   5.444   4.702
15299SOL    HW158370   7.535   5.364   4.752
15299SOL    HW258371   7.625   5.415   4.626
15300SOL     OW58372   8.469   3.113   3.406
15300SOL    HW158373   8.493   3.210   3.410
15300SOL    HW258374   8.475   3.073   3.497
15301SOL     OW58375   7.415   2.108   5.229
15301SOL    HW158376   7.428   2.194   5.277
15301SOL    HW258377   7.454   2.033   5.283
15302SOL     OW58378   8.224   6.126   0.340
15302SOL    HW158379   8.291   6.198   0.322
15302SOL    HW258380   8.227   6.059   0.265
15303SOL     OW58381   8.179   8.983   1.668
15303SOL    HW158382   8.236   8.923   1.724
15303SOL    HW258383   8.174   0.073   1.711
15304SOL     OW58384   7.883   0.254   1.542
15304SOL    HW158385   7.843   0.345   1.545
15304SOL    HW258386   7.817   0.187   1.576
15305SOL     OW58387   7.726   1.355   2.100
15305SOL    HW158388   7.821   1.324   2.105
15305SOL    HW258389   7.671   1.305   2.167
15306SOL     OW58390   7.632   4.108   6.221
15306SOL    HW158391   7.590   4.058   6.297
15306SOL    HW258392   7.650   4.045   6.146
15307SOL     OW58393   7.449   2.332   5.378
15307SOL    HW158394   7.431   2.331   5.477
15307SOL    HW258395   7.476   2.424   5.351
15308SOL     OW58396   8.403   2.230   6.529
15308SOL    HW158397   8.478   2.259   6.590
15308SOL    HW258398   8.440   2.173   6.456
15309SOL     OW58399   8.227   4.254   2.092
15309SOL    HW158400   8.228   4.297   2.182
15309SOL    HW258401   8.311   4.202   2.078
15310SOL     OW58402   8.158   5.564   4.477
15310SOL    HW158403   8.181   5.656   4.510
15310SOL    HW258404   8.065   5.541   4.505
15311SOL     OW58405   8.616   4.514   0.556
15311SOL    HW158406   8.622   4.532   0.458
15311SOL    HW258407   8.629   4.600   0.607
15312SOL     OW58408   7.481   2.983   3.521
15312SOL    HW158409   7.578   2.968   3.535
15312SOL    HW258410   7.468   3.058   3.456
15313SOL     OW58411   8.233   4.255   3.346
15313SOL    HW158412   8.303   4.215   3.287
15313SOL    HW258413   8.156   4.192   3.355
15314SOL     OW58414   7.324   1.087   0.979
15314SOL    HW158415   7.366   1.174   1.003
15314SOL    HW258416   7.237   1.103   0.933
15315SOL     OW58417   8.886   3.164   3.917
15315SOL    HW158418   8.798   3.160   3.869
15315SOL    HW258419   8.951   3.102   3.873
15316SOL     OW58420   8.475   1.834   3.431
15316SOL    HW158421   8.393   1.784   3.403
15316SOL    HW258422   8.509   1.796   3.517
15317SOL     OW58423   8.873   2.094   4.202
15317SOL    HW158424   8.787   2.046   4.189
15317SOL    HW258425   8.948   2.028   4.206
15318SOL     OW58426   8.551   5.996   6.468
15318SOL    HW158427   8.575   5.909   6.511
15318SOL    HW258428   8.469   6.033   6.512
15319SOL     OW58429   7.861   4.145   4.280
15319SOL    HW158430   7.779   4.152   4.336
15319SOL    HW258431   7.923   4.221   4.302
15320SOL     OW58432   7.824   3.237   6.054
15320SOL    HW158433   7.883   3.242   5.973
15320SOL    HW258434   7.733   3.207   6.027
15321SOL     OW58435   7.700   2.171   0.219
15321SOL    HW158436   7.741   2.198   0.307
15321SOL    HW258437   7.712   2.245   0.153
15322SOL     OW58438   0.016   0.713   8.922
15322SOL    HW158439   8.960   0.649   8.975
15322SOL    HW258440   0.020   0.801   8.970
15323SOL     OW58441   7.391   2.968   1.577
15323SOL    HW158442   7.301   2.929   1.597
15323SOL    HW258443   7.380   3.053   1.526
15324SOL     OW58444   8.426   3.965   1.384
15324SOL    HW158445   8.503   3.941   1.325
15324SOL    HW258446   8.428   4.062   1.405
15325SOL     OW58447   7.414   4.600   7.084
15325SOL    HW158448   7.509   4.596   7.116
15325SOL    HW258449   7.408   4.564   6.991
15326SOL     OW58450   7.489   8.969   0.203
15326SOL    HW158451   7.457   8.923   0.286
15326SOL    HW258452   7.491   8.904   0.127
15327SOL     OW58453   7.374   7.273   5.225
15327SOL    HW158454   7.423   7.189   5.204
15327SOL    HW258455   7.427   7.327   5.290
15328SOL     OW58456   7.836   2.815   6.569
15328SOL    HW158457   7.910   2.748   6.580
15328SOL    HW258458   7.753   2.780   6.613
15329SOL     OW58459   8.266   3.783   4.251
15329SOL    HW158460   8.347   3.735   4.217
15329SOL    HW258461   8.202   3.716   4.289
15330SOL     OW58462   7.680   4.574   2.045
15330SOL    HW158463   7.672   4.478   2.074
15330SOL    HW258464   7.680   4.578   1.945
15331SOL     OW58465   8.509   4.458   5.850
15331SOL    HW158466   8.435   4.455   5.917
15331SOL    HW258467   8.597   4.444   5.896
15332SOL     OW58468   8.040   6.381   6.026
15332SOL    HW158469   8.128   6.335   6.011
15332SOL    HW258470   8.055   6.461   6.084
15333SOL     OW58471   8.401   3.305   0.710
15333SOL    HW158472   8.435   3.217   0.743
15333SOL    HW258473   8.382   3.364   0.789
15334SOL     OW58474   7.851   7.254   0.279
15334SOL    HW158475   7.948   7.254   0.251
15334SOL    HW258476   7.809   7.341   0.253
15335SOL     OW58477   8.207   0.466   5.945
15335SOL    HW158478   8.159   0.545   5.907
15335SOL    HW258479   8.305   0.486   5.948
15336SOL     OW58480   8.767   0.543   5.575
15336SOL    HW158481   8.863   0.546   5.548
15336SOL    HW258482   8.725   0.459   5.540
15337SOL     OW58483   7.855   3.142   5.370
15337SOL    HW158484   7.876   3.044   5.375
15337SOL    HW258485   7.911   3.185   5.300
15338SOL     OW58486   7.462   5.450   2.370
15338SOL    HW158487   7.540   5.401   2.331
15338SOL    HW258488   7.424   5.512   2.302
15339SOL     OW58489   7.731   3.186   7.378
15339SOL    HW158490   7.692   3.278   7.379
15339SOL    HW258491   7.680   3.128   7.442
15340SOL     OW58492   7.794   4.007   0.193
15340SOL    HW158493   7.802   4.075   0.266
15340SOL    HW258494   7.828   3.919   0.226
15341SOL     OW58495   7.495   2.271   0.595
15341SOL    HW158496   7.467   2.366   0.602
15341SOL    HW258497   7.582   2.258   0.644
15342SOL     OW58498   8.760   1.433   0.414
15342SOL    HW158499   8.692   1.499   0.443
15342SOL    HW258500   8.833   1.428   0.482
15343SOL     OW58501   8.873   4.497   6.201
15343SOL    HW158502   8.833   4.465   6.115
15343SOL    HW258503   8.818   4.465   6.278
15344SOL     OW58504   8.268   4.929   1.991
15344SOL    HW158505   8.227   4.850   2.037
15344SOL    HW258506   8.197   4.982   1.945
15345SOL     OW58507   8.885   2.768   2.705
15345SOL    HW158508   8.817   2.833   2.669
15345SOL    HW258509   8.976   2.797   2.677
15346SOL     OW58510   7.982   1.547   3.214
15346SOL    HW158511   8.002   1.644   3.209
15346SOL    HW258512   8.068   1.495   3.216
15347SOL     OW58513   8.262   1.583   2.974
15347SOL    HW158514   8.240   1.680   2.973
15347SOL    HW258515   8.251   1.547   3.067
15348SOL     OW58516   8.448   5.113   6.562
15348SOL    HW158517   8.497   5.199   6.579
15348SOL    HW258518   8.514   5.041   6.542
15349SOL     OW58519   8.444   2.036   3.236
15349SOL    HW158520   8.454   1.965   3.306
15349SOL    HW258521   8.490   2.120   3.266
15350SOL     OW58522   7.987   7.281   1.027
15350SOL    HW158523   7.968   7.378   1.045
15350SOL    HW258524   7.910   7.226   1.060
15351SOL     OW58525   8.264   6.592   6.666
15351SOL    HW158526   8.328   6.661   6.700
15351SOL    HW258527   8.280   6.577   6.568
15352SOL     OW58528   8.637   2.923   6.258
15352SOL    HW158529   8.555   2.964   6.297
15352SOL    HW258530   8.683   2.989   6.199
15353SOL     OW58531   8.723   0.245   6.792
15353SOL    HW158532   8.785   0.177   6.753
15353SOL    HW258533   8.755   0.337   6.767
15354SOL     OW58534   8.937   3.623   5.596
15354SOL    HW158535   8.863   3.665   5.544
15354SOL    HW258536   8.922   3.638   5.694
15355SOL     OW58537   0.002   4.818   7.197
15355SOL    HW158538   8.918   4.870   7.185
15355SOL    HW258539   0.073   4.878   7.235
15356SOL     OW58540   8.676   3.134   5.396
15356SOL    HW158541   8.713   3.227   5.384
15356SOL    HW258542   8.576   3.137   5.393
15357SOL     OW58543   7.625   3.673   3.954
15357SOL    HW158544   7.624   3.576   3.933
15357SOL    HW258545   7.716   3.701   3.985
15358SOL     OW58546   7.502   4.597   3.835
15358SOL    HW158547   7.539   4.569   3.924
15358SOL    HW258548   7.448   4.523   3.796
15359SOL     OW58549   8.939   4.587   4.073
15359SOL    HW158550   8.925   4.488   4.078
15359SOL    HW258551   8.853   4.633   4.095
15360SOL     OW58552   8.439   4.583   7.334
15360SOL    HW158553   8.509   4.633   7.282
15360SOL    HW258554   8.383   4.530   7.271
15361SOL     OW58555   7.730   3.763   1.166
15361SOL    HW158556   7.649   3.711   1.141
15361SOL    HW258557   7.799   3.755   1.094
15362SOL     OW58558   7.995   1.258   2.122
15362SOL    HW158559   8.061   1.248   2.048
15362SOL    HW258560   8.036   1.308   2.198
15363SOL     OW58561   7.996   2.287   0.702
15363SOL    HW158562   8.016   2.340   0.620
15363SOL    HW258563   8.043   2.199   0.696
15364SOL     OW58564   7.920   3.657   7.179
15364SOL    HW158565   7.975   3.586   7.224
15364SOL    HW258566   7.825   3.648   7.209
15365SOL     OW58567   8.738   2.294   0.211
15365SOL    HW158568   8.688   2.296   0.124
15365SOL    HW258569   8.786   2.206   0.220
15366SOL     OW58570   8.552   3.512   0.041
15366SOL    HW158571   8.626   3.486   8.979
15366SOL    HW258572   8.500   3.587   0.002
15367SOL     OW58573   8.001   1.490   1.416
15367SOL    HW158574   7.931   1.476   1.345
15367SOL    HW258575   7.956   1.521   1.500
15368SOL     OW58576   8.509   5.934   0.888
15368SOL    HW158577   8.463   6.007   0.838
15368SOL    HW258578   8.607   5.952   0.890
15369SOL     OW58579   7.755   1.490   3.073
15369SOL    HW158580   7.843   1.493   3.121
15369SOL    HW258581   7.769   1.454   2.981
15370SOL     OW58582   7.972   5.039   1.284
15370SOL    HW158583   7.980   5.138   1.291
15370SOL    HW258584   7.893   5.009   1.338
15371SOL     OW58585   8.293   4.460   5.530
15371SOL    HW158586   8.227   4.415   5.469
15371SOL    HW258587   8.265   4.445   5.625
15372SOL     OW58588   7.786   1.441   1.248
15372SOL    HW158589   7.748   1.348   1.244
15372SOL    HW258590   7.775   1.486   1.160
15373SOL     OW58591   8.098   2.307   0.043
15373SOL    HW158592   8.166   2.275   0.109
15373SOL    HW258593   8.029   2.362   0.090
15374SOL     OW58594   7.863   7.006   6.949
15374SOL    HW158595   7.871   7.089   7.004
15374SOL    HW258596   7.767   6.979   6.944
15375SOL     OW58597   7.602   4.383   5.647
15375SOL    HW158598   7.553   4.397   5.561
15375SOL    HW258599   7.654   4.298   5.642
15376SOL     OW58600   7.897   5.181   0.592
15376SOL    HW158601   7.985   5.178   0.545
15376SOL    HW258602   7.823   5.190   0.525
15377SOL     OW58603   8.733   3.763   5.480
15377SOL    HW158604   8.724   3.852   5.525
15377SOL    HW258605   8.707   3.772   5.384
15378SOL     OW58606   7.699   4.565   1.770
15378SOL    HW158607   7.793   4.533   1.782
15378SOL    HW258608   7.656   4.515   1.694
15379SOL     OW58609   8.082   3.866   7.254
15379SOL    HW158610   8.024   3.793   7.219
15379SOL    HW258611   8.027   3.947   7.272
15380SOL     OW58612   7.905   1.790   3.644
15380SOL    HW158613   8.002   1.783   3.667
15380SOL    HW258614   7.885   1.730   3.566
15381SOL     OW58615   7.552   3.559   0.661
15381SOL    HW158616   7.526   3.632   0.724
15381SOL    HW258617   7.603   3.489   0.712
15382SOL     OW58618   7.697   2.408   0.069
15382SOL    HW158619   7.617   2.359   0.032
15382SOL    HW258620   7.694   2.503   0.039
15383SOL     OW58621   7.874   7.244   7.088
15383SOL    HW158622   7.921   7.191   7.160
15383SOL    HW258623   7.941   7.301   7.041
15384SOL     OW58624   7.682   6.239   6.272
15384SOL    HW158625   7.726   6.227   6.183
15384SOL    HW258626   7.668   6.337   6.289
15385SOL     OW58627   8.594   6.071   5.122
15385SOL    HW158628   8.611   6.042   5.028
15385SOL    HW258629   8.496   6.066   5.142
15386SOL     OW58630   7.425   6.049   6.650
15386SOL    HW158631   7.423   6.076   6.746
15386SOL    HW258632   7.452   6.127   6.594
15387SOL     OW58633   8.856   2.121   1.577
15387SOL    HW158634   8.945   2.140   1.617
15387SOL    HW258635   8.796   2.200   1.588
15388SOL     OW58636   8.086   4.036   6.747
15388SOL    HW158637   8.173   4.012   6.790
15388SOL    HW258638   8.088   4.009   6.651
15389SOL     OW58639   8.251   1.687   3.366
15389SOL    HW158640   8.260   1.599   3.319
15389SOL    HW258641   8.180   1.741   3.322
15390SOL     OW58642   7.658   1.738   3.775
15390SOL    HW158643   7.601   1.686   3.711
15390SOL    HW258644   7.752   1.742   3.740
15391SOL     OW58645   7.909   0.382   3.233
15391SOL    HW158646   7.990   0.439   3.216
15391SOL    HW258647   7.935   0.301   3.285
15392SOL     OW58648   7.554   1.232   3.182
15392SOL    HW158649   7.574   1.193   3.092
15392SOL    HW258650   7.507   1.320   3.171
15393SOL     OW58651   8.921   2.728   5.210
15393SOL    HW158652   8.833   2.776   5.216
15393SOL    HW258653   8.995   2.794   5.208
15394SOL     OW58654   8.308   0.834   6.505
15394SOL    HW158655   8.250   0.788   6.572
15394SOL    HW258656   8.313   0.779   6.421
15395SOL     OW58657   8.194   8.984   6.992
15395SOL    HW158658   8.181   0.032   6.905
15395SOL    HW258659   8.291   8.990   7.019
15396SOL     OW58660   7.939   8.926   0.737
15396SOL    HW158661   8.037   8.948   0.740
15396SOL    HW258662   7.886   0.010   0.746
15397SOL     OW58663   8.452   0.905   0.795
15397SOL    HW158664   8.405   0.989   0.768
15397SOL    HW258665   8.385   0.833   0.809
15398SOL     OW58666   8.327   3.676   2.123
15398SOL    HW158667   8.407   3.624   2.153
15398SOL    HW258668   8.303   3.743   2.194
15399SOL     OW58669   7.485   1.488   3.090
15399SOL    HW158670   7.473   1.585   3.110
15399SOL    HW258671   7.582   1.467   3.077
15400SOL     OW58672   8.182   1.847   2.981
15400SOL    HW158673   8.222   1.938   2.987
15400SOL    HW258674   8.118   1.843   2.904
15401SOL     OW58675   8.266   2.074   1.875
15401SOL    HW158676   8.354   2.032   1.853
15401SOL    HW258677   8.228   2.117   1.793
15402SOL     OW58678   8.448   2.301   2.660
15402SOL    HW158679   8.465   2.210   2.623
15402SOL    HW258680   8.380   2.348   2.605
15403SOL     OW58681   8.322   1.547   0.634
15403SOL    HW158682   8.318   1.549   0.734
15403SOL    HW258683   8.377   1.468   0.604
15404SOL     OW58684   8.626   2.156   2.372
15404SOL    HW158685   8.592   2.125   2.461
15404SOL    HW258686   8.626   2.080   2.308
15405SOL     OW58687   7.412   5.505   3.426
15405SOL    HW158688   7.325   5.493   3.377
15405SOL    HW258689   7.427   5.426   3.486
15406SOL     OW58690   8.921   5.176   5.503
15406SOL    HW158691   8.882   5.152   5.592
15406SOL    HW258692   0.020   5.184   5.511
15407SOL     OW58693   7.664   4.662   6.060
15407SOL    HW158694   7.592   4.624   6.117
15407SOL    HW258695   7.623   4.707   5.980
15408SOL     OW58696   7.963   5.098   4.327
15408SOL    HW158697   7.871   5.121   4.358
15408SOL    HW258698   7.957   5.050   4.239
15409SOL     OW58699   7.994   5.175   2.108
15409SOL    HW158700   7.913   5.125   2.136
15409SOL    HW258701   8.027   5.139   2.020
15410SOL     OW58702   8.272   6.236   5.698
15410SOL    HW158703   8.343   6.166   5.689
15410SOL    HW258704   8.298   6.317   5.646
15411SOL     OW58705   8.552   1.972   3.811
15411SOL    HW158706   8.514   2.053   3.766
15411SOL    HW258707   8.651   1.977   3.809
15412SOL     OW58708   8.088   3.831   0.491
15412SOL    HW158709   8.186   3.845   0.478
15412SOL    HW258710   8.048   3.913   0.532
15413SOL     OW58711   8.172   3.830   3.372
15413SOL    HW158712   8.272   3.839   3.369
15413SOL    HW258713   8.131   3.922   3.371
15414SOL     OW58714   7.615   5.675   6.919
15414SOL    HW158715   7.641   5.753   6.975
15414SOL    HW258716   7.594   5.706   6.826
15415SOL     OW58717   8.912   3.126   1.101
15415SOL    HW158718   8.872   3.138   1.010
15415SOL    HW258719   8.994   3.068   1.093
15416SOL     OW58720   8.122   1.991   3.989
15416SOL    HW158721   8.153   2.057   3.921
15416SOL    HW258722   8.024   2.004   4.005
15417SOL     OW58723   0.068   4.950   5.680
15417SOL    HW158724   8.990   4.997   5.723
15417SOL    HW258725   0.122   5.015   5.627
15418SOL     OW58726   8.651   1.647   2.565
15418SOL    HW158727   8.675   1.738   2.531
15418SOL    HW258728   8.706   1.626   2.646
15419SOL     OW58729   7.883   4.008   2.065
15419SOL    HW158730   7.882   3.964   1.975
15419SOL    HW258731   7.940   3.955   2.127
15420SOL     OW58732   8.951   2.087   1.312
15420SOL    HW158733   8.955   1.990   1.288
15420SOL    HW258734   8.904   2.097   1.400
15421SOL     OW58735   7.397   1.156   1.289
15421SOL    HW158736   7.392   1.215   1.208
15421SOL    HW258737   7.316   1.171   1.346
15422SOL     OW58738   7.648   3.412   3.878
15422SOL    HW158739   7.605   3.335   3.925
15422SOL    HW258740   7.654   3.392   3.781
15423SOL     OW58741   8.146   3.090   5.712
15423SOL    HW158742   8.133   3.058   5.619
15423SOL    HW258743   8.230   3.051   5.750
15424SOL     OW58744   8.080   1.292   3.492
15424SOL    HW158745   8.174   1.292   3.457
15424SOL    HW258746   8.016   1.275   3.418
15425SOL     OW58747   7.873   1.275   0.613
15425SOL    HW158748   7.910   1.270   0.520
15425SOL    HW258749   7.939   1.237   0.678
15426SOL     OW58750   8.433   2.671   1.380
15426SOL    HW158751   8.405   2.654   1.286
15426SOL    HW258752   8.486   2.755   1.385
15427SOL     OW58753   8.007   4.051   2.706
15427SOL    HW158754   8.082   4.116   2.708
15427SOL    HW258755   7.996   4.009   2.797
15428SOL     OW58756   7.345   6.852   5.070
15428SOL    HW158757   7.403   6.814   4.997
15428SOL    HW258758   7.255   6.874   5.033
15429SOL     OW58759   8.705   0.910   0.673
15429SOL    HW158760   8.687   0.891   0.577
15429SOL    HW258761   8.621   0.902   0.726
15430SOL     OW58762   8.857   7.291   7.292
15430SOL    HW158763   8.794   7.224   7.253
15430SOL    HW258764   8.857   7.284   7.391
15431SOL     OW58765   7.540   7.208   6.080
15431SOL    HW158766   7.489   7.170   6.157
15431SOL    HW258767   7.511   7.162   5.996
15432SOL     OW58768   8.761   5.237   4.960
15432SOL    HW158769   8.748   5.146   5.001
15432SOL    HW258770   8.795   5.227   4.867
15433SOL     OW58771   7.731   3.053   3.933
15433SOL    HW158772   7.793   3.026   4.006
15433SOL    HW258773   7.657   3.108   3.971
15434SOL     OW58774   8.520   1.024   6.894
15434SOL    HW158775   8.434   0.976   6.876
15434SOL    HW258776   8.518   1.062   6.986
15435SOL     OW58777   7.399   4.609   2.065
15435SOL    HW158778   7.499   4.612   2.065
15435SOL    HW258779   7.369   4.516   2.086
15436SOL     OW58780   8.663   1.192   0.688
15436SOL    HW158781   8.699   1.099   0.681
15436SOL    HW258782   8.652   1.217   0.784
15437SOL     OW58783   8.600   5.080   0.378
15437SOL    HW158784   8.681   5.040   0.419
15437SOL    HW258785   8.558   5.014   0.316
15438SOL     OW58786   8.930   4.199   5.505
15438SOL    HW158787   8.843   4.150   5.500
15438SOL    HW258788   8.977   4.194   5.417
15439SOL     OW58789   8.479   7.329   5.745
15439SOL    HW158790   8.555   7.265   5.731
15439SOL    HW258791   8.481   7.399   5.674
15440SOL     OW58792   8.952   4.458   0.127
15440SOL    HW158793   8.974   4.423   0.036
15440SOL    HW258794   8.929   4.382   0.187
15441SOL     OW58795   8.993   4.162   4.856
15441SOL    HW158796   0.043   4.242   4.890
15441SOL    HW258797   8.897   4.186   4.844
15442SOL     OW58798   8.742   3.694   2.538
15442SOL    HW158799   8.836   3.709   2.570
15442SOL    HW258800   8.678   3.740   2.600
15443SOL     OW58801   7.734   4.528   0.848
15443SOL    HW158802   7.820   4.542   0.895
15443SOL    HW258803   7.662   4.580   0.893
15444SOL     OW58804   8.891   4.475   2.901
15444SOL    HW158805   8.800   4.482   2.859
15444SOL    HW258806   8.955   4.531   2.850
15445SOL     OW58807   8.015   4.642   5.787
15445SOL    HW158808   7.926   4.636   5.743
15445SOL    HW258809   8.063   4.554   5.778
15446SOL     OW58810   7.994   3.580   0.524
15446SOL    HW158811   7.914   3.580   0.464
15446SOL    HW258812   8.034   3.671   0.526
15447SOL     OW58813   8.129   2.882   2.750
15447SOL    HW158814   8.095   2.900   2.657
15447SOL    HW258815   8.182   2.797   2.749
15448SOL     OW58816   8.323   4.065   4.234
15448SOL    HW158817   8.316   3.968   4.258
15448SOL    HW258818   8.242   4.094   4.183
15449SOL     OW58819   8.340   3.091   1.832
15449SOL    HW158820   8.243   3.099   1.852
15449SOL    HW258821   8.391   3.158   1.886
15450SOL     OW58822   8.059   2.784   0.443
15450SOL    HW158823   8.069   2.848   0.519
15450SOL    HW258824   8.131   2.715   0.448
15451SOL     OW58825   8.723   2.571   6.928
15451SOL    HW158826   8.818   2.594   6.905
15451SOL    HW258827   8.715   2.472   6.938
15452SOL     OW58828   8.459   4.130   6.043
15452SOL    HW158829   8.432   4.052   6.099
15452SOL    HW258830   8.444   4.215   6.094
15453SOL     OW58831   7.729   3.760   5.622
15453SOL    HW158832   7.744   3.850   5.663
15453SOL    HW258833   7.639   3.757   5.579
15454SOL     OW58834   7.754   2.539   2.569
15454SOL    HW158835   7.684   2.586   2.622
15454SOL    HW258836   7.719   2.451   2.538
15455SOL     OW58837   8.313   2.462   6.986
15455SOL    HW158838   8.324   2.379   6.932
15455SOL    HW258839   8.357   2.539   6.939
15456SOL     OW58840   7.482   5.027   5.981
15456SOL    HW158841   7.412   5.080   6.028
15456SOL    HW258842   7.530   5.086   5.915
15457SOL     OW58843   8.543   0.719   6.603
15457SOL    HW158844   8.553   0.652   6.529
15457SOL    HW258845   8.470   0.783   6.580
15458SOL     OW58846   8.147   5.263   1.545
15458SOL    HW158847   8.076   5.271   1.475
15458SOL    HW258848   8.158   5.351   1.592
15459SOL     OW58849   7.720   2.246   0.765
15459SOL    HW158850   7.812   2.271   0.737
15459SOL    HW258851   7.718   2.149   0.791
15460SOL     OW58852   8.528   3.170   4.396
15460SOL    HW158853   8.615   3.150   4.351
15460SOL    HW258854   8.488   3.253   4.357
15461SOL     OW58855   8.331   2.498   0.117
15461SOL    HW158856   8.331   2.407   0.158
15461SOL    HW258857   8.237   2.524   0.094
15462SOL     OW58858   8.675   7.295   5.458
15462SOL    HW158859   8.685   7.238   5.539
15462SOL    HW258860   8.705   7.244   5.377
15463SOL     OW58861   8.292   5.274   6.393
15463SOL    HW158862   8.336   5.207   6.453
15463SOL    HW258863   8.346   5.358   6.392
15464SOL     OW58864   8.050   5.257   5.153
15464SOL    HW158865   8.049   5.356   5.167
15464SOL    HW258866   7.975   5.215   5.203
15465SOL     OW58867   8.245   4.155   3.883
15465SOL    HW158868   8.184   4.149   3.962
15465SOL    HW258869   8.222   4.084   3.817
15466SOL     OW58870   8.073   2.540   4.751
15466SOL    HW158871   8.121   2.536   4.838
15466SOL    HW258872   8.065   2.447   4.713
15467SOL     OW58873   8.674   3.313   6.425
15467SOL    HW158874   8.772   3.305   6.404
15467SOL    HW258875   8.636   3.391   6.376
15468SOL     OW58876   7.935   4.226   6.570
15468SOL    HW158877   7.981   4.180   6.646
15468SOL    HW258878   7.997   4.293   6.529
15469SOL     OW58879   8.425   3.114   7.170
15469SOL    HW158880   8.331   3.113   7.202
15469SOL    HW258881   8.475   3.188   7.214
15470SOL     OW58882   7.550   5.731   5.506
15470SOL    HW158883   7.474   5.765   5.451
15470SOL    HW258884   7.635   5.775   5.477
15471SOL     OW58885   8.468   2.642   6.853
15471SOL    HW158886   8.466   2.723   6.794
15471SOL    HW258887   8.562   2.618   6.874
15472SOL     OW58888   8.617   0.818   2.254
15472SOL    HW158889   8.628   0.855   2.346
15472SOL    HW258890   8.541   0.753   2.254
15473SOL     OW58891   8.216   5.939   0.146
15473SOL    HW158892   8.127   5.927   0.102
15473SOL    HW258893   8.266   5.852   0.145
15474SOL     OW58894   8.953   1.932   1.995
15474SOL    HW158895   8.951   1.913   1.897
15474SOL    HW258896   0.046   1.920   2.029
15475SOL     OW58897   7.846   5.161   5.306
15475SOL    HW158898   7.866   5.187   5.400
15475SOL    HW258899   7.780   5.085   5.305
15476SOL     OW58900   8.617   4.742   7.190
15476SOL    HW158901   8.593   4.704   7.100
15476SOL    HW258902   8.676   4.821   7.177
15477SOL     OW58903   8.609   5.431   2.043
15477SOL    HW158904   8.700   5.458   2.013
15477SOL    HW258905   8.612   5.402   2.139
15478SOL     OW58906   8.780   3.018   5.619
15478SOL    HW158907   8.738   3.068   5.544
15478SOL    HW258908   8.779   3.074   5.702
15479SOL     OW58909   7.745   4.623   5.701
15479SOL    HW158910   7.700   4.534   5.695
15479SOL    HW258911   7.691   4.684   5.759
15480SOL     OW58912   7.637   4.419   6.840
15480SOL    HW158913   7.657   4.375   6.752
15480SOL    HW258914   7.546   4.460   6.836
15481SOL     OW58915   8.935   4.835   1.076
15481SOL    HW158916   8.851   4.868   1.119
15481SOL    HW258917   0.006   4.905   1.083
15482SOL     OW58918   8.106   1.437   3.720
15482SOL    HW158919   8.016   1.452   3.761
15482SOL    HW258920   8.096   1.382   3.637
15483SOL     OW58921   7.769   4.184   1.060
15483SOL    HW158922   7.772   4.283   1.075
15483SOL    HW258923   7.787   4.164   0.964
15484SOL     OW58924   8.855   6.932   1.047
15484SOL    HW158925   8.941   6.949   1.000
15484SOL    HW258926   8.872   6.881   1.131
15485SOL     OW58927   7.500   2.485   6.667
15485SOL    HW158928   7.541   2.396   6.686
15485SOL    HW258929   7.566   2.557   6.689
15486SOL     OW58930   8.557   4.408   5.411
15486SOL    HW158931   8.577   4.454   5.325
15486SOL    HW258932   8.465   4.432   5.441
15487SOL     OW58933   8.089   4.132   5.866
15487SOL    HW158934   8.178   4.102   5.831
15487SOL    HW258935   8.018   4.068   5.836
15488SOL     OW58936   7.813   6.746   1.328
15488SOL    HW158937   7.798   6.651   1.351
15488SOL    HW258938   7.889   6.782   1.383
15489SOL     OW58939   8.903   4.084   2.326
15489SOL    HW158940   8.849   4.003   2.305
15489SOL    HW258941   8.850   4.166   2.304
15490SOL     OW58942   7.453   5.542   6.317
15490SOL    HW158943   7.428   5.635   6.293
15490SOL    HW258944   7.466   5.488   6.234
15491SOL     OW58945   8.429   4.995   7.252
15491SOL    HW158946   8.444   4.906   7.295
15491SOL    HW258947   8.344   5.035   7.287
15492SOL     OW58948   8.883   0.098   6.414
15492SOL    HW158949   8.974   0.131   6.388
15492SOL    HW258950   8.815   0.167   6.393
15493SOL     OW58951   8.501   3.605   3.249
15493SOL    HW158952   8.480   3.588   3.152
15493SOL    HW258953   8.509   3.518   3.297
15494SOL     OW58954   8.768   0.006   1.064
15494SOL    HW158955   8.709   8.948   1.008
15494SOL    HW258956   8.853   0.025   1.014
15495SOL     OW58957   7.752   0.489   1.540
15495SOL    HW158958   7.717   0.520   1.628
15495SOL    HW258959   7.682   0.500   1.470
15496SOL     OW58960   8.879   3.433   3.977
15496SOL    HW158961   8.885   3.475   3.887
15496SOL    HW258962   8.883   3.333   3.967
15497SOL     OW58963   7.978   2.457   0.920
15497SOL    HW158964   7.986   2.407   1.007
15497SOL    HW258965   7.989   2.393   0.844
15498SOL     OW58966   8.670   5.680   6.966
15498SOL    HW158967   8.710   5.662   6.876
15498SOL    HW258968   8.689   5.603   7.027
15499SOL     OW58969   8.220   4.244   2.693
15499SOL    HW158970   8.171   4.329   2.670
15499SOL    HW258971   8.318   4.262   2.693
15500SOL     OW58972   8.026   4.248   6.919
15500SOL    HW158973   8.071   4.243   7.008
15500SOL    HW258974   8.055   4.172   6.862
15501SOL     OW58975   8.885   4.021   3.081
15501SOL    HW158976   8.906   4.118   3.082
15501SOL    HW258977   8.915   3.980   2.995
15502SOL     OW58978   8.176   1.399   2.286
15502SOL    HW158979   8.234   1.445   2.218
15502SOL    HW258980   8.229   1.383   2.369
15503SOL     OW58981   7.611   0.171   0.338
15503SOL    HW158982   7.602   0.265   0.306
15503SOL    HW258983   7.570   0.108   0.271
15504SOL     OW58984   7.523   5.799   5.115
15504SOL    HW158985   7.499   5.797   5.018
15504SOL    HW258986   7.623   5.802   5.125
15505SOL     OW58987   7.618   0.657   2.818
15505SOL    HW158988   7.562   0.631   2.740
15505SOL    HW258989   7.671   0.739   2.795
15506SOL     OW58990   8.623   3.785   4.213
15506SOL    HW158991   8.629   3.885   4.214
15506SOL    HW258992   8.685   3.747   4.282
15507SOL     OW58993   8.600   6.277   5.313
15507SOL    HW158994   8.661   6.248   5.386
15507SOL    HW258995   8.602   6.210   5.239
15508SOL     OW58996   8.612   1.993   3.018
15508SOL    HW158997   8.544   2.006   3.091
15508SOL    HW258998   8.695   1.953   3.058
15509SOL     OW58999   8.241   1.467   1.551
15509SOL    HW159000   8.165   1.476   1.486
15509SOL    HW259001   8.206   1.431   1.638
15510SOL     OW59002   8.101   5.885   6.101
15510SOL    HW159003   8.038   5.929   6.037
15510SOL    HW259004   8.168   5.953   6.132
15511SOL     OW59005   7.838   1.587   6.991
15511SOL    HW159006   7.830   1.672   6.939
15511SOL    HW259007   7.805   1.602   7.084
15512SOL     OW59008   7.492   2.361   3.792
15512SOL    HW159009   7.417   2.426   3.777
15512SOL    HW259010   7.489   2.289   3.723
15513SOL     OW59011   8.780   5.979   0.901
15513SOL    HW159012   8.816   6.009   0.989
15513SOL    HW259013   8.854   5.942   0.845
15514SOL     OW59014   7.842   0.838   1.420
15514SOL    HW159015   7.834   0.872   1.327
15514SOL    HW259016   7.760   0.785   1.444
15515SOL     OW59017   7.903   0.905   4.666
15515SOL    HW159018   7.856   0.850   4.735
15515SOL    HW259019   8.001   0.899   4.681
15516SOL     OW59020   8.275   6.199   3.870
15516SOL    HW159021   8.199   6.220   3.930
15516SOL    HW259022   8.296   6.278   3.813
15517SOL     OW59023   8.550   3.086   8.977
15517SOL    HW159024   8.504   3.155   0.033
15517SOL    HW259025   8.599   3.022   0.037
15518SOL     OW59026   7.734   1.160   0.077
15518SOL    HW159027   7.717   1.123   8.985
15518SOL    HW259028   7.817   1.119   0.115
15519SOL     OW59029   8.784   7.285   3.425
15519SOL    HW159030   8.878   7.288   3.391
15519SOL    HW259031   8.779   7.332   3.513
15520SOL     OW59032   8.520   4.585   3.249
15520SOL    HW159033   8.578   4.519   3.200
15520SOL    HW259034   8.470   4.537   3.321
15521SOL     OW59035   8.205   5.331   1.858
15521SOL    HW159036   8.196   5.368   1.950
15521SOL    HW259037   8.180   5.401   1.791
15522SOL     OW59038   7.716   1.863   0.384
15522SOL    HW159039   7.619   1.886   0.374
15522SOL    HW259040   7.759   1.858   0.294
15523SOL     OW59041   0.258   4.886   2.299
15523SOL    HW159042   0.242   4.788   2.307
15523SOL    HW259043   0.173   4.931   2.271
15524SOL     OW59044   8.764   0.416   1.291
15524SOL    HW159045   8.702   0.374   1.225
15524SOL    HW259046   8.857   0.384   1.276
15525SOL     OW59047   8.375   3.481   0.925
15525SOL    HW159048   8.475   3.493   0.921
15525SOL    HW259049   8.335   3.557   0.975
15526SOL     OW59050   7.609   1.861   2.907
15526SOL    HW159051   7.672   1.819   2.842
15526SOL    HW259052   7.626   1.823   2.998
15527SOL     OW59053   8.542   7.207   6.938
15527SOL    HW159054   8.526   7.291   6.989
15527SOL    HW259055   8.615   7.221   6.871
15528SOL     OW59056   7.563   2.684   2.083
15528SOL    HW159057   7.608   2.773   2.088
15528SOL    HW259058   7.516   2.676   1.995
15529SOL     OW59059   8.715   3.059   1.956
15529SOL    HW159060   8.788   2.994   1.933
15529SOL    HW259061   8.654   3.017   2.024
15530SOL     OW59062   7.758   3.730   6.217
15530SOL    HW159063   7.775   3.649   6.161
15530SOL    HW259064   7.768   3.707   6.314
15531SOL     OW59065   8.106   1.116   6.758
15531SOL    HW159066   8.048   1.114   6.676
15531SOL    HW259067   8.163   1.198   6.755
15532SOL     OW59068   7.568   2.470   4.418
15532SOL    HW159069   7.580   2.445   4.322
15532SOL    HW259070   7.630   2.416   4.475
15533SOL     OW59071   7.671   3.616   7.288
15533SOL    HW159072   7.698   3.610   7.384
15533SOL    HW259073   7.591   3.558   7.273
15534SOL     OW59074   7.942   3.243   7.207
15534SOL    HW159075   7.899   3.240   7.117
15534SOL    HW259076   7.873   3.220   7.277
15535SOL     OW59077   8.112   4.687   7.237
15535SOL    HW159078   8.050   4.712   7.163
15535SOL    HW259079   8.171   4.612   7.207
15536SOL     OW59080   8.794   0.988   4.208
15536SOL    HW159081   8.728   0.941   4.266
15536SOL    HW259082   8.883   0.944   4.216
15537SOL     OW59083   8.527   0.593   2.510
15537SOL    HW159084   8.477   0.624   2.429
15537SOL    HW259085   8.540   0.494   2.506
15538SOL     OW59086   7.537   5.366   6.115
15538SOL    HW159087   7.618   5.312   6.138
15538SOL    HW259088   7.552   5.413   6.028
15539SOL     OW59089   8.727   1.487   0.946
15539SOL    HW159090   8.685   1.396   0.954
15539SOL    HW259091   8.822   1.477   0.918
15540SOL     OW59092   8.038   3.568   1.931
15540SOL    HW159093   8.058   3.659   1.965
15540SOL    HW259094   8.119   3.509   1.940
15541SOL     OW59095   8.946   5.186   3.397
15541SOL    HW159096   8.863   5.197   3.343
15541SOL    HW259097   0.001   5.111   3.359
15542SOL     OW59098   8.311   4.006   7.201
15542SOL    HW159099   8.229   3.951   7.218
15542SOL    HW259100   8.387   3.945   7.180
15543SOL     OW59101   7.905   1.166   1.045
15543SOL    HW159102   7.915   1.262   1.072
15543SOL    HW259103   7.950   1.152   0.957
15544SOL     OW59104   7.589   5.044   1.615
15544SOL    HW159105   7.619   4.970   1.675
15544SOL    HW259106   7.564   5.124   1.670
15545SOL     OW59107   8.608   4.041   0.868
15545SOL    HW159108   8.658   4.051   0.782
15545SOL    HW259109   8.516   4.079   0.858
15546SOL     OW59110   7.708   4.920   2.450
15546SOL    HW159111   7.649   4.939   2.529
15546SOL    HW259112   7.670   4.844   2.397
15547SOL     OW59113   7.859   0.197   0.647
15547SOL    HW159114   7.794   0.183   0.721
15547SOL    HW259115   7.838   0.134   0.572
15548SOL     OW59116   8.632   3.991   2.204
15548SOL    HW159117   8.562   4.020   2.139
15548SOL    HW259118   8.605   3.905   2.247
15549SOL     OW59119   8.724   3.866   7.351
15549SOL    HW159120   8.793   3.848   7.282
15549SOL    HW259121   8.707   3.964   7.357
15550SOL     OW59122   7.549   3.042   7.186
15550SOL    HW159123   7.577   3.090   7.270
15550SOL    HW259124   7.487   2.967   7.210
15551SOL     OW59125   7.892   0.304   5.349
15551SOL    HW159126   7.837   0.369   5.401
15551SOL    HW259127   7.900   0.219   5.400
15552SOL     OW59128   7.571   2.175   5.944
15552SOL    HW159129   7.485   2.143   5.905
15552SOL    HW259130   7.559   2.191   6.042
15553SOL     OW59131   8.267   3.392   5.288
15553SOL    HW159132   8.232   3.299   5.272
15553SOL    HW259133   8.193   3.457   5.274
15554SOL     OW59134   8.605   8.963   2.557
15554SOL    HW159135   8.519   0.011   2.577
15554SOL    HW259136   8.680   0.006   2.606
15555SOL     OW59137   7.904   1.180   1.706
15555SOL    HW159138   7.852   1.154   1.625
15555SOL    HW259139   7.979   1.115   1.720
15556SOL     OW59140   8.320   3.042   4.518
15556SOL    HW159141   8.405   3.079   4.481
15556SOL    HW259142   8.242   3.084   4.470
15557SOL     OW59143   8.428   0.763   4.101
15557SOL    HW159144   8.494   0.760   4.177
15557SOL    HW259145   8.393   0.856   4.091
15558SOL     OW59146   7.625   5.323   3.753
15558SOL    HW159147   7.547   5.290   3.700
15558SOL    HW259148   7.650   5.254   3.821
15559SOL     OW59149   7.370   3.722   7.137
15559SOL    HW159150   7.273   3.741   7.124
15559SOL    HW259151   7.411   3.796   7.191
15560SOL     OW59152   8.670   4.789   6.750
15560SOL    HW159153   8.621   4.726   6.811
15560SOL    HW259154   8.706   4.865   6.803
15561SOL     OW59155   8.895   6.289   0.221
15561SOL    HW159156   8.904   6.360   0.151
15561SOL    HW259157   8.964   6.304   0.292
15562SOL     OW59158   7.708   0.275   3.084
15562SOL    HW159159   7.658   0.358   3.061
15562SOL    HW259160   7.787   0.299   3.142
15563SOL     OW59161   8.836   6.543   6.685
15563SOL    HW159162   8.879   6.478   6.622
15563SOL    HW259163   8.848   6.636   6.650
15564SOL     OW59164   7.658   4.477   6.378
15564SOL    HW159165   7.587   4.516   6.319
15564SOL    HW259166   7.748   4.505   6.343
15565SOL     OW59167   7.896   3.046   4.416
15565SOL    HW159168   7.863   3.006   4.331
15565SOL    HW259169   7.819   3.084   4.468
15566SOL     OW59170   7.406   1.698   2.835
15566SOL    HW159171   7.453   1.620   2.794
15566SOL    HW259172   7.472   1.761   2.874
15567SOL     OW59173   7.535   1.948   1.822
15567SOL    HW159174   7.551   1.953   1.921
15567SOL    HW259175   7.563   1.858   1.789
15568SOL     OW59176   8.689   2.747   7.141
15568SOL    HW159177   8.761   2.712   7.201
15568SOL    HW259178   8.678   2.685   7.063
15569SOL     OW59179   8.663   3.490   0.299
15569SOL    HW159180   8.677   3.391   0.304
15569SOL    HW259181   8.609   3.513   0.218
15570SOL     OW59182   8.261   7.020   0.604
15570SOL    HW159183   8.272   7.062   0.514
15570SOL    HW259184   8.334   7.052   0.664
15571SOL     OW59185   8.271   5.367   2.872
15571SOL    HW159186   8.281   5.274   2.907
15571SOL    HW259187   8.324   5.430   2.930
15572SOL     OW59188   7.593   6.964   6.971
15572SOL    HW159189   7.549   6.945   7.059
15572SOL    HW259190   7.531   6.939   6.896
15573SOL     OW59191   7.716   0.412   5.539
15573SOL    HW159192   7.665   0.327   5.532
15573SOL    HW259193   7.659   0.488   5.507
15574SOL     OW59194   7.412   4.368   5.859
15574SOL    HW159195   7.351   4.446   5.845
15574SOL    HW259196   7.489   4.375   5.796
15575SOL     OW59197   8.598   5.347   6.567
15575SOL    HW159198   8.575   5.440   6.595
15575SOL    HW259199   8.631   5.347   6.473
15576SOL     OW59200   7.770   4.017   1.274
15576SOL    HW159201   7.756   3.923   1.243
15576SOL    HW259202   7.777   4.078   1.195
15577SOL     OW59203   8.066   0.448   1.916
15577SOL    HW159204   8.113   0.498   1.989
15577SOL    HW259205   8.016   0.513   1.858
15578SOL     OW59206   8.539   2.907   7.313
15578SOL    HW159207   8.590   2.843   7.256
15578SOL    HW259208   8.498   2.977   7.255
15579SOL     OW59209   7.443   6.619   2.863
15579SOL    HW159210   7.481   6.691   2.921
15579SOL    HW259211   7.431   6.536   2.918
15580SOL     OW59212   7.677   3.339   4.261
15580SOL    HW159213   7.639   3.393   4.336
15580SOL    HW259214   7.773   3.318   4.279
15581SOL     OW59215   7.912   4.566   6.307
15581SOL    HW159216   7.922   4.592   6.211
15581SOL    HW259217   7.930   4.645   6.365
15582SOL     OW59218   7.979   4.929   1.619
15582SOL    HW159219   7.894   4.933   1.566
15582SOL    HW259220   8.057   4.916   1.556
15583SOL     OW59221   8.706   3.801   0.962
15583SOL    HW159222   8.658   3.882   0.930
15583SOL    HW259223   8.799   3.801   0.927
15584SOL     OW59224   8.783   5.036   3.579
15584SOL    HW159225   8.823   5.022   3.669
15584SOL    HW259226   8.842   5.096   3.525
15585SOL     OW59227   7.692   4.843   1.765
15585SOL    HW159228   7.787   4.849   1.794
15585SOL    HW259229   7.665   4.747   1.757
15586SOL     OW59230   8.721   3.520   6.225
15586SOL    HW159231   8.799   3.461   6.246
15586SOL    HW259232   8.740   3.613   6.257
15587SOL     OW59233   7.908   3.720   0.960
15587SOL    HW159234   7.983   3.674   0.911
15587SOL    HW259235   7.855   3.775   0.896
15588SOL     OW59236   8.916   4.701   0.228
15588SOL    HW159237   8.965   4.715   0.314
15588SOL    HW259238   8.935   4.610   0.193
15589SOL     OW59239   7.993   5.606   1.282
15589SOL    HW159240   7.916   5.628   1.222
15589SOL    HW259241   8.075   5.653   1.249
15590SOL     OW59242   7.516   1.911   5.402
15590SOL    HW159243   7.514   1.820   5.363
15590SOL    HW259244   7.590   1.917   5.469
15591SOL     OW59245   8.611   2.071   3.484
15591SOL    HW159246   8.711   2.066   3.486
15591SOL    HW259247   8.573   1.981   3.463
15592SOL     OW59248   8.737   5.959   5.329
15592SOL    HW159249   8.817   5.906   5.301
15592SOL    HW259250   8.692   5.996   5.248
15593SOL     OW59251   8.233   2.034   1.261
15593SOL    HW159252   8.250   2.127   1.229
15593SOL    HW259253   8.213   1.975   1.183
15594SOL     OW59254   0.193   5.591   4.291
15594SOL    HW159255   0.291   5.580   4.274
15594SOL    HW259256   0.155   5.504   4.323
15595SOL     OW59257   7.511   3.145   0.842
15595SOL    HW159258   7.555   3.057   0.824
15595SOL    HW259259   7.430   3.154   0.784
15596SOL     OW59260   7.975   3.548   1.661
15596SOL    HW159261   8.013   3.620   1.604
15596SOL    HW259262   7.993   3.568   1.757
15597SOL     OW59263   8.609   2.574   5.644
15597SOL    HW159264   8.520   2.599   5.683
15597SOL    HW259265   8.642   2.649   5.587
15598SOL     OW59266   8.600   5.352   0.330
15598SOL    HW159267   8.598   5.252   0.337
15598SOL    HW259268   8.671   5.388   0.390
15599SOL     OW59269   8.434   6.017   3.745
15599SOL    HW159270   8.393   5.926   3.749
15599SOL    HW259271   8.374   6.083   3.790
15600SOL     OW59272   8.773   7.235   6.763
15600SOL    HW159273   8.865   7.269   6.782
15600SOL    HW259274   8.773   7.189   6.674
15601SOL     OW59275   8.834   0.837   1.917
15601SOL    HW159276   8.736   0.840   1.939
15601SOL    HW259277   8.852   0.760   1.855
15602SOL     OW59278   8.184   5.492   0.674
15602SOL    HW159279   8.188   5.535   0.764
15602SOL    HW259280   8.274   5.456   0.650
15603SOL     OW59281   8.686   7.107   7.174
15603SOL    HW159282   8.616   7.132   7.107
15603SOL    HW259283   8.664   7.018   7.214
15604SOL     OW59284   8.165   0.512   7.141
15604SOL    HW159285   8.237   0.487   7.077
15604SOL    HW259286   8.104   0.434   7.155
15605SOL     OW59287   7.568   0.504   3.031
15605SOL    HW159288   7.590   0.559   2.951
15605SOL    HW259289   7.563   0.563   3.112
15606SOL     OW59290   8.700   2.802   6.512
15606SOL    HW159291   8.690   2.841   6.421
15606SOL    HW259292   8.690   2.702   6.507
15607SOL     OW59293   7.593   5.884   1.331
15607SOL    HW159294   7.505   5.871   1.377
15607SOL    HW259295   7.588   5.845   1.239
15608SOL     OW59296   8.076   3.128   1.871
15608SOL    HW159297   8.014   3.142   1.949
15608SOL    HW259298   8.045   3.182   1.793
15609SOL     OW59299   8.239   6.943   7.127
15609SOL    HW159300   8.286   6.970   7.043
15609SOL    HW259301   8.298   6.882   7.180
15610SOL     OW59302   7.429   4.603   3.145
15610SOL    HW159303   7.503   4.539   3.124
15610SOL    HW259304   7.361   4.600   3.072
15611SOL     OW59305   7.614   1.687   1.768
15611SOL    HW159306   7.535   1.640   1.728
15611SOL    HW259307   7.697   1.663   1.718
15612SOL     OW59308   8.013   3.871   2.273
15612SOL    HW159309   7.970   3.915   2.352
15612SOL    HW259310   8.112   3.870   2.286
15613SOL     OW59311   0.364   3.932   2.905
15613SOL    HW159312   0.331   3.970   2.992
15613SOL    HW259313   0.462   3.950   2.896
15614SOL     OW59314   8.051   2.907   6.424
15614SOL    HW159315   8.025   2.977   6.357
15614SOL    HW259316   7.970   2.876   6.473
15615SOL     OW59317   8.735   0.649   6.219
15615SOL    HW159318   8.722   0.731   6.164
15615SOL    HW259319   8.803   0.590   6.176
15616SOL     OW59320   7.531   1.887   0.665
15616SOL    HW159321   7.530   1.787   0.673
15616SOL    HW259322   7.615   1.923   0.708
15617SOL     OW59323   7.899   5.527   5.447
15617SOL    HW159324   7.925   5.508   5.352
15617SOL    HW259325   7.981   5.535   5.503
15618SOL     OW59326   7.880   0.096   5.525
15618SOL    HW159327   7.781   0.094   5.514
15618SOL    HW259328   7.902   0.137   5.613
15619SOL     OW59329   7.676   1.087   5.315
15619SOL    HW159330   7.631   1.143   5.246
15619SOL    HW259331   7.758   1.133   5.348
15620SOL     OW59332   7.638   0.080   5.799
15620SOL    HW159333   7.618   0.078   5.897
15620SOL    HW259334   7.719   0.137   5.783
15621SOL     OW59335   7.471   0.230   2.633
15621SOL    HW159336   7.466   0.269   2.726
15621SOL    HW259337   7.540   0.280   2.581
15622SOL     OW59338   8.255   1.351   6.793
15622SOL    HW159339   8.339   1.352   6.848
15622SOL    HW259340   8.180   1.388   6.848
15623SOL     OW59341   7.840   2.031   4.015
15623SOL    HW159342   7.768   2.100   4.005
15623SOL    HW259343   7.800   1.941   4.031
15624SOL     OW59344   7.923   6.010   5.939
15624SOL    HW159345   7.884   6.091   5.981
15624SOL    HW259346   7.850   5.953   5.902
15625SOL     OW59347   8.041   7.312   0.759
15625SOL    HW159348   8.006   7.403   0.737
15625SOL    HW259349   8.028   7.294   0.857
15626SOL     OW59350   7.744   2.939   3.568
15626SOL    HW159351   7.731   2.874   3.643
15626SOL    HW259352   7.787   3.022   3.603
15627SOL     OW59353   8.669   2.087   1.071
15627SOL    HW159354   8.675   1.999   1.119
15627SOL    HW259355   8.641   2.158   1.136
15628SOL     OW59356   7.713   4.087   2.270
15628SOL    HW159357   7.751   4.046   2.353
15628SOL    HW259358   7.764   4.055   2.190
15629SOL     OW59359   8.764   7.239   6.319
15629SOL    HW159360   8.765   7.174   6.395
15629SOL    HW259361   8.689   7.217   6.257
15630SOL     OW59362   8.802   3.769   6.306
15630SOL    HW159363   8.843   3.836   6.244
15630SOL    HW259364   8.870   3.739   6.373
15631SOL     OW59365   8.244   5.626   4.801
15631SOL    HW159366   8.237   5.536   4.757
15631SOL    HW259367   8.226   5.697   4.733
15632SOL     OW59368   7.418   4.005   4.338
15632SOL    HW159369   7.452   3.973   4.249
15632SOL    HW259370   7.363   3.934   4.380
15633SOL     OW59371   8.558   2.308   3.185
15633SOL    HW159372   8.527   2.286   3.093
15633SOL    HW259373   8.650   2.347   3.181
15634SOL     OW59374   8.122   1.767   1.891
15634SOL    HW159375   8.112   1.844   1.953
15634SOL    HW259376   8.218   1.744   1.880
15635SOL     OW59377   8.557   1.512   0.059
15635SOL    HW159378   8.646   1.485   0.022
15635SOL    HW259379   8.486   1.496   8.991
15636SOL     OW59380   8.836   4.082   7.055
15636SOL    HW159381   8.849   4.154   7.123
15636SOL    HW259382   8.862   3.994   7.094
15637SOL     OW59383   8.314   4.706   4.013
15637SOL    HW159384   8.258   4.736   3.936
15637SOL    HW259385   8.371   4.782   4.045
15638SOL     OW59386   8.269   2.374   6.339
15638SOL    HW159387   8.290   2.337   6.248
15638SOL    HW259388   8.308   2.315   6.409
15639SOL     OW59389   8.798   3.823   0.561
15639SOL    HW159390   8.760   3.909   0.595
15639SOL    HW259391   8.878   3.842   0.506
15640SOL     OW59392   7.836   4.804   2.078
15640SOL    HW159393   7.766   4.732   2.086
15640SOL    HW259394   7.878   4.800   1.988
15641SOL     OW59395   7.566   6.125   7.118
15641SOL    HW159396   7.584   6.200   7.182
15641SOL    HW259397   7.473   6.090   7.133
15642SOL     OW59398   8.474   3.799   0.239
15642SOL    HW159399   8.401   3.750   0.192
15642SOL    HW259400   8.534   3.843   0.171
15643SOL     OW59401   8.760   1.132   2.909
15643SOL    HW159402   8.819   1.053   2.924
15643SOL    HW259403   8.668   1.111   2.944
15644SOL     OW59404   8.533   3.082   6.854
15644SOL    HW159405   8.618   3.041   6.888
15644SOL    HW259406   8.477   3.112   6.931
15645SOL     OW59407   7.623   3.761   4.921
15645SOL    HW159408   7.622   3.789   5.017
15645SOL    HW259409   7.547   3.805   4.872
15646SOL     OW59410   8.765   4.398   4.481
15646SOL    HW159411   8.755   4.298   4.482
15646SOL    HW259412   8.732   4.434   4.394
15647SOL     OW59413   7.732   4.010   7.082
15647SOL    HW159414   7.668   4.083   7.057
15647SOL    HW259415   7.771   3.971   6.998
15648SOL     OW59416   8.088   3.736   3.128
15648SOL    HW159417   8.012   3.672   3.140
15648SOL    HW259418   8.119   3.767   3.218
15649SOL     OW59419   0.037   0.552   5.538
15649SOL    HW159420   0.108   0.586   5.477
15649SOL    HW259421   0.054   0.585   5.631
15650SOL     OW59422   0.108   3.429   2.225
15650SOL    HW159423   0.071   3.359   2.163
15650SOL    HW259424   0.206   3.437   2.211
15651SOL     OW59425   7.922   3.445   3.952
15651SOL    HW159426   7.832   3.423   3.914
15651SOL    HW259427   7.988   3.456   3.877
15652SOL     OW59428   8.550   1.653   2.224
15652SOL    HW159429   8.579   1.599   2.304
15652SOL    HW259430   8.562   1.750   2.243
15653SOL     OW59431   7.931   3.497   3.116
15653SOL    HW159432   7.870   3.426   3.080
15653SOL    HW259433   8.026   3.474   3.094
15654SOL     OW59434   8.831   1.111   1.868
15654SOL    HW159435   8.829   1.012   1.887
15654SOL    HW259436   8.759   1.134   1.802
15655SOL     OW59437   0.078   4.187   4.007
15655SOL    HW159438   8.993   4.226   4.042
15655SOL    HW259439   0.154   4.249   4.027
15656SOL     OW59440   7.995   5.252   4.567
15656SOL    HW159441   8.006   5.190   4.490
15656SOL    HW259442   7.915   5.311   4.550
15657SOL     OW59443   8.739   5.023   6.885
15657SOL    HW159444   8.659   5.077   6.908
15657SOL    HW259445   8.782   5.060   6.802
15658SOL     OW59446   8.776   2.478   1.396
15658SOL    HW159447   8.765   2.575   1.417
15658SOL    HW259448   8.861   2.465   1.345
15659SOL     OW59449   8.093   3.590   0.793
15659SOL    HW159450   8.059   3.572   0.701
15659SOL    HW259451   8.127   3.505   0.834
15660SOL     OW59452   8.077   4.094   4.097
15660SOL    HW159453   8.084   4.000   4.065
15660SOL    HW259454   7.993   4.105   4.150
15661SOL     OW59455   7.741   4.450   1.173
15661SOL    HW159456   7.649   4.469   1.138
15661SOL    HW259457   7.735   4.393   1.254
15662SOL     OW59458   7.838   6.549   4.153
15662SOL    HW159459   7.903   6.553   4.077
15662SOL    HW259460   7.747   6.525   4.118
15663SOL     OW59461   7.712   5.875   5.818
15663SOL    HW159462   7.772   5.801   5.789
15663SOL    HW259463   7.712   5.947   5.749
15664SOL     OW59464   7.960   1.552   1.901
15664SOL    HW159465   7.879   1.572   1.956
15664SOL    HW259466   8.022   1.630   1.903
15665SOL     OW59467   8.341   1.705   1.179
15665SOL    HW159468   8.351   1.708   1.279
15665SOL    HW259469   8.432   1.703   1.137
15666SOL     OW59470   7.923   5.462   6.198
15666SOL    HW159471   7.852   5.493   6.262
15666SOL    HW259472   7.895   5.375   6.158
15667SOL     OW59473   8.578   7.174   6.121
15667SOL    HW159474   8.633   7.102   6.078
15667SOL    HW259475   8.482   7.162   6.094
15668SOL     OW59476   8.526   0.201   4.115
15668SOL    HW159477   8.559   0.108   4.097
15668SOL    HW259478   8.550   0.261   4.039
15669SOL     OW59479   7.839   3.606   5.831
15669SOL    HW159480   7.780   3.648   5.763
15669SOL    HW259481   7.896   3.536   5.787
15670SOL     OW59482   7.345   7.389   6.357
15670SOL    HW159483   7.274   7.406   6.288
15670SOL    HW259484   7.420   7.454   6.344
15671SOL     OW59485   8.000   3.769   5.083
15671SOL    HW159486   8.075   3.835   5.086
15671SOL    HW259487   8.013   3.705   5.007
15672SOL     OW59488   8.323   7.218   3.740
15672SOL    HW159489   8.330   7.166   3.655
15672SOL    HW259490   8.262   7.171   3.803
15673SOL     OW59491   8.326   1.148   0.738
15673SOL    HW159492   8.337   1.199   0.823
15673SOL    HW259493   8.364   1.201   0.662
15674SOL     OW59494   7.785   0.883   5.904
15674SOL    HW159495   7.879   0.913   5.917
15674SOL    HW259496   7.744   0.860   5.992
15675SOL     OW59497   7.783   2.289   0.451
15675SOL    HW159498   7.874   2.332   0.458
15675SOL    HW259499   7.713   2.360   0.449
15676SOL     OW59500   8.799   0.722   6.707
15676SOL    HW159501   8.711   0.728   6.659
15676SOL    HW259502   8.803   0.792   6.778
15677SOL     OW59503   7.543   6.425   6.756
15677SOL    HW159504   7.455   6.470   6.739
15677SOL    HW259505   7.572   6.443   6.850
15678SOL     OW59506   7.701   2.691   0.055
15678SOL    HW159507   7.783   2.721   0.104
15678SOL    HW259508   7.627   2.676   0.120
15679SOL     OW59509   8.631   4.557   0.987
15679SOL    HW159510   8.645   4.585   1.082
15679SOL    HW259511   8.674   4.468   0.973
15680SOL     OW59512   7.516   5.699   3.600
15680SOL    HW159513   7.480   5.785   3.565
15680SOL    HW259514   7.482   5.623   3.545
15681SOL     OW59515   8.935   4.499   5.788
15681SOL    HW159516   0.001   4.457   5.851
15681SOL    HW259517   8.984   4.546   5.714
15682SOL     OW59518   7.360   2.994   5.598
15682SOL    HW159519   7.290   2.923   5.592
15682SOL    HW259520   7.345   3.062   5.525
15683SOL     OW59521   8.595   4.980   1.425
15683SOL    HW159522   8.652   4.986   1.507
15683SOL    HW259523   8.507   5.024   1.442
15684SOL     OW59524   7.354   5.053   0.542
15684SOL    HW159525   7.399   5.113   0.608
15684SOL    HW259526   7.348   5.099   0.454
15685SOL     OW59527   7.394   1.159   7.119
15685SOL    HW159528   7.452   1.100   7.063
15685SOL    HW259529   7.413   1.255   7.098
15686SOL     OW59530   8.634   1.206   3.236
15686SOL    HW159531   8.622   1.303   3.257
15686SOL    HW259532   8.732   1.185   3.229
15687SOL     OW59533   8.882   2.628   7.290
15687SOL    HW159534   8.879   2.534   7.256
15687SOL    HW259535   8.849   2.631   7.385
15688SOL     OW59536   7.735   4.804   3.476
15688SOL    HW159537   7.822   4.757   3.466
15688SOL    HW259538   7.688   4.808   3.388
15689SOL     OW59539   8.726   2.504   6.105
15689SOL    HW159540   8.659   2.577   6.119
15689SOL    HW259541   8.747   2.497   6.008
15690SOL     OW59542   7.642   4.681   5.446
15690SOL    HW159543   7.698   4.664   5.527
15690SOL    HW259544   7.671   4.767   5.404
15691SOL     OW59545   7.955   5.284   2.363
15691SOL    HW159546   8.020   5.357   2.382
15691SOL    HW259547   7.975   5.243   2.273
15692SOL     OW59548   8.762   5.347   6.860
15692SOL    HW159549   8.813   5.290   6.795
15692SOL    HW259550   8.677   5.301   6.883
15693SOL     OW59551   8.801   1.413   8.985
15693SOL    HW159552   8.801   1.350   0.063
15693SOL    HW259553   8.896   1.436   8.961
15694SOL     OW59554   8.978   1.588   3.630
15694SOL    HW159555   0.012   1.495   3.620
15694SOL    HW259556   8.906   1.605   3.562
15695SOL     OW59557   7.760   1.703   2.743
15695SOL    HW159558   7.773   1.607   2.771
15695SOL    HW259559   7.719   1.705   2.652
15696SOL     OW59560   8.374   4.671   5.363
15696SOL    HW159561   8.336   4.619   5.440
15696SOL    HW259562   8.465   4.704   5.386
15697SOL     OW59563   7.453   1.413   7.056
15697SOL    HW159564   7.377   1.468   7.092
15697SOL    HW259565   7.496   1.462   6.980
15698SOL     OW59566   8.375   2.995   1.579
15698SOL    HW159567   8.293   2.970   1.527
15698SOL    HW259568   8.349   3.025   1.670
15699SOL     OW59569   7.500   2.203   6.213
15699SOL    HW159570   7.575   2.224   6.276
15699SOL    HW259571   7.431   2.275   6.217
15700SOL     OW59572   8.927   4.141   3.774
15700SOL    HW159573   8.995   4.152   3.847
15700SOL    HW259574   8.837   4.128   3.815
15701SOL     OW59575   7.551   0.265   0.987
15701SOL    HW159576   7.606   0.306   1.059
15701SOL    HW259577   7.475   0.327   0.964
15702SOL     OW59578   7.754   6.325   2.545
15702SOL    HW159579   7.840   6.289   2.580
15702SOL    HW259580   7.701   6.365   2.620
15703SOL     OW59581   8.318   4.614   1.943
15703SOL    HW159582   8.246   4.648   2.003
15703SOL    HW259583   8.279   4.553   1.875
15704SOL     OW59584   7.961   3.077   6.227
15704SOL    HW159585   8.058   3.085   6.201
15704SOL    HW259586   7.907   3.140   6.172
15705SOL     OW59587   8.434   4.908   0.732
15705SOL    HW159588   8.504   4.837   0.734
15705SOL    HW259589   8.345   4.866   0.712
15706SOL     OW59590   7.676   4.317   6.592
15706SOL    HW159591   7.767   4.275   6.590
15706SOL    HW259592   7.666   4.377   6.512
15707SOL     OW59593   8.095   1.486   0.495
15707SOL    HW159594   8.028   1.559   0.511
15707SOL    HW259595   8.180   1.509   0.543
15708SOL     OW59596   8.097   6.618   6.164
15708SOL    HW159597   8.051   6.702   6.135
15708SOL    HW259598   8.047   6.578   6.241
15709SOL     OW59599   8.082   3.328   2.874
15709SOL    HW159600   8.137   3.394   2.925
15709SOL    HW259601   8.134   3.243   2.863
15710SOL     OW59602   7.646   3.175   5.196
15710SOL    HW159603   7.679   3.136   5.111
15710SOL    HW259604   7.712   3.157   5.269
15711SOL     OW59605   8.195   5.588   0.936
15711SOL    HW159606   8.109   5.537   0.940
15711SOL    HW259607   8.196   5.657   1.009
15712SOL     OW59608   7.586   5.798   1.067
15712SOL    HW159609   7.676   5.753   1.066
15712SOL    HW259610   7.589   5.879   1.008
15713SOL     OW59611   8.412   1.988   4.055
15713SOL    HW159612   8.452   1.976   3.964
15713SOL    HW259613   8.312   1.990   4.048
15714SOL     OW59614   8.193   3.129   5.210
15714SOL    HW159615   8.106   3.173   5.188
15714SOL    HW259616   8.237   3.098   5.127
15715SOL     OW59617   8.531   4.261   0.577
15715SOL    HW159618   8.471   4.242   0.499
15715SOL    HW259619   8.564   4.355   0.571
15716SOL     OW59620   8.431   0.022   1.228
15716SOL    HW159621   8.513   0.078   1.221
15716SOL    HW259622   8.377   0.051   1.307
15717SOL     OW59623   8.920   5.830   0.295
15717SOL    HW159624   8.997   5.811   0.357
15717SOL    HW259625   8.942   5.908   0.237
15718SOL     OW59626   8.322   5.334   4.479
15718SOL    HW159627   8.258   5.411   4.480
15718SOL    HW259628   8.290   5.265   4.414
15719SOL     OW59629   8.613   4.708   1.495
15719SOL    HW159630   8.577   4.716   1.588
15719SOL    HW259631   8.615   4.798   1.452
15720SOL     OW59632   7.505   1.009   2.697
15720SOL    HW159633   7.519   0.961   2.610
15720SOL    HW259634   7.431   0.965   2.748
15721SOL     OW59635   7.565   4.797   5.843
15721SOL    HW159636   7.538   4.879   5.893
15721SOL    HW259637   7.511   4.788   5.760
15722SOL     OW59638   7.397   3.802   3.014
15722SOL    HW159639   7.366   3.771   2.925
15722SOL    HW259640   7.333   3.870   3.051
15723SOL     OW59641   7.375   2.663   6.846
15723SOL    HW159642   7.391   2.594   6.776
15723SOL    HW259643   7.461   2.708   6.869
15724SOL     OW59644   8.510   1.831   0.767
15724SOL    HW159645   8.428   1.834   0.710
15724SOL    HW259646   8.591   1.835   0.709
15725SOL     OW59647   8.470   1.478   3.593
15725SOL    HW159648   8.489   1.575   3.611
15725SOL    HW259649   8.430   1.436   3.675
15726SOL     OW59650   8.825   2.169   6.146
15726SOL    HW159651   8.827   2.231   6.224
15726SOL    HW259652   8.880   2.089   6.166
15727SOL     OW59653   8.754   1.863   0.640
15727SOL    HW159654   8.776   1.947   0.592
15727SOL    HW259655   8.818   1.791   0.613
15728SOL     OW59656   8.844   5.224   4.694
15728SOL    HW159657   8.790   5.148   4.658
15728SOL    HW259658   8.794   5.309   4.683
15729SOL     OW59659   8.946   2.454   0.119
15729SOL    HW159660   8.872   2.407   0.167
15729SOL    HW259661   0.004   2.386   0.073
15730SOL     OW59662   8.769   2.116   5.700
15730SOL    HW159663   8.736   2.189   5.640
15730SOL    HW259664   8.836   2.153   5.765
15731SOL     OW59665   7.510   5.653   2.029
15731SOL    HW159666   7.436   5.651   2.097
15731SOL    HW259667   7.579   5.720   2.057
15732SOL     OW59668   7.476   2.477   5.050
15732SOL    HW159669   7.565   2.456   5.091
15732SOL    HW259670   7.428   2.544   5.106
15733SOL     OW59671   8.571   8.822   3.414
15733SOL    HW159672   8.478   8.787   3.412
15733SOL    HW259673   8.574   8.912   3.370
15734SOL     OW59674   7.754   1.088   1.497
15734SOL    HW159675   7.785   0.994   1.479
15734SOL    HW259676   7.733   1.133   1.410
15735SOL     OW59677   8.568   5.039   0.941
15735SOL    HW159678   8.517   4.990   0.871
15735SOL    HW259679   8.618   5.115   0.899
15736SOL     OW59680   7.535   4.232   0.204
15736SOL    HW159681   7.542   4.249   0.105
15736SOL    HW259682   7.584   4.148   0.227
15737SOL     OW59683   7.512   3.664   0.151
15737SOL    HW159684   7.478   3.757   0.149
15737SOL    HW259685   7.436   3.600   0.165
15738SOL     OW59686   8.710   4.250   2.217
15738SOL    HW159687   8.686   4.154   2.202
15738SOL    HW259688   8.715   4.297   2.129
15739SOL     OW59689   7.612   2.242   6.724
15739SOL    HW159690   7.525   2.194   6.720
15739SOL    HW259691   7.681   2.183   6.766
15740SOL     OW59692   8.442   5.753   0.409
15740SOL    HW159693   8.400   5.744   0.319
15740SOL    HW259694   8.439   5.665   0.456
15741SOL     OW59695   7.585   4.809   3.248
15741SOL    HW159696   7.532   4.732   3.212
15741SOL    HW259697   7.538   4.895   3.224
15742SOL     OW59698   7.839   5.696   1.062
15742SOL    HW159699   7.879   5.617   1.015
15742SOL    HW259700   7.893   5.777   1.042
15743SOL     OW59701   8.127   1.750   6.847
15743SOL    HW159702   8.117   1.684   6.922
15743SOL    HW259703   8.074   1.719   6.768
15744SOL     OW59704   7.606   6.353   7.270
15744SOL    HW159705   7.545   6.400   7.333
15744SOL    HW259706   7.617   6.408   7.187
15745SOL     OW59707   7.661   6.709   7.205
15745SOL    HW159708   7.646   6.716   7.303
15745SOL    HW259709   7.728   6.777   7.176
15746SOL     OW59710   8.106   5.532   0.150
15746SOL    HW159711   8.020   5.568   0.112
15746SOL    HW259712   8.091   5.501   0.243
15747SOL     OW59713   7.552   3.399   5.331
15747SOL    HW159714   7.501   3.387   5.416
15747SOL    HW259715   7.570   3.309   5.291
15748SOL     OW59716   8.612   0.385   7.191
15748SOL    HW159717   8.643   0.302   7.144
15748SOL    HW259718   8.513   0.391   7.187
15749SOL     OW59719   7.714   6.293   0.267
15749SOL    HW159720   7.797   6.248   0.300
15749SOL    HW259721   7.737   6.352   0.189
15750SOL     OW59722   8.247   1.742   6.324
15750SOL    HW159723   8.209   1.817   6.378
15750SOL    HW259724   8.221   1.753   6.228
15751SOL     OW59725   7.431   1.534   1.640
15751SOL    HW159726   7.498   1.500   1.574
15751SOL    HW259727   7.381   1.456   1.679
15752SOL     OW59728   7.567   0.631   5.454
15752SOL    HW159729   7.568   0.681   5.541
15752SOL    HW259730   7.608   0.688   5.383
15753SOL     OW59731   8.604   6.481   0.690
15753SOL    HW159732   8.532   6.439   0.635
15753SOL    HW259733   8.576   6.484   0.786
15754SOL     OW59734   8.678   2.413   2.289
15754SOL    HW159735   8.658   2.318   2.315
15754SOL    HW259736   8.738   2.454   2.357
15755SOL     OW59737   7.992   7.338   1.878
15755SOL    HW159738   8.019   7.404   1.947
15755SOL    HW259739   8.049   7.349   1.797
15756SOL     OW59740   7.756   6.676   4.954
15756SOL    HW159741   7.832   6.612   4.942
15756SOL    HW259742   7.746   6.699   5.051
15757SOL     OW59743   8.258   1.580   7.099
15757SOL    HW159744   8.195   1.507   7.071
15757SOL    HW259745   8.343   1.539   7.133
15758SOL     OW59746   8.131   4.269   0.697
15758SOL    HW159747   8.104   4.332   0.770
15758SOL    HW259748   8.222   4.233   0.715
15759SOL     OW59749   7.443   0.752   0.828
15759SOL    HW159750   7.509   0.826   0.818
15759SOL    HW259751   7.374   0.777   0.896
15760SOL     OW59752   8.792   2.112   7.090
15760SOL    HW159753   8.722   2.044   7.113
15760SOL    HW259754   8.882   2.068   7.089
15761SOL     OW59755   8.411   2.075   0.060
15761SOL    HW159756   8.406   2.113   8.968
15761SOL    HW259757   8.498   2.028   0.072
15762SOL     OW59758   8.272   3.805   0.783
15762SOL    HW159759   8.205   3.731   0.776
15762SOL    HW259760   8.319   3.815   0.696
15763SOL     OW59761   8.454   4.751   1.733
15763SOL    HW159762   8.465   4.847   1.757
15763SOL    HW259763   8.421   4.700   1.812
15764SOL     OW59764   7.906   2.276   6.563
15764SOL    HW159765   7.877   2.334   6.639
15764SOL    HW259766   7.990   2.229   6.587
15765SOL     OW59767   8.138   4.222   7.172
15765SOL    HW159768   8.211   4.154   7.175
15765SOL    HW259769   8.056   4.184   7.215
15766SOL     OW59770   7.403   4.171   5.345
15766SOL    HW159771   7.411   4.266   5.376
15766SOL    HW259772   7.491   4.125   5.357
15767SOL     OW59773   7.648   0.122   1.636
15767SOL    HW159774   7.596   0.038   1.649
15767SOL    HW259775   7.604   0.178   1.565
15768SOL     OW59776   7.578   5.216   5.811
15768SOL    HW159777   7.586   5.200   5.713
15768SOL    HW259778   7.595   5.312   5.831
15769SOL     OW59779   8.063   3.606   4.875
15769SOL    HW159780   7.998   3.653   4.815
15769SOL    HW259781   8.049   3.507   4.869
15770SOL     OW59782   8.198   1.882   1.033
15770SOL    HW159783   8.250   1.812   1.082
15770SOL    HW259784   8.261   1.944   0.986
15771SOL     OW59785   8.566   4.567   2.330
15771SOL    HW159786   8.537   4.476   2.359
15771SOL    HW259787   8.665   4.575   2.338
15772SOL     OW59788   7.731   1.409   2.812
15772SOL    HW159789   7.649   1.442   2.766
15772SOL    HW259790   7.799   1.381   2.744
15773SOL     OW59791   8.023   6.912   0.682
15773SOL    HW159792   7.971   6.991   0.712
15773SOL    HW259793   8.115   6.941   0.653
15774SOL     OW59794   7.560   7.204   2.739
15774SOL    HW159795   7.577   7.228   2.834
15774SOL    HW259796   7.547   7.105   2.731
15775SOL     OW59797   7.705   0.344   1.198
15775SOL    HW159798   7.798   0.367   1.169
15775SOL    HW259799   7.669   0.418   1.254
15776SOL     OW59800   8.974   3.660   4.616
15776SOL    HW159801   0.023   3.683   4.700
15776SOL    HW259802   0.022   3.700   4.538
15777SOL     OW59803   8.466   3.282   3.884
15777SOL    HW159804   8.521   3.305   3.964
15777SOL    HW259805   8.434   3.366   3.840
15778SOL     OW59806   8.717   4.236   1.029
15778SOL    HW159807   8.680   4.164   0.970
15778SOL    HW259808   8.790   4.198   1.086
15779SOL     OW59809   7.601   4.797   1.260
15779SOL    HW159810   7.612   4.782   1.162
15779SOL    HW259811   7.511   4.763   1.290
15780SOL     OW59812   8.589   4.266   0.111
15780SOL    HW159813   8.562   4.257   0.016
15780SOL    HW259814   8.641   4.185   0.139
15781SOL     OW59815   8.452   5.755   7.231
15781SOL    HW159816   8.395   5.691   7.181
15781SOL    HW259817   8.478   5.830   7.170
15782SOL     OW59818   7.787   0.118   1.878
15782SOL    HW159819   7.742   0.124   1.789
15782SOL    HW259820   7.819   0.025   1.892
15783SOL     OW59821   7.815   4.364   7.259
15783SOL    HW159822   7.855   4.273   7.256
15783SOL    HW259823   7.870   4.424   7.317
15784SOL     OW59824   8.808   2.390   6.331
15784SOL    HW159825   8.785   2.429   6.242
15784SOL    HW259826   8.760   2.440   6.403
15785SOL     OW59827   8.381   5.281   4.889
15785SOL    HW159828   8.426   5.249   4.805
15785SOL    HW259829   8.322   5.209   4.924
15786SOL     OW59830   8.235   6.322   6.741
15786SOL    HW159831   8.264   6.416   6.725
15786SOL    HW259832   8.220   6.308   6.839
15787SOL     OW59833   8.280   5.397   7.329
15787SOL    HW159834   8.374   5.399   7.363
15787SOL    HW259835   8.222   5.451   7.390
15788SOL     OW59836   7.405   4.824   4.697
15788SOL    HW159837   7.363   4.827   4.606
15788SOL    HW259838   7.412   4.729   4.727
15789SOL     OW59839   8.701   0.696   2.689
15789SOL    HW159840   8.640   0.657   2.620
15789SOL    HW259841   8.680   0.657   2.778
15790SOL     OW59842   7.433   3.529   2.388
15790SOL    HW159843   7.370   3.520   2.464
15790SOL    HW259844   7.391   3.492   2.305
15791SOL     OW59845   8.379   1.299   6.544
15791SOL    HW159846   8.384   1.375   6.478
15791SOL    HW259847   8.327   1.327   6.624
15792SOL     OW59848   8.669   2.100   0.799
15792SOL    HW159849   8.668   2.098   0.899
15792SOL    HW259850   8.696   2.011   0.763
15793SOL     OW59851   8.052   6.573   6.851
15793SOL    HW159852   8.127   6.582   6.786
15793SOL    HW259853   8.053   6.650   6.915
15794SOL     OW59854   8.007   4.937   6.878
15794SOL    HW159855   7.989   4.847   6.917
15794SOL    HW259856   8.082   4.930   6.812
15795SOL     OW59857   8.682   6.893   6.722
15795SOL    HW159858   8.728   6.925   6.805
15795SOL    HW259859   8.597   6.846   6.748
15796SOL     OW59860   8.256   4.129   2.426
15796SOL    HW159861   8.245   4.138   2.525
15796SOL    HW259862   8.206   4.201   2.380
15797SOL     OW59863   8.916   2.839   6.683
15797SOL    HW159864   8.977   2.905   6.639
15797SOL    HW259865   8.835   2.824   6.626
15798SOL     OW59866   8.354   1.706   1.452
15798SOL    HW159867   8.319   1.624   1.498
15798SOL    HW259868   8.306   1.787   1.485
15799SOL     OW59869   8.192   2.759   6.245
15799SOL    HW159870   8.133   2.809   6.309
15799SOL    HW259871   8.243   2.688   6.294
15800SOL     OW59872   8.155   2.946   1.392
15800SOL    HW159873   8.105   3.033   1.397
15800SOL    HW259874   8.203   2.941   1.304
15801SOL     OW59875   8.272   2.785   6.543
15801SOL    HW159876   8.201   2.852   6.525
15801SOL    HW259877   8.338   2.823   6.608
15802SOL     OW59878   8.398   2.542   2.959
15802SOL    HW159879   8.456   2.586   3.027
15802SOL    HW259880   8.339   2.475   3.004
15803SOL     OW59881   7.584   5.172   5.533
15803SOL    HW159882   7.587   5.090   5.476
15803SOL    HW259883   7.676   5.212   5.538
15804SOL     OW59884   7.913   1.910   2.258
15804SOL    HW159885   7.951   1.945   2.343
15804SOL    HW259886   7.976   1.930   2.183
15805SOL     OW59887   8.525   3.369   5.201
15805SOL    HW159888   8.432   3.385   5.234
15805SOL    HW259889   8.521   3.324   5.111
15806SOL     OW59890   7.444   4.169   2.277
15806SOL    HW159891   7.385   4.097   2.313
15806SOL    HW259892   7.539   4.136   2.274
15807SOL     OW59893   8.369   5.650   1.741
15807SOL    HW159894   8.372   5.633   1.839
15807SOL    HW259895   8.434   5.590   1.694
15808SOL     OW59896   8.451   0.693   3.832
15808SOL    HW159897   8.364   0.679   3.785
15808SOL    HW259898   8.434   0.715   3.928
15809SOL     OW59899   8.706   2.896   5.249
15809SOL    HW159900   8.725   2.985   5.291
15809SOL    HW259901   8.610   2.892   5.220
15810SOL     OW59902   8.619   1.870   2.775
15810SOL    HW159903   8.666   1.783   2.787
15810SOL    HW259904   8.614   1.918   2.862
15811SOL     OW59905   8.170   1.694   3.636
15811SOL    HW159906   8.153   1.600   3.664
15811SOL    HW259907   8.205   1.696   3.542
15812SOL     OW59908   8.868   1.023   7.132
15812SOL    HW159909   8.958   1.064   7.115
15812SOL    HW259910   8.813   1.086   7.186
15813SOL     OW59911   8.159   1.444   2.759
15813SOL    HW159912   8.200   1.485   2.841
15813SOL    HW259913   8.123   1.516   2.700
15814SOL     OW59914   8.000   1.900   0.849
15814SOL    HW159915   8.065   1.888   0.923
15814SOL    HW259916   8.043   1.952   0.775
15815SOL     OW59917   8.361   0.443   6.964
15815SOL    HW159918   8.424   0.514   6.932
15815SOL    HW259919   8.384   0.356   6.922
15816SOL     OW59920   8.063   5.625   6.003
15816SOL    HW159921   8.013   5.570   6.070
15816SOL    HW259922   8.087   5.713   6.043
15817SOL     OW59923   8.681   0.780   5.693
15817SOL    HW159924   8.764   0.816   5.734
15817SOL    HW259925   8.704   0.701   5.635
15818SOL     OW59926   8.749   4.413   5.968
15818SOL    HW159927   8.817   4.440   5.899
15818SOL    HW259928   8.754   4.314   5.981
15819SOL     OW59929   8.925   6.462   6.931
15819SOL    HW159930   8.884   6.487   6.844
15819SOL    HW259931   8.996   6.393   6.916
15820SOL     OW59932   7.747   6.982   5.065
15820SOL    HW159933   7.812   6.973   4.989
15820SOL    HW259934   7.752   6.901   5.123
15821SOL     OW59935   8.530   4.644   6.943
15821SOL    HW159936   8.535   4.546   6.958
15821SOL    HW259937   8.436   4.670   6.921
15822SOL     OW59938   7.402   0.906   6.173
15822SOL    HW159939   7.311   0.871   6.197
15822SOL    HW259940   7.398   0.952   6.084
15823SOL     OW59941   8.392   5.929   1.142
15823SOL    HW159942   8.438   5.930   1.054
15823SOL    HW259943   8.407   6.017   1.188
15824SOL     OW59944   8.031   3.203   1.406
15824SOL    HW159945   7.988   3.278   1.356
15824SOL    HW259946   8.018   3.216   1.504
15825SOL     OW59947   7.758   6.099   5.669
15825SOL    HW159948   7.720   6.181   5.712
15825SOL    HW259949   7.857   6.110   5.660
15826SOL     OW59950   8.008   3.950   2.971
15826SOL    HW159951   8.045   3.868   3.016
15826SOL    HW259952   8.071   4.026   2.986
15827SOL     OW59953   8.982   1.556   1.274
15827SOL    HW159954   0.022   1.552   1.366
15827SOL    HW259955   8.903   1.495   1.270
15828SOL     OW59956   7.530   6.486   0.344
15828SOL    HW159957   7.587   6.405   0.332
15828SOL    HW259958   7.481   6.480   0.431
15829SOL     OW59959   8.881   2.486   2.688
15829SOL    HW159960   8.899   2.584   2.689
15829SOL    HW259961   8.786   2.470   2.715
15830SOL     OW59962   8.669   4.466   4.232
15830SOL    HW159963   8.580   4.419   4.237
15830SOL    HW259964   8.658   4.551   4.180
15831SOL     OW59965   8.715   4.981   1.171
15831SOL    HW159966   8.647   4.990   1.099
15831SOL    HW259967   8.669   4.982   1.260
15832SOL     OW59968   7.597   7.082   1.318
15832SOL    HW159969   7.524   7.131   1.365
15832SOL    HW259970   7.583   6.983   1.328
15833SOL     OW59971   7.857   2.952   7.253
15833SOL    HW159972   7.864   2.986   7.160
15833SOL    HW259973   7.803   3.016   7.308
15834SOL     OW59974   8.185   3.135   7.311
15834SOL    HW159975   8.105   3.178   7.270
15834SOL    HW259976   8.217   3.190   7.388
15835SOL     OW59977   7.882   1.353   2.600
15835SOL    HW159978   7.840   1.277   2.550
15835SOL    HW259979   7.918   1.420   2.534
15836SOL     OW59980   8.412   4.233   1.419
15836SOL    HW159981   8.437   4.253   1.325
15836SOL    HW259982   8.431   4.314   1.476
15837SOL     OW59983   8.505   1.386   1.597
15837SOL    HW159984   8.410   1.411   1.577
15837SOL    HW259985   8.546   1.455   1.657
15838SOL     OW59986   8.347   5.070   1.547
15838SOL    HW159987   8.385   5.058   1.639
15838SOL    HW259988   8.284   5.148   1.547
15839SOL     OW59989   8.502   2.413   5.217
15839SOL    HW159990   8.596   2.395   5.246
15839SOL    HW259991   8.476   2.505   5.244
15840SOL     OW59992   0.200   6.547   1.010
15840SOL    HW159993   0.235   6.629   0.966
15840SOL    HW259994   0.275   6.483   1.027
15841SOL     OW59995   8.095   3.575   4.306
15841SOL    HW159996   8.097   3.489   4.254
15841SOL    HW259997   8.001   3.599   4.327
15842SOL     OW59998   8.484   3.204   5.953
15842SOL    HW159999   8.401   3.238   5.997
15842SOL    HW260000   8.525   3.278   5.899
15843SOL     OW60001   7.948   5.463   0.958
15843SOL    HW160002   7.883   5.428   0.890
15843SOL    HW260003   7.994   5.386   1.001
15844SOL     OW60004   8.973   4.121   0.508
15844SOL    HW160005   8.949   4.193   0.442
15844SOL    HW260006   0.062   4.082   0.484
15845SOL     OW60007   8.270   0.913   6.850
15845SOL    HW160008   8.250   0.823   6.811
15845SOL    HW260009   8.210   0.981   6.807
15846SOL     OW60010   7.915   5.152   3.750
15846SOL    HW160011   7.862   5.176   3.832
15846SOL    HW260012   7.940   5.236   3.702
15847SOL     OW60013   7.383   0.361   7.197
15847SOL    HW160014   7.389   0.457   7.169
15847SOL    HW260015   7.323   0.312   7.134
15848SOL     OW60016   8.901   0.070   6.687
15848SOL    HW160017   8.966   8.999   6.714
15848SOL    HW260018   8.893   0.071   6.587
15849SOL     OW60019   8.574   4.684   3.618
15849SOL    HW160020   8.553   4.613   3.551
15849SOL    HW260021   8.558   4.774   3.577
15850SOL     OW60022   7.798   0.562   2.113
15850SOL    HW160023   7.832   0.641   2.064
15850SOL    HW260024   7.756   0.498   2.048
15851SOL     OW60025   8.819   1.670   1.592
15851SOL    HW160026   8.899   1.624   1.553
15851SOL    HW260027   8.757   1.696   1.518
15852SOL     OW60028   7.836   1.487   0.276
15852SOL    HW160029   7.891   1.408   0.303
15852SOL    HW260030   7.745   1.480   0.316
15853SOL     OW60031   8.381   6.637   7.030
15853SOL    HW160032   8.401   6.539   7.029
15853SOL    HW260033   8.380   6.671   7.124
15854SOL     OW60034   7.571   2.688   1.017
15854SOL    HW160035   7.575   2.603   0.964
15854SOL    HW260036   7.661   2.706   1.057
15855SOL     OW60037   8.454   5.660   0.847
15855SOL    HW160038   8.472   5.757   0.863
15855SOL    HW260039   8.364   5.636   0.883
15856SOL     OW60040   8.913   3.961   6.138
15856SOL    HW160041   8.953   3.948   6.047
15856SOL    HW260042   8.978   4.010   6.196
15857SOL     OW60043   8.808   7.021   6.933
15857SOL    HW160044   8.790   7.047   7.028
15857SOL    HW260045   8.804   7.103   6.875
15858SOL     OW60046   8.946   2.420   0.885
15858SOL    HW160047   8.919   2.353   0.954
15858SOL    HW260048   8.867   2.443   0.828
15859SOL     OW60049   8.369   2.052   0.915
15859SOL    HW160050   8.382   2.151   0.918
15859SOL    HW260051   8.445   2.009   0.865
15860SOL     OW60052   8.119   1.662   2.592
15860SOL    HW160053   8.214   1.654   2.564
15860SOL    HW260054   8.059   1.623   2.522
15861SOL     OW60055   7.597   5.743   6.024
15861SOL    HW160056   7.608   5.797   6.107
15861SOL    HW260057   7.635   5.794   5.946
15862SOL     OW60058   8.918   1.108   3.780
15862SOL    HW160059   8.935   1.009   3.775
15862SOL    HW260060   8.917   1.146   3.688
15863SOL     OW60061   8.224   3.188   3.982
15863SOL    HW160062   8.313   3.217   3.946
15863SOL    HW260063   8.177   3.134   3.912
15864SOL     OW60064   8.762   3.154   0.851
15864SOL    HW160065   8.785   3.245   0.817
15864SOL    HW260066   8.665   3.138   0.839
15865SOL     OW60067   8.817   3.284   3.325
15865SOL    HW160068   8.863   3.209   3.278
15865SOL    HW260069   8.837   3.280   3.423
15866SOL     OW60070   8.327   2.842   6.029
15866SOL    HW160071   8.415   2.800   6.053
15866SOL    HW260072   8.257   2.812   6.094
15867SOL     OW60073   7.721   1.612   2.018
15867SOL    HW160074   7.664   1.639   1.940
15867SOL    HW260075   7.706   1.515   2.037
15868SOL     OW60076   7.958   5.676   1.550
15868SOL    HW160077   7.885   5.744   1.561
15868SOL    HW260078   7.966   5.652   1.453
15869SOL     OW60079   8.437   3.271   0.138
15869SOL    HW160080   8.462   3.364   0.110
15869SOL    HW260081   8.409   3.273   0.234
15870SOL     OW60082   8.204   3.732   6.428
15870SOL    HW160083   8.273   3.718   6.358
15870SOL    HW260084   8.212   3.661   6.498
15871SOL     OW60085   8.422   0.795   5.786
15871SOL    HW160086   8.514   0.792   5.746
15871SOL    HW260087   8.357   0.754   5.722
15872SOL     OW60088   7.725   0.048   2.412
15872SOL    HW160089   7.742   0.125   2.350
15872SOL    HW260090   7.629   0.021   2.405
15873SOL     OW60091   7.757   6.496   1.411
15873SOL    HW160092   7.711   6.418   1.367
15873SOL    HW260093   7.746   6.488   1.510
15874SOL     OW60094   8.031   7.090   7.245
15874SOL    HW160095   8.109   7.037   7.212
15874SOL    HW260096   8.057   7.140   7.327
15875SOL     OW60097   7.974   7.375   1.462
15875SOL    HW160098   8.026   7.387   1.547
15875SOL    HW260099   8.034   7.337   1.392
15876SOL     OW60100   8.007   6.676   7.275
15876SOL    HW160101   8.072   6.721   7.336
15876SOL    HW260102   8.011   6.719   7.184
15877SOL     OW60103   8.466   4.549   3.842
15877SOL    HW160104   8.414   4.602   3.909
15877SOL    HW260105   8.497   4.609   3.769
15878SOL     OW60106   7.545   3.196   6.385
15878SOL    HW160107   7.567   3.282   6.341
15878SOL    HW260108   7.629   3.146   6.406
15879SOL     OW60109   8.680   4.711   0.096
15879SOL    HW160110   8.695   4.778   0.023
15879SOL    HW260111   8.765   4.699   0.147
15880SOL     OW60112   8.582   6.210   5.966
15880SOL    HW160113   8.488   6.244   5.961
15880SOL    HW260114   8.591   6.149   6.045
15881SOL     OW60115   8.375   0.100   2.607
15881SOL    HW160116   8.332   0.189   2.595
15881SOL    HW260117   8.305   0.029   2.607
15882SOL     OW60118   8.491   2.228   2.924
15882SOL    HW160119   8.556   2.152   2.927
15882SOL    HW260120   8.482   2.260   2.830
15883SOL     OW60121   8.767   0.904   6.906
15883SOL    HW160122   8.675   0.943   6.893
15883SOL    HW260123   8.807   0.942   6.990
15884SOL     OW60124   8.133   7.096   5.274
15884SOL    HW160125   8.094   7.183   5.244
15884SOL    HW260126   8.113   7.025   5.207
15885SOL     OW60127   8.370   2.909   4.753
15885SOL    HW160128   8.342   2.958   4.671
15885SOL    HW260129   8.441   2.843   4.730
15886SOL     OW60130   7.652   6.739   5.569
15886SOL    HW160131   7.615   6.684   5.493
15886SOL    HW260132   7.734   6.786   5.539
15887SOL     OW60133   7.938   5.065   2.534
15887SOL    HW160134   7.942   5.145   2.475
15887SOL    HW260135   7.864   5.005   2.504
15888SOL     OW60136   7.709   5.652   4.816
15888SOL    HW160137   7.639   5.721   4.835
15888SOL    HW260138   7.664   5.568   4.785
15889SOL     OW60139   7.476   3.772   5.508
15889SOL    HW160140   7.397   3.719   5.539
15889SOL    HW260141   7.466   3.792   5.410
15890SOL     OW60142   8.697   2.953   2.579
15890SOL    HW160143   8.630   2.884   2.606
15890SOL    HW260144   8.650   3.040   2.564
15891SOL     OW60145   0.092   3.721   4.372
15891SOL    HW160146   0.188   3.700   4.391
15891SOL    HW260147   0.067   3.684   4.283
15892SOL     OW60148   8.030   6.797   7.025
15892SOL    HW160149   8.111   6.845   7.057
15892SOL    HW260150   7.962   6.865   6.994
15893SOL     OW60151   7.604   0.099   6.080
15893SOL    HW160152   7.599   0.001   6.098
15893SOL    HW260153   7.598   0.149   6.167
15894SOL     OW60154   8.570   2.165   6.058
15894SOL    HW160155   8.665   2.162   6.089
15894SOL    HW260156   8.566   2.200   5.964
15895SOL     OW60157   8.390   6.770   7.274
15895SOL    HW160158   8.488   6.771   7.296
15895SOL    HW260159   8.337   6.755   7.357
15896SOL     OW60160   8.553   8.946   2.287
15896SOL    HW160161   8.580   8.963   2.381
15896SOL    HW260162   8.530   8.849   2.275
15897SOL     OW60163   7.428   6.838   5.706
15897SOL    HW160164   7.511   6.807   5.660
15897SOL    HW260165   7.357   6.857   5.638
15898SOL     OW60166   8.320   2.410   3.579
15898SOL    HW160167   8.259   2.370   3.510
15898SOL    HW260168   8.274   2.485   3.625
15899SOL     OW60169   8.909   4.807   0.803
15899SOL    HW160170   8.945   4.889   0.760
15899SOL    HW260171   8.915   4.815   0.903
15900SOL     OW60172   7.452   3.899   4.736
15900SOL    HW160173   7.417   3.985   4.775
15900SOL    HW260174   7.376   3.837   4.720
15901SOL     OW60175   8.693   1.612   3.056
15901SOL    HW160176   8.613   1.565   3.019
15901SOL    HW260177   8.762   1.622   2.984
15902SOL     OW60178   8.621   4.822   5.175
15902SOL    HW160179   8.642   4.813   5.273
15902SOL    HW260180   8.696   4.872   5.130
15903SOL     OW60181   7.470   1.309   1.060
15903SOL    HW160182   7.464   1.398   1.014
15903SOL    HW260183   7.561   1.297   1.098
15904SOL     OW60184   7.550   1.222   1.636
15904SOL    HW160185   7.596   1.141   1.599
15904SOL    HW260186   7.585   1.304   1.593
15905SOL     OW60187   8.496   4.207   6.361
15905SOL    HW160188   8.567   4.277   6.374
15905SOL    HW260189   8.540   4.119   6.344
15906SOL     OW60190   0.052   0.715   7.083
15906SOL    HW160191   8.974   0.730   7.143
15906SOL    HW260192   0.068   0.796   7.027
15907SOL     OW60193   8.270   3.635   7.289
15907SOL    HW160194   8.201   3.564   7.303
15907SOL    HW260195   8.227   3.725   7.291
15908SOL     OW60196   7.433   3.123   4.609
15908SOL    HW160197   7.405   3.213   4.575
15908SOL    HW260198   7.406   3.052   4.544
15909SOL     OW60199   8.644   6.891   5.776
15909SOL    HW160200   8.688   6.922   5.860
15909SOL    HW260201   8.568   6.830   5.798
15910SOL     OW60202   8.243   6.866   5.692
15910SOL    HW160203   8.257   6.960   5.722
15910SOL    HW260204   8.209   6.866   5.598
15911SOL     OW60205   7.504   3.336   6.624
15911SOL    HW160206   7.590   3.304   6.663
15911SOL    HW260207   7.490   3.294   6.534
15912SOL     OW60208   0.350   2.569   6.275
15912SOL    HW160209   0.369   2.479   6.234
15912SOL    HW260210   0.301   2.556   6.361
15913SOL     OW60211   7.762   1.162   2.451
15913SOL    HW160212   7.692   1.183   2.382
15913SOL    HW260213   7.814   1.082   2.422
15914SOL     OW60214   8.497   2.613   0.304
15914SOL    HW160215   8.443   2.571   0.231
15914SOL    HW260216   8.474   2.711   0.310
15915SOL     OW60217   8.729   5.447   7.118
15915SOL    HW160218   8.770   5.421   7.031
15915SOL    HW260219   8.699   5.365   7.167
15916SOL     OW60220   8.327   4.801   4.867
15916SOL    HW160221   8.412   4.830   4.823
15916SOL    HW260222   8.330   4.826   4.964
15917SOL     OW60223   7.887   2.219   6.160
15917SOL    HW160224   7.977   2.176   6.167
15917SOL    HW260225   7.884   2.278   6.079
15918SOL     OW60226   8.672   2.226   4.785
15918SOL    HW160227   8.688   2.321   4.811
15918SOL    HW260228   8.607   2.223   4.709
15919SOL     OW60229   7.356   2.446   4.583
15919SOL    HW160230   7.373   2.503   4.664
15919SOL    HW260231   7.437   2.444   4.526
15920SOL     OW60232   8.717   3.141   6.094
15920SOL    HW160233   8.628   3.161   6.052
15920SOL    HW260234   8.742   3.216   6.155
15921SOL     OW60235   7.523   7.353   0.397
15921SOL    HW160236   7.425   7.335   0.402
15921SOL    HW260237   7.574   7.274   0.430
15922SOL     OW60238   8.648   0.321   6.094
15922SOL    HW160239   8.588   0.394   6.062
15922SOL    HW260240   8.621   0.234   6.051
15923SOL     OW60241   8.275   1.812   0.577
15923SOL    HW160242   8.351   1.845   0.521
15923SOL    HW260243   8.287   1.714   0.595
15924SOL     OW60244   7.842   3.155   3.706
15924SOL    HW160245   7.798   3.125   3.791
15924SOL    HW260246   7.941   3.147   3.716
15925SOL     OW60247   8.909   1.170   3.228
15925SOL    HW160248   8.969   1.249   3.219
15925SOL    HW260249   8.929   1.105   3.155
15926SOL     OW60250   8.340   1.019   4.090
15926SOL    HW160251   8.248   1.053   4.108
15926SOL    HW260252   8.376   1.060   4.006
15927SOL     OW60253   8.782   3.521   1.318
15927SOL    HW160254   8.709   3.580   1.351
15927SOL    HW260255   8.870   3.553   1.353
15928SOL     OW60256   7.974   0.487   2.304
15928SOL    HW160257   7.901   0.506   2.238
15928SOL    HW260258   7.937   0.494   2.397
15929SOL     OW60259   8.361   0.962   2.518
15929SOL    HW160260   8.450   0.922   2.498
15929SOL    HW260261   8.367   1.018   2.601
15930SOL     OW60262   8.348   3.915   6.180
15930SOL    HW160263   8.255   3.952   6.172
15930SOL    HW260264   8.370   3.862   6.099
15931SOL     OW60265   0.032   4.032   1.514
15931SOL    HW160266   8.945   4.006   1.471
15931SOL    HW260267   0.103   3.966   1.487
15932SOL     OW60268   8.131   1.539   1.122
15932SOL    HW160269   8.121   1.464   1.188
15932SOL    HW260270   8.194   1.607   1.158
15933SOL     OW60271   7.917   5.647   8.981
15933SOL    HW160272   7.935   5.641   8.883
15933SOL    HW260273   7.932   5.741   0.012
15934SOL     OW60274   8.360   2.658   5.245
15934SOL    HW160275   8.398   2.750   5.243
15934SOL    HW260276   8.305   2.642   5.163
15935SOL     OW60277   8.324   5.074   5.939
15935SOL    HW160278   8.276   5.112   6.018
15935SOL    HW260279   8.276   4.993   5.906
15936SOL     OW60280   8.322   7.337   0.792
15936SOL    HW160281   8.226   7.319   0.770
15936SOL    HW260282   8.376   7.254   0.776
15937SOL     OW60283   7.541   3.974   0.418
15937SOL    HW160284   7.590   3.892   0.446
15937SOL    HW260285   7.495   3.957   0.331
15938SOL     OW60286   7.355   3.753   6.456
15938SOL    HW160287   7.377   3.750   6.554
15938SOL    HW260288   7.329   3.662   6.425
15939SOL     OW60289   8.759   2.507   0.669
15939SOL    HW160290   8.718   2.468   0.587
15939SOL    HW260291   8.705   2.586   0.699
15940SOL     OW60292   8.954   0.824   2.701
15940SOL    HW160293   0.017   0.809   2.625
15940SOL    HW260294   8.869   0.774   2.685
15941SOL     OW60295   7.938   1.136   3.238
15941SOL    HW160296   7.903   1.106   3.149
15941SOL    HW260297   8.019   1.083   3.262
15942SOL     OW60298   8.916   2.255   5.900
15942SOL    HW160299   8.875   2.227   5.987
15942SOL    HW260300   8.877   2.343   5.871
15943SOL     OW60301   7.595   2.889   0.805
15943SOL    HW160302   7.621   2.823   0.875
15943SOL    HW260303   7.521   2.851   0.749
15944SOL     OW60304   8.880   3.258   2.085
15944SOL    HW160305   8.826   3.193   2.031
15944SOL    HW260306   8.912   3.213   2.168
15945SOL     OW60307   8.063   3.738   1.478
15945SOL    HW160308   8.062   3.716   1.380
15945SOL    HW260309   8.011   3.822   1.493
15946SOL     OW60310   7.810   5.785   5.408
15946SOL    HW160311   7.802   5.803   5.310
15946SOL    HW260312   7.832   5.688   5.423
15947SOL     OW60313   7.595   1.529   6.849
15947SOL    HW160314   7.685   1.546   6.890
15947SOL    HW260315   7.588   1.580   6.764
15948SOL     OW60316   7.797   0.949   1.178
15948SOL    HW160317   7.853   1.015   1.129
15948SOL    HW260318   7.709   0.937   1.131
15949SOL     OW60319   8.588   0.056   3.277
15949SOL    HW160320   8.589   0.042   3.177
15949SOL    HW260321   8.550   0.145   3.298
15950SOL     OW60322   8.640   5.490   4.957
15950SOL    HW160323   8.684   5.402   4.972
15950SOL    HW260324   8.553   5.493   5.007
15951SOL     OW60325   8.541   3.517   2.203
15951SOL    HW160326   8.623   3.521   2.147
15951SOL    HW260327   8.528   3.424   2.237
15952SOL     OW60328   7.781   1.675   2.275
15952SOL    HW160329   7.828   1.763   2.272
15952SOL    HW260330   7.754   1.650   2.182
15953SOL     OW60331   7.919   4.190   1.685
15953SOL    HW160332   7.948   4.269   1.630
15953SOL    HW260333   7.996   4.159   1.741
15954SOL     OW60334   8.934   0.048   7.143
15954SOL    HW160335   8.940   0.025   7.240
15954SOL    HW260336   8.984   8.980   7.089
15955SOL     OW60337   7.575   2.122   2.988
15955SOL    HW160338   7.586   2.105   3.086
15955SOL    HW260339   7.581   2.036   2.938
15956SOL     OW60340   7.381   3.387   5.565
15956SOL    HW160341   7.339   3.338   5.641
15956SOL    HW260342   7.344   3.480   5.561
15957SOL     OW60343   8.158   4.759   3.791
15957SOL    HW160344   8.197   4.734   3.702
15957SOL    HW260345   8.076   4.704   3.807
15958SOL     OW60346   8.592   4.070   4.694
15958SOL    HW160347   8.501   4.038   4.668
15958SOL    HW260348   8.587   4.116   4.782
15959SOL     OW60349   8.378   3.002   0.411
15959SOL    HW160350   8.343   2.972   0.322
15959SOL    HW260351   8.362   3.100   0.422
15960SOL     OW60352   8.781   3.515   2.067
15960SOL    HW160353   8.831   3.569   2.134
15960SOL    HW260354   8.820   3.423   2.062
15961SOL     OW60355   8.309   6.114   6.574
15961SOL    HW160356   8.291   6.159   6.487
15961SOL    HW260357   8.294   6.178   6.649
15962SOL     OW60358   8.094   6.533   4.602
15962SOL    HW160359   8.037   6.516   4.521
15962SOL    HW260360   8.188   6.508   4.582
15963SOL     OW60361   7.780   3.613   0.118
15963SOL    HW160362   7.680   3.623   0.122
15963SOL    HW260363   7.822   3.666   0.191
15964SOL     OW60364   7.956   0.755   5.363
15964SOL    HW160365   7.947   0.717   5.455
15964SOL    HW260366   8.051   0.749   5.334
15965SOL     OW60367   8.360   4.988   5.610
15965SOL    HW160368   8.298   4.948   5.677
15965SOL    HW260369   8.441   4.931   5.601
15966SOL     OW60370   7.703   3.168   4.566
15966SOL    HW160371   7.727   3.243   4.626
15966SOL    HW260372   7.608   3.140   4.583
15967SOL     OW60373   8.007   6.175   1.898
15967SOL    HW160374   8.098   6.163   1.939
15967SOL    HW260375   7.948   6.224   1.962
15968SOL     OW60376   8.631   3.375   1.151
15968SOL    HW160377   8.691   3.423   1.214
15968SOL    HW260378   8.627   3.426   1.065
15969SOL     OW60379   8.513   5.235   4.644
15969SOL    HW160380   8.438   5.261   4.583
15969SOL    HW260381   8.574   5.313   4.658
15970SOL     OW60382   8.446   2.049   5.734
15970SOL    HW160383   8.498   2.131   5.758
15970SOL    HW260384   8.509   1.978   5.703
15971SOL     OW60385   7.969   1.530   2.410
15971SOL    HW160386   8.036   1.487   2.349
15971SOL    HW260387   7.899   1.576   2.355
15972SOL     OW60388   0.004   4.202   6.872
15972SOL    HW160389   0.045   4.133   6.813
15972SOL    HW260390   8.931   4.161   6.926
15973SOL     OW60391   7.481   5.118   3.985
15973SOL    HW160392   7.387   5.143   4.007
15973SOL    HW260393   7.481   5.030   3.937
15974SOL     OW60394   8.443   3.799   5.956
15974SOL    HW160395   8.514   3.730   5.964
15974SOL    HW260396   8.443   3.837   5.863
15975SOL     OW60397   8.180   3.304   0.980
15975SOL    HW160398   8.192   3.266   1.072
15975SOL    HW260399   8.255   3.366   0.960
15976SOL     OW60400   8.173   1.027   3.314
15976SOL    HW160401   8.140   1.011   3.407
15976SOL    HW260402   8.273   1.035   3.315
15977SOL     OW60403   8.283   7.133   5.759
15977SOL    HW160404   8.354   7.202   5.742
15977SOL    HW260405   8.267   7.125   5.857
15978SOL     OW60406   8.297   1.081   6.383
15978SOL    HW160407   8.324   1.159   6.441
15978SOL    HW260408   8.301   0.997   6.437
15979SOL     OW60409   7.912   5.699   5.779
15979SOL    HW160410   7.969   5.668   5.856
15979SOL    HW260411   7.971   5.739   5.709
15980SOL     OW60412   8.295   2.253   0.228
15980SOL    HW160413   8.340   2.179   0.178
15980SOL    HW260414   8.292   2.230   0.326
15981SOL     OW60415   7.897   3.961   1.527
15981SOL    HW160416   7.850   3.974   1.439
15981SOL    HW260417   7.904   4.049   1.574
15982SOL     OW60418   8.087   1.997   2.055
15982SOL    HW160419   8.014   2.064   2.050
15982SOL    HW260420   8.162   2.024   1.994
15983SOL     OW60421   8.409   4.141   3.166
15983SOL    HW160422   8.437   4.198   3.089
15983SOL    HW260423   8.487   4.086   3.197
15984SOL     OW60424   8.464   1.365   0.280
15984SOL    HW160425   8.368   1.387   0.261
15984SOL    HW260426   8.522   1.415   0.216
15985SOL     OW60427   8.057   1.807   3.217
15985SOL    HW160428   8.103   1.824   3.129
15985SOL    HW260429   7.997   1.885   3.238
15986SOL     OW60430   8.710   1.833   1.181
15986SOL    HW160431   8.673   1.775   1.109
15986SOL    HW260432   8.810   1.823   1.183
15987SOL     OW60433   8.743   3.733   3.250
15987SOL    HW160434   8.658   3.683   3.261
15987SOL    HW260435   8.728   3.829   3.274
15988SOL     OW60436   8.449   0.206   6.846
15988SOL    HW160437   8.544   0.219   6.817
15988SOL    HW260438   8.447   0.150   6.929
15989SOL     OW60439   7.329   3.462   3.628
15989SOL    HW160440   7.238   3.500   3.647
15989SOL    HW260441   7.399   3.525   3.660
15990SOL     OW60442   0.285   3.820   2.179
15990SOL    HW160443   0.269   3.841   2.083
15990SOL    HW260444   0.318   3.901   2.227
15991SOL     OW60445   8.776   5.587   6.724
15991SOL    HW160446   8.768   5.500   6.772
15991SOL    HW260447   8.864   5.591   6.675
15992SOL     OW60448   8.491   0.525   5.976
15992SOL    HW160449   8.572   0.525   5.917
15992SOL    HW260450   8.472   0.618   6.007
15993SOL     OW60451   7.808   6.485   0.078
15993SOL    HW160452   7.900   6.460   0.109
15993SOL    HW260453   7.777   6.566   0.127
15994SOL     OW60454   8.077   5.375   4.056
15994SOL    HW160455   8.128   5.440   4.111
15994SOL    HW260456   7.984   5.409   4.040
15995SOL     OW60457   8.592   5.759   6.600
15995SOL    HW160458   8.510   5.722   6.644
15995SOL    HW260459   8.672   5.707   6.631
15996SOL     OW60460   8.392   1.508   6.362
15996SOL    HW160461   8.465   1.520   6.294
15996SOL    HW260462   8.332   1.588   6.360
15997SOL     OW60463   7.526   3.894   4.097
15997SOL    HW160464   7.495   3.958   4.027
15997SOL    HW260465   7.551   3.807   4.055
15998SOL     OW60466   7.840   5.917   0.321
15998SOL    HW160467   7.845   5.875   0.411
15998SOL    HW260468   7.755   5.891   0.276
15999SOL     OW60469   7.978   0.966   7.342
15999SOL    HW160470   8.003   0.877   7.303
15999SOL    HW260471   7.902   1.005   7.291
16000SOL     OW60472   0.136   5.773   0.447
16000SOL    HW160473   0.121   5.739   0.540
16000SOL    HW260474   0.196   5.709   0.398
16001SOL     OW60475   0.100   1.047   1.890
16001SOL    HW160476   0.092   0.991   1.973
16001SOL    HW260477   0.012   1.091   1.872
16002SOL     OW60478   8.663   2.800   5.505
16002SOL    HW160479   8.688   2.810   5.408
16002SOL    HW260480   8.716   2.864   5.560
16003SOL     OW60481   8.464   5.823   4.503
16003SOL    HW160482   8.546   5.769   4.521
16003SOL    HW260483   8.481   5.885   4.426
16004SOL     OW60484   8.683   5.445   4.686
16004SOL    HW160485   8.664   5.468   4.782
16004SOL    HW260486   8.685   5.529   4.632
16005SOL     OW60487   7.516   6.095   0.270
16005SOL    HW160488   7.585   6.168   0.267
16005SOL    HW260489   7.431   6.131   0.308
16006SOL     OW60490   7.547   3.214   4.058
16006SOL    HW160491   7.466   3.171   4.097
16006SOL    HW260492   7.596   3.264   4.130
16007SOL     OW60493   7.805   3.050   2.679
16007SOL    HW160494   7.867   3.057   2.601
16007SOL    HW260495   7.858   3.050   2.764
16008SOL     OW60496   7.604   2.531   2.306
16008SOL    HW160497   7.584   2.581   2.222
16008SOL    HW260498   7.644   2.593   2.374
16009SOL     OW60499   8.386   2.982   5.806
16009SOL    HW160500   8.436   3.062   5.840
16009SOL    HW260501   8.356   2.926   5.884
16010SOL     OW60502   8.443   6.484   5.671
16010SOL    HW160503   8.436   6.481   5.571
16010SOL    HW260504   8.523   6.431   5.699
16011SOL     OW60505   7.552   4.300   7.277
16011SOL    HW160506   7.540   4.259   7.187
16011SOL    HW260507   7.645   4.335   7.287
16012SOL     OW60508   8.736   0.506   5.847
16012SOL    HW160509   8.823   0.524   5.892
16012SOL    HW260510   8.744   0.525   5.749
16013SOL     OW60511   8.635   0.909   2.513
16013SOL    HW160512   8.663   0.837   2.577
16013SOL    HW260513   8.657   0.998   2.552
16014SOL     OW60514   7.710   3.373   3.610
16014SOL    HW160515   7.765   3.293   3.634
16014SOL    HW260516   7.681   3.367   3.515
16015SOL     OW60517   8.383   1.696   1.854
16015SOL    HW160518   8.450   1.634   1.814
16015SOL    HW260519   8.417   1.790   1.846
16016SOL     OW60520   8.345   1.527   2.087
16016SOL    HW160521   8.417   1.564   2.146
16016SOL    HW260522   8.339   1.582   2.004
16017SOL     OW60523   8.762   7.002   5.997
16017SOL    HW160524   8.811   7.078   5.955
16017SOL    HW260525   8.826   6.944   6.046
16018SOL     OW60526   8.164   4.403   5.793
16018SOL    HW160527   8.218   4.428   5.873
16018SOL    HW260528   8.125   4.312   5.807
16019SOL     OW60529   8.536   6.056   6.196
16019SOL    HW160530   8.437   6.068   6.186
16019SOL    HW260531   8.557   6.025   6.288
16020SOL     OW60532   7.366   3.378   0.564
16020SOL    HW160533   7.419   3.302   0.528
16020SOL    HW260534   7.428   3.452   0.592
16021SOL     OW60535   8.681   4.703   4.082
16021SOL    HW160536   8.613   4.774   4.104
16021SOL    HW260537   8.701   4.705   3.984
16022SOL     OW60538   8.902   2.831   0.432
16022SOL    HW160539   8.863   2.764   0.369
16022SOL    HW260540   8.941   2.907   0.381
16023SOL     OW60541   7.771   5.036   2.204
16023SOL    HW160542   7.747   5.008   2.297
16023SOL    HW260543   7.791   4.955   2.149
16024SOL     OW60544   8.563   3.198   2.524
16024SOL    HW160545   8.467   3.195   2.553
16024SOL    HW260546   8.602   3.287   2.548
16025SOL     OW60547   7.744   5.184   3.975
16025SOL    HW160548   7.801   5.117   4.022
16025SOL    HW260549   7.648   5.164   3.992
16026SOL     OW60550   7.429   6.924   6.755
16026SOL    HW160551   7.469   6.998   6.702
16026SOL    HW260552   7.389   6.857   6.692
16027SOL     OW60553   8.502   4.887   0.211
16027SOL    HW160554   8.417   4.835   0.220
16027SOL    HW260555   8.575   4.826   0.178
16028SOL     OW60556   7.771   2.071   5.780
16028SOL    HW160557   7.707   2.117   5.841
16028SOL    HW260558   7.846   2.132   5.757
16029SOL     OW60559   7.413   7.346   2.142
16029SOL    HW160560   7.440   7.290   2.063
16029SOL    HW260561   7.495   7.381   2.188
16030SOL     OW60562   7.588   6.876   0.424
16030SOL    HW160563   7.492   6.859   0.448
16030SOL    HW260564   7.645   6.857   0.504
16031SOL     OW60565   7.572   3.768   4.494
16031SOL    HW160566   7.621   3.827   4.431
16031SOL    HW260567   7.532   3.824   4.567
16032SOL     OW60568   7.514   3.375   6.984
16032SOL    HW160569   7.481   3.438   6.914
16032SOL    HW260570   7.450   3.298   6.993
16033SOL     OW60571   8.330   4.296   6.778
16033SOL    HW160572   8.265   4.367   6.750
16033SOL    HW260573   8.336   4.226   6.707
16034SOL     OW60574   8.071   6.891   5.106
16034SOL    HW160575   8.052   6.801   5.146
16034SOL    HW260576   8.026   6.898   5.017
16035SOL     OW60577   8.585   5.101   5.834
16035SOL    HW160578   8.568   5.197   5.816
16035SOL    HW260579   8.505   5.061   5.880
16036SOL     OW60580   8.793   2.875   0.821
16036SOL    HW160581   8.710   2.834   0.784
16036SOL    HW260582   8.782   2.974   0.826
16037SOL     OW60583   8.480   1.890   0.427
16037SOL    HW160584   8.533   1.974   0.417
16037SOL    HW260585   8.492   1.833   0.346
16038SOL     OW60586   8.320   3.868   1.923
16038SOL    HW160587   8.317   3.796   1.992
16038SOL    HW260588   8.388   3.845   1.854
16039SOL     OW60589   8.651   5.913   0.307
16039SOL    HW160590   8.580   5.856   0.349
16039SOL    HW260591   8.741   5.872   0.323
16040SOL     OW60592   8.605   5.203   7.229
16040SOL    HW160593   8.546   5.123   7.241
16040SOL    HW260594   8.585   5.270   7.301
16041SOL     OW60595   7.953   6.166   0.336
16041SOL    HW160596   7.909   6.076   0.330
16041SOL    HW260597   8.050   6.154   0.353
16042SOL     OW60598   7.847   1.578   1.647
16042SOL    HW160599   7.875   1.537   1.735
16042SOL    HW260600   7.903   1.658   1.628
16043SOL     OW60601   7.451   4.590   6.227
16043SOL    HW160602   7.373   4.530   6.241
16043SOL    HW260603   7.419   4.684   6.210
16044SOL     OW60604   8.674   4.377   3.137
16044SOL    HW160605   8.765   4.386   3.096
16044SOL    HW260606   8.681   4.329   3.224
16045SOL     OW60607   8.495   2.092   6.316
16045SOL    HW160608   8.509   1.993   6.329
16045SOL    HW260609   8.526   2.118   6.225
16046SOL     OW60610   8.278   2.101   3.032
16046SOL    HW160611   8.321   2.072   3.117
16046SOL    HW260612   8.345   2.147   2.974
16047SOL     OW60613   8.384   5.118   0.552
16047SOL    HW160614   8.398   5.049   0.623
16047SOL    HW260615   8.459   5.113   0.486
16048SOL     OW60616   8.159   6.351   4.275
16048SOL    HW160617   8.215   6.296   4.338
16048SOL    HW260618   8.083   6.391   4.326
16049SOL     OW60619   7.477   2.282   3.354
16049SOL    HW160620   7.393   2.290   3.300
16049SOL    HW260621   7.537   2.213   3.312
16050SOL     OW60622   8.523   3.627   1.356
16050SOL    HW160623   8.455   3.665   1.419
16050SOL    HW260624   8.495   3.535   1.327
16051SOL     OW60625   7.623   4.445   0.351
16051SOL    HW160626   7.544   4.484   0.399
16051SOL    HW260627   7.593   4.367   0.296
16052SOL     OW60628   7.693   6.682   0.244
16052SOL    HW160629   7.635   6.608   0.279
16052SOL    HW260630   7.670   6.767   0.290
16053SOL     OW60631   8.645   4.724   0.759
16053SOL    HW160632   8.738   4.759   0.762
16053SOL    HW260633   8.629   4.665   0.839
16054SOL     OW60634   7.413   0.096   0.521
16054SOL    HW160635   7.486   0.142   0.472
16054SOL    HW260636   7.413   8.998   0.499
16055SOL     OW60637   7.994   3.706   6.919
16055SOL    HW160638   7.967   3.683   7.012
16055SOL    HW260639   7.934   3.778   6.883
16056SOL     OW60640   7.391   5.816   6.309
16056SOL    HW160641   7.348   5.854   6.391
16056SOL    HW260642   7.478   5.862   6.293
16057SOL     OW60643   7.570   1.254   5.126
16057SOL    HW160644   7.494   1.318   5.117
16057SOL    HW260645   7.634   1.267   5.049
16058SOL     OW60646   8.642   3.530   0.923
16058SOL    HW160647   8.659   3.627   0.937
16058SOL    HW260648   8.708   3.494   0.857
16059SOL     OW60649   8.252   4.881   3.087
16059SOL    HW160650   8.177   4.827   3.123
16059SOL    HW260651   8.331   4.873   3.147
16060SOL     OW60652   8.893   4.967   3.822
16060SOL    HW160653   8.841   4.882   3.833
16060SOL    HW260654   8.991   4.947   3.825
16061SOL     OW60655   7.818   5.461   0.339
16061SOL    HW160656   7.912   5.467   0.372
16061SOL    HW260657   7.780   5.371   0.363
16062SOL     OW60658   8.633   3.072   1.684
16062SOL    HW160659   8.647   3.061   1.782
16062SOL    HW260660   8.541   3.039   1.659
16063SOL     OW60661   8.638   3.529   3.616
16063SOL    HW160662   8.648   3.627   3.604
16063SOL    HW260663   8.722   3.491   3.657
16064SOL     OW60664   8.022   1.142   7.022
16064SOL    HW160665   8.086   1.087   7.076
16064SOL    HW260666   8.041   1.129   6.924
16065SOL     OW60667   7.723   7.263   1.496
16065SOL    HW160668   7.818   7.295   1.487
16065SOL    HW260669   7.704   7.195   1.426
16066SOL     OW60670   8.435   6.719   5.823
16066SOL    HW160671   8.449   6.637   5.767
16066SOL    HW260672   8.365   6.776   5.781
16067SOL     OW60673   8.353   4.086   5.791
16067SOL    HW160674   8.407   4.141   5.728
16067SOL    HW260675   8.391   4.093   5.884
16068SOL     OW60676   8.316   1.559   0.906
16068SOL    HW160677   8.393   1.614   0.940
16068SOL    HW260678   8.237   1.572   0.966
16069SOL     OW60679   7.685   5.298   2.285
16069SOL    HW160680   7.688   5.210   2.237
16069SOL    HW260681   7.775   5.318   2.324
16070SOL     OW60682   8.839   4.571   2.339
16070SOL    HW160683   8.899   4.510   2.391
16070SOL    HW260684   8.882   4.595   2.253
16071SOL     OW60685   8.200   2.360   3.104
16071SOL    HW160686   8.221   2.269   3.068
16071SOL    HW260687   8.193   2.354   3.204
16072SOL     OW60688   7.860   3.959   2.490
16072SOL    HW160689   7.819   3.873   2.521
16072SOL    HW260690   7.912   4.000   2.565
16073SOL     OW60691   7.570   2.209   1.736
16073SOL    HW160692   7.588   2.209   1.638
16073SOL    HW260693   7.562   2.115   1.769
16074SOL     OW60694   8.039   0.748   7.180
16074SOL    HW160695   8.088   0.661   7.175
16074SOL    HW260696   7.965   0.748   7.113
16075SOL     OW60697   7.870   2.037   0.523
16075SOL    HW160698   7.833   2.129   0.507
16075SOL    HW260699   7.812   1.970   0.477
16076SOL     OW60700   7.947   5.663   4.966
16076SOL    HW160701   7.863   5.648   4.914
16076SOL    HW260702   8.026   5.656   4.905
16077SOL     OW60703   8.543   5.916   7.012
16077SOL    HW160704   8.597   5.832   6.998
16077SOL    HW260705   8.482   5.929   6.934
16078SOL     OW60706   8.267   4.023   0.955
16078SOL    HW160707   8.301   4.104   0.908
16078SOL    HW260708   8.261   3.947   0.890
16079SOL     OW60709   8.445   5.300   3.910
16079SOL    HW160710   8.478   5.371   3.971
16079SOL    HW260711   8.372   5.248   3.955
16080SOL     OW60712   8.234   5.146   4.300
16080SOL    HW160713   8.245   5.153   4.201
16080SOL    HW260714   8.138   5.126   4.321
16081SOL     OW60715   7.777   3.066   6.463
16081SOL    HW160716   7.786   2.972   6.497
16081SOL    HW260717   7.837   3.079   6.385
16082SOL     OW60718   8.698   0.316   6.359
16082SOL    HW160719   8.680   0.307   6.261
16082SOL    HW260720   8.638   0.387   6.397
16083SOL     OW60721   7.431   6.587   6.182
16083SOL    HW160722   7.371   6.519   6.224
16083SOL    HW260723   7.412   6.591   6.084
16084SOL     OW60724   8.510   3.782   1.745
16084SOL    HW160725   8.540   3.696   1.788
16084SOL    HW260726   8.454   3.761   1.665
16085SOL     OW60727   8.038   6.087   5.696
16085SOL    HW160728   8.117   6.148   5.696
16085SOL    HW260729   8.012   6.065   5.790
16086SOL     OW60730   8.336   5.036   6.991
16086SOL    HW160731   8.374   4.994   7.074
16086SOL    HW260732   8.244   5.070   7.010
16087SOL     OW60733   7.669   0.355   1.966
16087SOL    HW160734   7.721   0.275   1.936
16087SOL    HW260735   7.571   0.333   1.968
16088SOL     OW60736   7.465   5.247   4.866
16088SOL    HW160737   7.412   5.162   4.865
16088SOL    HW260738   7.444   5.298   4.950
16089SOL     OW60739   8.583   3.550   1.877
16089SOL    HW160740   8.666   3.555   1.933
16089SOL    HW260741   8.541   3.460   1.888
16090SOL     OW60742   8.291   5.357   2.603
16090SOL    HW160743   8.389   5.360   2.585
16090SOL    HW260744   8.274   5.369   2.701
16091SOL     OW60745   8.593   5.980   4.859
16091SOL    HW160746   8.564   5.884   4.858
16091SOL    HW260747   8.657   5.997   4.784
16092SOL     OW60748   8.653   3.000   0.423
16092SOL    HW160749   8.700   2.939   0.487
16092SOL    HW260750   8.555   2.995   0.438
16093SOL     OW60751   8.656   4.011   3.242
16093SOL    HW160752   8.727   4.008   3.172
16093SOL    HW260753   8.672   4.090   3.301
16094SOL     OW60754   8.152   5.472   2.392
16094SOL    HW160755   8.205   5.436   2.469
16094SOL    HW260756   8.149   5.572   2.398
16095SOL     OW60757   7.636   2.911   5.918
16095SOL    HW160758   7.619   3.008   5.933
16095SOL    HW260759   7.707   2.879   5.981
16096SOL     OW60760   8.460   2.486   4.951
16096SOL    HW160761   8.544   2.490   4.895
16096SOL    HW260762   8.481   2.446   5.040
16097SOL     OW60763   8.542   0.619   6.861
16097SOL    HW160764   8.533   0.655   6.768
16097SOL    HW260765   8.631   0.646   6.899
16098SOL     OW60766   7.591   6.811   0.861
16098SOL    HW160767   7.651   6.818   0.782
16098SOL    HW260768   7.644   6.821   0.945
16099SOL     OW60769   7.935   5.800   6.681
16099SOL    HW160770   7.984   5.870   6.628
16099SOL    HW260771   7.855   5.769   6.628
16100SOL     OW60772   8.236   3.528   0.372
16100SOL    HW160773   8.308   3.553   0.438
16100SOL    HW260774   8.147   3.539   0.415
16101SOL     OW60775   8.534   3.232   2.250
16101SOL    HW160776   8.532   3.139   2.215
16101SOL    HW260777   8.549   3.232   2.348
16102SOL     OW60778   8.201   0.127   6.755
16102SOL    HW160779   8.292   0.160   6.780
16102SOL    HW260780   8.192   0.124   6.656
16103SOL     OW60781   7.964   3.276   1.665
16103SOL    HW160782   7.866   3.265   1.679
16103SOL    HW260783   7.988   3.373   1.666
16104SOL     OW60784   7.345   3.364   4.515
16104SOL    HW160785   7.267   3.407   4.470
16104SOL    HW260786   7.429   3.414   4.493
16105SOL     OW60787   8.425   5.329   5.852
16105SOL    HW160788   8.357   5.398   5.830
16105SOL    HW260789   8.379   5.244   5.877
16106SOL     OW60790   8.049   0.790   1.592
16106SOL    HW160791   8.014   0.727   1.661
16106SOL    HW260792   7.979   0.804   1.522
16107SOL     OW60793   8.350   3.899   0.465
16107SOL    HW160794   8.355   3.998   0.454
16107SOL    HW260795   8.404   3.854   0.394
16108SOL     OW60796   8.596   1.915   7.154
16108SOL    HW160797   8.653   1.834   7.165
16108SOL    HW260798   8.510   1.890   7.109
16109SOL     OW60799   8.015   2.437   0.460
16109SOL    HW160800   8.105   2.478   0.476
16109SOL    HW260801   7.993   2.443   0.363
16110SOL     OW60802   8.208   6.282   6.378
16110SOL    HW160803   8.258   6.369   6.376
16110SOL    HW260804   8.122   6.295   6.426
16111SOL     OW60805   7.536   3.570   5.888
16111SOL    HW160806   7.553   3.492   5.827
16111SOL    HW260807   7.587   3.557   5.973
16112SOL     OW60808   7.992   2.730   1.323
16112SOL    HW160809   8.054   2.802   1.352
16112SOL    HW260810   7.923   2.714   1.393
16113SOL     OW60811   8.559   6.531   0.183
16113SOL    HW160812   8.644   6.485   0.206
16113SOL    HW260813   8.574   6.591   0.104
16114SOL     OW60814   7.713   5.166   4.407
16114SOL    HW160815   7.717   5.258   4.446
16114SOL    HW260816   7.663   5.106   4.469
16115SOL     OW60817   7.778   0.323   6.007
16115SOL    HW160818   7.723   0.404   6.023
16115SOL    HW260819   7.730   0.242   6.041
16116SOL     OW60820   8.976   3.597   2.868
16116SOL    HW160821   0.012   3.505   2.879
16116SOL    HW260822   8.982   3.624   2.772
16117SOL     OW60823   8.681   4.356   1.966
16117SOL    HW160824   8.628   4.309   1.895
16117SOL    HW260825   8.636   4.442   1.990
16118SOL     OW60826   7.550   0.954   1.077
16118SOL    HW160827   7.483   1.009   1.027
16118SOL    HW260828   7.505   0.910   1.155
16119SOL     OW60829   8.044   2.635   6.599
16119SOL    HW160830   8.134   2.678   6.596
16119SOL    HW260831   8.033   2.574   6.520
16120SOL     OW60832   8.760   6.381   7.146
16120SOL    HW160833   8.820   6.410   7.072
16120SOL    HW260834   8.709   6.300   7.117
16121SOL     OW60835   8.868   5.182   1.058
16121SOL    HW160836   8.814   5.218   0.981
16121SOL    HW260837   8.812   5.118   1.110
16122SOL     OW60838   7.752   6.750   5.220
16122SOL    HW160839   7.805   6.789   5.295
16122SOL    HW260840   7.678   6.694   5.256
16123SOL     OW60841   7.459   5.715   3.235
16123SOL    HW160842   7.501   5.679   3.152
16123SOL    HW260843   7.447   5.641   3.301
16124SOL     OW60844   8.598   2.003   1.552
16124SOL    HW160845   8.689   2.043   1.562
16124SOL    HW260846   8.606   1.912   1.511
16125SOL     OW60847   7.620   2.923   5.638
16125SOL    HW160848   7.640   2.914   5.736
16125SOL    HW260849   7.527   2.956   5.626
16126SOL     OW60850   8.740   5.891   0.035
16126SOL    HW160851   8.674   5.914   0.106
16126SOL    HW260852   8.766   5.795   0.042
16127SOL     OW60853   7.411   4.386   5.111
16127SOL    HW160854   7.460   4.407   5.196
16127SOL    HW260855   7.382   4.471   5.067
16128SOL     OW60856   8.333   5.688   0.164
16128SOL    HW160857   8.416   5.637   0.139
16128SOL    HW260858   8.253   5.629   0.152
16129SOL     OW60859   8.825   2.104   0.541
16129SOL    HW160860   8.820   2.168   0.617
16129SOL    HW260861   8.905   2.124   0.485
16130SOL     OW60862   7.602   0.154   5.535
16130SOL    HW160863   7.596   0.121   5.629
16130SOL    HW260864   7.511   0.157   5.495
16131SOL     OW60865   0.006   3.595   0.889
16131SOL    HW160866   0.037   3.564   0.979
16131SOL    HW260867   8.938   3.532   0.853
16132SOL     OW60868   8.058   0.942   5.923
16132SOL    HW160869   8.107   0.955   6.009
16132SOL    HW260870   8.107   0.987   5.848
16133SOL     OW60871   8.169   7.249   5.512
16133SOL    HW160872   8.199   7.201   5.594
16133SOL    HW260873   8.163   7.185   5.435
16134SOL     OW60874   8.638   3.606   5.976
16134SOL    HW160875   8.662   3.575   6.069
16134SOL    HW260876   8.632   3.527   5.916
16135SOL     OW60877   7.834   0.266   5.745
16135SOL    HW160878   7.825   0.302   5.838
16135SOL    HW260879   7.796   0.332   5.680
16136SOL     OW60880   7.969   5.947   1.051
16136SOL    HW160881   7.899   5.977   1.116
16136SOL    HW260882   8.008   6.026   1.005
16137SOL     OW60883   8.918   0.865   5.876
16137SOL    HW160884   8.951   0.866   5.970
16137SOL    HW260885   8.945   0.950   5.830
16138SOL     OW60886   7.410   3.630   1.372
16138SOL    HW160887   7.492   3.683   1.394
16138SOL    HW260888   7.409   3.546   1.427
16139SOL     OW60889   7.907   5.863   6.308
16139SOL    HW160890   7.967   5.854   6.228
16139SOL    HW260891   7.957   5.906   6.383
16140SOL     OW60892   8.456   0.052   1.909
16140SOL    HW160893   8.410   0.067   1.996
16140SOL    HW260894   8.440   0.131   1.849
16141SOL     OW60895   8.612   1.472   3.284
16141SOL    HW160896   8.577   1.531   3.357
16141SOL    HW260897   8.648   1.528   3.210
16142SOL     OW60898   8.264   6.110   6.166
16142SOL    HW160899   8.236   6.165   6.245
16142SOL    HW260900   8.280   6.170   6.088
16143SOL     OW60901   7.828   2.848   6.111
16143SOL    HW160902   7.880   2.925   6.147
16143SOL    HW260903   7.829   2.773   6.177
16144SOL     OW60904   8.170   5.774   1.133
16144SOL    HW160905   8.099   5.840   1.108
16144SOL    HW260906   8.256   5.822   1.148
16145SOL     OW60907   8.670   3.121   1.230
16145SOL    HW160908   8.636   3.212   1.209
16145SOL    HW260909   8.761   3.110   1.191
16146SOL     OW60910   7.714   5.479   6.387
16146SOL    HW160911   7.618   5.495   6.363
16146SOL    HW260912   7.721   5.394   6.439
16147SOL     OW60913   8.582   3.999   6.949
16147SOL    HW160914   8.666   4.049   6.970
16147SOL    HW260915   8.558   3.939   7.025
16148SOL     OW60916   7.695   6.480   1.677
16148SOL    HW160917   7.641   6.561   1.697
16148SOL    HW260918   7.674   6.409   1.744
16149SOL     OW60919   8.017   2.463   6.392
16149SOL    HW160920   7.966   2.391   6.438
16149SOL    HW260921   8.106   2.428   6.364
16150SOL     OW60922   8.710   4.242   3.379
16150SOL    HW160923   8.802   4.226   3.415
16150SOL    HW260924   8.648   4.259   3.456
16151SOL     OW60925   7.871   3.892   1.800
16151SOL    HW160926   7.881   3.899   1.701
16151SOL    HW260927   7.774   3.880   1.823
16152SOL     OW60928   8.305   1.362   2.529
16152SOL    HW160929   8.399   1.341   2.555
16152SOL    HW260930   8.247   1.368   2.611
16153SOL     OW60931   8.031   5.533   5.201
16153SOL    HW160932   7.999   5.579   5.118
16153SOL    HW260933   8.120   5.571   5.227
16154SOL     OW60934   8.612   7.074   3.473
16154SOL    HW160935   8.671   7.149   3.445
16154SOL    HW260936   8.663   7.013   3.535
16155SOL     OW60937   8.695   1.706   4.058
16155SOL    HW160938   8.685   1.800   4.090
16155SOL    HW260939   8.681   1.643   4.135
16156SOL     OW60940   8.518   5.451   1.627
16156SOL    HW160941   8.519   5.377   1.695
16156SOL    HW260942   8.518   5.412   1.535
16157SOL     OW60943   8.197   5.217   6.138
16157SOL    HW160944   8.232   5.224   6.232
16157SOL    HW260945   8.165   5.307   6.108
16158SOL     OW60946   7.402   7.125   6.331
16158SOL    HW160947   7.313   7.082   6.320
16158SOL    HW260948   7.390   7.223   6.346
16159SOL     OW60949   7.522   1.506   2.677
16159SOL    HW160950   7.443   1.449   2.651
16159SOL    HW260951   7.548   1.564   2.600
16160SOL     OW60952   8.239   2.638   4.980
16160SOL    HW160953   8.319   2.581   4.965
16160SOL    HW260954   8.239   2.713   4.914
16161SOL     OW60955   7.955   5.328   1.353
16161SOL    HW160956   7.988   5.418   1.327
16161SOL    HW260957   7.855   5.328   1.357
16162SOL     OW60958   8.690   2.257   1.860
16162SOL    HW160959   8.675   2.335   1.921
16162SOL    HW260960   8.679   2.286   1.766
16163SOL     OW60961   7.702   4.000   4.680
16163SOL    HW160962   7.771   3.928   4.692
16163SOL    HW260963   7.612   3.963   4.704
16164SOL     OW60964   7.933   4.665   6.050
16164SOL    HW160965   7.833   4.665   6.055
16164SOL    HW260966   7.961   4.655   5.955
16165SOL     OW60967   8.645   1.948   4.187
16165SOL    HW160968   8.633   1.943   4.286
16165SOL    HW260969   8.558   1.968   4.143
16166SOL     OW60970   8.852   2.060   4.914
16166SOL    HW160971   8.880   2.107   4.997
16166SOL    HW260972   8.788   2.118   4.863
16167SOL     OW60973   7.896   4.092   6.329
16167SOL    HW160974   7.902   4.150   6.411
16167SOL    HW260975   7.807   4.106   6.285
16168SOL     OW60976   7.587   0.531   6.040
16168SOL    HW160977   7.520   0.491   6.103
16168SOL    HW260978   7.541   0.560   5.957
16169SOL     OW60979   8.172   4.899   1.424
16169SOL    HW160980   8.113   4.946   1.358
16169SOL    HW260981   8.243   4.961   1.455
16170SOL     OW60982   7.913   3.350   0.666
16170SOL    HW160983   7.936   3.431   0.613
16170SOL    HW260984   7.826   3.363   0.712
16171SOL     OW60985   8.340   1.296   0.966
16171SOL    HW160986   8.330   1.392   0.937
16171SOL    HW260987   8.280   1.279   1.044
16172SOL     OW60988   8.638   4.742   5.441
16172SOL    HW160989   8.638   4.807   5.517
16172SOL    HW260990   8.693   4.662   5.464
16173SOL     OW60991   8.000   5.777   2.631
16173SOL    HW160992   8.044   5.761   2.543
16173SOL    HW260993   7.943   5.699   2.655
16174SOL     OW60994   8.732   1.396   3.614
16174SOL    HW160995   8.749   1.447   3.698
16174SOL    HW260996   8.637   1.408   3.586
16175SOL     OW60997   7.913   3.419   1.280
16175SOL    HW160998   7.849   3.405   1.204
16175SOL    HW260999   7.973   3.496   1.259
16176SOL     OW61000   8.534   3.250   4.947
16176SOL    HW161001   8.531   3.316   4.871
16176SOL    HW261002   8.617   3.195   4.939
16177SOL     OW61003   7.761   7.139   1.105
16177SOL    HW161004   7.699   7.127   1.183
16177SOL    HW261005   7.710   7.176   1.027
16178SOL     OW61006   7.941   6.523   5.813
16178SOL    HW161007   7.971   6.467   5.890
16178SOL    HW261008   8.020   6.551   5.759
16179SOL     OW61009   7.920   2.509   5.330
16179SOL    HW161010   7.985   2.453   5.382
16179SOL    HW261011   7.879   2.578   5.390
16180SOL     OW61012   8.088   4.814   4.730
16180SOL    HW161013   8.051   4.906   4.743
16180SOL    HW261014   8.173   4.805   4.781
16181SOL     OW61015   7.656   1.444   1.503
16181SOL    HW161016   7.724   1.488   1.561
16181SOL    HW261017   7.688   1.445   1.408
16182SOL     OW61018   7.430   0.617   0.594
16182SOL    HW161019   7.438   0.670   0.679
16182SOL    HW261020   7.521   0.597   0.558
16183SOL     OW61021   8.576   8.960   1.607
16183SOL    HW161022   8.557   0.042   1.553
16183SOL    HW261023   8.639   8.983   1.682
16184SOL     OW61024   8.031   1.769   1.631
16184SOL    HW161025   8.091   1.827   1.575
16184SOL    HW261026   8.062   1.770   1.726
16185SOL     OW61027   8.342   7.097   3.491
16185SOL    HW161028   8.441   7.089   3.481
16185SOL    HW261029   8.305   7.145   3.411
16186SOL     OW61030   8.691   0.866   6.057
16186SOL    HW161031   8.708   0.955   6.099
16186SOL    HW261032   8.744   0.859   5.972
16187SOL     OW61033   7.753   6.282   4.507
16187SOL    HW161034   7.669   6.333   4.490
16187SOL    HW261035   7.734   6.184   4.503
16188SOL     OW61036   7.821   3.313   5.588
16188SOL    HW161037   7.831   3.247   5.514
16188SOL    HW261038   7.859   3.401   5.559
16189SOL     OW61039   8.447   3.856   3.355
16189SOL    HW161040   8.521   3.912   3.317
16189SOL    HW261041   8.460   3.760   3.327
16190SOL     OW61042   8.225   5.509   5.800
16190SOL    HW161043   8.197   5.538   5.708
16190SOL    HW261044   8.167   5.552   5.868
16191SOL     OW61045   8.543   5.205   6.961
16191SOL    HW161046   8.464   5.143   6.955
16191SOL    HW261047   8.568   5.216   7.057
16192SOL     OW61048   7.333   3.191   1.428
16192SOL    HW161049   7.311   3.176   1.332
16192SOL    HW261050   7.250   3.214   1.479
16193SOL     OW61051   7.569   0.601   1.020
16193SOL    HW161052   7.533   0.646   0.939
16193SOL    HW261053   7.493   0.571   1.078
16194SOL     OW61054   8.359   3.749   3.889
16194SOL    HW161055   8.425   3.819   3.862
16194SOL    HW261056   8.273   3.793   3.916
16195SOL     OW61057   8.173   6.017   6.957
16195SOL    HW161058   8.254   5.988   6.906
16195SOL    HW261059   8.185   6.112   6.987
16196SOL     OW61060   7.598   3.501   4.475
16196SOL    HW161061   7.581   3.599   4.481
16196SOL    HW261062   7.638   3.469   4.560
16197SOL     OW61063   8.680   5.634   7.322
16197SOL    HW161064   8.720   5.581   7.247
16197SOL    HW261065   8.598   5.681   7.289
16198SOL     OW61066   7.932   4.695   7.015
16198SOL    HW161067   7.953   4.627   6.945
16198SOL    HW261068   7.844   4.673   7.058
16199SOL     OW61069   7.623   1.698   2.501
16199SOL    HW161070   7.602   1.796   2.500
16199SOL    HW261071   7.675   1.674   2.419
16200SOL     OW61072   7.372   0.511   1.804
16200SOL    HW161073   7.393   0.418   1.832
16200SOL    HW261074   7.312   0.554   1.871
16201SOL     OW61075   8.784   3.986   1.407
16201SOL    HW161076   8.731   3.930   1.344
16201SOL    HW261077   8.732   4.001   1.491
16202SOL     OW61078   8.965   0.511   6.677
16202SOL    HW161079   8.904   0.590   6.681
16202SOL    HW261080   8.997   0.489   6.769
16203SOL     OW61081   8.546   0.552   6.385
16203SOL    HW161082   8.458   0.582   6.349
16203SOL    HW261083   8.620   0.588   6.328
16204SOL     OW61084   8.334   0.062   2.154
16204SOL    HW161085   8.277   0.131   2.200
16204SOL    HW261086   8.408   0.034   2.215
16205SOL     OW61087   8.436   2.921   5.217
16205SOL    HW161088   8.399   2.964   5.135
16205SOL    HW261089   8.394   2.963   5.298
16206SOL     OW61090   7.956   0.241   2.060
16206SOL    HW161091   7.902   0.186   1.996
16206SOL    HW261092   7.998   0.318   2.011
16207SOL     OW61093   7.818   6.116   1.709
16207SOL    HW161094   7.860   6.143   1.622
16207SOL    HW261095   7.885   6.124   1.782
16208SOL     OW61096   8.645   2.321   5.550
16208SOL    HW161097   8.694   2.309   5.463
16208SOL    HW261098   8.639   2.418   5.572
16209SOL     OW61099   7.682   6.309   2.281
16209SOL    HW161100   7.583   6.311   2.270
16209SOL    HW261101   7.704   6.318   2.379
16210SOL     OW61102   7.449   2.231   0.325
16210SOL    HW161103   7.464   2.236   0.424
16210SOL    HW261104   7.534   2.201   0.280
16211SOL     OW61105   7.930   5.915   6.935
16211SOL    HW161106   8.022   5.951   6.944
16211SOL    HW261107   7.923   5.861   6.851
16212SOL     OW61108   8.135   5.176   0.448
16212SOL    HW161109   8.221   5.154   0.493
16212SOL    HW261110   8.134   5.135   0.357
16213SOL     OW61111   8.417   7.316   3.090
16213SOL    HW161112   8.488   7.355   3.149
16213SOL    HW261113   8.340   7.285   3.146
16214SOL     OW61114   8.343   6.450   4.534
16214SOL    HW161115   8.334   6.352   4.515
16214SOL    HW261116   8.406   6.491   4.469
16215SOL     OW61117   8.246   2.585   0.495
16215SOL    HW161118   8.335   2.569   0.451
16215SOL    HW261119   8.257   2.580   0.594
16216SOL     OW61120   8.086   5.082   1.856
16216SOL    HW161121   8.050   5.043   1.771
16216SOL    HW261122   8.131   5.169   1.836
16217SOL     OW61123   7.573   0.736   7.346
16217SOL    HW161124   7.595   0.658   7.405
16217SOL    HW261125   7.521   0.704   7.266
16218SOL     OW61126   7.476   5.802   4.841
16218SOL    HW161127   7.441   5.893   4.817
16218SOL    HW261128   7.417   5.733   4.799
16219SOL     OW61129   7.692   1.799   4.045
16219SOL    HW161130   7.674   1.773   3.951
16219SOL    HW261131   7.619   1.764   4.104
16220SOL     OW61132   8.773   4.715   3.813
16220SOL    HW161133   8.713   4.686   3.739
16220SOL    HW261134   8.859   4.664   3.808
16221SOL     OW61135   7.634   3.372   3.349
16221SOL    HW161136   7.641   3.453   3.290
16221SOL    HW261137   7.570   3.307   3.309
16222SOL     OW61138   7.489   2.646   0.226
16222SOL    HW161139   7.432   2.564   0.227
16222SOL    HW261140   7.437   2.723   0.190
16223SOL     OW61141   8.402   6.438   5.404
16223SOL    HW161142   8.315   6.404   5.368
16223SOL    HW261143   8.477   6.383   5.368
16224SOL     OW61144   8.404   3.754   5.256
16224SOL    HW161145   8.501   3.747   5.235
16224SOL    HW261146   8.351   3.715   5.180
16225SOL     OW61147   7.351   4.142   3.621
16225SOL    HW161148   7.280   4.096   3.674
16225SOL    HW261149   7.360   4.098   3.531
16226SOL     OW61150   8.533   4.263   3.589
16226SOL    HW161151   8.533   4.283   3.687
16226SOL    HW261152   8.485   4.177   3.573
16227SOL     OW61153   7.420   6.620   5.896
16227SOL    HW161154   7.396   6.703   5.845
16227SOL    HW261155   7.513   6.592   5.874
16228SOL     OW61156   8.430   4.336   4.253
16228SOL    HW161157   8.360   4.408   4.246
16228SOL    HW261158   8.385   4.246   4.250
16229SOL     OW61159   7.414   1.199   2.503
16229SOL    HW161160   7.358   1.264   2.554
16229SOL    HW261161   7.457   1.135   2.567
16230SOL     OW61162   7.493   3.763   0.834
16230SOL    HW161163   7.440   3.837   0.792
16230SOL    HW261164   7.449   3.735   0.919
16231SOL     OW61165   8.567   4.590   2.052
16231SOL    HW161166   8.474   4.600   2.015
16231SOL    HW261167   8.564   4.589   2.152
16232SOL     OW61168   8.656   0.828   3.707
16232SOL    HW161169   8.609   0.907   3.667
16232SOL    HW261170   8.589   0.770   3.753
16233SOL     OW61171   8.054   5.982   6.515
16233SOL    HW161172   8.139   6.028   6.540
16233SOL    HW261173   7.981   6.050   6.505
16234SOL     OW61174   8.154   5.603   5.540
16234SOL    HW161175   8.209   5.593   5.457
16234SOL    HW261176   8.118   5.696   5.546
16235SOL     OW61177   8.847   0.900   1.483
16235SOL    HW161178   8.749   0.896   1.464
16235SOL    HW261179   8.872   0.823   1.542
16236SOL     OW61180   8.160   6.075   4.654
16236SOL    HW161181   8.221   6.078   4.734
16236SOL    HW261182   8.089   6.144   4.664
16237SOL     OW61183   8.301   2.463   1.500
16237SOL    HW161184   8.358   2.540   1.470
16237SOL    HW261185   8.356   2.380   1.503
16238SOL     OW61186   7.342   5.487   2.616
16238SOL    HW161187   7.301   5.577   2.604
16238SOL    HW261188   7.391   5.461   2.533
16239SOL     OW61189   7.459   3.833   5.894
16239SOL    HW161190   7.481   3.736   5.883
16239SOL    HW261191   7.479   3.881   5.809
16240SOL     OW61192   7.438   3.841   5.241
16240SOL    HW161193   7.350   3.888   5.241
16240SOL    HW261194   7.510   3.904   5.212
16241SOL     OW61195   8.736   5.189   3.224
16241SOL    HW161196   8.793   5.163   3.146
16241SOL    HW261197   8.640   5.169   3.203
16242SOL     OW61198   8.014   1.435   0.902
16242SOL    HW161199   8.050   1.473   0.987
16242SOL    HW261200   7.970   1.507   0.849
16243SOL     OW61201   7.644   7.234   0.873
16243SOL    HW161202   7.550   7.210   0.850
16243SOL    HW261203   7.706   7.194   0.806
16244SOL     OW61204   7.943   2.755   0.192
16244SOL    HW161205   7.978   2.769   0.285
16244SOL    HW261206   7.986   2.821   0.130
16245SOL     OW61207   8.633   2.302   6.675
16245SOL    HW161208   8.695   2.227   6.652
16245SOL    HW261209   8.633   2.316   6.774
16246SOL     OW61210   8.868   6.573   0.651
16246SOL    HW161211   8.772   6.546   0.647
16246SOL    HW261212   8.904   6.554   0.742
16247SOL     OW61213   8.555   1.690   0.995
16247SOL    HW161214   8.617   1.614   0.973
16247SOL    HW261215   8.542   1.747   0.914
16248SOL     OW61216   7.816   6.295   2.048
16248SOL    HW161217   7.774   6.300   2.138
16248SOL    HW261218   7.745   6.288   1.978
16249SOL     OW61219   8.613   3.535   5.580
16249SOL    HW161220   8.518   3.542   5.551
16249SOL    HW261221   8.660   3.622   5.563
16250SOL     OW61222   8.779   5.154   6.647
16250SOL    HW161223   8.726   5.233   6.616
16250SOL    HW261224   8.757   5.075   6.590
16251SOL     OW61225   7.595   5.593   0.242
16251SOL    HW161226   7.606   5.689   0.217
16251SOL    HW261227   7.684   5.555   0.269
16252SOL     OW61228   7.678   6.579   5.791
16252SOL    HW161229   7.664   6.638   5.711
16252SOL    HW261230   7.775   6.564   5.805
16253SOL     OW61231   8.557   1.730   3.671
16253SOL    HW161232   8.534   1.812   3.724
16253SOL    HW261233   8.629   1.679   3.719
16254SOL     OW61234   7.573   2.473   0.852
16254SOL    HW161235   7.506   2.483   0.779
16254SOL    HW261236   7.631   2.393   0.833
16255SOL     OW61237   8.633   3.385   5.810
16255SOL    HW161238   8.711   3.323   5.806
16255SOL    HW261239   8.627   3.437   5.724
16256SOL     OW61240   8.118   1.170   0.158
16256SOL    HW161241   8.070   1.109   0.094
16256SOL    HW261242   8.210   1.188   0.124
16257SOL     OW61243   8.414   6.324   0.299
16257SOL    HW161244   8.437   6.412   0.257
16257SOL    HW261245   8.492   6.261   0.289
16258SOL     OW61246   8.437   1.010   4.348
16258SOL    HW161247   8.509   0.940   4.350
16258SOL    HW261248   8.402   1.019   4.255
16259SOL     OW61249   8.590   1.231   6.720
16259SOL    HW161250   8.526   1.247   6.645
16259SOL    HW261251   8.569   1.143   6.764
16260SOL     OW61252   7.814   5.456   4.006
16260SOL    HW161253   7.776   5.511   3.932
16260SOL    HW261254   7.783   5.361   3.996
16261SOL     OW61255   8.836   1.299   6.836
16261SOL    HW161256   8.855   1.212   6.882
16261SOL    HW261257   8.755   1.289   6.779
16262SOL     OW61258   8.168   1.036   2.341
16262SOL    HW161259   8.238   1.002   2.404
16262SOL    HW261260   8.175   1.135   2.333
16263SOL     OW61261   8.923   1.153   1.551
16263SOL    HW161262   0.023   1.165   1.546
16263SOL    HW261263   8.900   1.058   1.529
16264SOL     OW61264   8.027   0.322   4.945
16264SOL    HW161265   8.036   0.416   4.910
16264SOL    HW261266   7.931   0.297   4.950
16265SOL     OW61267   8.490   2.362   7.175
16265SOL    HW161268   8.482   2.407   7.265
16265SOL    HW261269   8.423   2.402   7.112
16266SOL     OW61270   7.687   3.920   6.030
16266SOL    HW161271   7.598   3.889   5.996
16266SOL    HW261272   7.721   3.853   6.097
16267SOL     OW61273   7.547   6.814   1.375
16267SOL    HW161274   7.639   6.784   1.347
16267SOL    HW261275   7.529   6.783   1.468
16268SOL     OW61276   8.101   5.498   6.925
16268SOL    HW161277   8.104   5.539   6.833
16268SOL    HW261278   8.157   5.553   6.987
16269SOL     OW61279   8.057   3.465   7.318
16269SOL    HW161280   8.024   3.384   7.269
16269SOL    HW261281   8.031   3.459   7.414
16270SOL     OW61282   8.510   4.295   2.399
16270SOL    HW161283   8.588   4.282   2.338
16270SOL    HW261284   8.439   4.227   2.377
16271SOL     OW61285   7.737   1.547   0.999
16271SOL    HW161286   7.793   1.603   0.937
16271SOL    HW261287   7.641   1.573   0.988
16272SOL     OW61288   7.618   5.864   0.169
16272SOL    HW161289   7.649   5.887   0.076
16272SOL    HW261290   7.568   5.941   0.208
16273SOL     OW61291   8.947   6.518   0.907
16273SOL    HW161292   8.885   6.544   0.981
16273SOL    HW261293   0.042   6.523   0.940
16274SOL     OW61294   8.495   1.945   1.805
16274SOL    HW161295   8.528   1.966   1.712
16274SOL    HW261296   8.568   1.963   1.871
16275SOL     OW61297   8.705   4.963   1.679
16275SOL    HW161298   8.765   4.897   1.724
16275SOL    HW261299   8.629   4.985   1.741
16276SOL     OW61300   8.368   2.680   5.734
16276SOL    HW161301   8.366   2.779   5.750
16276SOL    HW261302   8.317   2.659   5.651
16277SOL     OW61303   8.237   0.348   3.172
16277SOL    HW161304   8.198   0.434   3.138
16277SOL    HW261305   8.219   0.340   3.270
16278SOL     OW61306   7.605   1.969   2.485
16278SOL    HW161307   7.674   2.024   2.439
16278SOL    HW261308   7.537   2.030   2.527
16279SOL     OW61309   8.475   6.824   3.911
16279SOL    HW161310   8.506   6.895   3.975
16279SOL    HW261311   8.554   6.777   3.872
16280SOL     OW61312   8.782   2.481   3.146
16280SOL    HW161313   8.829   2.486   3.058
16280SOL    HW261314   8.712   2.552   3.150
16281SOL     OW61315   8.114   4.079   6.145
16281SOL    HW161316   8.096   4.102   6.050
16281SOL    HW261317   8.028   4.079   6.196
16282SOL     OW61318   8.782   6.178   5.499
16282SOL    HW161319   8.872   6.213   5.474
16282SOL    HW261320   8.768   6.088   5.458
16283SOL     OW61321   8.972   3.070   3.230
16283SOL    HW161322   8.977   2.972   3.248
16283SOL    HW261323   0.026   3.092   3.149
16284SOL     OW61324   7.411   2.901   5.260
16284SOL    HW161325   7.497   2.890   5.310
16284SOL    HW261326   7.414   2.987   5.209
16285SOL     OW61327   7.622   6.503   7.033
16285SOL    HW161328   7.632   6.585   7.090
16285SOL    HW261329   7.713   6.469   7.008
16286SOL     OW61330   8.522   5.763   5.337
16286SOL    HW161331   8.568   5.675   5.341
16286SOL    HW261332   8.589   5.837   5.345
16287SOL     OW61333   8.288   5.624   5.275
16287SOL    HW161334   8.361   5.686   5.303
16287SOL    HW261335   8.317   5.572   5.195
16288SOL     OW61336   8.009   0.050   1.201
16288SOL    HW161337   8.081   8.981   1.207
16288SOL    HW261338   8.004   0.085   1.107
16289SOL     OW61339   7.925   6.882   4.871
16289SOL    HW161340   7.980   6.864   4.789
16289SOL    HW261341   7.860   6.808   4.885
16290SOL     OW61342   8.106   4.449   0.898
16290SOL    HW161343   8.199   4.454   0.933
16290SOL    HW261344   8.046   4.508   0.954
16291SOL     OW61345   8.351   1.032   1.971
16291SOL    HW161346   8.377   1.037   1.874
16291SOL    HW261347   8.313   1.120   2.000
16292SOL     OW61348   7.972   4.675   3.437
16292SOL    HW161349   8.058   4.677   3.489
16292SOL    HW261350   7.992   4.683   3.339
16293SOL     OW61351   8.120   0.282   0.680
16293SOL    HW161352   8.163   0.205   0.727
16293SOL    HW261353   8.023   0.264   0.668
16294SOL     OW61354   7.560   0.061   3.002
16294SOL    HW161355   7.628   0.127   3.033
16294SOL    HW261356   7.531   0.004   3.079
16295SOL     OW61357   7.265   0.490   2.251
16295SOL    HW161358   7.302   0.397   2.243
16295SOL    HW261359   7.242   0.507   2.347
16296SOL     OW61360   8.040   6.387   0.188
16296SOL    HW161361   8.140   6.389   0.188
16296SOL    HW261362   8.009   6.307   0.240
16297SOL     OW61363   7.984   0.170   0.959
16297SOL    HW161364   7.984   0.260   1.002
16297SOL    HW261365   7.891   0.148   0.929
16298SOL     OW61366   8.112   1.018   1.737
16298SOL    HW161367   8.095   0.929   1.694
16298SOL    HW261368   8.211   1.035   1.741
16299SOL     OW61369   7.627   2.513   6.423
16299SOL    HW161370   7.564   2.510   6.501
16299SOL    HW261371   7.656   2.420   6.401
16300SOL     OW61372   8.995   8.776   3.733
16300SOL    HW161373   8.939   8.785   3.651
16300SOL    HW261374   0.092   8.775   3.709
16301SOL     OW61375   8.118   5.599   6.667
16301SOL    HW161376   8.049   5.670   6.673
16301SOL    HW261377   8.104   5.545   6.584
16302SOL     OW61378   8.630   3.845   1.232
16302SOL    HW161379   8.590   3.761   1.269
16302SOL    HW261380   8.655   3.830   1.136
16303SOL     OW61381   0.213   2.072   3.107
16303SOL    HW161382   0.256   2.015   3.176
16303SOL    HW261383   0.215   2.026   3.018
16304SOL     OW61384   7.599   3.457   6.302
16304SOL    HW161385   7.649   3.470   6.217
16304SOL    HW261386   7.639   3.514   6.374
16305SOL     OW61387   8.907   4.124   1.198
16305SOL    HW161388   8.861   4.074   1.272
16305SOL    HW261389   8.988   4.073   1.170
16306SOL     OW61390   7.548   0.519   1.354
16306SOL    HW161391   7.472   0.519   1.288
16306SOL    HW261392   7.554   0.608   1.398
16307SOL     OW61393   7.964   0.398   1.117
16307SOL    HW161394   7.930   0.492   1.123
16307SOL    HW261395   8.013   0.375   1.202
16308SOL     OW61396   8.341   3.749   1.525
16308SOL    HW161397   8.369   3.834   1.480
16308SOL    HW261398   8.242   3.739   1.518
16309SOL     OW61399   7.493   6.272   6.505
16309SOL    HW161400   7.565   6.264   6.436
16309SOL    HW261401   7.522   6.336   6.576
16310SOL     OW61402   7.462   4.798   0.551
16310SOL    HW161403   7.417   4.887   0.561
16310SOL    HW261404   7.529   4.803   0.477
16311SOL     OW61405   8.189   2.492   7.230
16311SOL    HW161406   8.123   2.567   7.235
16311SOL    HW261407   8.227   2.488   7.137
16312SOL     OW61408   7.444   4.330   1.830
16312SOL    HW161409   7.422   4.367   1.740
16312SOL    HW261410   7.536   4.290   1.828
16313SOL     OW61411   8.888   7.359   6.095
16313SOL    HW161412   8.844   7.320   6.175
16313SOL    HW261413   8.881   7.459   6.099
16314SOL     OW61414   8.309   0.864   1.552
16314SOL    HW161415   8.358   0.797   1.609
16314SOL    HW261416   8.212   0.840   1.550
16315SOL     OW61417   7.488   2.538   3.464
16315SOL    HW161418   7.564   2.549   3.529
16315SOL    HW261419   7.494   2.447   3.422
16316SOL     OW61420   8.704   0.164   7.054
16316SOL    HW161421   8.786   0.117   7.086
16316SOL    HW261422   8.717   0.193   6.959
16317SOL     OW61423   8.212   5.810   4.597
16317SOL    HW161424   8.307   5.813   4.564
16317SOL    HW261425   8.181   5.902   4.618
16318SOL     OW61426   7.718   2.259   6.366
16318SOL    HW161427   7.777   2.243   6.287
16318SOL    HW261428   7.772   2.253   6.450
16319SOL     OW61429   8.831   7.402   4.114
16319SOL    HW161430   8.857   7.491   4.152
16319SOL    HW261431   8.870   7.392   4.023
16320SOL     OW61432   8.079   2.905   0.689
16320SOL    HW161433   8.023   2.844   0.745
16320SOL    HW261434   8.072   2.998   0.723
16321SOL     OW61435   8.866   3.256   3.593
16321SOL    HW161436   8.794   3.216   3.649
16321SOL    HW261437   8.937   3.187   3.574
16322SOL     OW61438   7.855   6.240   7.339
16322SOL    HW161439   7.922   6.302   7.297
16322SOL    HW261440   7.763   6.277   7.326
16323SOL     OW61441   7.641   5.933   6.242
16323SOL    HW161442   7.734   5.906   6.266
16323SOL    HW261443   7.632   6.033   6.248
16324SOL     OW61444   7.377   2.773   3.378
16324SOL    HW161445   7.417   2.840   3.441
16324SOL    HW261446   7.417   2.683   3.396
16325SOL     OW61447   7.899   0.637   5.609
16325SOL    HW161448   7.870   0.542   5.595
16325SOL    HW261449   7.966   0.641   5.683
16326SOL     OW61450   8.887   0.500   0.097
16326SOL    HW161451   8.867   0.474   0.191
16326SOL    HW261452   8.847   0.433   0.034
16327SOL     OW61453   7.469   7.086   5.833
16327SOL    HW161454   7.516   7.138   5.762
16327SOL    HW261455   7.454   6.992   5.801
16328SOL     OW61456   7.662   2.559   3.671
16328SOL    HW161457   7.620   2.495   3.734
16328SOL    HW261458   7.684   2.644   3.720
16329SOL     OW61459   8.388   4.457   3.456
16329SOL    HW161460   8.318   4.399   3.414
16329SOL    HW261461   8.446   4.401   3.514
16330SOL     OW61462   8.699   4.013   5.585
16330SOL    HW161463   8.677   4.065   5.502
16330SOL    HW261464   8.673   4.066   5.665
16331SOL     OW61465   8.690   2.937   0.160
16331SOL    HW161466   8.731   2.846   0.157
16331SOL    HW261467   8.676   2.964   0.255
16332SOL     OW61468   7.512   4.668   3.566
16332SOL    HW161469   7.593   4.720   3.539
16332SOL    HW261470   7.517   4.647   3.663
16333SOL     OW61471   7.807   4.129   0.789
16333SOL    HW161472   7.888   4.089   0.747
16333SOL    HW261473   7.784   4.215   0.743
16334SOL     OW61474   8.999   1.823   1.229
16334SOL    HW161475   0.095   1.851   1.235
16334SOL    HW261476   8.991   1.725   1.248
16335SOL     OW61477   7.405   5.679   7.096
16335SOL    HW161478   7.478   5.672   7.028
16335SOL    HW261479   7.422   5.757   7.157
16336SOL     OW61480   8.885   0.894   2.959
16336SOL    HW161481   8.795   0.850   2.966
16336SOL    HW261482   8.927   0.869   2.872
16337SOL     OW61483   8.756   1.225   7.286
16337SOL    HW161484   8.710   1.301   7.331
16337SOL    HW261485   8.850   1.218   7.320
16338SOL     OW61486   7.461   0.629   5.809
16338SOL    HW161487   7.383   0.690   5.798
16338SOL    HW261488   7.542   0.670   5.767
16339SOL     OW61489   7.608   5.490   5.878
16339SOL    HW161490   7.634   5.500   5.782
16339SOL    HW261491   7.627   5.576   5.926
16340SOL     OW61492   8.499   3.063   0.817
16340SOL    HW161493   8.448   3.000   0.758
16340SOL    HW261494   8.504   3.025   0.910
16341SOL     OW61495   7.626   6.260   1.843
16341SOL    HW161496   7.695   6.206   1.795
16341SOL    HW261497   7.535   6.221   1.826
16342SOL     OW61498   8.443   4.089   2.031
16342SOL    HW161499   8.390   4.011   1.996
16342SOL    HW261500   8.481   4.140   1.954
16343SOL     OW61501   7.499   4.877   3.844
16343SOL    HW161502   7.502   4.777   3.841
16343SOL    HW261503   7.575   4.914   3.791
16344SOL     OW61504   8.350   3.958   6.802
16344SOL    HW161505   8.360   4.005   6.714
16344SOL    HW261506   8.431   3.975   6.858
16345SOL     OW61507   8.537   2.569   0.978
16345SOL    HW161508   8.462   2.581   1.043
16345SOL    HW261509   8.619   2.616   1.013
16346SOL     OW61510   8.028   4.063   3.362
16346SOL    HW161511   7.983   4.076   3.451
16346SOL    HW261512   7.963   4.023   3.297
16347SOL     OW61513   7.602   7.234   7.035
16347SOL    HW161514   7.697   7.254   7.061
16347SOL    HW261515   7.595   7.138   7.008
16348SOL     OW61516   8.150   4.489   6.690
16348SOL    HW161517   8.137   4.469   6.593
16348SOL    HW261518   8.061   4.494   6.735
16349SOL     OW61519   7.763   3.895   5.166
16349SOL    HW161520   7.842   3.836   5.153
16349SOL    HW261521   7.760   3.964   5.094
16350SOL     OW61522   8.567   3.378   3.395
16350SOL    HW161523   8.584   3.429   3.480
16350SOL    HW261524   8.654   3.342   3.360
16351SOL     OW61525   8.661   4.151   5.360
16351SOL    HW161526   8.584   4.097   5.326
16351SOL    HW261527   8.638   4.248   5.358
16352SOL     OW61528   8.399   5.474   0.474
16352SOL    HW161529   8.463   5.426   0.413
16352SOL    HW261530   8.307   5.468   0.436
16353SOL     OW61531   8.707   1.090   3.959
16353SOL    HW161532   8.784   1.101   3.897
16353SOL    HW261533   8.740   1.057   4.048
16354SOL     OW61534   7.392   6.523   0.106
16354SOL    HW161535   7.439   6.512   0.194
16354SOL    HW261536   7.426   6.606   0.061
16355SOL     OW61537   8.342   1.313   3.418
16355SOL    HW161538   8.397   1.368   3.481
16355SOL    HW261539   8.385   1.224   3.405
16356SOL     OW61540   7.419   3.575   5.171
16356SOL    HW161541   7.435   3.670   5.197
16356SOL    HW261542   7.472   3.515   5.230
16357SOL     OW61543   7.426   2.348   1.919
16357SOL    HW161544   7.490   2.313   1.851
16357SOL    HW261545   7.416   2.282   1.994
16358SOL     OW61546   8.631   3.340   4.093
16358SOL    HW161547   8.702   3.407   4.071
16358SOL    HW261548   8.567   3.379   4.159
16359SOL     OW61549   8.292   2.195   0.496
16359SOL    HW161550   8.368   2.220   0.554
16359SOL    HW261551   8.228   2.137   0.547
16360SOL     OW61552   7.648   4.784   0.985
16360SOL    HW161553   7.737   4.820   1.010
16360SOL    HW261554   7.618   4.827   0.900
16361SOL     OW61555   8.312   3.252   2.619
16361SOL    HW161556   8.316   3.346   2.651
16361SOL    HW261557   8.285   3.192   2.694
16362SOL     OW61558   8.289   5.095   2.923
16362SOL    HW161559   8.267   5.015   2.977
16362SOL    HW261560   8.250   5.085   2.831
16363SOL     OW61561   8.873   3.695   5.848
16363SOL    HW161562   8.912   3.784   5.874
16363SOL    HW261563   8.791   3.678   5.902
16364SOL     OW61564   7.552   4.734   2.322
16364SOL    HW161565   7.511   4.643   2.329
16364SOL    HW261566   7.496   4.791   2.261
16365SOL     OW61567   7.376   2.680   4.356
16365SOL    HW161568   7.279   2.666   4.378
16365SOL    HW261569   7.430   2.609   4.402
16366SOL     OW61570   8.414   3.549   0.576
16366SOL    HW161571   8.509   3.579   0.575
16366SOL    HW261572   8.406   3.465   0.629
16367SOL     OW61573   7.360   4.968   6.997
16367SOL    HW161574   7.395   4.911   6.922
16367SOL    HW261575   7.435   4.990   7.060
16368SOL     OW61576   7.650   6.504   6.327
16368SOL    HW161577   7.654   6.566   6.406
16368SOL    HW261578   7.576   6.532   6.266
16369SOL     OW61579   7.457   2.714   3.901
16369SOL    HW161580   7.386   2.778   3.873
16369SOL    HW261581   7.421   2.653   3.972
16370SOL     OW61582   0.140   3.984   1.123
16370SOL    HW161583   0.185   3.897   1.143
16370SOL    HW261584   0.209   4.055   1.109
16371SOL     OW61585   8.758   1.600   3.809
16371SOL    HW161586   8.747   1.633   3.902
16371SOL    HW261587   8.854   1.609   3.781
16372SOL     OW61588   8.631   4.488   0.270
16372SOL    HW161589   8.641   4.568   0.210
16372SOL    HW261590   8.606   4.408   0.216
16373SOL     OW61591   8.419   6.186   1.247
16373SOL    HW161592   8.406   6.260   1.313
16373SOL    HW261593   8.412   6.223   1.154
16374SOL     OW61594   7.266   2.870   6.970
16374SOL    HW161595   7.292   2.784   6.926
16374SOL    HW261596   7.268   2.944   6.903
16375SOL     OW61597   8.805   4.646   1.918
16375SOL    HW161598   8.815   4.564   1.861
16375SOL    HW261599   8.719   4.641   1.968
16376SOL     OW61600   8.223   4.622   0.430
16376SOL    HW161601   8.256   4.647   0.338
16376SOL    HW261602   8.238   4.699   0.492
16377SOL     OW61603   8.338   4.111   6.569
16377SOL    HW161604   8.401   4.143   6.498
16377SOL    HW261605   8.260   4.064   6.527
16378SOL     OW61606   8.403   2.604   6.386
16378SOL    HW161607   8.351   2.519   6.376
16378SOL    HW261608   8.360   2.661   6.455
16379SOL     OW61609   8.782   4.719   4.842
16379SOL    HW161610   8.828   4.664   4.773
16379SOL    HW261611   8.698   4.757   4.804
16380SOL     OW61612   7.422   5.660   0.886
16380SOL    HW161613   7.352   5.602   0.930
16380SOL    HW261614   7.478   5.703   0.957
16381SOL     OW61615   8.390   6.716   5.406
16381SOL    HW161616   8.388   6.617   5.397
16381SOL    HW261617   8.478   6.744   5.446
16382SOL     OW61618   7.753   2.853   3.046
16382SOL    HW161619   7.754   2.888   3.139
16382SOL    HW261620   7.756   2.753   3.047
16383SOL     OW61621   7.638   2.522   0.436
16383SOL    HW161622   7.586   2.570   0.366
16383SOL    HW261623   7.694   2.587   0.487
16384SOL     OW61624   7.764   3.464   1.506
16384SOL    HW161625   7.828   3.498   1.574
16384SOL    HW261626   7.813   3.444   1.421
16385SOL     OW61627   8.169   0.876   2.115
16385SOL    HW161628   8.233   0.919   2.052
16385SOL    HW261629   8.166   0.928   2.201
16386SOL     OW61630   7.400   3.130   5.092
16386SOL    HW161631   7.488   3.157   5.130
16386SOL    HW261632   7.329   3.192   5.126
16387SOL     OW61633   7.982   3.374   0.064
16387SOL    HW161634   8.027   3.456   0.028
16387SOL    HW261635   7.894   3.400   0.105
16388SOL     OW61636   8.082   2.020   6.850
16388SOL    HW161637   8.126   2.053   6.934
16388SOL    HW261638   8.091   1.921   6.845
16389SOL     OW61639   8.753   4.063   0.200
16389SOL    HW161640   8.752   3.964   0.217
16389SOL    HW261641   8.845   4.090   0.172
16390SOL     OW61642   0.166   4.659   0.846
16390SOL    HW161643   0.101   4.715   0.795
16390SOL    HW261644   0.118   4.604   0.914
16391SOL     OW61645   0.090   6.958   0.890
16391SOL    HW161646   0.163   6.892   0.906
16391SOL    HW261647   0.046   6.939   0.802
16392SOL     OW61648   8.662   3.148   3.749
16392SOL    HW161649   8.592   3.202   3.796
16392SOL    HW261650   8.618   3.071   3.703
16393SOL     OW61651   7.778   5.431   4.498
16393SOL    HW161652   7.822   5.500   4.555
16393SOL    HW261653   7.775   5.463   4.404
16394SOL     OW61654   8.269   2.562   0.765
16394SOL    HW161655   8.299   2.480   0.814
16394SOL    HW261656   8.244   2.633   0.831
16395SOL     OW61657   8.730   3.658   2.981
16395SOL    HW161658   8.748   3.689   3.074
16395SOL    HW261659   8.816   3.633   2.937
16396SOL     OW61660   8.849   8.834   3.507
16396SOL    HW161661   8.896   8.904   3.453
16396SOL    HW261662   8.754   8.861   3.522
16397SOL     OW61663   7.724   4.124   5.638
16397SOL    HW161664   7.635   4.080   5.653
16397SOL    HW261665   7.791   4.086   5.702
16398SOL     OW61666   8.828   3.419   0.741
16398SOL    HW161667   8.774   3.471   0.674
16398SOL    HW261668   8.905   3.374   0.694
16399SOL     OW61669   7.798   5.824   5.137
16399SOL    HW161670   7.805   5.920   5.112
16399SOL    HW261671   7.858   5.769   5.079
16400SOL     OW61672   8.463   1.212   3.013
16400SOL    HW161673   8.367   1.206   3.042
16400SOL    HW261674   8.522   1.201   3.093
16401SOL     OW61675   7.738   3.218   6.703
16401SOL    HW161676   7.752   3.165   6.787
16401SOL    HW261677   7.756   3.160   6.624
16402SOL     OW61678   8.159   5.033   3.796
16402SOL    HW161679   8.156   4.933   3.794
16402SOL    HW261680   8.069   5.070   3.776
16403SOL     OW61681   8.110   3.977   6.480
16403SOL    HW161682   8.047   4.006   6.408
16403SOL    HW261683   8.142   3.885   6.461
16404SOL     OW61684   8.588   3.959   6.313
16404SOL    HW161685   8.504   3.923   6.273
16404SOL    HW261686   8.657   3.887   6.315
16405SOL     OW61687   8.722   3.227   0.283
16405SOL    HW161688   8.702   3.160   0.354
16405SOL    HW261689   8.729   3.181   0.194
16406SOL     OW61690   8.296   3.874   2.323
16406SOL    HW161691   8.389   3.843   2.341
16406SOL    HW261692   8.284   3.968   2.355
16407SOL     OW61693   7.883   2.478   6.755
16407SOL    HW161694   7.951   2.535   6.709
16407SOL    HW261695   7.926   2.431   6.832
16408SOL     OW61696   8.698   2.013   1.979
16408SOL    HW161697   8.692   2.106   1.941
16408SOL    HW261698   8.794   1.989   1.991
16409SOL     OW61699   0.024   3.612   4.133
16409SOL    HW161700   8.963   3.548   4.087
16409SOL    HW261701   0.098   3.638   4.072
16410SOL     OW61702   7.586   1.919   2.093
16410SOL    HW161703   7.537   1.833   2.108
16410SOL    HW261704   7.675   1.915   2.140
16411SOL     OW61705   7.972   3.279   5.162
16411SOL    HW161706   7.991   3.298   5.065
16411SOL    HW261707   7.912   3.351   5.198
16412SOL     OW61708   7.446   2.871   1.189
16412SOL    HW161709   7.498   2.874   1.274
16412SOL    HW261710   7.491   2.809   1.124
16413SOL     OW61711   8.778   2.294   5.307
16413SOL    HW161712   8.836   2.214   5.318
16413SOL    HW261713   8.823   2.359   5.245
16414SOL     OW61714   7.517   6.405   4.450
16414SOL    HW161715   7.468   6.381   4.366
16414SOL    HW261716   7.451   6.426   4.522
16415SOL     OW61717   7.589   5.005   4.591
16415SOL    HW161718   7.524   4.939   4.629
16415SOL    HW261719   7.650   5.037   4.664
16416SOL     OW61720   7.724   3.185   7.019
16416SOL    HW161721   7.672   3.266   6.993
16416SOL    HW261722   7.666   3.125   7.075
16417SOL     OW61723   8.558   4.206   4.927
16417SOL    HW161724   8.520   4.184   5.017
16417SOL    HW261725   8.548   4.304   4.910
16418SOL     OW61726   8.454   1.129   3.867
16418SOL    HW161727   8.431   1.226   3.854
16418SOL    HW261728   8.549   1.122   3.898
16419SOL     OW61729   8.537   2.749   2.654
16419SOL    HW161730   8.590   2.670   2.682
16419SOL    HW261731   8.440   2.733   2.675
16420SOL     OW61732   8.899   2.240   1.090
16420SOL    HW161733   8.811   2.200   1.064
16420SOL    HW261734   8.934   2.193   1.171
16421SOL     OW61735   8.053   1.188   0.803
16421SOL    HW161736   8.052   1.282   0.836
16421SOL    HW261737   8.145   1.163   0.773
16422SOL     OW61738   7.748   5.093   4.788
16422SOL    HW161739   7.718   5.159   4.857
16422SOL    HW261740   7.848   5.083   4.792
16423SOL     OW61741   8.845   4.315   4.085
16423SOL    HW161742   8.791   4.250   4.032
16423SOL    HW261743   8.786   4.363   4.150
16424SOL     OW61744   7.409   1.946   6.232
16424SOL    HW161745   7.445   1.901   6.151
16424SOL    HW261746   7.442   2.041   6.235
16425SOL     OW61747   7.932   2.875   5.343
16425SOL    HW161748   8.011   2.900   5.398
16425SOL    HW261749   7.961   2.818   5.266
16426SOL     OW61750   8.088   2.888   7.385
16426SOL    HW161751   8.002   2.890   7.333
16426SOL    HW261752   8.141   2.970   7.366
16427SOL     OW61753   7.920   0.651   1.793
16427SOL    HW161754   7.827   0.622   1.775
16427SOL    HW261755   7.922   0.714   1.871
16428SOL     OW61756   8.304   6.189   4.449
16428SOL    HW161757   8.370   6.128   4.405
16428SOL    HW261758   8.256   6.140   4.521
16429SOL     OW61759   7.351   4.395   3.728
16429SOL    HW161760   7.276   4.442   3.681
16429SOL    HW261761   7.364   4.305   3.687
16430SOL     OW61762   8.780   2.750   1.427
16430SOL    HW161763   8.846   2.767   1.354
16430SOL    HW261764   8.703   2.814   1.418
16431SOL     OW61765   8.953   2.197   6.450
16431SOL    HW161766   8.892   2.148   6.512
16431SOL    HW261767   8.907   2.277   6.413
16432SOL     OW61768   7.493   2.604   5.345
16432SOL    HW161769   7.405   2.644   5.319
16432SOL    HW261770   7.560   2.677   5.358
16433SOL     OW61771   8.690   7.157   5.698
16433SOL    HW161772   8.767   7.181   5.757
16433SOL    HW261773   8.666   7.061   5.710
16434SOL     OW61774   8.319   2.606   1.134
16434SOL    HW161775   8.273   2.664   1.067
16434SOL    HW261776   8.250   2.561   1.191
16435SOL     OW61777   8.638   0.809   4.365
16435SOL    HW161778   8.626   0.829   4.462
16435SOL    HW261779   8.703   0.734   4.353
16436SOL     OW61780   0.154   3.093   3.017
16436SOL    HW161781   0.228   3.072   3.081
16436SOL    HW261782   0.161   3.033   2.938
16437SOL     OW61783   0.062   6.926   6.489
16437SOL    HW161784   0.107   7.002   6.534
16437SOL    HW261785   0.111   6.841   6.507
16438SOL     OW61786   8.522   3.837   7.160
16438SOL    HW161787   8.586   3.825   7.236
16438SOL    HW261788   8.497   3.748   7.122
16439SOL     OW61789   8.126   3.182   4.378
16439SOL    HW161790   8.109   3.239   4.298
16439SOL    HW261791   8.044   3.127   4.398
16440SOL     OW61792   7.645   4.050   5.369
16440SOL    HW161793   7.699   4.074   5.449
16440SOL    HW261794   7.699   3.992   5.307
16441SOL     OW61795   8.605   3.460   2.585
16441SOL    HW161796   8.521   3.493   2.629
16441SOL    HW261797   8.664   3.538   2.564
16442SOL     OW61798   8.383   6.361   0.571
16442SOL    HW161799   8.400   6.343   0.474
16442SOL    HW261800   8.291   6.396   0.583
16443SOL     OW61801   8.795   3.153   1.480
16443SOL    HW161802   8.740   3.126   1.560
16443SOL    HW261803   8.739   3.145   1.398
16444SOL     OW61804   7.805   6.238   6.028
16444SOL    HW161805   7.747   6.267   5.952
16444SOL    HW261806   7.887   6.296   6.031
16445SOL     OW61807   8.310   5.561   7.108
16445SOL    HW161808   8.354   5.513   7.031
16445SOL    HW261809   8.289   5.495   7.180
16446SOL     OW61810   8.179   0.232   1.767
16446SOL    HW161811   8.128   0.302   1.817
16446SOL    HW261812   8.261   0.273   1.726
16447SOL     OW61813   7.869   3.445   2.122
16447SOL    HW161814   7.835   3.519   2.180
16447SOL    HW261815   7.922   3.483   2.046
16448SOL     OW61816   7.492   3.990   5.672
16448SOL    HW161817   7.410   4.045   5.688
16448SOL    HW261818   7.475   3.923   5.601
16449SOL     OW61819   7.541   0.897   1.705
16449SOL    HW161820   7.448   0.908   1.740
16449SOL    HW261821   7.605   0.945   1.765
16450SOL     OW61822   7.816   3.467   5.293
16450SOL    HW161823   7.718   3.447   5.291
16450SOL    HW261824   7.840   3.507   5.382
16451SOL     OW61825   8.293   3.664   5.021
16451SOL    HW161826   8.360   3.690   4.952
16451SOL    HW261827   8.211   3.629   4.977
16452SOL     OW61828   8.316   4.453   5.199
16452SOL    HW161829   8.329   4.537   5.252
16452SOL    HW261830   8.338   4.471   5.103
16453SOL     OW61831   8.791   2.504   5.842
16453SOL    HW161832   8.858   2.578   5.854
16453SOL    HW261833   8.733   2.525   5.764
16454SOL     OW61834   7.522   3.665   3.685
16454SOL    HW161835   7.540   3.684   3.782
16454SOL    HW261836   7.610   3.656   3.637
16455SOL     OW61837   8.080   5.454   6.436
16455SOL    HW161838   8.149   5.382   6.428
16455SOL    HW261839   8.027   5.459   6.351
16456SOL     OW61840   8.211   3.512   3.034
16456SOL    HW161841   8.309   3.520   3.013
16456SOL    HW261842   8.177   3.600   3.065
16457SOL     OW61843   8.751   3.143   4.238
16457SOL    HW161844   8.704   3.207   4.177
16457SOL    HW261845   8.847   3.134   4.210
16458SOL     OW61846   8.140   1.973   6.416
16458SOL    HW161847   8.133   2.028   6.333
16458SOL    HW261848   8.137   2.034   6.496
16459SOL     OW61849   8.389   5.424   6.883
16459SOL    HW161850   8.296   5.391   6.865
16459SOL    HW261851   8.449   5.346   6.899
16460SOL     OW61852   8.223   4.834   5.826
16460SOL    HW161853   8.308   4.786   5.804
16460SOL    HW261854   8.145   4.777   5.801
16461SOL     OW61855   8.829   2.251   4.425
16461SOL    HW161856   8.747   2.222   4.475
16461SOL    HW261857   8.838   2.197   4.341
16462SOL     OW61858   7.380   6.815   6.333
16462SOL    HW161859   7.439   6.891   6.307
16462SOL    HW261860   7.400   6.736   6.276
16463SOL     OW61861   8.374   5.664   6.736
16463SOL    HW161862   8.282   5.644   6.700
16463SOL    HW261863   8.403   5.590   6.797
16464SOL     OW61864   8.477   4.381   6.992
16464SOL    HW161865   8.496   4.312   7.062
16464SOL    HW261866   8.433   4.338   6.913
16465SOL     OW61867   8.912   4.273   7.245
16465SOL    HW161868   8.903   4.370   7.222
16465SOL    HW261869   0.007   4.253   7.271
16466SOL     OW61870   7.362   2.786   0.698
16466SOL    HW161871   7.325   2.764   0.789
16466SOL    HW261872   7.300   2.848   0.651
16467SOL     OW61873   7.986   1.279   0.366
16467SOL    HW161874   8.045   1.346   0.412
16467SOL    HW261875   8.040   1.228   0.298
16468SOL     OW61876   8.706   0.238   5.777
16468SOL    HW161877   8.650   0.185   5.841
16468SOL    HW261878   8.717   0.331   5.813
16469SOL     OW61879   7.554   4.210   7.017
16469SOL    HW161880   7.457   4.194   6.999
16469SOL    HW261881   7.589   4.276   6.951
16470SOL     OW61882   8.247   3.547   6.625
16470SOL    HW161883   8.283   3.455   6.640
16470SOL    HW261884   8.255   3.600   6.710
16471SOL     OW61885   8.006   1.821   2.779
16471SOL    HW161886   7.910   1.794   2.777
16471SOL    HW261887   8.056   1.772   2.708
16472SOL     OW61888   7.536   3.330   2.992
16472SOL    HW161889   7.526   3.420   3.035
16472SOL    HW261890   7.632   3.313   2.972
16473SOL     OW61891   8.378   0.071   7.360
16473SOL    HW161892   8.285   0.074   7.323
16473SOL    HW261893   8.382   0.124   7.444
16474SOL     OW61894   8.409   1.058   1.712
16474SOL    HW161895   8.383   1.000   1.635
16474SOL    HW261896   8.499   1.099   1.694
16475SOL     OW61897   8.029   2.466   2.912
16475SOL    HW161898   7.953   2.514   2.956
16475SOL    HW261899   8.094   2.435   2.981
16476SOL     OW61900   7.829   3.643   4.329
16476SOL    HW161901   7.761   3.587   4.377
16476SOL    HW261902   7.797   3.737   4.325
16477SOL     OW61903   7.823   1.415   3.620
16477SOL    HW161904   7.797   1.377   3.708
16477SOL    HW261905   7.793   1.354   3.547
16478SOL     OW61906   8.410   4.019   3.579
16478SOL    HW161907   8.425   3.955   3.503
16478SOL    HW261908   8.317   4.006   3.614
16479SOL     OW61909   7.753   6.869   0.645
16479SOL    HW161910   7.849   6.841   0.651
16479SOL    HW261911   7.746   6.967   0.663
16480SOL     OW61912   8.379   1.630   2.513
16480SOL    HW161913   8.360   1.532   2.501
16480SOL    HW261914   8.475   1.643   2.536
16481SOL     OW61915   8.573   2.721   0.745
16481SOL    HW161916   8.492   2.768   0.711
16481SOL    HW261917   8.548   2.662   0.822
16482SOL     OW61918   7.688   2.809   3.806
16482SOL    HW161919   7.707   2.897   3.850
16482SOL    HW261920   7.603   2.772   3.842
16483SOL     OW61921   7.891   3.175   2.064
16483SOL    HW161922   7.875   3.270   2.092
16483SOL    HW261923   7.822   3.116   2.106
16484SOL     OW61924   8.137   4.363   2.341
16484SOL    HW161925   8.068   4.403   2.281
16484SOL    HW261926   8.144   4.416   2.425
16485SOL     OW61927   8.341   7.023   6.880
16485SOL    HW161928   8.409   7.095   6.896
16485SOL    HW261929   8.255   7.065   6.850
16486SOL     OW61930   7.385   4.516   6.822
16486SOL    HW161931   7.352   4.607   6.796
16486SOL    HW261932   7.315   4.448   6.803
16487SOL     OW61933   7.872   4.543   0.307
16487SOL    HW161934   7.778   4.511   0.322
16487SOL    HW261935   7.930   4.508   0.380
16488SOL     OW61936   8.619   5.351   2.303
16488SOL    HW161937   8.613   5.396   2.392
16488SOL    HW261938   8.608   5.253   2.314
16489SOL     OW61939   7.907   0.796   2.573
16489SOL    HW161940   7.855   0.840   2.646
16489SOL    HW261941   7.903   0.853   2.491
16490SOL     OW61942   8.050   3.641   1.201
16490SOL    HW161943   8.144   3.646   1.168
16490SOL    HW261944   7.989   3.685   1.135
16491SOL     OW61945   8.737   3.396   5.370
16491SOL    HW161946   8.709   3.448   5.451
16491SOL    HW261947   8.664   3.399   5.301
16492SOL     OW61948   8.441   2.215   1.457
16492SOL    HW161949   8.368   2.192   1.393
16492SOL    HW261950   8.481   2.131   1.493
16493SOL     OW61951   8.268   3.657   0.121
16493SOL    HW161952   8.260   3.606   0.207
16493SOL    HW261953   8.181   3.654   0.073
16494SOL     OW61954   7.822   2.746   1.097
16494SOL    HW161955   7.888   2.743   1.172
16494SOL    HW261956   7.870   2.742   1.010
16495SOL     OW61957   7.983   4.613   0.070
16495SOL    HW161958   7.943   4.589   0.159
16495SOL    HW261959   7.989   4.531   0.013
16496SOL     OW61960   7.375   2.515   0.654
16496SOL    HW161961   7.389   2.614   0.665
16496SOL    HW261962   7.307   2.499   0.583
16497SOL     OW61963   8.448   1.601   3.961
16497SOL    HW161964   8.532   1.649   3.987
16497SOL    HW261965   8.378   1.668   3.938
16498SOL     OW61966   8.261   0.088   1.425
16498SOL    HW161967   8.234   0.045   1.511
16498SOL    HW261968   8.206   0.170   1.410
16499SOL     OW61969   8.113   2.029   0.633
16499SOL    HW161970   8.027   2.024   0.583
16499SOL    HW261971   8.169   1.948   0.612
16500SOL     OW61972   8.323   1.073   4.589
16500SOL    HW161973   8.326   1.172   4.605
16500SOL    HW261974   8.364   1.053   4.500
16501SOL     OW61975   8.247   1.286   1.987
16501SOL    HW161976   8.209   1.307   1.897
16501SOL    HW261977   8.291   1.367   2.025
16502SOL     OW61978   8.512   1.820   6.331
16502SOL    HW161979   8.565   1.753   6.278
16502SOL    HW261980   8.416   1.793   6.334
16503SOL     OW61981   7.482   3.412   1.518
16503SOL    HW161982   7.582   3.415   1.519
16503SOL    HW261983   7.451   3.321   1.491
16504SOL     OW61984   7.682   1.975   3.627
16504SOL    HW161985   7.781   1.965   3.633
16504SOL    HW261986   7.639   1.915   3.694
16505SOL     OW61987   8.022   5.082   4.788
16505SOL    HW161988   8.094   5.096   4.856
16505SOL    HW261989   8.032   5.150   4.715
16506SOL     OW61990   8.201   1.203   3.079
16506SOL    HW161991   8.136   1.203   3.002
16506SOL    HW261992   8.172   1.136   3.147
16507SOL     OW61993   8.200   6.283   7.019
16507SOL    HW161994   8.145   6.322   7.093
16507SOL    HW261995   8.293   6.321   7.024
16508SOL     OW61996   8.231   3.075   6.165
16508SOL    HW161997   8.257   3.006   6.097
16508SOL    HW261998   8.292   3.070   6.244
16509SOL     OW61999   7.485   4.464   5.377
16509SOL    HW162000   7.394   4.506   5.366
16509SOL    HW262001   7.553   4.536   5.392
16510SOL     OW62002   7.742   4.065   4.955
16510SOL    HW162003   7.738   4.073   4.855
16510SOL    HW262004   7.653   4.086   4.993
16511SOL     OW62005   0.049   0.480   6.936
16511SOL    HW162006   0.050   0.568   6.984
16511SOL    HW262007   0.051   0.405   7.003
16512SOL     OW62008   7.555   1.219   2.272
16512SOL    HW162009   7.509   1.220   2.361
16512SOL    HW262010   7.493   1.179   2.203
16513SOL     OW62011   8.142   5.074   0.197
16513SOL    HW162012   8.172   5.134   0.123
16513SOL    HW262013   8.122   4.983   0.160
16514SOL     OW62014   8.769   3.790   0.233
16514SOL    HW162015   8.691   3.753   0.284
16514SOL    HW262016   8.835   3.717   0.216
16515SOL     OW62017   8.876   7.216   0.351
16515SOL    HW162018   8.885   7.315   0.354
16515SOL    HW262019   8.966   7.174   0.337
16516SOL     OW62020   8.080   3.341   4.152
16516SOL    HW162021   8.142   3.282   4.100
16516SOL    HW262022   8.013   3.381   4.090
16517SOL     OW62023   8.462   5.015   1.816
16517SOL    HW162024   8.478   5.113   1.828
16517SOL    HW262025   8.399   4.982   1.887
16518SOL     OW62026   7.834   3.475   6.663
16518SOL    HW162027   7.804   3.382   6.682
16518SOL    HW262028   7.914   3.497   6.720
16519SOL     OW62029   8.328   6.535   6.395
16519SOL    HW162030   8.314   6.575   6.304
16519SOL    HW262031   8.426   6.520   6.411
16520SOL     OW62032   8.919   4.392   1.263
16520SOL    HW162033   8.908   4.294   1.243
16520SOL    HW262034   8.960   4.438   1.185
16521SOL     OW62035   7.535   5.782   6.661
16521SOL    HW162036   7.613   5.770   6.600
16521SOL    HW262037   7.504   5.877   6.657
16522SOL     OW62038   8.468   6.188   7.359
16522SOL    HW162039   8.385   6.133   7.376
16522SOL    HW262040   8.530   6.178   7.436
16523SOL     OW62041   7.412   2.585   4.805
16523SOL    HW162042   7.443   2.542   4.891
16523SOL    HW262043   7.354   2.664   4.826
16524SOL     OW62044   8.064   6.805   4.649
16524SOL    HW162045   8.076   6.705   4.646
16524SOL    HW262046   8.064   6.841   4.556
16525SOL     OW62047   8.615   0.791   1.711
16525SOL    HW162048   8.683   0.718   1.723
16525SOL    HW262049   8.586   0.825   1.800
16526SOL     OW62050   7.692   3.762   0.528
16526SOL    HW162051   7.727   3.805   0.611
16526SOL    HW262052   7.637   3.682   0.552
16527SOL     OW62053   8.360   2.305   5.435
16527SOL    HW162054   8.435   2.282   5.497
16527SOL    HW262055   8.396   2.330   5.345
16528SOL     OW62056   7.570   3.951   3.186
16528SOL    HW162057   7.506   3.977   3.258
16528SOL    HW262058   7.523   3.895   3.118
16529SOL     OW62059   8.484   4.325   2.670
16529SOL    HW162060   8.497   4.307   2.573
16529SOL    HW262061   8.539   4.405   2.697
16530SOL     OW62062   7.697   0.809   5.296
16530SOL    HW162063   7.686   0.908   5.289
16530SOL    HW262064   7.794   0.787   5.307
16531SOL     OW62065   8.225   2.160   5.846
16531SOL    HW162066   8.260   2.214   5.923
16531SOL    HW262067   8.301   2.117   5.797
16532SOL     OW62068   8.957   2.772   1.214
16532SOL    HW162069   0.019   2.694   1.207
16532SOL    HW262070   0.004   2.855   1.183
16533SOL     OW62071   8.608   4.062   4.217
16533SOL    HW162072   8.650   4.097   4.301
16533SOL    HW262073   8.509   4.073   4.223
16534SOL     OW62074   7.758   5.867   1.570
16534SOL    HW162075   7.707   5.884   1.486
16534SOL    HW262076   7.769   5.952   1.621
16535SOL     OW62077   7.527   3.977   6.442
16535SOL    HW162078   7.464   3.900   6.446
16535SOL    HW262079   7.487   4.055   6.492
16536SOL     OW62080   7.666   1.197   1.250
16536SOL    HW162081   7.704   1.121   1.198
16536SOL    HW262082   7.572   1.176   1.277
16537SOL     OW62083   7.644   1.733   3.139
16537SOL    HW162084   7.667   1.772   3.229
16537SOL    HW262085   7.695   1.648   3.125
16538SOL     OW62086   8.362   5.510   5.031
16538SOL    HW162087   8.312   5.570   4.967
16538SOL    HW262088   8.365   5.417   4.993
16539SOL     OW62089   8.482   7.105   0.749
16539SOL    HW162090   8.527   7.102   0.838
16539SOL    HW262091   8.549   7.084   0.678
16540SOL     OW62092   7.974   4.270   2.002
16540SOL    HW162093   8.072   4.261   2.021
16540SOL    HW262094   7.929   4.182   2.019
16541SOL     OW62095   7.459   1.035   6.415
16541SOL    HW162096   7.426   0.971   6.484
16541SOL    HW262097   7.446   0.995   6.324
16542SOL     OW62098   8.768   1.686   7.169
16542SOL    HW162099   8.830   1.670   7.092
16542SOL    HW262100   8.813   1.661   7.255
16543SOL     OW62101   0.122   3.456   6.138
16543SOL    HW162102   0.148   3.508   6.056
16543SOL    HW262103   0.202   3.442   6.195
16544SOL     OW62104   8.906   1.210   3.517
16544SOL    HW162105   8.835   1.273   3.547
16544SOL    HW262106   8.887   1.181   3.423
16545SOL     OW62107   8.163   2.991   5.448
16545SOL    HW162108   8.172   3.045   5.365
16545SOL    HW262109   8.254   2.960   5.478
16546SOL     OW62110   0.104   5.052   1.084
16546SOL    HW162111   0.024   5.110   1.079
16546SOL    HW262112   0.148   5.062   1.174
16547SOL     OW62113   7.903   3.571   5.526
16547SOL    HW162114   7.994   3.608   5.506
16547SOL    HW262115   7.844   3.646   5.557
16548SOL     OW62116   8.626   2.280   1.258
16548SOL    HW162117   8.683   2.355   1.291
16548SOL    HW262118   8.552   2.264   1.324
16549SOL     OW62119   8.159   0.602   2.133
16549SOL    HW162120   8.150   0.702   2.131
16549SOL    HW262121   8.094   0.565   2.200
16550SOL     OW62122   8.403   3.010   6.375
16550SOL    HW162123   8.431   3.073   6.447
16550SOL    HW262124   8.360   2.930   6.415
16551SOL     OW62125   8.435   6.773   6.807
16551SOL    HW162126   8.401   6.866   6.819
16551SOL    HW262127   8.415   6.719   6.888
16552SOL     OW62128   7.453   3.453   7.240
16552SOL    HW162129   7.375   3.516   7.237
16552SOL    HW262130   7.479   3.427   7.147
16553SOL     OW62131   7.451   5.422   7.181
16553SOL    HW162132   7.390   5.351   7.146
16553SOL    HW262133   7.421   5.511   7.149
16554SOL     OW62134   7.684   5.221   0.418
16554SOL    HW162135   7.655   5.133   0.382
16554SOL    HW262136   7.606   5.283   0.424
16555SOL     OW62137   7.858   5.071   0.849
16555SOL    HW162138   7.883   5.081   0.752
16555SOL    HW262139   7.815   5.155   0.881
16556SOL     OW62140   8.882   2.372   7.195
16556SOL    HW162141   8.981   2.377   7.180
16556SOL    HW262142   8.849   2.282   7.168
16557SOL     OW62143   7.361   0.070   1.803
16557SOL    HW162144   7.416   8.996   1.765
16557SOL    HW262145   7.328   0.128   1.728
16558SOL     OW62146   8.080   7.111   6.807
16558SOL    HW162147   8.008   7.059   6.854
16558SOL    HW262148   8.045   7.143   6.719
16559SOL     OW62149   7.749   0.902   2.774
16559SOL    HW162150   7.795   0.951   2.849
16559SOL    HW262151   7.667   0.951   2.747
16560SOL     OW62152   7.715   1.890   5.586
16560SOL    HW162153   7.785   1.819   5.589
16560SOL    HW262154   7.732   1.958   5.657
16561SOL     OW62155   8.396   6.280   0.991
16561SOL    HW162156   8.380   6.222   0.911
16561SOL    HW262157   8.385   6.376   0.965
16562SOL     OW62158   8.660   1.171   1.657
16562SOL    HW162159   8.747   1.173   1.608
16562SOL    HW262160   8.608   1.254   1.635
16563SOL     OW62161   8.424   2.947   5.527
16563SOL    HW162162   8.501   2.884   5.514
16563SOL    HW262163   8.416   2.969   5.625
16564SOL     OW62164   7.845   1.067   2.983
16564SOL    HW162165   7.755   1.109   2.969
16564SOL    HW262166   7.914   1.122   2.936
16565SOL     OW62167   8.211   5.098   5.000
16565SOL    HW162168   8.154   5.153   5.061
16565SOL    HW262169   8.251   5.023   5.052
16566SOL     OW62170   8.286   2.654   2.728
16566SOL    HW162171   8.274   2.583   2.659
16566SOL    HW262172   8.319   2.613   2.813
16567SOL     OW62173   8.162   6.870   5.431
16567SOL    HW162174   8.242   6.814   5.412
16567SOL    HW262175   8.164   6.952   5.373
16568SOL     OW62176   8.370   5.564   2.004
16568SOL    HW162177   8.459   5.524   2.023
16568SOL    HW262178   8.300   5.518   2.057
16569SOL     OW62179   8.276   3.445   1.976
16569SOL    HW162180   8.302   3.527   2.028
16569SOL    HW262181   8.353   3.381   1.976
16570SOL     OW62182   8.120   5.751   2.379
16570SOL    HW162183   8.173   5.835   2.376
16570SOL    HW262184   8.072   5.739   2.292
16571SOL     OW62185   8.899   4.587   4.623
16571SOL    HW162186   8.923   4.655   4.553
16571SOL    HW262187   8.850   4.511   4.581
16572SOL     OW62188   8.244   2.621   5.501
16572SOL    HW162189   8.189   2.538   5.500
16572SOL    HW262190   8.285   2.635   5.410
16573SOL     OW62191   8.266   4.288   6.242
16573SOL    HW162192   8.347   4.259   6.293
16573SOL    HW262193   8.215   4.208   6.212
16574SOL     OW62194   8.122   4.019   1.796
16574SOL    HW162195   8.038   3.966   1.800
16574SOL    HW262196   8.195   3.971   1.844
16575SOL     OW62197   8.797   3.668   4.387
16575SOL    HW162198   8.869   3.641   4.322
16575SOL    HW262199   8.833   3.664   4.480
16576SOL     OW62200   7.429   6.305   2.093
16576SOL    HW162201   7.347   6.342   2.049
16576SOL    HW262202   7.501   6.293   2.024
16577SOL     OW62203   8.560   1.395   2.659
16577SOL    HW162204   8.545   1.427   2.752
16577SOL    HW262205   8.595   1.469   2.602
16578SOL     OW62206   8.260   3.699   6.855
16578SOL    HW162207   8.162   3.703   6.878
16578SOL    HW262208   8.293   3.791   6.835
16579SOL     OW62209   8.267   4.672   1.551
16579SOL    HW162210   8.229   4.745   1.493
16579SOL    HW262211   8.335   4.711   1.612
16580SOL     OW62212   7.785   2.954   3.296
16580SOL    HW162213   7.860   3.020   3.292
16580SOL    HW262214   7.761   2.936   3.391
16581SOL     OW62215   8.118   3.835   4.025
16581SOL    HW162216   8.171   3.813   4.107
16581SOL    HW262217   8.033   3.783   4.025
16582SOL     OW62218   8.254   4.990   6.729
16582SOL    HW162219   8.320   5.032   6.667
16582SOL    HW262220   8.291   4.989   6.822
16583SOL     OW62221   8.299   6.694   3.740
16583SOL    HW162222   8.259   6.760   3.676
16583SOL    HW262223   8.355   6.744   3.807
16584SOL     OW62224   7.687   1.100   1.854
16584SOL    HW162225   7.775   1.126   1.814
16584SOL    HW262226   7.614   1.153   1.812
16585SOL     OW62227   8.713   5.249   0.824
16585SOL    HW162228   8.780   5.230   0.752
16585SOL    HW262229   8.650   5.320   0.793
16586SOL     OW62230   0.025   3.929   5.891
16586SOL    HW162231   0.107   3.874   5.878
16586SOL    HW262232   0.026   4.005   5.826
16587SOL     OW62233   8.129   2.491   1.292
16587SOL    HW162234   8.070   2.572   1.299
16587SOL    HW262235   8.177   2.477   1.378
16588SOL     OW62236   8.935   0.840   3.755
16588SOL    HW162237   8.981   0.751   3.760
16588SOL    HW262238   8.838   0.827   3.738
16589SOL     OW62239   8.446   3.614   4.115
16589SOL    HW162240   8.521   3.671   4.147
16589SOL    HW262241   8.414   3.647   4.026
16590SOL     OW62242   7.462   2.752   2.451
16590SOL    HW162243   7.408   2.671   2.428
16590SOL    HW262244   7.434   2.828   2.393
16591SOL     OW62245   7.918   4.479   6.838
16591SOL    HW162246   7.819   4.468   6.830
16591SOL    HW262247   7.958   4.394   6.872
16592SOL     OW62248   8.637   6.749   5.532
16592SOL    HW162249   8.645   6.809   5.611
16592SOL    HW262250   8.696   6.669   5.545
16593SOL     OW62251   8.331   6.078   4.864
16593SOL    HW162252   8.425   6.047   4.852
16593SOL    HW262253   8.310   6.084   4.962
16594SOL     OW62254   8.320   0.671   6.284
16594SOL    HW162255   8.344   0.711   6.195
16594SOL    HW262256   8.222   0.651   6.286
16595SOL     OW62257   7.689   5.581   3.786
16595SOL    HW162258   7.632   5.638   3.726
16595SOL    HW262259   7.666   5.485   3.772
16596SOL     OW62260   8.135   0.096   7.237
16596SOL    HW162261   8.146   0.049   7.149
16596SOL    HW262262   8.070   0.172   7.227
16597SOL     OW62263   8.450   0.069   7.088
16597SOL    HW162264   8.548   0.088   7.080
16597SOL    HW262265   8.424   0.068   7.184
16598SOL     OW62266   8.413   3.392   4.269
16598SOL    HW162267   8.318   3.369   4.292
16598SOL    HW262268   8.415   3.478   4.218
16599SOL     OW62269   8.232   2.082   7.072
16599SOL    HW162270   8.270   1.991   7.091
16599SOL    HW262271   8.206   2.125   7.158
16600SOL     OW62272   8.389   4.221   0.806
16600SOL    HW162273   8.384   4.304   0.861
16600SOL    HW262274   8.444   4.239   0.724
16601SOL     OW62275   8.666   1.145   2.649
16601SOL    HW162276   8.634   1.239   2.637
16601SOL    HW262277   8.717   1.139   2.735
16602SOL     OW62278   7.573   2.835   6.954
16602SOL    HW162279   7.612   2.839   7.046
16602SOL    HW262280   7.514   2.915   6.939
16603SOL     OW62281   7.473   5.226   0.726
16603SOL    HW162282   7.563   5.270   0.730
16603SOL    HW262283   7.453   5.183   0.814
16604SOL     OW62284   8.468   2.765   3.453
16604SOL    HW162285   8.469   2.667   3.433
16604SOL    HW262286   8.477   2.816   3.367
16605SOL     OW62287   8.477   4.857   3.247
16605SOL    HW162288   8.501   4.760   3.241
16605SOL    HW262289   8.495   4.890   3.339
16606SOL     OW62290   0.012   1.411   0.556
16606SOL    HW162291   0.010   1.353   0.474
16606SOL    HW262292   0.083   1.378   0.618
16607SOL     OW62293   8.735   4.084   0.634
16607SOL    HW162294   8.668   4.151   0.602
16607SOL    HW262295   8.824   4.104   0.594
16608SOL     OW62296   7.659   3.716   1.429
16608SOL    HW162297   7.703   3.739   1.342
16608SOL    HW262298   7.699   3.632   1.466
16609SOL     OW62299   8.645   0.783   1.205
16609SOL    HW162300   8.622   0.814   1.297
16609SOL    HW262301   8.679   0.689   1.209
16610SOL     OW62302   8.856   0.118   0.447
16610SOL    HW162303   8.804   0.047   0.400
16610SOL    HW262304   8.915   0.076   0.516
16611SOL     OW62305   8.903   4.552   5.131
16611SOL    HW162306   8.809   4.535   5.161
16611SOL    HW262307   8.902   4.595   5.040
16612SOL     OW62308   7.535   2.677   2.696
16612SOL    HW162309   7.512   2.709   2.604
16612SOL    HW262310   7.569   2.753   2.750
16613SOL     OW62311   7.864   3.948   5.822
16613SOL    HW162312   7.906   3.858   5.823
16613SOL    HW262313   7.800   3.956   5.898
16614SOL     OW62314   8.541   4.914   3.841
16614SOL    HW162315   8.609   4.863   3.789
16614SOL    HW262316   8.500   4.984   3.783
16615SOL     OW62317   7.873   3.771   0.324
16615SOL    HW162318   7.960   3.798   0.366
16615SOL    HW262319   7.801   3.773   0.392
16616SOL     OW62320   8.864   2.886   2.375
16616SOL    HW162321   8.899   2.973   2.339
16616SOL    HW262322   8.797   2.904   2.446
16617SOL     OW62323   8.193   6.880   3.568
16617SOL    HW162324   8.258   6.951   3.540
16617SOL    HW262325   8.100   6.917   3.562
16618SOL     OW62326   7.808   2.081   6.864
16618SOL    HW162327   7.901   2.074   6.830
16618SOL    HW262328   7.809   2.113   6.959
16619SOL     OW62329   8.279   0.082   4.181
16619SOL    HW162330   8.364   0.133   4.174
16619SOL    HW262331   8.257   0.067   4.278
16620SOL     OW62332   7.676   3.366   0.812
16620SOL    HW162333   7.704   3.386   0.906
16620SOL    HW262334   7.618   3.284   0.811
16621SOL     OW62335   8.308   7.172   6.045
16621SOL    HW162336   8.270   7.258   6.012
16621SOL    HW262337   8.267   7.150   6.134
16622SOL     OW62338   7.926   5.340   7.058
16622SOL    HW162339   7.989   5.401   7.010
16622SOL    HW262340   7.847   5.393   7.089
16623SOL     OW62341   8.358   1.385   3.825
16623SOL    HW162342   8.391   1.461   3.882
16623SOL    HW262343   8.263   1.402   3.799
16624SOL     OW62344   7.957   3.257   5.819
16624SOL    HW162345   7.901   3.274   5.738
16624SOL    HW262346   8.033   3.197   5.795
16625SOL     OW62347   8.308   6.422   3.717
16625SOL    HW162348   8.273   6.401   3.626
16625SOL    HW262349   8.305   6.521   3.733
16626SOL     OW62350   8.821   4.935   5.008
16626SOL    HW162351   8.801   4.856   4.950
16626SOL    HW262352   8.917   4.961   4.996
16627SOL     OW62353   8.058   1.419   6.977
16627SOL    HW162354   7.976   1.475   6.980
16627SOL    HW262355   8.036   1.326   7.007
16628SOL     OW62356   8.810   1.855   3.144
16628SOL    HW162357   8.876   1.841   3.218
16628SOL    HW262358   8.764   1.768   3.124
16629SOL     OW62359   7.503   0.253   1.433
16629SOL    HW162360   7.524   0.347   1.407
16629SOL    HW262361   7.492   0.197   1.351
16630SOL     OW62362   8.147   0.235   2.257
16630SOL    HW162363   8.126   0.317   2.311
16630SOL    HW262364   8.079   0.226   2.183
16631SOL     OW62365   7.371   5.482   1.872
16631SOL    HW162366   7.425   5.407   1.834
16631SOL    HW262367   7.431   5.544   1.923
16632SOL     OW62368   7.996   2.239   5.723
16632SOL    HW162369   8.081   2.202   5.760
16632SOL    HW262370   7.956   2.304   5.788
16633SOL     OW62371   7.763   3.904   6.558
16633SOL    HW162372   7.837   3.941   6.501
16633SOL    HW262373   7.675   3.935   6.523
16634SOL     OW62374   7.865   3.798   4.806
16634SOL    HW162375   7.902   3.869   4.867
16634SOL    HW262376   7.775   3.768   4.840
16635SOL     OW62377   8.530   2.692   6.156
16635SOL    HW162378   8.484   2.655   6.237
16635SOL    HW262379   8.582   2.773   6.182
16636SOL     OW62380   7.595   3.348   5.735
16636SOL    HW162381   7.522   3.356   5.668
16636SOL    HW262382   7.681   3.328   5.687
16637SOL     OW62383   8.306   1.892   2.473
16637SOL    HW162384   8.330   1.795   2.484
16637SOL    HW262385   8.210   1.905   2.498
16638SOL     OW62386   8.022   2.700   5.153
16638SOL    HW162387   7.990   2.618   5.200
16638SOL    HW262388   8.092   2.674   5.086
16639SOL     OW62389   8.460   1.319   0.555
16639SOL    HW162390   8.544   1.279   0.591
16639SOL    HW262391   8.467   1.329   0.456
16640SOL     OW62392   7.583   2.861   1.420
16640SOL    HW162393   7.654   2.808   1.465
16640SOL    HW262394   7.518   2.894   1.489
16641SOL     OW62395   8.377   6.139   0.744
16641SOL    HW162396   8.386   6.223   0.691
16641SOL    HW262397   8.347   6.065   0.684
16642SOL     OW62398   8.488   1.345   6.950
16642SOL    HW162399   8.496   1.276   7.021
16642SOL    HW262400   8.540   1.318   6.869
16643SOL     OW62401   7.755   3.502   6.068
16643SOL    HW162402   7.787   3.407   6.074
16643SOL    HW262403   7.790   3.543   5.984
16644SOL     OW62404   8.146   2.158   6.621
16644SOL    HW162405   8.135   2.115   6.711
16644SOL    HW262406   8.241   2.190   6.611
16645SOL     OW62407   8.238   5.162   4.025
16645SOL    HW162408   8.175   5.239   4.035
16645SOL    HW262409   8.210   5.106   3.947
16646SOL     OW62410   8.408   2.339   0.895
16646SOL    HW162411   8.468   2.411   0.930
16646SOL    HW262412   8.438   2.313   0.803
16647SOL     OW62413   7.791   1.062   7.159
16647SOL    HW162414   7.872   1.099   7.114
16647SOL    HW262415   7.720   1.044   7.091
16648SOL     OW62416   8.909   2.462   5.134
16648SOL    HW162417   9.000   2.443   5.097
16648SOL    HW262418   8.902   2.560   5.155
16649SOL     OW62419   8.560   0.095   5.965
16649SOL    HW162420   8.461   0.096   5.956
16649SOL    HW262421   8.595   0.003   5.946
16650SOL     OW62422   8.932   2.184   3.945
16650SOL    HW162423   8.905   2.173   4.041
16650SOL    HW262424   0.008   2.248   3.939
16651SOL     OW62425   8.536   2.298   5.819
16651SOL    HW162426   8.584   2.316   5.732
16651SOL    HW262427   8.504   2.384   5.858
16652SOL     OW62428   8.260   4.550   4.234
16652SOL    HW162429   8.225   4.615   4.301
16652SOL    HW262430   8.279   4.597   4.148
16653SOL     OW62431   8.777   2.675   0.231
16653SOL    HW162432   8.689   2.634   0.254
16653SOL    HW262433   8.835   2.607   0.186
16654SOL     OW62434   0.151   4.003   6.754
16654SOL    HW162435   0.173   3.928   6.816
16654SOL    HW262436   0.213   4.001   6.675
16655SOL     OW62437   8.661   4.937   6.517
16655SOL    HW162438   8.663   4.869   6.591
16655SOL    HW262439   8.699   4.896   6.434
16656SOL     OW62440   7.705   7.084   5.400
16656SOL    HW162441   7.629   7.054   5.343
16656SOL    HW262442   7.742   7.170   5.364
16657SOL     OW62443   7.422   4.663   2.730
16657SOL    HW162444   7.452   4.754   2.700
16657SOL    HW262445   7.479   4.593   2.687
16658SOL     OW62446   0.114   6.604   1.268
16658SOL    HW162447   0.192   6.581   1.325
16658SOL    HW262448   0.136   6.586   1.172
16659SOL     OW62449   7.698   4.547   7.087
16659SOL    HW162450   7.742   4.485   7.152
16659SOL    HW262451   7.683   4.499   7.000
16660SOL     OW62452   0.449   4.862   6.922
16660SOL    HW162453   0.493   4.937   6.872
16660SOL    HW262454   0.351   4.881   6.931
16661SOL     OW62455   7.564   6.600   5.348
16661SOL    HW162456   7.472   6.637   5.336
16661SOL    HW262457   7.562   6.501   5.334
16662SOL     OW62458   8.256   6.135   2.009
16662SOL    HW162459   8.264   6.056   2.070
16662SOL    HW262460   8.335   6.138   1.948
16663SOL     OW62461   8.481   4.908   4.100
16663SOL    HW162462   8.438   4.992   4.134
16663SOL    HW262463   8.508   4.921   4.004
16664SOL     OW62464   8.054   3.153   0.790
16664SOL    HW162465   8.104   3.200   0.863
16664SOL    HW262466   8.002   3.219   0.737
16665SOL     OW62467   7.987   4.066   0.580
16665SOL    HW162468   8.043   4.141   0.614
16665SOL    HW262469   7.913   4.102   0.523
16666SOL     OW62470   8.656   4.893   5.669
16666SOL    HW162471   8.756   4.895   5.670
16666SOL    HW262472   8.621   4.972   5.719
16667SOL     OW62473   0.050   6.712   6.897
16667SOL    HW162474   0.115   6.734   6.970
16667SOL    HW262475   0.001   6.628   6.921
16668SOL     OW62476   8.570   0.863   1.985
16668SOL    HW162477   8.591   0.842   2.081
16668SOL    HW262478   8.491   0.924   1.981
16669SOL     OW62479   7.727   3.890   4.288
16669SOL    HW162480   7.657   3.896   4.216
16669SOL    HW262481   7.784   3.972   4.286
16670SOL     OW62482   8.558   2.650   3.157
16670SOL    HW162483   8.526   2.600   3.237
16670SOL    HW262484   8.548   2.748   3.172
16671SOL     OW62485   0.012   1.248   0.338
16671SOL    HW162486   0.084   1.179   0.335
16671SOL    HW262487   8.930   1.214   0.293
16672SOL     OW62488   8.581   6.515   6.784
16672SOL    HW162489   8.537   6.605   6.780
16672SOL    HW262490   8.675   6.522   6.750
16673SOL     OW62491   0.100   5.355   4.399
16673SOL    HW162492   0.178   5.294   4.395
16673SOL    HW262493   0.042   5.332   4.477
16674SOL     OW62494   8.257   3.106   2.842
16674SOL    HW162495   8.342   3.085   2.891
16674SOL    HW262496   8.212   3.022   2.814
16675SOL     OW62497   8.534   1.529   7.150
16675SOL    HW162498   8.612   1.591   7.139
16675SOL    HW262499   8.527   1.470   7.070
16676SOL     OW62500   8.344   3.052   4.990
16676SOL    HW162501   8.407   3.129   4.975
16676SOL    HW262502   8.343   2.994   4.908
16677SOL     OW62503   8.302   4.701   0.176
16677SOL    HW162504   8.334   4.626   0.117
16677SOL    HW262505   8.230   4.752   0.129
16678SOL     OW62506   8.648   2.470   2.022
16678SOL    HW162507   8.663   2.453   2.120
16678SOL    HW262508   8.584   2.546   2.011
16679SOL     OW62509   8.488   2.864   6.688
16679SOL    HW162510   8.569   2.852   6.630
16679SOL    HW262511   8.499   2.946   6.744
16680SOL     OW62512   8.548   3.933   3.802
16680SOL    HW162513   8.502   3.980   3.727
16680SOL    HW262514   8.597   3.999   3.859
16681SOL     OW62515   7.646   4.139   4.445
16681SOL    HW162516   7.668   4.102   4.534
16681SOL    HW262517   7.559   4.101   4.412
16682SOL     OW62518   8.010   2.458   2.638
16682SOL    HW162519   7.921   2.494   2.609
16682SOL    HW262520   8.018   2.464   2.737
16683SOL     OW62521   7.607   1.177   2.909
16683SOL    HW162522   7.556   1.131   2.837
16683SOL    HW262523   7.645   1.263   2.874
16684SOL     OW62524   8.800   7.056   6.535
16684SOL    HW162525   8.883   7.009   6.507
16684SOL    HW262526   8.745   6.996   6.593
16685SOL     OW62527   7.428   1.874   0.409
16685SOL    HW162528   7.434   1.779   0.379
16685SOL    HW262529   7.459   1.881   0.504
16686SOL     OW62530   7.884   3.690   4.059
16686SOL    HW162531   7.905   3.602   4.017
16686SOL    HW262532   7.867   3.677   4.156
16687SOL     OW62533   8.194   0.116   5.412
16687SOL    HW162534   8.176   0.168   5.329
16687SOL    HW262535   8.108   0.080   5.448
16688SOL     OW62536   7.444   7.223   1.494
16688SOL    HW162537   7.380   7.298   1.513
16688SOL    HW262538   7.537   7.251   1.520
16689SOL     OW62539   8.918   3.538   0.207
16689SOL    HW162540   8.942   3.464   0.144
16689SOL    HW262541   8.832   3.515   0.254
16690SOL     OW62542   8.205   0.952   7.112
16690SOL    HW162543   8.239   0.933   7.020
16690SOL    HW262544   8.147   0.876   7.142
16691SOL     OW62545   8.957   4.283   3.079
16691SOL    HW162546   0.049   4.298   3.115
16691SOL    HW262547   8.938   4.351   3.007
16692SOL     OW62548   8.948   6.356   6.526
16692SOL    HW162549   0.035   6.307   6.521
16692SOL    HW262550   8.874   6.295   6.497
16693SOL     OW62551   8.823   5.722   0.605
16693SOL    HW162552   8.847   5.813   0.573
16693SOL    HW262553   8.739   5.726   0.659
16694SOL     OW62554   7.841   3.936   3.198
16694SOL    HW162555   7.742   3.946   3.192
16694SOL    HW262556   7.881   3.946   3.107
16695SOL     OW62557   7.933   2.475   0.197
16695SOL    HW162558   7.847   2.443   0.159
16695SOL    HW262559   7.937   2.575   0.191
16696SOL     OW62560   8.530   1.150   7.141
16696SOL    HW162561   8.614   1.177   7.190
16696SOL    HW262562   8.460   1.123   7.208
16697SOL     OW62563   8.222   3.914   1.205
16697SOL    HW162564   8.228   3.973   1.124
16697SOL    HW262565   8.287   3.945   1.274
16698SOL     OW62566   0.300   5.884   3.436
16698SOL    HW162567   0.211   5.927   3.421
16698SOL    HW262568   0.342   5.864   3.347
16699SOL     OW62569   8.319   1.952   2.207
16699SOL    HW162570   8.307   1.937   2.305
16699SOL    HW262571   8.229   1.966   2.165
16700SOL     OW62572   8.787   4.528   5.539
16700SOL    HW162573   8.816   4.499   5.631
16700SOL    HW262574   8.727   4.458   5.500
16701SOL     OW62575   7.325   6.807   0.516
16701SOL    HW162576   7.336   6.708   0.515
16701SOL    HW262577   7.232   6.831   0.488
16702SOL     OW62578   8.663   4.005   1.659
16702SOL    HW162579   8.747   4.024   1.710
16702SOL    HW262580   8.618   3.924   1.697
16703SOL     OW62581   7.466   0.560   2.607
16703SOL    HW162582   7.526   0.500   2.554
16703SOL    HW262583   7.371   0.539   2.586
16704SOL     OW62584   0.011   6.036   4.110
16704SOL    HW162585   0.008   5.937   4.097
16704SOL    HW262586   8.924   6.076   4.079
16705SOL     OW62587   8.832   4.298   0.339
16705SOL    HW162588   8.767   4.374   0.336
16705SOL    HW262589   8.788   4.216   0.303
16706SOL     OW62590   7.891   1.656   0.787
16706SOL    HW162591   7.933   1.744   0.808
16706SOL    HW262592   7.875   1.649   0.689
16707SOL     OW62593   8.239   3.209   1.230
16707SOL    HW162594   8.163   3.209   1.295
16707SOL    HW262595   8.317   3.257   1.271
16708SOL     OW62596   8.222   2.167   3.811
16708SOL    HW162597   8.189   2.261   3.818
16708SOL    HW262598   8.311   2.166   3.764
16709SOL     OW62599   7.534   7.121   6.590
16709SOL    HW162600   7.631   7.139   6.577
16709SOL    HW262601   7.488   7.117   6.501
16710SOL     OW62602   8.796   2.076   6.647
16710SOL    HW162603   8.872   2.051   6.707
16710SOL    HW262604   8.727   2.003   6.647
16711SOL     OW62605   8.406   5.110   3.702
16711SOL    HW162606   8.436   5.188   3.758
16711SOL    HW262607   8.313   5.085   3.727
16712SOL     OW62608   8.997   2.452   1.239
16712SOL    HW162609   0.075   2.502   1.202
16712SOL    HW262610   8.966   2.384   1.173
16713SOL     OW62611   8.709   3.791   3.628
16713SOL    HW162612   8.803   3.788   3.662
16713SOL    HW262613   8.652   3.840   3.694
16714SOL     OW62614   8.854   0.491   7.250
16714SOL    HW162615   8.763   0.455   7.232
16714SOL    HW262616   8.853   0.591   7.243
16715SOL     OW62617   7.818   3.671   2.284
16715SOL    HW162618   7.803   3.659   2.382
16715SOL    HW262619   7.890   3.738   2.268
16716SOL     OW62620   8.832   0.418   1.560
16716SOL    HW162621   8.862   0.324   1.575
16716SOL    HW262622   8.798   0.428   1.466
16717SOL     OW62623   0.107   4.618   1.685
16717SOL    HW162624   0.062   4.551   1.744
16717SOL    HW262625   0.167   4.570   1.621
16718SOL     OW62626   7.520   6.938   2.715
16718SOL    HW162627   7.604   6.884   2.715
16718SOL    HW262628   7.442   6.879   2.692
16719SOL     OW62629   7.846   3.924   6.832
16719SOL    HW162630   7.795   3.907   6.747
16719SOL    HW262631   7.931   3.972   6.811
16720SOL     OW62632   8.621   1.575   1.756
16720SOL    HW162633   8.642   1.609   1.847
16720SOL    HW262634   8.693   1.602   1.692
16721SOL     OW62635   7.578   2.400   4.157
16721SOL    HW162636   7.592   2.319   4.101
16721SOL    HW262637   7.501   2.453   4.121
16722SOL     OW62638   7.406   7.334   6.731
16722SOL    HW162639   7.453   7.254   6.693
16722SOL    HW262640   7.388   7.318   6.828
16723SOL     OW62641   7.514   7.041   5.188
16723SOL    HW162642   7.598   7.034   5.135
16723SOL    HW262643   7.448   6.973   5.155
16724SOL     OW62644   8.830   1.980   3.798
16724SOL    HW162645   8.880   1.900   3.833
16724SOL    HW262646   8.863   2.062   3.846
16725SOL     OW62647   8.537   2.944   1.064
16725SOL    HW162648   8.579   3.013   1.123
16725SOL    HW262649   8.595   2.862   1.064
16726SOL     OW62650   8.647   7.095   0.967
16726SOL    HW162651   8.671   7.184   1.008
16726SOL    HW262652   8.716   7.027   0.993
16727SOL     OW62653   8.829   5.639   0.122
16727SOL    HW162654   8.896   5.566   0.109
16727SOL    HW262655   8.862   5.702   0.193
16728SOL     OW62656   7.784   6.047   1.221
16728SOL    HW162657   7.755   6.140   1.241
16728SOL    HW262658   7.722   5.982   1.267
16729SOL     OW62659   8.197   5.136   7.308
16729SOL    HW162660   8.148   5.124   7.222
16729SOL    HW262661   8.223   5.232   7.319
16730SOL     OW62662   7.904   5.843   7.204
16730SOL    HW162663   7.944   5.909   7.269
16730SOL    HW262664   7.930   5.869   7.111
16731SOL     OW62665   8.425   0.796   6.053
16731SOL    HW162666   8.519   0.823   6.071
16731SOL    HW262667   8.407   0.801   5.955
16732SOL     OW62668   8.207   1.937   1.509
16732SOL    HW162669   8.217   1.969   1.415
16732SOL    HW262670   8.180   2.014   1.567
16733SOL     OW62671   8.076   6.299   4.025
16733SOL    HW162672   8.049   6.384   3.979
16733SOL    HW262673   8.109   6.321   4.117
16734SOL     OW62674   8.898   7.209   5.871
16734SOL    HW162675   8.902   7.265   5.954
16734SOL    HW262676   8.985   7.160   5.860
16735SOL     OW62677   8.014   7.328   5.196
16735SOL    HW162678   8.044   7.423   5.204
16735SOL    HW262679   7.918   7.321   5.223
16736SOL     OW62680   8.433   4.203   5.171
16736SOL    HW162681   8.385   4.288   5.191
16736SOL    HW262682   8.411   4.134   5.239
16737SOL     OW62683   7.647   0.381   2.485
16737SOL    HW162684   7.671   0.338   2.398
16737SOL    HW262685   7.724   0.435   2.518
16738SOL     OW62686   7.365   3.994   3.379
16738SOL    HW162687   7.361   3.902   3.417
16738SOL    HW262688   7.283   4.011   3.324
16739SOL     OW62689   7.427   3.935   0.150
16739SOL    HW162690   7.346   3.987   0.125
16739SOL    HW262691   7.499   3.950   0.082
16740SOL     OW62692   8.423   3.607   7.059
16740SOL    HW162693   8.363   3.600   7.138
16740SOL    HW262694   8.369   3.627   6.978
16741SOL     OW62695   8.899   5.131   3.016
16741SOL    HW162696   8.985   5.098   3.056
16741SOL    HW262697   8.916   5.218   2.970
16742SOL     OW62698   7.905   0.956   2.343
16742SOL    HW162699   8.002   0.980   2.345
16742SOL    HW262700   7.869   0.971   2.251
16743SOL     OW62701   7.373   4.847   6.166
16743SOL    HW162702   7.424   4.899   6.097
16743SOL    HW262703   7.357   4.905   6.246
16744SOL     OW62704   8.360   2.886   0.657
16744SOL    HW162705   8.264   2.879   0.685
16744SOL    HW262706   8.365   2.922   0.564
16745SOL     OW62707   8.037   1.211   2.860
16745SOL    HW162708   8.073   1.133   2.808
16745SOL    HW262709   8.058   1.296   2.811
16746SOL     OW62710   0.150   0.700   6.352
16746SOL    HW162711   0.188   0.642   6.425
16746SOL    HW262712   0.053   0.677   6.339
16747SOL     OW62713   7.740   0.074   1.256
16747SOL    HW162714   7.837   0.049   1.252
16747SOL    HW262715   7.731   0.173   1.250
16748SOL     OW62716   7.872   6.861   5.440
16748SOL    HW162717   7.971   6.870   5.448
16748SOL    HW262718   7.831   6.952   5.433
16749SOL     OW62719   8.773   4.967   7.151
16749SOL    HW162720   8.740   5.050   7.196
16749SOL    HW262721   8.775   4.982   7.052
16750SOL     OW62722   7.448   0.297   2.898
16750SOL    HW162723   7.483   0.212   2.940
16750SOL    HW262724   7.489   0.376   2.944
16751SOL     OW62725   8.174   0.883   4.708
16751SOL    HW162726   8.239   0.815   4.740
16751SOL    HW262727   8.223   0.957   4.662
16752SOL     OW62728   7.617   6.424   2.758
16752SOL    HW162729   7.589   6.373   2.840
16752SOL    HW262730   7.570   6.513   2.758
16753SOL     OW62731   7.462   1.630   0.293
16753SOL    HW162732   7.515   1.558   0.339
16753SOL    HW262733   7.517   1.668   0.219
16754SOL     OW62734   7.867   6.410   6.971
16754SOL    HW162735   7.860   6.314   6.944
16754SOL    HW262736   7.936   6.456   6.915
16755SOL     OW62737   7.435   0.046   2.426
16755SOL    HW162738   7.457   0.108   2.500
16755SOL    HW262739   7.391   8.964   2.462
16756SOL     OW62740   7.933   2.708   0.837
16756SOL    HW162741   7.952   2.616   0.870
16756SOL    HW262742   7.880   2.703   0.752
16757SOL     OW62743   7.542   3.765   2.312
16757SOL    HW162744   7.634   3.750   2.278
16757SOL    HW262745   7.503   3.677   2.342
16758SOL     OW62746   8.908   6.784   1.272
16758SOL    HW162747   8.849   6.755   1.348
16758SOL    HW262748   8.990   6.727   1.270
16759SOL     OW62749   7.655   0.560   1.785
16759SOL    HW162750   7.558   0.582   1.777
16759SOL    HW262751   7.667   0.483   1.848
16760SOL     OW62752   8.479   4.285   2.951
16760SOL    HW162753   8.489   4.300   2.852
16760SOL    HW262754   8.551   4.335   2.999
16761SOL     OW62755   8.797   1.602   2.793
16761SOL    HW162756   8.876   1.663   2.788
16761SOL    HW262757   8.828   1.511   2.823
16762SOL     OW62758   8.510   3.278   1.974
16762SOL    HW162759   8.512   3.275   2.074
16762SOL    HW262760   8.587   3.226   1.937
16763SOL     OW62761   8.907   0.452   6.120
16763SOL    HW162762   8.829   0.393   6.100
16763SOL    HW262763   8.938   0.436   6.214
16764SOL     OW62764   8.828   0.602   1.760
16764SOL    HW162765   8.842   0.545   1.841
16764SOL    HW262766   8.829   0.543   1.679
16765SOL     OW62767   7.708   5.584   0.664
16765SOL    HW162768   7.758   5.666   0.635
16765SOL    HW262769   7.612   5.593   0.639
16766SOL     OW62770   8.186   4.151   2.996
16766SOL    HW162771   8.224   4.203   2.919
16766SOL    HW262772   8.254   4.144   3.069
16767SOL     OW62773   7.792   4.360   0.636
16767SOL    HW162774   7.760   4.424   0.707
16767SOL    HW262775   7.870   4.400   0.588
16768SOL     OW62776   8.687   2.508   4.784
16768SOL    HW162777   8.653   2.593   4.744
16768SOL    HW262778   8.774   2.484   4.741
16769SOL     OW62779   8.929   3.339   6.289
16769SOL    HW162780   8.988   3.391   6.228
16769SOL    HW262781   8.984   3.276   6.344
16770SOL     OW62782   8.511   5.723   4.844
16770SOL    HW162783   8.561   5.648   4.887
16770SOL    HW262784   8.417   5.694   4.825
16771SOL     OW62785   7.756   6.858   1.077
16771SOL    HW162786   7.770   6.957   1.085
16771SOL    HW262787   7.781   6.813   1.162
16772SOL     OW62788   8.486   4.281   3.860
16772SOL    HW162789   8.396   4.240   3.873
16772SOL    HW262790   8.478   4.381   3.864
16773SOL     OW62791   7.696   1.443   0.718
16773SOL    HW162792   7.719   1.462   0.814
16773SOL    HW262793   7.765   1.382   0.678
16774SOL     OW62794   8.138   2.103   6.169
16774SOL    HW162795   8.205   2.170   6.136
16774SOL    HW262796   8.153   2.015   6.123
16775SOL     OW62797   8.160   3.970   3.690
16775SOL    HW162798   8.077   4.023   3.672
16775SOL    HW262799   8.140   3.872   3.682
16776SOL     OW62800   7.920   0.802   2.017
16776SOL    HW162801   8.015   0.820   2.044
16776SOL    HW262802   7.865   0.884   2.035
16777SOL     OW62803   7.831   2.645   6.295
16777SOL    HW162804   7.748   2.615   6.340
16777SOL    HW262805   7.907   2.584   6.319
16778SOL     OW62806   8.352   4.871   5.134
16778SOL    HW162807   8.310   4.823   5.211
16778SOL    HW262808   8.451   4.866   5.140
16779SOL     OW62809   8.014   6.358   6.572
16779SOL    HW162810   8.090   6.351   6.636
16779SOL    HW262811   7.929   6.336   6.620
16780SOL     OW62812   8.179   6.590   5.695
16780SOL    HW162813   8.188   6.690   5.695
16780SOL    HW262814   8.270   6.549   5.690
16781SOL     OW62815   8.254   2.451   2.526
16781SOL    HW162816   8.161   2.447   2.563
16781SOL    HW262817   8.250   2.468   2.428
16782SOL     OW62818   8.087   5.124   7.056
16782SOL    HW162819   8.027   5.204   7.059
16782SOL    HW262820   8.048   5.057   6.992
16783SOL     OW62821   7.823   3.282   2.960
16783SOL    HW162822   7.908   3.309   2.914
16783SOL    HW262823   7.823   3.183   2.975
16784SOL     OW62824   7.725   2.412   5.150
16784SOL    HW162825   7.752   2.318   5.128
16784SOL    HW262826   7.790   2.450   5.215
16785SOL     OW62827   7.737   1.978   0.835
16785SOL    HW162828   7.692   1.931   0.911
16785SOL    HW262829   7.834   1.953   0.835
16786SOL     OW62830   7.712   4.964   3.699
16786SOL    HW162831   7.790   5.025   3.711
16786SOL    HW262832   7.726   4.908   3.617
16787SOL     OW62833   8.186   2.757   0.954
16787SOL    HW162834   8.203   2.840   1.007
16787SOL    HW262835   8.093   2.758   0.918
16788SOL     OW62836   7.592   2.183   3.985
16788SOL    HW162837   7.522   2.113   4.000
16788SOL    HW262838   7.561   2.246   3.913
16789SOL     OW62839   7.636   2.310   2.470
16789SOL    HW162840   7.558   2.260   2.508
16789SOL    HW262841   7.605   2.372   2.398
16790SOL     OW62842   8.478   5.282   1.849
16790SOL    HW162843   8.380   5.304   1.853
16790SOL    HW262844   8.526   5.333   1.919
16791SOL     OW62845   8.065   3.575   5.265
16791SOL    HW162846   8.058   3.657   5.207
16791SOL    HW262847   7.976   3.531   5.272
16792SOL     OW62848   7.596   4.423   1.562
16792SOL    HW162849   7.498   4.410   1.546
16792SOL    HW262850   7.648   4.368   1.498
16793SOL     OW62851   7.748   5.729   6.492
16793SOL    HW162852   7.738   5.634   6.462
16793SOL    HW262853   7.799   5.780   6.423
16794SOL     OW62854   8.851   5.673   4.884
16794SOL    HW162855   8.776   5.621   4.925
16794SOL    HW262856   8.934   5.617   4.885
16795SOL     OW62857   7.432   5.596   0.623
16795SOL    HW162858   7.351   5.639   0.582
16795SOL    HW262859   7.433   5.615   0.721
16796SOL     OW62860   7.417   3.770   6.721
16796SOL    HW162861   7.371   3.858   6.736
16796SOL    HW262862   7.483   3.754   6.794
16797SOL     OW62863   8.093   4.403   6.432
16797SOL    HW162864   8.026   4.459   6.384
16797SOL    HW262865   8.160   4.368   6.366
16798SOL     OW62866   8.205   4.477   1.734
16798SOL    HW162867   8.236   4.385   1.709
16798SOL    HW262868   8.225   4.540   1.659
16799SOL     OW62869   8.100   1.365   1.767
16799SOL    HW162870   8.033   1.296   1.739
16799SOL    HW262871   8.054   1.435   1.822
16800SOL     OW62872   8.108   3.504   3.759
16800SOL    HW162873   8.088   3.586   3.704
16800SOL    HW262874   8.207   3.488   3.759
16801SOL     OW62875   8.645   2.299   6.956
16801SOL    HW162876   8.709   2.229   6.987
16801SOL    HW262877   8.591   2.331   7.033
16802SOL     OW62878   8.587   6.168   7.110
16802SOL    HW162879   8.545   6.171   7.200
16802SOL    HW262880   8.581   6.075   7.072
16803SOL     OW62881   8.622   4.543   5.168
16803SOL    HW162882   8.572   4.508   5.089
16803SOL    HW262883   8.615   4.643   5.171
16804SOL     OW62884   8.904   1.366   2.897
16804SOL    HW162885   8.999   1.333   2.896
16804SOL    HW262886   8.842   1.288   2.904
16805SOL     OW62887   8.955   6.041   0.117
16805SOL    HW162888   8.926   6.131   0.149
16805SOL    HW262889   8.880   5.997   0.068
16806SOL     OW62890   7.777   3.637   3.568
16806SOL    HW162891   7.766   3.540   3.589
16806SOL    HW262892   7.787   3.649   3.469
16807SOL     OW62893   8.301   4.463   6.030
16807SOL    HW162894   8.285   4.402   6.108
16807SOL    HW262895   8.274   4.556   6.055
16808SOL     OW62896   7.952   4.483   2.174
16808SOL    HW162897   7.954   4.405   2.111
16808SOL    HW262898   7.865   4.531   2.165
16809SOL     OW62899   7.316   0.497   0.372
16809SOL    HW162900   7.350   0.543   0.454
16809SOL    HW262901   7.261   0.561   0.318
16810SOL     OW62902   7.832   6.130   6.475
16810SOL    HW162903   7.783   6.165   6.395
16810SOL    HW262904   7.805   6.182   6.556
16811SOL     OW62905   8.930   3.529   3.257
16811SOL    HW162906   8.886   3.442   3.279
16811SOL    HW262907   8.863   3.603   3.261
16812SOL     OW62908   7.830   7.141   0.688
16812SOL    HW162909   7.907   7.203   0.700
16812SOL    HW262910   7.787   7.157   0.599
16813SOL     OW62911   8.101   2.377   5.496
16813SOL    HW162912   8.061   2.323   5.570
16813SOL    HW262913   8.192   2.340   5.474
16814SOL     OW62914   7.577   0.766   1.467
16814SOL    HW162915   7.567   0.804   1.558
16814SOL    HW262916   7.513   0.812   1.404
16815SOL     OW62917   7.475   0.100   1.202
16815SOL    HW162918   7.564   0.061   1.226
16815SOL    HW262919   7.483   0.149   1.115
16816SOL     OW62920   8.642   6.184   0.274
16816SOL    HW162921   8.735   6.216   0.255
16816SOL    HW262922   8.643   6.085   0.286
16817SOL     OW62923   8.521   4.206   1.794
16817SOL    HW162924   8.574   4.146   1.734
16817SOL    HW262925   8.435   4.229   1.750
16818SOL     OW62926   8.683   1.693   1.987
16818SOL    HW162927   8.726   1.783   1.989
16818SOL    HW262928   8.635   1.677   2.074
16819SOL     OW62929   8.797   6.525   5.580
16819SOL    HW162930   8.865   6.478   5.525
16819SOL    HW262931   8.750   6.459   5.639
16820SOL     OW62932   7.501   6.750   4.866
16820SOL    HW162933   7.592   6.722   4.897
16820SOL    HW262934   7.502   6.761   4.767
16821SOL     OW62935   8.691   3.574   0.561
16821SOL    HW162936   8.682   3.546   0.466
16821SOL    HW262937   8.729   3.667   0.565
16822SOL     OW62938   8.499   2.916   3.220
16822SOL    HW162939   8.502   2.953   3.127
16822SOL    HW262940   8.489   2.990   3.286
16823SOL     OW62941   7.425   4.556   4.767
16823SOL    HW162942   7.388   4.470   4.732
16823SOL    HW262943   7.521   4.564   4.744
16824SOL     OW62944   0.213   0.529   6.557
16824SOL    HW162945   0.259   0.442   6.574
16824SOL    HW262946   0.126   0.531   6.607
16825SOL     OW62947   8.273   4.219   1.669
16825SOL    HW162948   8.297   4.201   1.573
16825SOL    HW262949   8.220   4.142   1.705
16826SOL     OW62950   8.026   5.843   5.568
16826SOL    HW162951   7.945   5.838   5.510
16826SOL    HW262952   8.034   5.936   5.606
16827SOL     OW62953   8.588   6.483   6.443
16827SOL    HW162954   8.616   6.438   6.528
16827SOL    HW262955   8.650   6.458   6.370
16828SOL     OW62956   7.798   1.803   6.833
16828SOL    HW162957   7.836   1.782   6.743
16828SOL    HW262958   7.792   1.902   6.844
16829SOL     OW62959   7.644   6.307   5.814
16829SOL    HW162960   7.547   6.283   5.806
16829SOL    HW262961   7.655   6.406   5.800
16830SOL     OW62962   7.762   4.150   0.437
16830SOL    HW162963   7.752   4.238   0.484
16830SOL    HW262964   7.676   4.099   0.443
16831SOL     OW62965   7.686   4.193   1.845
16831SOL    HW162966   7.766   4.201   1.786
16831SOL    HW262967   7.654   4.098   1.845
16832SOL     OW62968   8.204   4.714   6.080
16832SOL    HW162969   8.220   4.772   6.000
16832SOL    HW262970   8.105   4.700   6.091
16833SOL     OW62971   8.044   3.727   3.603
16833SOL    HW162972   8.085   3.747   3.513
16833SOL    HW262973   7.949   3.699   3.591
16834SOL     OW62974   7.800   5.566   4.259
16834SOL    HW162975   7.804   5.522   4.170
16834SOL    HW262976   7.842   5.657   4.254
16835SOL     OW62977   7.712   5.498   7.127
16835SOL    HW162978   7.626   5.459   7.158
16835SOL    HW262979   7.696   5.558   7.049
16836SOL     OW62980   8.945   1.373   1.716
16836SOL    HW162981   8.902   1.362   1.805
16836SOL    HW262982   8.935   1.289   1.663
16837SOL     OW62983   7.820   3.672   3.304
16837SOL    HW162984   7.848   3.605   3.236
16837SOL    HW262985   7.825   3.764   3.264
16838SOL     OW62986   8.253   1.771   3.886
16838SOL    HW162987   8.199   1.845   3.925
16838SOL    HW262988   8.225   1.755   3.791
16839SOL     OW62989   7.530   1.213   0.276
16839SOL    HW162990   7.452   1.250   0.225
16839SOL    HW262991   7.602   1.188   0.212
16840SOL     OW62992   8.623   1.760   1.427
16840SOL    HW162993   8.643   1.789   1.333
16840SOL    HW262994   8.527   1.733   1.433
16841SOL     OW62995   7.649   5.864   7.110
16841SOL    HW162996   7.621   5.959   7.118
16841SOL    HW262997   7.740   5.853   7.149
16842SOL     OW62998   8.414   1.098   2.757
16842SOL    HW162999   8.503   1.107   2.711
16842SOL    HW263000   8.421   1.131   2.851
16843SOL     OW63001   8.855   5.104   5.770
16843SOL    HW163002   8.893   5.193   5.792
16843SOL    HW263003   8.762   5.098   5.804
16844SOL     OW63004   7.657   2.832   5.386
16844SOL    HW163005   7.644   2.864   5.480
16844SOL    HW263006   7.752   2.843   5.360
16845SOL     OW63007   8.234   4.682   3.538
16845SOL    HW163008   8.296   4.610   3.508
16845SOL    HW263009   8.252   4.766   3.487
16846SOL     OW63010   7.912   4.096   7.276
16846SOL    HW163011   7.844   4.061   7.211
16846SOL    HW263012   7.879   4.080   7.370
16847SOL     OW63013   8.459   4.717   5.766
16847SOL    HW163014   8.480   4.622   5.788
16847SOL    HW263015   8.542   4.763   5.734
16848SOL     OW63016   7.936   3.007   2.914
16848SOL    HW163017   8.010   2.955   2.872
16848SOL    HW263018   7.878   2.946   2.968
16849SOL     OW63019   8.907   4.087   1.758
16849SOL    HW163020   8.922   4.180   1.792
16849SOL    HW263021   8.962   4.072   1.676
16850SOL     OW63022   7.728   0.096   0.869
16850SOL    HW163023   7.661   0.159   0.909
16850SOL    HW263024   7.699   0.002   0.887
16851SOL     OW63025   8.114   7.267   0.207
16851SOL    HW163026   8.179   7.209   0.255
16851SOL    HW263027   8.158   7.309   0.128
16852SOL     OW63028   8.684   4.127   3.957
16852SOL    HW163029   8.612   4.190   3.925
16852SOL    HW263030   8.661   4.095   4.049
16853SOL     OW63031   8.182   5.096   2.666
16853SOL    HW163032   8.220   5.181   2.628
16853SOL    HW263033   8.094   5.077   2.622
16854SOL     OW63034   7.773   4.292   8.757
16854SOL    HW163035   7.773   4.200   8.718
16854SOL    HW263036   7.861   4.309   8.802
16855SOL     OW63037   8.507   2.252   7.994
16855SOL    HW163038   8.578   2.191   8.032
16855SOL    HW263039   8.547   2.309   7.923
16856SOL     OW63040   7.850   2.663   7.950
16856SOL    HW163041   7.885   2.570   7.938
16856SOL    HW263042   7.905   2.728   7.898
16857SOL     OW63043   8.292   5.966   7.885
16857SOL    HW163044   8.338   5.889   7.841
16857SOL    HW263045   8.254   6.028   7.816
16858SOL     OW63046   8.343   3.213   7.806
16858SOL    HW163047   8.312   3.193   7.899
16858SOL    HW263048   8.369   3.309   7.800
16859SOL     OW63049   0.125   1.403   8.092
16859SOL    HW163050   0.117   1.314   8.136
16859SOL    HW263051   0.176   1.465   8.152
16860SOL     OW63052   8.817   1.859   8.901
16860SOL    HW163053   8.891   1.832   8.962
16860SOL    HW263054   8.827   1.956   8.877
16861SOL     OW63055   7.316   0.662   8.433
16861SOL    HW163056   7.258   0.642   8.512
16861SOL    HW263057   7.309   0.586   8.368
16862SOL     OW63058   8.778   5.417   7.961
16862SOL    HW163059   8.810   5.511   7.954
16862SOL    HW263060   8.681   5.416   7.987
16863SOL     OW63061   8.206   0.221   8.199
16863SOL    HW163062   8.199   0.218   8.299
16863SOL    HW263063   8.119   0.194   8.159
16864SOL     OW63064   8.275   2.951   8.448
16864SOL    HW163065   8.260   3.042   8.486
16864SOL    HW263066   8.373   2.937   8.434
16865SOL     OW63067   8.517   5.442   8.048
16865SOL    HW163068   8.476   5.458   7.959
16865SOL    HW263069   8.493   5.516   8.110
16866SOL     OW63070   7.706   7.127   7.771
16866SOL    HW163071   7.763   7.167   7.699
16866SOL    HW263072   7.669   7.039   7.740
16867SOL     OW63073   7.534   3.593   8.486
16867SOL    HW163074   7.477   3.607   8.567
16867SOL    HW263075   7.562   3.497   8.481
16868SOL     OW63076   8.705   1.949   7.661
16868SOL    HW163077   8.769   1.895   7.607
16868SOL    HW263078   8.750   1.981   7.744
16869SOL     OW63079   8.678   1.256   8.284
16869SOL    HW163080   8.708   1.218   8.372
16869SOL    HW263081   8.578   1.255   8.280
16870SOL     OW63082   7.879   4.869   8.401
16870SOL    HW163083   7.882   4.938   8.329
16870SOL    HW263084   7.893   4.913   8.490
16871SOL     OW63085   7.486   5.386   7.784
16871SOL    HW163086   7.523   5.446   7.712
16871SOL    HW263087   7.464   5.441   7.865
16872SOL     OW63088   7.916   0.652   8.274
16872SOL    HW163089   7.937   0.746   8.247
16872SOL    HW263090   7.863   0.608   8.202
16873SOL     OW63091   8.393   4.435   8.359
16873SOL    HW163092   8.411   4.399   8.451
16873SOL    HW263093   8.463   4.502   8.336
16874SOL     OW63094   8.475   3.050   8.712
16874SOL    HW163095   8.553   3.079   8.657
16874SOL    HW263096   8.496   3.060   8.809
16875SOL     OW63097   8.444   4.538   8.963
16875SOL    HW163098   8.404   4.612   8.909
16875SOL    HW263099   8.535   4.564   8.993
16876SOL     OW63100   7.980   6.012   7.408
16876SOL    HW163101   7.936   5.973   7.488
16876SOL    HW263102   7.935   6.097   7.383
16877SOL     OW63103   8.241   2.297   8.482
16877SOL    HW163104   8.292   2.323   8.400
16877SOL    HW263105   8.209   2.380   8.529
16878SOL     OW63106   8.882   0.755   8.135
16878SOL    HW163107   8.803   0.816   8.131
16878SOL    HW263108   8.914   0.736   8.042
16879SOL     OW63109   8.637   2.296   8.953
16879SOL    HW163110   8.679   2.360   8.889
16879SOL    HW263111   8.550   2.265   8.916
16880SOL     OW63112   8.237   1.336   7.573
16880SOL    HW163113   8.177   1.384   7.638
16880SOL    HW263114   8.198   1.247   7.552
16881SOL     OW63115   7.605   0.513   7.513
16881SOL    HW163116   7.547   0.434   7.493
16881SOL    HW263117   7.579   0.552   7.601
16882SOL     OW63118   8.361   2.839   7.516
16882SOL    HW163119   8.424   2.861   7.442
16882SOL    HW263120   8.268   2.837   7.481
16883SOL     OW63121   8.936   5.245   7.822
16883SOL    HW163122   0.016   5.297   7.791
16883SOL    HW263123   8.874   5.307   7.871
16884SOL     OW63124   8.657   4.648   8.615
16884SOL    HW163125   8.615   4.722   8.667
16884SOL    HW263126   8.754   4.667   8.603
16885SOL     OW63127   0.223   0.425   7.970
16885SOL    HW163128   0.242   0.328   7.961
16885SOL    HW263129   0.179   0.442   8.058
16886SOL     OW63130   8.105   5.432   7.769
16886SOL    HW163131   8.114   5.465   7.863
16886SOL    HW263132   8.118   5.333   7.767
16887SOL     OW63133   8.607   2.397   7.777
16887SOL    HW163134   8.567   2.477   7.732
16887SOL    HW263135   8.626   2.327   7.708
16888SOL     OW63136   8.271   3.742   8.443
16888SOL    HW163137   8.276   3.778   8.350
16888SOL    HW263138   8.260   3.818   8.508
16889SOL     OW63139   8.039   4.470   7.851
16889SOL    HW163140   8.088   4.405   7.909
16889SOL    HW263141   8.106   4.528   7.804
16890SOL     OW63142   7.940   4.594   8.387
16890SOL    HW163143   7.879   4.546   8.451
16890SOL    HW263144   7.926   4.692   8.396
16891SOL     OW63145   7.528   0.833   8.421
16891SOL    HW163146   7.491   0.921   8.392
16891SOL    HW263147   7.452   0.770   8.439
16892SOL     OW63148   7.515   2.216   8.709
16892SOL    HW163149   7.417   2.197   8.701
16892SOL    HW263150   7.566   2.144   8.663
16893SOL     OW63151   7.545   3.039   7.504
16893SOL    HW163152   7.491   2.956   7.518
16893SOL    HW263153   7.484   3.114   7.479
16894SOL     OW63154   8.560   4.383   8.596
16894SOL    HW163155   8.625   4.336   8.537
16894SOL    HW263156   8.593   4.475   8.616
16895SOL     OW63157   7.767   5.343   8.121
16895SOL    HW163158   7.745   5.431   8.079
16895SOL    HW263159   7.823   5.289   8.058
16896SOL     OW63160   8.740   2.751   8.387
16896SOL    HW163161   8.776   2.787   8.301
16896SOL    HW263162   8.813   2.748   8.455
16897SOL     OW63163   8.106   5.426   8.888
16897SOL    HW163164   8.082   5.499   8.824
16897SOL    HW263165   8.111   5.463   8.981
16898SOL     OW63166   8.136   0.399   8.640
16898SOL    HW163167   8.158   0.381   8.736
16898SOL    HW263168   8.162   0.321   8.584
16899SOL     OW63169   7.845   1.599   7.788
16899SOL    HW163170   7.808   1.660   7.718
16899SOL    HW263171   7.792   1.514   7.789
16900SOL     OW63172   7.743   3.878   8.141
16900SOL    HW163173   7.753   3.977   8.149
16900SOL    HW263174   7.652   3.850   8.171
16901SOL     OW63175   8.544   5.405   7.405
16901SOL    HW163176   8.591   5.489   7.380
16901SOL    HW263177   8.555   5.389   7.503
16902SOL     OW63178   7.665   4.880   8.725
16902SOL    HW163179   7.601   4.903   8.799
16902SOL    HW263180   7.628   4.804   8.672
16903SOL     OW63181   8.213   6.144   7.688
16903SOL    HW163182   8.280   6.218   7.696
16903SOL    HW263183   8.226   6.097   7.601
16904SOL     OW63184   8.096   0.067   0.012
16904SOL    HW163185   8.187   0.056   0.052
16904SOL    HW263186   8.097   0.145   8.950
16905SOL     OW63187   8.625   4.535   7.913
16905SOL    HW163188   8.658   4.569   7.825
16905SOL    HW263189   8.631   4.608   7.981
16906SOL     OW63190   7.411   1.078   8.324
16906SOL    HW163191   7.386   1.163   8.372
16906SOL    HW263192   7.478   1.098   8.253
16907SOL     OW63193   7.685   2.271   7.558
16907SOL    HW163194   7.711   2.252   7.652
16907SOL    HW263195   7.735   2.351   7.525
16908SOL     OW63196   8.840   0.772   7.246
16908SOL    HW163197   8.768   0.770   7.315
16908SOL    HW263198   8.850   0.865   7.211
16909SOL     OW63199   7.362   2.893   8.837
16909SOL    HW163200   7.344   2.890   8.935
16909SOL    HW263201   7.370   2.988   8.807
16910SOL     OW63202   8.452   3.992   8.774
16910SOL    HW163203   8.528   3.966   8.715
16910SOL    HW263204   8.464   4.086   8.806
16911SOL     OW63205   7.602   0.117   7.620
16911SOL    HW163206   7.532   0.058   7.662
16911SOL    HW263207   7.561   0.172   7.548
16912SOL     OW63208   8.380   3.280   8.104
16912SOL    HW163209   8.436   3.198   8.116
16912SOL    HW263210   8.331   3.300   8.189
16913SOL     OW63211   7.849   7.270   7.587
16913SOL    HW163212   7.930   7.271   7.528
16913SOL    HW263213   7.795   7.352   7.572
16914SOL     OW63214   7.836   4.047   7.536
16914SOL    HW163215   7.814   4.110   7.609
16914SOL    HW263216   7.851   3.955   7.574
16915SOL     OW63217   7.403   2.239   8.050
16915SOL    HW163218   7.385   2.330   8.011
16915SOL    HW263219   7.500   2.231   8.072
16916SOL     OW63220   8.721   1.543   7.945
16916SOL    HW163221   8.639   1.493   7.916
16916SOL    HW263222   8.802   1.492   7.917
16917SOL     OW63223   7.984   7.275   8.365
16917SOL    HW163224   7.966   7.370   8.392
16917SOL    HW263225   7.908   7.217   8.396
16918SOL     OW63226   7.728   3.784   8.528
16918SOL    HW163227   7.654   3.720   8.508
16918SOL    HW263228   7.798   3.777   8.457
16919SOL     OW63229   7.961   2.272   8.068
16919SOL    HW163230   7.986   2.335   7.994
16919SOL    HW263231   8.018   2.190   8.062
16920SOL     OW63232   8.657   2.208   7.570
16920SOL    HW163233   8.617   2.198   7.479
16920SOL    HW263234   8.671   2.117   7.610
16921SOL     OW63235   8.514   3.555   7.417
16921SOL    HW163236   8.528   3.461   7.385
16921SOL    HW263237   8.429   3.591   7.378
16922SOL     OW63238   8.049   1.427   8.829
16922SOL    HW163239   8.007   1.407   8.740
16922SOL    HW263240   7.978   1.428   8.899
16923SOL     OW63241   8.507   5.913   8.212
16923SOL    HW163242   8.462   5.988   8.164
16923SOL    HW263243   8.602   5.937   8.231
16924SOL     OW63244   7.904   4.989   8.653
16924SOL    HW163245   7.913   5.082   8.690
16924SOL    HW263246   7.818   4.949   8.684
16925SOL     OW63247   7.907   1.370   8.592
16925SOL    HW163248   7.858   1.291   8.557
16925SOL    HW263249   7.969   1.405   8.522
16926SOL     OW63250   8.169   2.222   7.297
16926SOL    HW163251   8.212   2.208   7.387
16926SOL    HW263252   8.168   2.320   7.276
16927SOL     OW63253   7.907   5.172   7.946
16927SOL    HW163254   7.994   5.168   7.897
16927SOL    HW263255   7.832   5.173   7.881
16928SOL     OW63256   7.564   3.559   8.031
16928SOL    HW163257   7.535   3.633   8.091
16928SOL    HW263258   7.609   3.488   8.085
16929SOL     OW63259   7.475   2.596   7.298
16929SOL    HW163260   7.522   2.518   7.257
16929SOL    HW263261   7.536   2.641   7.363
16930SOL     OW63262   8.847   2.131   8.886
16930SOL    HW163263   8.927   2.163   8.938
16930SOL    HW263264   8.767   2.185   8.913
16931SOL     OW63265   7.962   0.174   8.085
16931SOL    HW163266   7.930   0.250   8.029
16931SOL    HW263267   7.887   0.138   8.140
16932SOL     OW63268   8.403   0.893   8.050
16932SOL    HW163269   8.365   0.985   8.035
16932SOL    HW263270   8.328   0.829   8.065
16933SOL     OW63271   8.286   1.528   7.937
16933SOL    HW163272   8.274   1.520   8.036
16933SOL    HW263273   8.366   1.475   7.909
16934SOL     OW63274   8.105   3.835   7.841
16934SOL    HW163275   8.201   3.847   7.816
16934SOL    HW263276   8.069   3.920   7.880
16935SOL     OW63277   8.974   3.119   8.484
16935SOL    HW163278   8.980   3.159   8.393
16935SOL    HW263279   0.039   3.043   8.492
16936SOL     OW63280   8.939   2.104   8.630
16936SOL    HW163281   8.895   2.022   8.593
16936SOL    HW263282   8.900   2.125   8.719
16937SOL     OW63283   7.510   1.267   8.640
16937SOL    HW163284   7.456   1.304   8.565
16937SOL    HW263285   7.566   1.339   8.681
16938SOL     OW63286   7.803   1.045   7.937
16938SOL    HW163287   7.769   1.118   7.996
16938SOL    HW263288   7.876   1.081   7.879
16939SOL     OW63289   8.485   2.757   8.703
16939SOL    HW163290   8.442   2.716   8.622
16939SOL    HW263291   8.465   2.855   8.705
16940SOL     OW63292   8.672   0.909   8.033
16940SOL    HW163293   8.696   0.890   7.938
16940SOL    HW263294   8.574   0.895   8.046
16941SOL     OW63295   8.662   1.186   8.015
16941SOL    HW163296   8.672   1.086   8.015
16941SOL    HW263297   8.681   1.220   8.107
16942SOL     OW63298   8.646   5.144   7.771
16942SOL    HW163299   8.744   5.129   7.782
16942SOL    HW263300   8.608   5.073   7.712
16943SOL     OW63301   0.009   4.492   7.475
16943SOL    HW163302   0.003   4.500   7.376
16943SOL    HW263303   8.943   4.424   7.507
16944SOL     OW63304   7.742   4.530   8.193
16944SOL    HW163305   7.826   4.532   8.248
16944SOL    HW263306   7.684   4.607   8.219
16945SOL     OW63307   7.961   3.617   7.931
16945SOL    HW163308   7.867   3.649   7.917
16945SOL    HW263309   8.026   3.683   7.895
16946SOL     OW63310   8.048   2.799   7.818
16946SOL    HW163311   8.068   2.861   7.893
16946SOL    HW263312   8.116   2.726   7.816
16947SOL     OW63313   8.217   5.178   8.951
16947SOL    HW163314   8.170   5.116   8.887
16947SOL    HW263315   8.192   5.273   8.928
16948SOL     OW63316   7.678   2.236   8.135
16948SOL    HW163317   7.767   2.270   8.107
16948SOL    HW263318   7.684   2.139   8.158
16949SOL     OW63319   8.382   2.445   7.424
16949SOL    HW163320   8.358   2.359   7.469
16949SOL    HW263321   8.308   2.473   7.363
16950SOL     OW63322   8.253   6.024   7.446
16950SOL    HW163323   8.157   6.024   7.417
16950SOL    HW263324   8.284   5.930   7.457
16951SOL     OW63325   8.879   2.051   0.213
16951SOL    HW163326   8.930   1.985   0.157
16951SOL    HW263327   8.938   2.087   0.285
16952SOL     OW63328   8.902   4.745   8.527
16952SOL    HW163329   8.851   4.830   8.515
16952SOL    HW263330   8.932   4.712   8.437
16953SOL     OW63331   7.738   4.211   8.402
16953SOL    HW163332   7.749   4.308   8.423
16953SOL    HW263333   7.769   4.193   8.308
16954SOL     OW63334   8.869   6.968   8.392
16954SOL    HW163335   8.955   6.964   8.341
16954SOL    HW263336   8.883   6.935   8.485
16955SOL     OW63337   7.797   6.743   8.668
16955SOL    HW163338   7.788   6.651   8.707
16955SOL    HW263339   7.866   6.794   8.719
16956SOL     OW63340   8.770   8.997   8.499
16956SOL    HW163341   8.708   0.076   8.501
16956SOL    HW263342   8.849   0.019   8.442
16957SOL     OW63343   7.956   2.447   8.285
16957SOL    HW163344   7.949   2.401   8.374
16957SOL    HW263345   7.961   2.379   8.213
16958SOL     OW63346   7.730   0.337   7.720
16958SOL    HW163347   7.716   0.414   7.658
16958SOL    HW263348   7.696   0.254   7.677
16959SOL     OW63349   8.299   1.495   8.927
16959SOL    HW163350   8.217   1.470   8.876
16959SOL    HW263351   8.281   1.487   0.025
16960SOL     OW63352   8.756   5.994   8.287
16960SOL    HW163353   8.740   6.056   8.364
16960SOL    HW263354   8.851   5.963   8.289
16961SOL     OW63355   7.716   0.865   8.618
16961SOL    HW163356   7.648   0.854   8.546
16961SOL    HW263357   7.747   0.775   8.650
16962SOL     OW63358   8.523   3.276   7.382
16962SOL    HW163359   8.437   3.275   7.433
16962SOL    HW263360   8.586   3.209   7.421
16963SOL     OW63361   7.631   1.002   7.392
16963SOL    HW163362   7.689   1.031   7.315
16963SOL    HW263363   7.609   0.905   7.382
16964SOL     OW63364   7.753   1.779   7.506
16964SOL    HW163365   7.746   1.736   7.417
16964SOL    HW263366   7.701   1.865   7.506
16965SOL     OW63367   8.720   0.341   8.679
16965SOL    HW163368   8.670   0.289   8.610
16965SOL    HW263369   8.797   0.388   8.635
16966SOL     OW63370   8.426   3.524   8.435
16966SOL    HW163371   8.497   3.540   8.367
16966SOL    HW263372   8.368   3.605   8.441
16967SOL     OW63373   8.670   1.525   8.217
16967SOL    HW163374   8.687   1.431   8.245
16967SOL    HW263375   8.695   1.537   8.121
16968SOL     OW63376   7.963   0.893   8.138
16968SOL    HW163377   7.891   0.911   8.071
16968SOL    HW263378   8.014   0.977   8.156
16969SOL     OW63379   7.500   4.969   8.933
16969SOL    HW163380   7.436   4.951   0.008
16969SOL    HW263381   7.542   5.060   8.946
16970SOL     OW63382   8.636   4.086   8.221
16970SOL    HW163383   8.681   4.088   8.132
16970SOL    HW263384   8.543   4.121   8.212
16971SOL     OW63385   7.884   0.399   7.940
16971SOL    HW163386   7.832   0.473   7.983
16971SOL    HW263387   7.841   0.373   7.854
16972SOL     OW63388   8.880   6.268   7.594
16972SOL    HW163389   8.907   6.218   7.511
16972SOL    HW263390   8.961   6.313   7.632
16973SOL     OW63391   7.526   2.010   0.082
16973SOL    HW163392   7.600   2.054   0.132
16973SOL    HW263393   7.540   1.911   0.081
16974SOL     OW63394   8.653   3.554   7.651
16974SOL    HW163395   8.681   3.459   7.667
16974SOL    HW263396   8.598   3.559   7.568
16975SOL     OW63397   8.253   7.018   7.967
16975SOL    HW163398   8.272   7.048   7.873
16975SOL    HW263399   8.324   7.054   8.027
16976SOL     OW63400   7.760   4.053   8.621
16976SOL    HW163401   7.756   3.956   8.597
16976SOL    HW263402   7.751   4.108   8.538
16977SOL     OW63403   8.110   4.848   0.041
16977SOL    HW163404   8.053   4.766   0.047
16977SOL    HW263405   8.117   4.878   8.946
16978SOL     OW63406   8.700   3.839   8.331
16978SOL    HW163407   8.669   3.926   8.292
16978SOL    HW263408   8.795   3.823   8.304
16979SOL     OW63409   7.899   3.728   8.311
16979SOL    HW163410   7.975   3.687   8.260
16979SOL    HW263411   7.845   3.785   8.249
16980SOL     OW63412   8.904   4.714   7.594
16980SOL    HW163413   8.965   4.750   7.665
16980SOL    HW263414   8.945   4.633   7.553
16981SOL     OW63415   8.010   5.631   8.707
16981SOL    HW163416   7.930   5.628   8.647
16981SOL    HW263417   8.085   5.679   8.662
16982SOL     OW63418   8.229   2.083   8.644
16982SOL    HW163419   8.233   2.161   8.582
16982SOL    HW263420   8.204   2.001   8.592
16983SOL     OW63421   7.499   3.162   8.218
16983SOL    HW163422   7.526   3.068   8.197
16983SOL    HW263423   7.421   3.188   8.161
16984SOL     OW63424   8.032   3.640   8.984
16984SOL    HW163425   8.045   3.693   8.900
16984SOL    HW263426   7.941   3.659   0.021
16985SOL     OW63427   8.597   5.393   7.670
16985SOL    HW163428   8.626   5.307   7.711
16985SOL    HW263429   8.677   5.453   7.660
16986SOL     OW63430   8.181   5.486   8.033
16986SOL    HW163431   8.174   5.538   8.118
16986SOL    HW263432   8.275   5.452   8.023
16987SOL     OW63433   7.582   5.873   8.691
16987SOL    HW163434   7.499   5.844   8.738
16987SOL    HW263435   7.583   5.837   8.598
16988SOL     OW63436   8.085   3.147   0.185
16988SOL    HW163437   8.086   3.167   0.283
16988SOL    HW263438   8.051   3.227   0.136
16989SOL     OW63439   7.602   1.740   0.089
16989SOL    HW163440   7.579   1.707   8.997
16989SOL    HW263441   7.700   1.760   0.093
16990SOL     OW63442   7.475   1.676   7.994
16990SOL    HW163443   7.411   1.602   8.008
16990SOL    HW263444   7.495   1.721   8.081
16991SOL     OW63445   8.035   7.316   8.099
16991SOL    HW163446   8.003   7.409   8.082
16991SOL    HW263447   8.021   7.293   8.195
16992SOL     OW63448   8.683   2.085   8.393
16992SOL    HW163449   8.721   2.002   8.434
16992SOL    HW263450   8.641   2.141   8.465
16993SOL     OW63451   8.231   1.708   0.288
16993SOL    HW163452   8.218   1.757   0.374
16993SOL    HW263453   8.322   1.730   0.251
16994SOL     OW63454   8.645   1.455   7.392
16994SOL    HW163455   8.723   1.517   7.405
16994SOL    HW263456   8.593   1.484   7.312
16995SOL     OW63457   8.791   3.825   7.994
16995SOL    HW163458   8.760   3.919   7.982
16995SOL    HW263459   8.891   3.824   7.998
16996SOL     OW63460   8.581   3.826   7.616
16996SOL    HW163461   8.601   3.733   7.646
16996SOL    HW263462   8.591   3.832   7.517
16997SOL     OW63463   8.751   2.448   8.758
16997SOL    HW163464   8.735   2.545   8.776
16997SOL    HW263465   8.835   2.437   8.705
16998SOL     OW63466   8.101   3.605   8.168
16998SOL    HW163467   8.054   3.601   8.079
16998SOL    HW263468   8.126   3.513   8.196
16999SOL     OW63469   7.755   4.466   8.543
16999SOL    HW163470   7.686   4.536   8.558
16999SOL    HW263471   7.756   4.404   8.622
17000SOL     OW63472   8.298   1.649   8.509
17000SOL    HW163473   8.341   1.654   8.600
17000SOL    HW263474   8.368   1.663   8.439
17001SOL     OW63475   8.329   1.164   8.026
17001SOL    HW163476   8.370   1.190   8.114
17001SOL    HW263477   8.366   1.222   7.954
17002SOL     OW63478   7.744   2.275   7.828
17002SOL    HW163479   7.838   2.292   7.856
17002SOL    HW263480   7.692   2.360   7.830
17003SOL     OW63481   7.654   2.704   7.470
17003SOL    HW163482   7.742   2.742   7.501
17003SOL    HW263483   7.597   2.683   7.550
17004SOL     OW63484   8.637   4.571   8.347
17004SOL    HW163485   8.637   4.614   8.437
17004SOL    HW263486   8.690   4.486   8.351
17005SOL     OW63487   8.612   4.904   8.749
17005SOL    HW163488   8.685   4.915   8.817
17005SOL    HW263489   8.527   4.941   8.785
17006SOL     OW63490   7.377   5.026   7.926
17006SOL    HW163491   7.422   5.087   7.992
17006SOL    HW263492   7.364   5.075   7.840
17007SOL     OW63493   8.890   1.602   7.413
17007SOL    HW163494   8.936   1.516   7.433
17007SOL    HW263495   8.924   1.673   7.474
17008SOL     OW63496   7.549   0.279   8.293
17008SOL    HW163497   7.583   0.372   8.306
17008SOL    HW263498   7.486   0.276   8.216
17009SOL     OW63499   8.428   4.901   8.073
17009SOL    HW163500   8.501   4.833   8.076
17009SOL    HW263501   8.343   4.859   8.041
17010SOL     OW63502   8.079   1.446   7.776
17010SOL    HW163503   8.002   1.509   7.778
17010SOL    HW263504   8.152   1.479   7.837
17011SOL     OW63505   8.174   5.606   8.299
17011SOL    HW163506   8.089   5.554   8.303
17011SOL    HW263507   8.181   5.665   8.379
17012SOL     OW63508   7.594   5.792   8.428
17012SOL    HW163509   7.684   5.749   8.435
17012SOL    HW263510   7.599   5.869   8.365
17013SOL     OW63511   8.532   4.281   7.928
17013SOL    HW163512   8.475   4.261   7.849
17013SOL    HW263513   8.566   4.375   7.922
17014SOL     OW63514   8.556   0.174   8.532
17014SOL    HW163515   8.501   0.150   8.452
17014SOL    HW263516   8.497   0.185   8.612
17015SOL     OW63517   8.900   5.822   7.718
17015SOL    HW163518   8.998   5.801   7.711
17015SOL    HW263519   8.889   5.909   7.765
17016SOL     OW63520   8.457   1.866   8.094
17016SOL    HW163521   8.386   1.850   8.026
17016SOL    HW263522   8.547   1.849   8.053
17017SOL     OW63523   8.704   1.823   7.988
17017SOL    HW163524   8.772   1.875   7.936
17017SOL    HW263525   8.716   1.725   7.969
17018SOL     OW63526   8.886   2.367   7.602
17018SOL    HW163527   8.807   2.312   7.575
17018SOL    HW263528   8.949   2.311   7.656
17019SOL     OW63529   7.774   1.054   8.815
17019SOL    HW163530   7.747   0.973   8.765
17019SOL    HW263531   7.778   1.133   8.753
17020SOL     OW63532   8.567   5.020   8.284
17020SOL    HW163533   8.513   4.975   8.212
17020SOL    HW263534   8.613   5.100   8.246
17021SOL     OW63535   7.518   4.225   7.540
17021SOL    HW163536   7.530   4.259   7.447
17021SOL    HW263537   7.520   4.125   7.541
17022SOL     OW63538   7.485   3.687   7.575
17022SOL    HW163539   7.469   3.782   7.549
17022SOL    HW263540   7.404   3.633   7.554
17023SOL     OW63541   8.417   5.768   7.731
17023SOL    HW163542   8.378   5.766   7.639
17023SOL    HW263543   8.413   5.677   7.772
17024SOL     OW63544   7.848   5.692   8.453
17024SOL    HW163545   7.883   5.613   8.403
17024SOL    HW263546   7.905   5.772   8.434
17025SOL     OW63547   8.123   5.554   7.493
17025SOL    HW163548   8.039   5.567   7.441
17025SOL    HW263549   8.101   5.521   7.585
17026SOL     OW63550   7.713   6.350   7.624
17026SOL    HW163551   7.784   6.283   7.649
17026SOL    HW263552   7.750   6.415   7.558
17027SOL     OW63553   7.540   1.639   8.846
17027SOL    HW163554   7.601   1.575   8.801
17027SOL    HW263555   7.446   1.605   8.842
17028SOL     OW63556   8.597   6.477   8.080
17028SOL    HW163557   8.523   6.446   8.020
17028SOL    HW263558   8.592   6.430   8.167
17029SOL     OW63559   8.147   4.289   8.033
17029SOL    HW163560   8.124   4.350   8.109
17029SOL    HW263561   8.235   4.245   8.050
17030SOL     OW63562   7.628   0.833   7.921
17030SOL    HW163563   7.694   0.908   7.924
17030SOL    HW263564   7.535   0.870   7.926
17031SOL     OW63565   8.532   2.132   7.333
17031SOL    HW163566   8.517   2.209   7.270
17031SOL    HW263567   8.553   2.050   7.280
17032SOL     OW63568   8.264   3.826   8.178
17032SOL    HW163569   8.203   3.747   8.169
17032SOL    HW263570   8.305   3.846   8.089
17033SOL     OW63571   8.160   1.884   8.430
17033SOL    HW163572   8.205   1.799   8.458
17033SOL    HW263573   8.225   1.940   8.377
17034SOL     OW63574   8.010   6.912   8.025
17034SOL    HW163575   7.954   6.993   8.041
17034SOL    HW263576   8.104   6.939   8.005
17035SOL     OW63577   8.734   4.265   8.411
17035SOL    HW163578   8.694   4.202   8.345
17035SOL    HW263579   8.810   4.220   8.458
17036SOL     OW63580   7.571   4.676   8.551
17036SOL    HW163581   7.598   4.716   8.463
17036SOL    HW263582   7.483   4.629   8.540
17037SOL     OW63583   8.702   4.136   7.366
17037SOL    HW163584   8.776   4.195   7.333
17037SOL    HW263585   8.706   4.131   7.465
17038SOL     OW63586   8.693   2.083   8.115
17038SOL    HW163587   8.686   2.089   8.215
17038SOL    HW263588   8.686   1.988   8.087
17039SOL     OW63589   8.422   1.678   8.761
17039SOL    HW163590   8.380   1.607   8.819
17039SOL    HW263591   8.401   1.768   8.798
17040SOL     OW63592   8.064   2.939   8.666
17040SOL    HW163593   8.058   3.030   8.706
17040SOL    HW263594   8.137   2.937   8.598
17041SOL     OW63595   7.993   1.879   8.191
17041SOL    HW163596   8.040   1.877   8.279
17041SOL    HW263597   8.047   1.932   8.125
17042SOL     OW63598   8.415   5.913   8.473
17042SOL    HW163599   8.440   5.896   8.378
17042SOL    HW263600   8.460   5.996   8.505
17043SOL     OW63601   8.054   3.211   8.775
17043SOL    HW163602   8.005   3.288   8.735
17043SOL    HW263603   8.052   3.218   8.875
17044SOL     OW63604   8.963   1.550   8.679
17044SOL    HW163605   8.996   1.527   8.771
17044SOL    HW263606   8.869   1.585   8.686
17045SOL     OW63607   7.498   6.512   7.674
17045SOL    HW163608   7.577   6.451   7.670
17045SOL    HW263609   7.464   6.515   7.768
17046SOL     OW63610   8.723   4.958   8.502
17046SOL    HW163611   8.657   4.969   8.427
17046SOL    HW263612   8.673   4.944   8.588
17047SOL     OW63613   7.558   7.102   8.630
17047SOL    HW163614   7.463   7.133   8.629
17047SOL    HW263615   7.560   7.003   8.647
17048SOL     OW63616   8.485   4.279   8.844
17048SOL    HW163617   8.514   4.305   8.752
17048SOL    HW263618   8.453   4.360   8.893
17049SOL     OW63619   8.432   4.997   8.962
17049SOL    HW163620   8.452   4.975   0.058
17049SOL    HW263621   8.365   5.071   8.958
17050SOL     OW63622   0.218   6.530   8.352
17050SOL    HW163623   0.253   6.611   8.306
17050SOL    HW263624   0.292   6.485   8.401
17051SOL     OW63625   7.937   5.464   8.318
17051SOL    HW163626   7.873   5.437   8.245
17051SOL    HW263627   7.985   5.382   8.351
17052SOL     OW63628   8.951   4.117   7.782
17052SOL    HW163629   8.972   4.195   7.723
17052SOL    HW263630   0.031   4.058   7.789
17053SOL     OW63631   7.746   1.335   7.788
17053SOL    HW163632   7.835   1.290   7.777
17053SOL    HW263633   7.677   1.284   7.737
17054SOL     OW63634   7.559   2.689   8.360
17054SOL    HW163635   7.557   2.610   8.299
17054SOL    HW263636   7.650   2.698   8.401
17055SOL     OW63637   8.432   5.646   8.201
17055SOL    HW163638   8.459   5.742   8.201
17055SOL    HW263639   8.341   5.637   8.240
17056SOL     OW63640   8.941   2.460   8.218
17056SOL    HW163641   8.916   2.390   8.284
17056SOL    HW263642   8.879   2.456   8.139
17057SOL     OW63643   8.328   2.032   8.276
17057SOL    HW163644   8.357   2.128   8.281
17057SOL    HW263645   8.385   1.983   8.210
17058SOL     OW63646   8.738   3.096   8.016
17058SOL    HW163647   8.768   3.192   8.022
17058SOL    HW263648   8.653   3.085   8.068
17059SOL     OW63649   8.292   3.268   7.531
17059SOL    HW163650   8.272   3.364   7.550
17059SOL    HW263651   8.304   3.218   7.617
17060SOL     OW63652   7.779   6.505   8.797
17060SOL    HW163653   7.733   6.424   8.761
17060SOL    HW263654   7.789   6.496   8.897
17061SOL     OW63655   8.675   4.783   7.470
17061SOL    HW163656   8.678   4.761   7.373
17061SOL    HW263657   8.765   4.769   7.510
17062SOL     OW63658   0.031   2.626   8.915
17062SOL    HW163659   8.989   2.564   8.981
17062SOL    HW263660   8.964   2.649   8.844
17063SOL     OW63661   8.896   4.850   8.128
17063SOL    HW163662   8.923   4.896   8.043
17063SOL    HW263663   8.939   4.896   8.206
17064SOL     OW63664   7.361   1.345   8.415
17064SOL    HW163665   7.278   1.400   8.422
17064SOL    HW263666   7.426   1.388   8.353
17065SOL     OW63667   8.497   2.603   7.612
17065SOL    HW163668   8.461   2.541   7.542
17065SOL    HW263669   8.458   2.694   7.599
17066SOL     OW63670   7.529   7.344   7.774
17066SOL    HW163671   7.432   7.320   7.775
17066SOL    HW263672   7.583   7.260   7.786
17067SOL     OW63673   8.276   1.804   7.895
17067SOL    HW163674   8.335   1.822   7.816
17067SOL    HW263675   8.268   1.706   7.909
17068SOL     OW63676   8.837   3.561   8.622
17068SOL    HW163677   8.741   3.576   8.647
17068SOL    HW263678   8.896   3.613   8.685
17069SOL     OW63679   0.049   4.089   8.875
17069SOL    HW163680   8.990   4.031   8.820
17069SOL    HW263681   0.137   4.044   8.890
17070SOL     OW63682   8.118   1.447   8.426
17070SOL    HW163683   8.160   1.360   8.451
17070SOL    HW263684   8.170   1.522   8.469
17071SOL     OW63685   7.901   5.599   7.326
17071SOL    HW163686   7.839   5.543   7.270
17071SOL    HW263687   7.914   5.687   7.282
17072SOL     OW63688   8.312   7.333   8.157
17072SOL    HW163689   8.220   7.316   8.124
17072SOL    HW263690   8.370   7.254   8.136
17073SOL     OW63691   7.542   3.966   7.792
17073SOL    HW163692   7.594   3.883   7.814
17073SOL    HW263693   7.506   3.959   7.699
17074SOL     OW63694   8.776   2.507   7.981
17074SOL    HW163695   8.733   2.460   7.904
17074SOL    HW263696   8.712   2.576   8.017
17075SOL     OW63697   7.551   2.900   8.170
17075SOL    HW163698   7.579   2.836   8.241
17075SOL    HW263699   7.481   2.858   8.112
17076SOL     OW63700   8.065   3.777   8.751
17076SOL    HW163701   8.041   3.718   8.674
17076SOL    HW263702   8.112   3.859   8.717
17077SOL     OW63703   7.462   0.282   7.445
17077SOL    HW163704   7.384   0.237   7.490
17077SOL    HW263705   7.437   0.308   7.352
17078SOL     OW63706   8.190   0.729   8.095
17078SOL    HW163707   8.169   0.631   8.084
17078SOL    HW263708   8.106   0.779   8.112
17079SOL     OW63709   8.430   2.954   7.758
17079SOL    HW163710   8.400   2.916   7.671
17079SOL    HW263711   8.400   3.049   7.765
17080SOL     OW63712   7.743   3.612   7.554
17080SOL    HW163713   7.646   3.628   7.572
17080SOL    HW263714   7.797   3.688   7.590
17081SOL     OW63715   8.727   3.389   8.434
17081SOL    HW163716   8.773   3.448   8.501
17081SOL    HW263717   8.686   3.445   8.362
17082SOL     OW63718   8.258   3.321   8.352
17082SOL    HW163719   8.245   3.263   8.433
17082SOL    HW263720   8.317   3.398   8.375
17083SOL     OW63721   8.319   2.201   7.532
17083SOL    HW163722   8.396   2.147   7.496
17083SOL    HW263723   8.313   2.187   7.631
17084SOL     OW63724   7.628   3.978   8.973
17084SOL    HW163725   7.646   3.906   8.907
17084SOL    HW263726   7.704   3.985   0.037
17085SOL     OW63727   8.502   1.383   7.617
17085SOL    HW163728   8.407   1.367   7.592
17085SOL    HW263729   8.555   1.406   7.535
17086SOL     OW63730   8.814   1.877   8.531
17086SOL    HW163731   8.759   1.814   8.585
17086SOL    HW263732   8.906   1.838   8.518
17087SOL     OW63733   7.857   6.557   7.477
17087SOL    HW163734   7.930   6.498   7.512
17087SOL    HW263735   7.889   6.604   7.395
17088SOL     OW63736   7.835   5.924   7.631
17088SOL    HW163737   7.840   5.882   7.722
17088SOL    HW263738   7.765   5.876   7.576
17089SOL     OW63739   0.164   5.774   7.778
17089SOL    HW163740   0.155   5.737   7.870
17089SOL    HW263741   0.220   5.712   7.723
17090SOL     OW63742   7.414   6.164   7.578
17090SOL    HW163743   7.499   6.216   7.583
17090SOL    HW263744   7.363   6.174   7.663
17091SOL     OW63745   8.491   1.742   0.195
17091SOL    HW163746   8.515   1.655   0.152
17091SOL    HW263747   8.546   1.816   0.155
17092SOL     OW63748   7.387   3.405   7.882
17092SOL    HW163749   7.442   3.333   7.840
17092SOL    HW263750   7.447   3.472   7.925
17093SOL     OW63751   8.930   2.814   7.646
17093SOL    HW163752   8.872   2.743   7.606
17093SOL    HW263753   8.874   2.875   7.701
17094SOL     OW63754   8.857   0.518   8.277
17094SOL    HW163755   8.762   0.492   8.296
17094SOL    HW263756   8.858   0.604   8.227
17095SOL     OW63757   8.526   4.959   7.614
17095SOL    HW163758   8.429   4.938   7.602
17095SOL    HW263759   8.581   4.893   7.562
17096SOL     OW63760   7.588   6.871   7.738
17096SOL    HW163761   7.492   6.862   7.764
17096SOL    HW263762   7.646   6.841   7.814
17097SOL     OW63763   8.802   2.849   8.137
17097SOL    HW163764   8.725   2.794   8.107
17097SOL    HW263765   8.797   2.940   8.095
17098SOL     OW63766   8.454   1.823   7.689
17098SOL    HW163767   8.537   1.878   7.684
17098SOL    HW263768   8.467   1.739   7.636
17099SOL     OW63769   8.641   5.902   7.639
17099SOL    HW163770   8.563   5.853   7.678
17099SOL    HW263771   8.726   5.858   7.669
17100SOL     OW63772   7.934   6.177   7.686
17100SOL    HW163773   7.890   6.090   7.665
17100SOL    HW263774   8.030   6.162   7.708
17101SOL     OW63775   7.827   1.414   0.005
17101SOL    HW163776   7.791   1.324   0.030
17101SOL    HW263777   7.834   1.471   0.086
17102SOL     OW63778   8.394   5.122   7.901
17102SOL    HW163779   8.406   5.047   7.967
17102SOL    HW263780   8.482   5.141   7.856
17103SOL     OW63781   8.565   3.608   8.674
17103SOL    HW163782   8.506   3.635   8.750
17103SOL    HW263783   8.510   3.562   8.604
17104SOL     OW63784   7.624   4.433   7.685
17104SOL    HW163785   7.547   4.471   7.736
17104SOL    HW263786   7.593   4.353   7.634
17105SOL     OW63787   7.657   6.752   7.481
17105SOL    HW163788   7.720   6.676   7.495
17105SOL    HW263789   7.625   6.787   7.569
17106SOL     OW63790   8.645   4.729   8.115
17106SOL    HW163791   8.732   4.779   8.116
17106SOL    HW263792   8.636   4.677   8.200
17107SOL     OW63793   7.605   0.195   7.934
17107SOL    HW163794   7.645   0.257   7.867
17107SOL    HW263795   7.656   0.108   7.933
17108SOL     OW63796   8.625   3.581   8.252
17108SOL    HW163797   8.647   3.675   8.280
17108SOL    HW263798   8.621   3.577   8.152
17109SOL     OW63799   7.827   5.426   7.686
17109SOL    HW163800   7.921   5.437   7.717
17109SOL    HW263801   7.792   5.337   7.716
17110SOL     OW63802   7.651   7.303   8.797
17110SOL    HW163803   7.702   7.370   8.744
17110SOL    HW263804   7.635   7.221   8.741
17111SOL     OW63805   8.287   1.503   8.208
17111SOL    HW163806   8.351   1.573   8.238
17111SOL    HW263807   8.209   1.499   8.272
17112SOL     OW63808   7.487   2.260   8.975
17112SOL    HW163809   7.502   2.255   8.876
17112SOL    HW263810   7.486   2.168   0.013
17113SOL     OW63811   7.585   2.055   7.868
17113SOL    HW163812   7.646   2.133   7.863
17113SOL    HW263813   7.610   1.998   7.946
17114SOL     OW63814   8.276   4.051   8.343
17114SOL    HW163815   8.311   4.127   8.289
17114SOL    HW263816   8.261   3.972   8.282
17115SOL     OW63817   8.710   2.968   7.771
17115SOL    HW163818   8.736   3.008   7.859
17115SOL    HW263819   8.612   2.947   7.771
17116SOL     OW63820   7.592   6.810   8.196
17116SOL    HW163821   7.648   6.810   8.114
17116SOL    HW263822   7.650   6.819   8.277
17117SOL     OW63823   8.232   3.506   7.641
17117SOL    HW163824   8.262   3.537   7.732
17117SOL    HW263825   8.133   3.516   7.635
17118SOL     OW63826   8.365   3.904   7.784
17118SOL    HW163827   8.362   4.003   7.774
17118SOL    HW263828   8.439   3.867   7.727
17119SOL     OW63829   7.992   2.435   7.849
17119SOL    HW163830   8.083   2.478   7.850
17119SOL    HW263831   7.950   2.447   7.759
17120SOL     OW63832   7.948   2.694   8.687
17120SOL    HW163833   7.991   2.784   8.686
17120SOL    HW263834   7.863   2.698   8.740
17121SOL     OW63835   8.559   6.540   7.567
17121SOL    HW163836   8.653   6.522   7.596
17121SOL    HW263837   8.549   6.520   7.470
17122SOL     OW63838   7.726   1.296   8.069
17122SOL    HW163839   7.727   1.327   7.974
17122SOL    HW263840   7.811   1.324   8.114
17123SOL     OW63841   8.859   5.176   8.406
17123SOL    HW163842   8.800   5.216   8.336
17123SOL    HW263843   8.810   5.104   8.454
17124SOL     OW63844   8.734   5.910   7.378
17124SOL    HW163845   8.691   5.913   7.468
17124SOL    HW263846   8.733   5.817   7.343
17125SOL     OW63847   8.318   5.756   7.475
17125SOL    HW163848   8.368   5.752   7.388
17125SOL    HW263849   8.246   5.686   7.475
17126SOL     OW63850   8.846   2.039   7.873
17126SOL    HW163851   8.818   2.088   7.955
17126SOL    HW263852   8.921   2.087   7.828
17127SOL     OW63853   8.952   3.601   8.259
17127SOL    HW163854   8.999   3.563   8.338
17127SOL    HW263855   8.886   3.534   8.224
17128SOL     OW63856   7.977   5.947   8.436
17128SOL    HW163857   7.909   5.975   8.504
17128SOL    HW263858   8.001   6.025   8.379
17129SOL     OW63859   7.416   3.632   8.730
17129SOL    HW163860   7.481   3.697   8.768
17129SOL    HW263861   7.419   3.546   8.782
17130SOL     OW63862   8.178   5.777   8.517
17130SOL    HW163863   8.108   5.845   8.493
17130SOL    HW263864   8.268   5.820   8.515
17131SOL     OW63865   8.699   3.142   8.550
17131SOL    HW163866   8.687   3.232   8.508
17131SOL    HW263867   8.793   3.109   8.534
17132SOL     OW63868   7.934   5.239   8.765
17132SOL    HW163869   7.996   5.299   8.815
17132SOL    HW263870   7.852   5.289   8.738
17133SOL     OW63871   8.150   4.953   8.767
17133SOL    HW163872   8.060   4.957   8.723
17133SOL    HW263873   8.214   5.012   8.718
17134SOL     OW63874   7.925   3.367   8.062
17134SOL    HW163875   7.935   3.447   8.002
17134SOL    HW263876   7.834   3.369   8.103
17135SOL     OW63877   8.407   1.264   8.270
17135SOL    HW163878   8.371   1.353   8.242
17135SOL    HW263879   8.347   1.225   8.340
17136SOL     OW63880   7.917   3.423   8.666
17136SOL    HW163881   7.842   3.397   8.606
17136SOL    HW263882   7.972   3.494   8.622
17137SOL     OW63883   7.753   7.140   8.439
17137SOL    HW163884   7.682   7.130   8.509
17137SOL    HW263885   7.711   7.170   8.354
17138SOL     OW63886   7.701   1.435   8.758
17138SOL    HW163887   7.740   1.434   8.850
17138SOL    HW263888   7.775   1.426   8.691
17139SOL     OW63889   7.730   0.600   8.047
17139SOL    HW163890   7.702   0.686   8.004
17139SOL    HW263891   7.674   0.584   8.128
17140SOL     OW63892   8.598   0.066   8.998
17140SOL    HW163893   8.658   0.038   8.923
17140SOL    HW263894   8.650   0.117   0.066
17141SOL     OW63895   7.370   3.155   8.732
17141SOL    HW163896   7.360   3.146   8.633
17141SOL    HW263897   7.280   3.173   8.773
17142SOL     OW63898   7.583   0.567   8.272
17142SOL    HW163899   7.486   0.554   8.255
17142SOL    HW263900   7.596   0.645   8.334
17143SOL     OW63901   8.940   0.427   8.529
17143SOL    HW163902   8.994   0.343   8.534
17143SOL    HW263903   8.913   0.444   8.434
17144SOL     OW63904   8.886   3.928   8.720
17144SOL    HW163905   8.793   3.911   8.686
17144SOL    HW263906   8.927   3.841   8.750
17145SOL     OW63907   7.445   2.172   7.657
17145SOL    HW163908   7.482   2.125   7.738
17145SOL    HW263909   7.521   2.206   7.601
17146SOL     OW63910   8.146   5.160   7.787
17146SOL    HW163911   8.233   5.148   7.836
17146SOL    HW263912   8.147   5.105   7.703
17147SOL     OW63913   8.225   2.587   7.845
17147SOL    HW163914   8.308   2.573   7.791
17147SOL    HW263915   8.246   2.574   7.942
17148SOL     OW63916   7.450   2.632   7.647
17148SOL    HW163917   7.391   2.551   7.639
17148SOL    HW263918   7.405   2.710   7.604
17149SOL     OW63919   7.497   3.768   8.195
17149SOL    HW163920   7.443   3.837   8.146
17149SOL    HW263921   7.454   3.748   8.283
17150SOL     OW63922   8.370   2.502   8.838
17150SOL    HW163923   8.421   2.580   8.803
17150SOL    HW263924   8.372   2.503   8.938
17151SOL     OW63925   7.963   1.389   8.190
17151SOL    HW163926   8.005   1.408   8.279
17151SOL    HW263927   7.952   1.475   8.140
17152SOL     OW63928   7.651   7.228   8.200
17152SOL    HW163929   7.557   7.203   8.178
17152SOL    HW263930   7.713   7.190   8.131
17153SOL     OW63931   7.918   2.769   7.575
17153SOL    HW163932   7.958   2.788   7.665
17153SOL    HW263933   7.977   2.808   7.504
17154SOL     OW63934   8.851   6.594   8.028
17154SOL    HW163935   8.757   6.561   8.028
17154SOL    HW263936   8.895   6.571   8.115
17155SOL     OW63937   8.468   1.684   8.300
17155SOL    HW163938   8.550   1.630   8.282
17155SOL    HW263939   8.465   1.762   8.238
17156SOL     OW63940   7.599   5.548   7.591
17156SOL    HW163941   7.614   5.638   7.551
17156SOL    HW263942   7.687   5.508   7.617
17157SOL     OW63943   7.549   2.487   8.183
17157SOL    HW163944   7.476   2.488   8.115
17157SOL    HW263945   7.596   2.398   8.179
17158SOL     OW63946   8.131   1.082   7.534
17158SOL    HW163947   8.069   1.050   7.462
17158SOL    HW263948   8.157   1.005   7.592
17159SOL     OW63949   8.425   6.326   7.678
17159SOL    HW163950   8.450   6.416   7.642
17159SOL    HW263951   8.493   6.259   7.649
17160SOL     OW63952   7.537   6.836   8.690
17160SOL    HW163953   7.624   6.790   8.674
17160SOL    HW263954   7.519   6.841   8.788
17161SOL     OW63955   7.543   1.455   8.245
17161SOL    HW163956   7.603   1.404   8.183
17161SOL    HW263957   7.571   1.551   8.247
17162SOL     OW63958   7.655   5.790   7.466
17162SOL    HW163959   7.708   5.762   7.386
17162SOL    HW263960   7.581   5.851   7.438
17163SOL     OW63961   8.955   6.524   8.271
17163SOL    HW163962   8.915   6.539   8.361
17163SOL    HW263963   0.054   6.516   8.278
17164SOL     OW63964   8.766   4.953   8.974
17164SOL    HW163965   8.856   4.953   0.016
17164SOL    HW263966   8.714   5.033   0.004
17165SOL     OW63967   8.174   0.176   8.480
17165SOL    HW163968   8.200   0.081   8.500
17165SOL    HW263969   8.075   0.181   8.467
17166SOL     OW63970   8.133   4.453   8.249
17166SOL    HW163971   8.221   4.455   8.296
17166SOL    HW263972   8.066   4.506   8.302
17167SOL     OW63973   8.131   0.461   8.056
17167SOL    HW163974   8.165   0.382   8.108
17167SOL    HW263975   8.045   0.436   8.011
17168SOL     OW63976   8.056   6.394   7.557
17168SOL    HW163977   8.148   6.367   7.531
17168SOL    HW263978   8.009   6.316   7.599
17169SOL     OW63979   7.915   0.202   8.431
17169SOL    HW163980   7.893   0.298   8.449
17169SOL    HW263981   7.851   0.165   8.365
17170SOL     OW63982   7.979   1.004   8.991
17170SOL    HW163983   7.911   1.026   8.921
17170SOL    HW263984   8.003   0.907   8.984
17171SOL     OW63985   8.643   3.864   8.605
17171SOL    HW163986   8.613   3.772   8.633
17171SOL    HW263987   8.658   3.865   8.506
17172SOL     OW63988   8.948   4.119   8.526
17172SOL    HW163989   8.918   4.061   8.602
17172SOL    HW263990   0.024   4.075   8.479
17173SOL     OW63991   7.779   0.608   8.688
17173SOL    HW163992   7.823   0.560   8.612
17173SOL    HW263993   7.763   0.544   8.763
17174SOL     OW63994   7.915   0.476   8.489
17174SOL    HW163995   7.928   0.541   8.415
17174SOL    HW263996   8.002   0.463   8.538
17175SOL     OW63997   8.426   3.724   8.891
17175SOL    HW163998   8.425   3.818   8.857
17175SOL    HW263999   8.351   3.711   8.957
17176SOL     OW64000   7.501   4.782   7.899
17176SOL    HW164001   7.452   4.867   7.919
17176SOL    HW264002   7.564   4.798   7.823
17177SOL     OW64003   8.098   2.921   8.060
17177SOL    HW164004   8.046   2.859   8.120
17177SOL    HW264005   8.094   3.014   8.097
17178SOL     OW64006   8.974   0.440   7.492
17178SOL    HW164007   8.909   0.416   7.564
17178SOL    HW264008   8.923   0.461   7.408
17179SOL     OW64009   8.659   3.070   7.513
17179SOL    HW164010   8.628   3.005   7.443
17179SOL    HW264011   8.688   3.019   7.594
17180SOL     OW64012   7.818   4.146   8.141
17180SOL    HW164013   7.902   4.104   8.106
17180SOL    HW264014   7.798   4.228   8.087
17181SOL     OW64015   0.063   1.765   8.534
17181SOL    HW164016   0.146   1.809   8.569
17181SOL    HW264017   0.040   1.687   8.592
17182SOL     OW64018   8.509   3.042   8.154
17182SOL    HW164019   8.458   2.972   8.104
17182SOL    HW264020   8.522   3.013   8.249
17183SOL     OW64021   8.552   2.555   8.331
17183SOL    HW164022   8.480   2.573   8.397
17183SOL    HW264023   8.634   2.607   8.355
17184SOL     OW64024   8.392   5.500   7.807
17184SOL    HW164025   8.462   5.457   7.750
17184SOL    HW264026   8.302   5.472   7.775
17185SOL     OW64027   7.424   6.511   7.412
17185SOL    HW164028   7.448   6.520   7.509
17185SOL    HW264029   7.390   6.598   7.377
17186SOL     OW64030   8.305   2.169   7.813
17186SOL    HW164031   8.377   2.199   7.876
17186SOL    HW264032   8.234   2.121   7.864
17187SOL     OW64033   7.642   4.772   8.302
17187SOL    HW164034   7.729   4.808   8.336
17187SOL    HW264035   7.603   4.836   8.235
17188SOL     OW64036   8.396   3.474   7.907
17188SOL    HW164037   8.480   3.527   7.918
17188SOL    HW264038   8.387   3.410   7.984
17189SOL     OW64039   0.167   3.974   8.423
17189SOL    HW164040   0.203   3.888   8.460
17189SOL    HW264041   0.236   4.046   8.434
17190SOL     OW64042   8.611   4.520   7.547
17190SOL    HW164043   8.647   4.613   7.549
17190SOL    HW264044   8.542   4.512   7.476
17191SOL     OW64045   8.549   6.158   8.505
17191SOL    HW164046   8.531   6.210   8.588
17191SOL    HW264047   8.522   6.211   8.425
17192SOL     OW64048   8.209   4.645   7.720
17192SOL    HW164049   8.228   4.680   7.628
17192SOL    HW264050   8.230   4.715   7.788
17193SOL     OW64051   7.426   5.657   8.244
17193SOL    HW164052   7.360   5.595   8.286
17193SOL    HW264053   7.483   5.699   8.315
17194SOL     OW64054   7.645   2.530   7.808
17194SOL    HW164055   7.563   2.567   7.765
17194SOL    HW264056   7.678   2.593   7.878
17195SOL     OW64057   7.736   3.503   8.863
17195SOL    HW164058   7.764   3.531   8.955
17195SOL    HW264059   7.817   3.477   8.810
17196SOL     OW64060   7.959   3.448   7.574
17196SOL    HW164061   7.878   3.505   7.567
17196SOL    HW264062   7.940   3.369   7.633
17197SOL     OW64063   8.719   4.073   7.634
17197SOL    HW164064   8.666   3.989   7.643
17197SOL    HW264065   8.801   4.067   7.691
17198SOL     OW64066   0.185   4.661   8.171
17198SOL    HW164067   0.149   4.710   8.092
17198SOL    HW264068   0.110   4.618   8.222
17199SOL     OW64069   0.097   6.943   8.228
17199SOL    HW164070   0.171   6.877   8.244
17199SOL    HW264071   0.038   6.910   8.154
17200SOL     OW64072   8.269   2.545   8.108
17200SOL    HW164073   8.304   2.464   8.155
17200SOL    HW264074   8.250   2.617   8.175
17201SOL     OW64075   8.803   3.364   8.011
17201SOL    HW164076   8.750   3.445   7.985
17201SOL    HW264077   8.898   3.376   7.982
17202SOL     OW64078   8.721   3.286   7.686
17202SOL    HW164079   8.710   3.244   7.776
17202SOL    HW264080   8.699   3.219   7.615
17203SOL     OW64081   7.513   2.891   8.548
17203SOL    HW164082   7.563   2.866   8.631
17203SOL    HW264083   7.523   2.818   8.480
17204SOL     OW64084   8.892   2.268   8.412
17204SOL    HW164085   8.808   2.221   8.383
17204SOL    HW264086   8.935   2.216   8.486
17205SOL     OW64087   8.079   1.138   8.145
17205SOL    HW164088   8.037   1.228   8.157
17205SOL    HW264089   8.163   1.147   8.092
17206SOL     OW64090   8.753   2.721   8.772
17206SOL    HW164091   8.812   2.746   8.696
17206SOL    HW264092   8.658   2.742   8.749
17207SOL     OW64093   8.350   2.629   8.497
17207SOL    HW164094   8.301   2.671   8.421
17207SOL    HW264095   8.285   2.582   8.556
17208SOL     OW64096   8.382   6.366   7.943
17208SOL    HW164097   8.404   6.350   7.847
17208SOL    HW264098   8.286   6.394   7.951
17209SOL     OW64099   8.756   3.189   8.821
17209SOL    HW164100   8.685   3.156   8.883
17209SOL    HW264101   8.726   3.180   8.726
17210SOL     OW64102   8.225   0.311   8.895
17210SOL    HW164103   8.228   0.335   8.992
17210SOL    HW264104   8.317   0.289   8.863
17211SOL     OW64105   7.330   2.774   8.065
17211SOL    HW164106   7.296   2.752   8.156
17211SOL    HW264107   7.278   2.851   8.028
17212SOL     OW64108   7.980   1.188   7.763
17212SOL    HW164109   8.028   1.275   7.779
17212SOL    HW264110   8.022   1.142   7.685
17213SOL     OW64111   7.746   6.859   7.970
17213SOL    HW164112   7.843   6.842   7.985
17213SOL    HW264113   7.728   6.957   7.976
17214SOL     OW64114   8.584   2.687   8.086
17214SOL    HW164115   8.503   2.736   8.054
17214SOL    HW264116   8.561   2.633   8.167
17215SOL     OW64117   7.861   4.563   7.661
17215SOL    HW164118   7.773   4.517   7.669
17215SOL    HW264119   7.923   4.529   7.732
17216SOL     OW64120   8.037   3.621   8.523
17216SOL    HW164121   8.131   3.648   8.500
17216SOL    HW264122   7.974   3.656   8.454
17217SOL     OW64123   8.405   2.219   8.812
17217SOL    HW164124   8.376   2.315   8.813
17217SOL    HW264125   8.342   2.166   8.757
17218SOL     OW64126   7.807   2.735   8.448
17218SOL    HW164127   7.864   2.714   8.528
17218SOL    HW264128   7.865   2.735   8.366
17219SOL     OW64129   7.962   4.523   7.411
17219SOL    HW164130   7.934   4.547   7.504
17219SOL    HW264131   8.019   4.596   7.374
17220SOL     OW64132   7.340   2.509   7.988
17220SOL    HW164133   7.349   2.606   8.010
17220SOL    HW264134   7.258   2.495   7.931
17221SOL     OW64135   8.380   8.957   8.752
17221SOL    HW164136   8.341   8.895   8.821
17221SOL    HW264137   8.377   0.051   8.787
17222SOL     OW64138   8.103   2.009   7.955
17222SOL    HW164139   8.026   1.999   7.892
17222SOL    HW264140   8.169   1.936   7.939
17223SOL     OW64141   7.485   3.390   8.846
17223SOL    HW164142   7.581   3.420   8.849
17223SOL    HW264143   7.478   3.306   8.791
17224SOL     OW64144   8.173   5.008   7.553
17224SOL    HW164145   8.173   5.063   7.470
17224SOL    HW264146   8.197   4.913   7.531
17225SOL     OW64147   8.891   3.731   7.525
17225SOL    HW164148   8.825   3.778   7.467
17225SOL    HW264149   8.844   3.662   7.581
17226SOL     OW64150   8.922   7.293   7.566
17226SOL    HW164151   8.903   7.358   7.639
17226SOL    HW264152   0.015   7.307   7.532
17227SOL     OW64153   8.988   4.387   8.601
17227SOL    HW164154   8.979   4.290   8.580
17227SOL    HW264155   8.993   4.440   8.516
17228SOL     OW64156   7.713   3.754   7.899
17228SOL    HW164157   7.732   3.809   7.980
17228SOL    HW264158   7.651   3.679   7.923
17229SOL     OW64159   8.940   2.754   8.572
17229SOL    HW164160   8.974   2.660   8.572
17229SOL    HW264161   0.016   2.816   8.552
17230SOL     OW64162   7.719   5.965   8.923
17230SOL    HW164163   7.683   5.916   8.844
17230SOL    HW264164   7.733   6.061   8.900
17231SOL     OW64165   7.745   1.150   8.547
17231SOL    HW164166   7.746   1.050   8.545
17231SOL    HW264167   7.653   1.182   8.568
17232SOL     OW64168   8.478   7.105   8.107
17232SOL    HW164169   8.532   7.116   8.190
17232SOL    HW264170   8.530   7.055   8.038
17233SOL     OW64171   0.043   4.988   8.320
17233SOL    HW164172   8.987   5.059   8.363
17233SOL    HW264173   0.096   4.941   8.390
17234SOL     OW64174   8.610   2.241   8.611
17234SOL    HW164175   8.664   2.317   8.647
17234SOL    HW264176   8.534   2.221   8.672
17235SOL     OW64177   7.694   5.192   7.774
17235SOL    HW164178   7.664   5.105   7.735
17235SOL    HW264179   7.615   5.253   7.786
17236SOL     OW64180   7.856   5.054   8.197
17236SOL    HW164181   7.878   5.071   8.101
17236SOL    HW264182   7.838   5.141   8.243
17237SOL     OW64183   8.462   6.305   8.289
17237SOL    HW164184   8.427   6.237   8.225
17237SOL    HW264185   8.401   6.384   8.291
17238SOL     OW64186   8.342   4.762   8.846
17238SOL    HW164187   8.266   4.798   8.793
17238SOL    HW264188   8.384   4.837   8.898
17239SOL     OW64189   8.686   5.253   8.188
17239SOL    HW164190   8.759   5.263   8.121
17239SOL    HW264191   8.608   5.311   8.162
17240SOL     OW64192   8.160   2.510   8.648
17240SOL    HW164193   8.078   2.564   8.666
17240SOL    HW264194   8.212   2.499   8.733
17241SOL     OW64195   8.403   4.233   8.167
17241SOL    HW164196   8.397   4.313   8.227
17241SOL    HW264197   8.450   4.259   8.082
17242SOL     OW64198   7.494   5.212   8.101
17242SOL    HW164199   7.583   5.257   8.103
17242SOL    HW264200   7.475   5.172   8.191
17243SOL     OW64201   8.953   1.400   7.883
17243SOL    HW164202   8.941   1.307   7.848
17243SOL    HW264203   0.017   1.399   7.959
17244SOL     OW64204   8.743   4.101   7.968
17244SOL    HW164205   8.669   4.164   7.943
17244SOL    HW264206   8.821   4.117   7.908
17245SOL     OW64207   7.656   3.762   8.798
17245SOL    HW164208   7.693   3.783   8.707
17245SOL    HW264209   7.685   3.671   8.825
17246SOL     OW64210   0.005   4.932   0.114
17246SOL    HW164211   0.085   4.955   0.170
17246SOL    HW264212   8.965   4.846   0.147
17247SOL     OW64213   7.875   3.813   7.683
17247SOL    HW164214   7.968   3.822   7.719
17247SOL    HW264215   7.811   3.802   7.759
17248SOL     OW64216   7.679   3.368   8.195
17248SOL    HW164217   7.708   3.389   8.289
17248SOL    HW264218   7.616   3.290   8.196
17249SOL     OW64219   8.502   1.363   7.885
17249SOL    HW164220   8.565   1.295   7.922
17249SOL    HW264221   8.509   1.363   7.785
17250SOL     OW64222   7.621   2.799   8.804
17250SOL    HW164223   7.655   2.757   8.888
17250SOL    HW264224   7.525   2.824   8.816
17251SOL     OW64225   8.384   6.129   8.083
17251SOL    HW164226   8.388   6.217   8.034
17251SOL    HW264227   8.345   6.060   8.023
17252SOL     OW64228   8.404   2.334   8.240
17252SOL    HW164229   8.471   2.398   8.277
17252SOL    HW264230   8.436   2.301   8.151
17253SOL     OW64231   8.776   2.611   7.547
17253SOL    HW164232   8.678   2.612   7.569
17253SOL    HW264233   8.815   2.522   7.572
17254SOL     OW64234   0.022   6.561   8.551
17254SOL    HW164235   0.059   6.622   8.621
17254SOL    HW264236   0.093   6.541   8.483
17255SOL     OW64237   8.081   3.171   8.172
17255SOL    HW164238   8.140   3.217   8.239
17255SOL    HW264239   8.023   3.238   8.127
17256SOL     OW64240   8.003   4.074   7.927
17256SOL    HW164241   8.054   4.155   7.956
17256SOL    HW264242   7.923   4.102   7.875
17257SOL     OW64243   8.954   1.145   7.779
17257SOL    HW164244   0.037   1.111   7.734
17257SOL    HW264245   8.885   1.074   7.781
17258SOL     OW64246   8.262   4.757   7.460
17258SOL    HW164247   8.340   4.697   7.441
17258SOL    HW264248   8.196   4.750   7.385
17259SOL     OW64249   7.326   1.788   7.794
17259SOL    HW164250   7.286   1.707   7.751
17259SOL    HW264251   7.399   1.759   7.857
17260SOL     OW64252   7.370   7.255   8.829
17260SOL    HW164253   7.320   7.325   8.880
17260SOL    HW264254   7.468   7.274   8.835
17261SOL     OW64255   8.975   3.394   7.665
17261SOL    HW164256   8.884   3.353   7.661
17261SOL    HW264257   0.007   3.395   7.760
17262SOL     OW64258   8.843   5.683   7.949
17262SOL    HW164259   8.858   5.727   7.860
17262SOL    HW264260   8.783   5.740   8.004
17263SOL     OW64261   7.850   2.505   7.626
17263SOL    HW164262   7.768   2.515   7.682
17263SOL    HW264263   7.878   2.594   7.591
17264SOL     OW64264   8.232   3.958   8.606
17264SOL    HW164265   8.239   4.014   8.523
17264SOL    HW264266   8.306   3.982   8.669
17265SOL     OW64267   7.327   6.829   7.854
17265SOL    HW164268   7.341   6.730   7.858
17265SOL    HW264269   7.233   6.848   7.828
17266SOL     OW64270   8.808   4.335   7.587
17266SOL    HW164271   8.736   4.403   7.576
17266SOL    HW264272   8.767   4.247   7.614
17267SOL     OW64273   7.926   1.626   8.065
17267SOL    HW164274   7.945   1.717   8.103
17267SOL    HW264275   7.895   1.636   7.970
17268SOL     OW64276   8.257   3.179   8.592
17268SOL    HW164277   8.186   3.202   8.659
17268SOL    HW264278   8.337   3.142   8.640
17269SOL     OW64279   8.966   2.464   8.592
17269SOL    HW164280   0.060   2.493   8.574
17269SOL    HW264281   8.937   2.401   8.521
17270SOL     OW64282   8.803   0.298   8.938
17270SOL    HW164283   8.842   0.207   8.950
17270SOL    HW264284   8.778   0.311   8.842
17271SOL     OW64285   8.550   2.948   8.410
17271SOL    HW164286   8.599   3.021   8.459
17271SOL    HW264287   8.607   2.867   8.406
17272SOL     OW64288   8.660   7.123   8.308
17272SOL    HW164289   8.685   7.214   8.342
17272SOL    HW264290   8.730   7.057   8.334
17273SOL     OW64291   8.774   5.594   7.590
17273SOL    HW164292   8.752   5.612   7.494
17273SOL    HW264293   8.833   5.667   7.624
17274SOL     OW64294   7.787   6.039   8.607
17274SOL    HW164295   7.750   6.132   8.615
17274SOL    HW264296   7.718   5.973   8.635
17275SOL     OW64297   8.046   2.098   8.859
17275SOL    HW164298   8.112   2.100   8.784
17275SOL    HW264299   8.062   2.177   8.919
17276SOL     OW64300   7.453   3.954   7.501
17276SOL    HW164301   7.369   4.000   7.474
17276SOL    HW264302   7.506   3.931   7.420
17277SOL     OW64303   8.372   2.857   8.009
17277SOL    HW164304   8.274   2.868   8.031
17277SOL    HW264305   8.388   2.882   7.914
17278SOL     OW64306   7.223   1.534   7.729
17278SOL    HW164307   7.135   1.492   7.705
17278SOL    HW264308   7.246   1.511   7.824
17279SOL     OW64309   7.945   2.704   8.207
17279SOL    HW164310   7.952   2.610   8.239
17279SOL    HW264311   7.892   2.707   8.122
17280SOL     OW64312   8.917   6.871   8.642
17280SOL    HW164313   8.853   6.823   8.702
17280SOL    HW264314   0.008   6.830   8.651
17281SOL     OW64315   7.712   5.583   8.006
17281SOL    HW164316   7.760   5.660   7.964
17281SOL    HW264317   7.614   5.591   7.989
17282SOL     OW64318   7.805   4.370   7.978
17282SOL    HW164319   7.771   4.433   8.048
17282SOL    HW264320   7.881   4.412   7.929
17283SOL     OW64321   8.944   0.735   7.872
17283SOL    HW164322   0.027   0.695   7.834
17283SOL    HW264323   8.890   0.777   7.800
17284SOL     OW64324   7.759   6.856   8.410
17284SOL    HW164325   7.770   6.955   8.423
17284SOL    HW264326   7.774   6.809   8.497
17285SOL     OW64327   7.642   1.114   7.646
17285SOL    HW164328   7.640   1.076   7.553
17285SOL    HW264329   7.685   1.048   7.708
17286SOL     OW64330   7.728   1.968   8.168
17286SOL    HW164331   7.664   1.903   8.209
17286SOL    HW264332   7.821   1.936   8.181
17287SOL     OW64333   8.202   2.737   8.297
17287SOL    HW164334   8.218   2.825   8.342
17287SOL    HW264335   8.105   2.729   8.272
17288SOL     OW64336   7.558   4.239   8.927
17288SOL    HW164337   7.575   4.141   8.934
17288SOL    HW264338   7.627   4.280   8.866
17289SOL     OW64339   7.434   5.594   7.980
17289SOL    HW164340   7.355   5.640   7.938
17289SOL    HW264341   7.436   5.614   8.078
17290SOL     OW64342   8.894   6.128   7.347
17290SOL    HW164343   8.855   6.194   7.283
17290SOL    HW264344   8.834   6.048   7.353
17291SOL     OW64345   7.576   0.603   7.770
17291SOL    HW164346   7.588   0.536   7.843
17291SOL    HW264347   7.592   0.695   7.806
17292SOL     OW64348   7.835   7.139   8.013
17292SOL    HW164349   7.910   7.204   8.027
17292SOL    HW264350   7.799   7.150   7.921
17293SOL     OW64351   7.404   0.099   8.446
17293SOL    HW164352   7.451   0.081   8.532
17293SOL    HW264353   7.454   0.169   8.395
17294SOL     OW64354   8.625   6.168   7.586
17294SOL    HW164355   8.717   6.208   7.590
17294SOL    HW264356   8.630   6.071   7.609
17295SOL     OW64357   0.122   0.505   8.208
17295SOL    HW164358   0.025   0.492   8.228
17295SOL    HW264359   0.147   0.600   8.228
17296SOL     OW64360   8.659   3.593   7.933
17296SOL    HW164361   8.656   3.584   7.833
17296SOL    HW264362   8.701   3.680   7.957
17297SOL     OW64363   7.767   4.149   7.797
17297SOL    HW164364   7.758   4.238   7.840
17297SOL    HW264365   7.679   4.100   7.802
17298SOL     OW64366   8.762   1.252   0.211
17298SOL    HW164367   8.762   1.322   0.284
17298SOL    HW264368   8.671   1.213   0.203
17299SOL     OW64369   7.397   1.162   7.393
17299SOL    HW164370   7.393   1.163   7.293
17299SOL    HW264371   7.474   1.106   7.423
17300SOL     OW64372   8.712   1.689   8.713
17300SOL    HW164373   8.746   1.746   8.788
17300SOL    HW264374   8.614   1.672   8.725
17301SOL     OW64375   0.005   4.136   0.139
17301SOL    HW164376   0.074   4.197   0.177
17301SOL    HW264377   0.018   4.127   0.040
17302SOL     OW64378   7.747   0.095   8.240
17302SOL    HW164379   7.670   0.156   8.256
17302SOL    HW264380   7.714   0.000   8.237
17303SOL     OW64381   8.084   7.290   7.433
17303SOL    HW164382   8.158   7.316   7.495
17303SOL    HW264383   8.089   7.346   7.350
17304SOL     OW64384   8.577   8.344   1.016
17304SOL    HW164385   8.592   8.280   1.092
17304SOL    HW264386   8.516   8.303   0.949
17305SOL     OW64387   8.072   7.594   5.239
17305SOL    HW164388   8.002   7.629   5.302
17305SOL    HW264389   8.063   7.640   5.151
17306SOL     OW64390   8.386   8.446   3.338
17306SOL    HW164391   8.409   8.390   3.418
17306SOL    HW264392   8.469   8.468   3.288
17307SOL     OW64393   8.019   8.025   5.873
17307SOL    HW164394   8.044   8.121   5.885
17307SOL    HW264395   7.926   8.010   5.908
17308SOL     OW64396   0.248   8.625   0.703
17308SOL    HW164397   0.199   8.574   0.774
17308SOL    HW264398   0.316   8.565   0.661
17309SOL     OW64399   7.376   7.932   1.134
17309SOL    HW164400   7.300   7.983   1.175
17309SOL    HW264401   7.343   7.884   1.052
17310SOL     OW64402   7.643   7.724   2.287
17310SOL    HW164403   7.710   7.772   2.230
17310SOL    HW264404   7.552   7.761   2.270
17311SOL     OW64405   8.393   7.529   0.977
17311SOL    HW164406   8.313   7.537   1.036
17311SOL    HW264407   8.375   7.463   0.904
17312SOL     OW64408   8.919   7.675   6.370
17312SOL    HW164409   8.820   7.678   6.386
17312SOL    HW264410   8.965   7.740   6.430
17313SOL     OW64411   7.926   7.905   2.570
17313SOL    HW164412   7.933   8.005   2.570
17313SOL    HW264413   7.956   7.870   2.658
17314SOL     OW64414   8.854   8.240   2.134
17314SOL    HW164415   8.784   8.182   2.176
17314SOL    HW264416   8.817   8.282   2.051
17315SOL     OW64417   7.548   8.329   5.545
17315SOL    HW164418   7.597   8.362   5.464
17315SOL    HW264419   7.602   8.256   5.588
17316SOL     OW64420   8.595   8.581   0.884
17316SOL    HW164421   8.611   8.495   0.932
17316SOL    HW264422   8.501   8.611   0.899
17317SOL     OW64423   7.644   8.145   6.118
17317SOL    HW164424   7.627   8.048   6.102
17317SOL    HW264425   7.558   8.190   6.144
17318SOL     OW64426   7.888   7.991   0.909
17318SOL    HW164427   7.923   8.085   0.899
17318SOL    HW264428   7.815   7.976   0.843
17319SOL     OW64429   8.900   8.127   0.734
17319SOL    HW164430   8.808   8.167   0.733
17319SOL    HW264431   8.935   8.121   0.641
17320SOL     OW64432   8.513   7.497   5.533
17320SOL    HW164433   8.428   7.501   5.480
17320SOL    HW264434   8.573   7.427   5.494
17321SOL     OW64435   8.040   7.614   5.966
17321SOL    HW164436   8.096   7.696   5.981
17321SOL    HW264437   7.943   7.639   5.970
17322SOL     OW64438   8.401   8.296   3.571
17322SOL    HW164439   8.426   8.341   3.657
17322SOL    HW264440   8.307   8.262   3.579
17323SOL     OW64441   8.209   7.400   5.936
17323SOL    HW164442   8.142   7.473   5.951
17323SOL    HW264443   8.264   7.420   5.855
17324SOL     OW64444   7.717   8.555   3.410
17324SOL    HW164445   7.751   8.483   3.349
17324SOL    HW264446   7.628   8.587   3.377
17325SOL     OW64447   7.682   8.116   5.677
17325SOL    HW164448   7.758   8.061   5.641
17325SOL    HW264449   7.712   8.166   5.758
17326SOL     OW64450   8.190   8.730   0.218
17326SOL    HW164451   8.136   8.783   0.284
17326SOL    HW264452   8.146   8.642   0.201
17327SOL     OW64453   7.639   7.893   0.162
17327SOL    HW164454   7.562   7.833   0.139
17327SOL    HW264455   7.615   7.949   0.242
17328SOL     OW64456   8.237   8.322   6.130
17328SOL    HW164457   8.321   8.277   6.099
17328SOL    HW264458   8.254   8.365   6.219
17329SOL     OW64459   8.341   8.442   7.303
17329SOL    HW164460   8.277   8.475   7.372
17329SOL    HW264461   8.293   8.386   7.236
17330SOL     OW64462   7.820   8.018   4.817
17330SOL    HW164463   7.727   7.984   4.802
17330SOL    HW264464   7.886   7.947   4.793
17331SOL     OW64465   0.189   7.814   0.612
17331SOL    HW164466   0.169   7.724   0.573
17331SOL    HW264467   0.148   7.820   0.703
17332SOL     OW64468   8.114   8.358   2.738
17332SOL    HW164469   8.214   8.362   2.737
17332SOL    HW264470   8.082   8.289   2.673
17333SOL     OW64471   8.695   7.674   5.648
17333SOL    HW164472   8.762   7.622   5.702
17333SOL    HW264473   8.628   7.610   5.609
17334SOL     OW64474   8.175   8.804   3.199
17334SOL    HW164475   8.229   8.793   3.282
17334SOL    HW264476   8.167   8.716   3.152
17335SOL     OW64477   7.409   8.247   1.233
17335SOL    HW164478   7.399   8.346   1.237
17335SOL    HW264479   7.324   8.203   1.261
17336SOL     OW64480   8.486   7.844   2.232
17336SOL    HW164481   8.398   7.885   2.205
17336SOL    HW264482   8.495   7.754   2.190
17337SOL     OW64483   7.831   8.351   2.064
17337SOL    HW164484   7.774   8.370   1.983
17337SOL    HW264485   7.901   8.422   2.073
17338SOL     OW64486   8.499   8.100   1.482
17338SOL    HW164487   8.420   8.062   1.433
17338SOL    HW264488   8.506   8.056   1.572
17339SOL     OW64489   7.544   7.576   6.326
17339SOL    HW164490   7.570   7.603   6.419
17339SOL    HW264491   7.490   7.649   6.285
17340SOL     OW64492   8.217   7.698   1.379
17340SOL    HW164493   8.124   7.696   1.417
17340SOL    HW264494   8.217   7.653   1.290
17341SOL     OW64495   7.695   8.938   3.396
17341SOL    HW164496   7.777   8.907   3.348
17341SOL    HW264497   7.678   8.880   3.476
17342SOL     OW64498   7.795   0.009   0.453
17342SOL    HW164499   7.739   0.075   0.404
17342SOL    HW264500   7.747   8.922   0.459
17343SOL     OW64501   8.463   8.786   2.893
17343SOL    HW164502   8.446   8.692   2.924
17343SOL    HW264503   8.379   8.839   2.899
17344SOL     OW64504   8.155   7.409   1.666
17344SOL    HW164505   8.229   7.341   1.670
17344SOL    HW264506   8.193   7.500   1.685
17345SOL     OW64507   7.963   7.663   1.463
17345SOL    HW164508   7.880   7.717   1.478
17345SOL    HW264509   7.945   7.567   1.484
17346SOL     OW64510   7.792   8.762   2.150
17346SOL    HW164511   7.876   8.769   2.204
17346SOL    HW264512   7.720   8.719   2.205
17347SOL     OW64513   7.307   8.507   0.881
17347SOL    HW164514   7.358   8.577   0.932
17347SOL    HW264515   7.225   8.548   0.841
17348SOL     OW64516   8.778   8.242   0.028
17348SOL    HW164517   8.809   8.180   0.099
17348SOL    HW264518   8.848   8.311   0.010
17349SOL     OW64519   7.694   7.479   0.224
17349SOL    HW164520   7.626   7.434   0.281
17349SOL    HW264521   7.658   7.491   0.132
17350SOL     OW64522   8.188   7.846   6.003
17350SOL    HW164523   8.138   7.913   5.947
17350SOL    HW264524   8.286   7.853   5.984
17351SOL     OW64525   8.747   7.910   5.514
17351SOL    HW164526   8.846   7.917   5.522
17351SOL    HW264527   8.717   7.821   5.546
17352SOL     OW64528   8.711   8.804   0.403
17352SOL    HW164529   8.615   8.801   0.374
17352SOL    HW264530   8.723   8.746   0.484
17353SOL     OW64531   7.910   8.884   3.228
17353SOL    HW164532   7.868   8.856   3.142
17353SOL    HW264533   8.007   8.860   3.227
17354SOL     OW64534   8.231   8.928   2.952
17354SOL    HW164535   8.238   0.027   2.960
17354SOL    HW264536   8.208   8.889   3.040
17355SOL     OW64537   8.737   7.631   6.773
17355SOL    HW164538   8.754   7.563   6.701
17355SOL    HW264539   8.787   7.715   6.752
17356SOL     OW64540   8.027   8.530   2.107
17356SOL    HW164541   8.116   8.532   2.061
17356SOL    HW264542   8.019   8.610   2.167
17357SOL     OW64543   8.033   8.770   1.417
17357SOL    HW164544   7.957   8.730   1.366
17357SOL    HW264545   7.999   8.819   1.497
17358SOL     OW64546   7.819   8.683   1.266
17358SOL    HW164547   7.763   8.603   1.243
17358SOL    HW264548   7.879   8.706   1.189
17359SOL     OW64549   7.925   0.136   3.345
17359SOL    HW164550   7.916   0.047   3.299
17359SOL    HW264551   7.842   0.155   3.397
17360SOL     OW64552   7.970   7.713   3.273
17360SOL    HW164553   8.010   7.791   3.224
17360SOL    HW264554   8.028   7.690   3.351
17361SOL     OW64555   7.463   8.678   3.357
17361SOL    HW164556   7.468   8.753   3.290
17361SOL    HW264557   7.367   8.655   3.373
17362SOL     OW64558   8.298   8.171   6.483
17362SOL    HW164559   8.237   8.128   6.549
17362SOL    HW264560   8.301   8.115   6.400
17363SOL     OW64561   8.093   7.348   6.955
17363SOL    HW164562   8.133   7.417   6.894
17363SOL    HW264563   8.098   7.258   6.911
17364SOL     OW64564   7.918   7.555   0.716
17364SOL    HW164565   7.894   7.640   0.668
17364SOL    HW264566   7.846   7.531   0.780
17365SOL     OW64567   8.399   8.268   0.807
17365SOL    HW164568   8.356   8.353   0.777
17365SOL    HW264569   8.331   8.195   0.808
17366SOL     OW64570   7.477   8.940   3.237
17366SOL    HW164571   7.402   8.989   3.281
17366SOL    HW264572   7.559   8.948   3.294
17367SOL     OW64573   8.214   8.841   0.618
17367SOL    HW164574   8.232   8.909   0.690
17367SOL    HW264575   8.295   8.784   0.606
17368SOL     OW64576   7.413   8.524   1.216
17368SOL    HW164577   7.416   8.599   1.149
17368SOL    HW264578   7.341   8.542   1.283
17369SOL     OW64579   7.972   8.633   3.470
17369SOL    HW164580   8.031   8.588   3.403
17369SOL    HW264581   7.876   8.613   3.450
17370SOL     OW64582   7.737   8.409   0.679
17370SOL    HW164583   7.702   8.483   0.621
17370SOL    HW264584   7.835   8.421   0.694
17371SOL     OW64585   8.649   8.221   0.695
17371SOL    HW164586   8.648   8.264   0.605
17371SOL    HW264587   8.560   8.235   0.739
17372SOL     OW64588   8.517   8.397   6.882
17372SOL    HW164589   8.432   8.346   6.865
17372SOL    HW264590   8.507   8.451   6.965
17373SOL     OW64591   8.687   8.613   0.623
17373SOL    HW164592   8.753   8.546   0.589
17373SOL    HW264593   8.664   8.594   0.718
17374SOL     OW64594   8.542   8.093   6.597
17374SOL    HW164595   8.573   8.043   6.517
17374SOL    HW264596   8.458   8.143   6.576
17375SOL     OW64597   8.630   8.091   2.239
17375SOL    HW164598   8.629   8.132   2.330
17375SOL    HW264599   8.591   7.999   2.243
17376SOL     OW64600   8.058   8.819   3.654
17376SOL    HW164601   7.993   8.892   3.678
17376SOL    HW264602   8.018   8.763   3.581
17377SOL     OW64603   8.736   7.324   1.089
17377SOL    HW164604   8.675   7.396   1.123
17377SOL    HW264605   8.824   7.329   1.136
17378SOL     OW64606   7.732   7.810   1.486
17378SOL    HW164607   7.737   7.854   1.575
17378SOL    HW264608   7.640   7.821   1.448
17379SOL     OW64609   8.048   8.770   2.260
17379SOL    HW164610   8.090   8.817   2.183
17379SOL    HW264611   8.119   8.732   2.319
17380SOL     OW64612   7.729   7.714   0.365
17380SOL    HW164613   7.712   7.786   0.297
17380SOL    HW264614   7.734   7.626   0.319
17381SOL     OW64615   7.590   8.069   2.861
17381SOL    HW164616   7.551   8.018   2.784
17381SOL    HW264617   7.655   8.136   2.826
17382SOL     OW64618   8.235   8.669   1.571
17382SOL    HW164619   8.171   8.703   1.502
17382SOL    HW264620   8.185   8.648   1.655
17383SOL     OW64621   7.842   8.086   1.356
17383SOL    HW164622   7.842   8.071   1.257
17383SOL    HW264623   7.748   8.087   1.390
17384SOL     OW64624   7.915   8.280   4.809
17384SOL    HW164625   7.870   8.191   4.821
17384SOL    HW264626   8.008   8.265   4.775
17385SOL     OW64627   7.609   8.304   0.057
17385SOL    HW164628   7.655   8.322   8.970
17385SOL    HW264629   7.564   8.215   0.053
17386SOL     OW64630   8.755   7.693   1.259
17386SOL    HW164631   8.677   7.633   1.239
17386SOL    HW264632   8.825   7.682   1.188
17387SOL     OW64633   8.094   8.458   6.752
17387SOL    HW164634   8.029   8.449   6.676
17387SOL    HW264635   8.146   8.543   6.741
17388SOL     OW64636   8.742   8.200   4.109
17388SOL    HW164637   8.720   8.173   4.202
17388SOL    HW264638   8.842   8.202   4.097
17389SOL     OW64639   8.602   7.810   2.488
17389SOL    HW164640   8.560   7.817   2.397
17389SOL    HW264641   8.595   7.716   2.521
17390SOL     OW64642   8.640   8.852   0.874
17390SOL    HW164643   8.636   8.753   0.883
17390SOL    HW264644   8.698   8.876   0.795
17391SOL     OW64645   7.973   8.249   0.887
17391SOL    HW164646   7.886   8.271   0.931
17391SOL    HW264647   8.002   8.325   0.829
17392SOL     OW64648   7.839   7.796   0.604
17392SOL    HW164649   7.773   7.854   0.652
17392SOL    HW264650   7.802   7.768   0.516
17393SOL     OW64651   7.872   7.661   5.425
17393SOL    HW164652   7.779   7.687   5.450
17393SOL    HW264653   7.899   7.578   5.475
17394SOL     OW64654   8.577   7.554   2.591
17394SOL    HW164655   8.488   7.511   2.609
17394SOL    HW264656   8.649   7.486   2.598
17395SOL     OW64657   7.920   8.437   1.649
17395SOL    HW164658   7.863   8.425   1.569
17395SOL    HW264659   8.008   8.390   1.635
17396SOL     OW64660   8.523   8.067   4.002
17396SOL    HW164661   8.610   8.106   4.031
17396SOL    HW264662   8.450   8.134   4.015
17397SOL     OW64663   7.743   7.638   3.140
17397SOL    HW164664   7.700   7.724   3.109
17397SOL    HW264665   7.824   7.659   3.194
17398SOL     OW64666   7.419   8.991   2.768
17398SOL    HW164667   7.443   0.074   2.718
17398SOL    HW264668   7.457   8.996   2.861
17399SOL     OW64669   7.612   7.737   5.515
17399SOL    HW164670   7.526   7.685   5.513
17399SOL    HW264671   7.595   7.832   5.487
17400SOL     OW64672   8.148   7.822   1.905
17400SOL    HW164673   8.190   7.864   1.985
17400SOL    HW264674   8.089   7.889   1.859
17401SOL     OW64675   8.777   8.063   1.813
17401SOL    HW164676   8.706   8.089   1.879
17401SOL    HW264677   8.768   7.966   1.791
17402SOL     OW64678   8.162   7.871   7.155
17402SOL    HW164679   8.239   7.845   7.098
17402SOL    HW264680   8.097   7.795   7.161
17403SOL     OW64681   7.606   7.871   3.054
17403SOL    HW164682   7.607   7.940   2.982
17403SOL    HW264683   7.599   7.915   3.144
17404SOL     OW64684   8.780   7.965   6.149
17404SOL    HW164685   8.764   8.055   6.108
17404SOL    HW264686   8.773   7.895   6.078
17405SOL     OW64687   7.943   7.410   5.529
17405SOL    HW164688   7.900   7.394   5.618
17405SOL    HW264689   8.028   7.358   5.523
17406SOL     OW64690   7.679   8.429   5.321
17406SOL    HW164691   7.638   8.477   5.243
17406SOL    HW264692   7.757   8.482   5.355
17407SOL     OW64693   7.799   7.367   5.762
17407SOL    HW164694   7.821   7.351   5.858
17407SOL    HW264695   7.782   7.465   5.748
17408SOL     OW64696   7.481   7.619   2.661
17408SOL    HW164697   7.477   7.629   2.761
17408SOL    HW264698   7.560   7.669   2.626
17409SOL     OW64699   8.233   8.695   6.737
17409SOL    HW164700   8.315   8.710   6.792
17409SOL    HW264701   8.154   8.731   6.785
17410SOL     OW64702   8.540   8.798   0.039
17410SOL    HW164703   8.562   8.894   0.019
17410SOL    HW264704   8.454   8.774   8.995
17411SOL     OW64705   8.783   8.381   2.911
17411SOL    HW164706   8.866   8.325   2.917
17411SOL    HW264707   8.712   8.340   2.968
17412SOL     OW64708   0.014   7.898   5.573
17412SOL    HW164709   0.088   7.942   5.521
17412SOL    HW264710   0.029   7.799   5.576
17413SOL     OW64711   8.779   8.340   1.887
17413SOL    HW164712   8.782   8.249   1.845
17413SOL    HW264713   8.719   8.399   1.832
17414SOL     OW64714   7.907   8.858   1.920
17414SOL    HW164715   7.849   8.821   1.992
17414SOL    HW264716   7.997   8.882   1.957
17415SOL     OW64717   8.200   8.856   1.214
17415SOL    HW164718   8.160   8.827   1.301
17415SOL    HW264719   8.286   8.904   1.231
17416SOL     OW64720   8.560   7.420   4.050
17416SOL    HW164721   8.501   7.427   4.131
17416SOL    HW264722   8.654   7.403   4.079
17417SOL     OW64723   0.068   7.632   5.615
17417SOL    HW164724   0.009   7.624   5.696
17417SOL    HW264725   0.082   7.541   5.576
17418SOL     OW64726   8.281   8.511   0.725
17418SOL    HW164727   8.295   8.564   0.809
17418SOL    HW264728   8.325   8.558   0.649
17419SOL     OW64729   7.783   8.233   5.899
17419SOL    HW164730   7.876   8.265   5.919
17419SOL    HW264731   7.737   8.210   5.985
17420SOL     OW64732   8.782   8.098   6.733
17420SOL    HW164733   8.698   8.108   6.678
17420SOL    HW264734   8.787   8.172   6.799
17421SOL     OW64735   7.401   8.535   7.144
17421SOL    HW164736   7.450   8.467   7.090
17421SOL    HW264737   7.416   8.626   7.104
17422SOL     OW64738   8.606   8.535   3.195
17422SOL    HW164739   8.642   8.628   3.185
17422SOL    HW264740   8.681   8.471   3.211
17423SOL     OW64741   8.897   0.042   8.984
17423SOL    HW164742   8.859   8.967   0.038
17423SOL    HW264743   8.972   0.008   8.927
17424SOL     OW64744   7.452   8.780   7.038
17424SOL    HW164745   7.383   8.850   7.054
17424SOL    HW264746   7.542   8.815   7.064
17425SOL     OW64747   7.550   7.674   1.017
17425SOL    HW164748   7.609   7.727   1.079
17425SOL    HW264749   7.483   7.734   0.975
17426SOL     OW64750   8.030   8.851   0.417
17426SOL    HW164751   7.962   8.921   0.437
17426SOL    HW264752   8.093   8.843   0.494
17427SOL     OW64753   8.560   7.511   1.195
17427SOL    HW164754   8.503   7.522   1.113
17427SOL    HW264755   8.501   7.499   1.275
17428SOL     OW64756   0.082   8.858   6.739
17428SOL    HW164757   0.155   8.849   6.671
17428SOL    HW264758   0.016   8.784   6.726
17429SOL     OW64759   7.467   8.417   2.681
17429SOL    HW164760   7.499   8.369   2.599
17429SOL    HW264761   7.415   8.354   2.738
17430SOL     OW64762   8.518   7.406   3.782
17430SOL    HW164763   8.448   7.337   3.764
17430SOL    HW264764   8.532   7.414   3.881
17431SOL     OW64765   7.730   8.382   1.452
17431SOL    HW164766   7.710   8.284   1.455
17431SOL    HW264767   7.724   8.415   1.358
17432SOL     OW64768   8.639   7.786   7.181
17432SOL    HW164769   8.682   7.709   7.134
17432SOL    HW264770   8.542   7.791   7.156
17433SOL     OW64771   7.500   8.883   1.655
17433SOL    HW164772   7.572   8.852   1.593
17433SOL    HW264773   7.435   8.809   1.670
17434SOL     OW64774   7.560   8.001   5.446
17434SOL    HW164775   7.577   8.041   5.536
17434SOL    HW264776   7.611   8.052   5.377
17435SOL     OW64777   7.583   8.196   0.591
17435SOL    HW164778   7.640   8.274   0.617
17435SOL    HW264779   7.487   8.226   0.586
17436SOL     OW64780   7.649   7.505   1.605
17436SOL    HW164781   7.675   7.419   1.561
17436SOL    HW264782   7.585   7.555   1.547
17437SOL     OW64783   7.682   8.787   2.866
17437SOL    HW164784   7.654   8.883   2.860
17437SOL    HW264785   7.744   8.766   2.790
17438SOL     OW64786   7.751   7.758   1.207
17438SOL    HW164787   7.838   7.785   1.166
17438SOL    HW264788   7.749   7.786   1.303
17439SOL     OW64789   7.796   7.530   1.833
17439SOL    HW164790   7.739   7.526   1.751
17439SOL    HW264791   7.845   7.444   1.844
17440SOL     OW64792   8.726   7.989   2.650
17440SOL    HW164793   8.687   7.924   2.585
17440SOL    HW264794   8.730   7.947   2.740
17441SOL     OW64795   8.400   8.636   6.531
17441SOL    HW164796   8.412   8.722   6.480
17441SOL    HW264797   8.334   8.650   6.604
17442SOL     OW64798   8.466   7.971   3.752
17442SOL    HW164799   8.366   7.972   3.742
17442SOL    HW264800   8.491   8.000   3.844
17443SOL     OW64801   8.784   8.428   7.170
17443SOL    HW164802   8.869   8.414   7.221
17443SOL    HW264803   8.740   8.513   7.200
17444SOL     OW64804   8.188   8.892   2.629
17444SOL    HW164805   8.177   8.880   2.728
17444SOL    HW264806   8.098   8.902   2.587
17445SOL     OW64807   8.375   7.803   6.993
17445SOL    HW164808   8.422   7.878   6.947
17445SOL    HW264809   8.392   7.717   6.945
17446SOL     OW64810   8.667   8.110   5.680
17446SOL    HW164811   8.750   8.153   5.715
17446SOL    HW264812   8.690   8.052   5.602
17447SOL     OW64813   7.395   8.262   6.171
17447SOL    HW164814   7.307   8.222   6.197
17447SOL    HW264815   7.386   8.310   6.084
17448SOL     OW64816   0.010   8.830   1.260
17448SOL    HW164817   0.036   8.855   1.354
17448SOL    HW264818   8.912   8.810   1.257
17449SOL     OW64819   7.853   8.707   2.663
17449SOL    HW164820   7.820   8.633   2.605
17449SOL    HW264821   7.889   8.781   2.606
17450SOL     OW64822   8.495   8.703   1.628
17450SOL    HW164823   8.403   8.689   1.593
17450SOL    HW264824   8.525   8.797   1.607
17451SOL     OW64825   8.273   8.272   6.845
17451SOL    HW164826   8.255   8.181   6.807
17451SOL    HW264827   8.208   8.337   6.806
17452SOL     OW64828   7.382   7.706   7.204
17452SOL    HW164829   7.386   7.802   7.175
17452SOL    HW264830   7.328   7.653   7.139
17453SOL     OW64831   7.820   7.873   2.127
17453SOL    HW164832   7.866   7.957   2.097
17453SOL    HW264833   7.771   7.832   2.049
17454SOL     OW64834   8.938   0.129   1.523
17454SOL    HW164835   8.998   0.049   1.529
17454SOL    HW264836   8.865   0.111   1.457
17455SOL     OW64837   7.615   8.656   0.310
17455SOL    HW164838   7.706   8.690   0.289
17455SOL    HW264839   7.617   8.556   0.318
17456SOL     OW64840   8.859   8.366   3.739
17456SOL    HW164841   8.870   8.273   3.704
17456SOL    HW264842   8.876   8.431   3.665
17457SOL     OW64843   8.412   8.144   5.777
17457SOL    HW164844   8.502   8.135   5.733
17457SOL    HW264845   8.342   8.103   5.719
17458SOL     OW64846   7.612   7.445   2.296
17458SOL    HW164847   7.633   7.543   2.293
17458SOL    HW264848   7.583   7.420   2.388
17459SOL     OW64849   8.327   7.444   2.652
17459SOL    HW164850   8.290   7.537   2.655
17459SOL    HW264851   8.270   7.388   2.593
17460SOL     OW64852   8.761   8.287   6.937
17460SOL    HW164853   8.671   8.315   6.903
17460SOL    HW264854   8.781   8.336   7.022
17461SOL     OW64855   7.664   7.456   6.108
17461SOL    HW164856   7.624   7.366   6.090
17461SOL    HW264857   7.625   7.494   6.192
17462SOL     OW64858   8.571   7.375   2.245
17462SOL    HW164859   8.669   7.388   2.253
17462SOL    HW264860   8.541   7.305   2.310
17463SOL     OW64861   8.659   8.939   3.015
17463SOL    HW164862   8.702   8.875   3.079
17463SOL    HW264863   8.589   8.891   2.962
17464SOL     OW64864   7.419   8.725   1.020
17464SOL    HW164865   7.353   8.800   1.029
17464SOL    HW264866   7.505   8.760   0.983
17465SOL     OW64867   7.585   8.558   1.611
17465SOL    HW164868   7.624   8.484   1.557
17465SOL    HW264869   7.626   8.645   1.584
17466SOL     OW64870   8.935   8.096   7.045
17466SOL    HW164871   8.925   8.114   7.143
17466SOL    HW264872   8.879   8.161   6.993
17467SOL     OW64873   7.771   8.521   2.480
17467SOL    HW164874   7.708   8.558   2.412
17467SOL    HW264875   7.828   8.450   2.438
17468SOL     OW64876   8.583   7.664   6.116
17468SOL    HW164877   8.527   7.735   6.074
17468SOL    HW264878   8.567   7.577   6.070
17469SOL     OW64879   8.853   8.405   3.238
17469SOL    HW164880   8.918   8.438   3.169
17469SOL    HW264881   8.813   8.318   3.206
17470SOL     OW64882   8.347   8.273   4.033
17470SOL    HW164883   8.253   8.297   4.060
17470SOL    HW264884   8.374   8.328   3.954
17471SOL     OW64885   8.031   7.832   2.312
17471SOL    HW164886   7.952   7.839   2.251
17471SOL    HW264887   8.002   7.853   2.405
17472SOL     OW64888   8.356   8.265   2.520
17472SOL    HW164889   8.445   8.226   2.496
17472SOL    HW264890   8.361   8.308   2.610
17473SOL     OW64891   8.022   8.701   1.078
17473SOL    HW164892   8.068   8.612   1.086
17473SOL    HW264893   8.081   8.773   1.115
17474SOL     OW64894   8.962   8.137   2.675
17474SOL    HW164895   0.034   8.068   2.664
17474SOL    HW264896   8.873   8.095   2.654
17475SOL     OW64897   7.845   8.371   3.256
17475SOL    HW164898   7.825   8.380   3.159
17475SOL    HW264899   7.943   8.375   3.271
17476SOL     OW64900   7.446   7.714   0.095
17476SOL    HW164901   7.379   7.669   0.155
17476SOL    HW264902   7.506   7.645   0.055
17477SOL     OW64903   8.192   8.086   0.807
17477SOL    HW164904   8.160   7.999   0.771
17477SOL    HW264905   8.114   8.139   0.840
17478SOL     OW64906   8.591   7.416   3.277
17478SOL    HW164907   8.659   7.360   3.324
17478SOL    HW264908   8.593   7.509   3.314
17479SOL     OW64909   8.994   7.454   7.127
17479SOL    HW164910   8.942   7.396   7.190
17479SOL    HW264911   0.069   7.401   7.087
17480SOL     OW64912   7.969   8.103   5.373
17480SOL    HW164913   7.958   8.057   5.462
17480SOL    HW264914   8.059   8.082   5.336
17481SOL     OW64915   7.944   8.900   2.491
17481SOL    HW164916   7.980   8.861   2.406
17481SOL    HW264917   7.867   8.960   2.470
17482SOL     OW64918   8.113   8.413   3.324
17482SOL    HW164919   8.093   8.377   3.416
17482SOL    HW264920   8.212   8.423   3.313
17483SOL     OW64921   8.304   8.423   6.375
17483SOL    HW164922   8.337   8.495   6.437
17483SOL    HW264923   8.299   8.336   6.425
17484SOL     OW64924   8.450   8.757   0.294
17484SOL    HW164925   8.352   8.750   0.276
17484SOL    HW264926   8.498   8.774   0.207
17485SOL     OW64927   8.468   7.579   6.854
17485SOL    HW164928   8.557   7.606   6.817
17485SOL    HW264929   8.481   7.521   6.935
17486SOL     OW64930   8.463   7.884   5.989
17486SOL    HW164931   8.540   7.872   5.927
17486SOL    HW264932   8.455   7.980   6.016
17487SOL     OW64933   7.977   8.337   7.343
17487SOL    HW164934   8.008   8.249   7.308
17487SOL    HW264935   7.901   8.370   7.288
17488SOL     OW64936   0.053   8.330   1.914
17488SOL    HW164937   0.054   8.287   2.005
17488SOL    HW264938   8.959   8.357   1.891
17489SOL     OW64939   8.680   7.878   5.834
17489SOL    HW164940   8.680   7.964   5.783
17489SOL    HW264941   8.690   7.801   5.771
17490SOL     OW64942   8.624   8.199   2.502
17490SOL    HW164943   8.661   8.123   2.555
17490SOL    HW264944   8.645   8.286   2.547
17491SOL     OW64945   8.352   8.814   1.843
17491SOL    HW164946   8.403   8.764   1.773
17491SOL    HW264947   8.401   8.898   1.867
17492SOL     OW64948   8.161   8.886   2.034
17492SOL    HW164949   8.211   8.958   2.081
17492SOL    HW264950   8.218   8.846   1.962
17493SOL     OW64951   8.831   7.886   0.851
17493SOL    HW164952   8.755   7.897   0.915
17493SOL    HW264953   8.847   7.972   0.803
17494SOL     OW64954   7.924   8.891   1.643
17494SOL    HW164955   7.897   8.877   1.738
17494SOL    HW264956   8.011   8.941   1.640
17495SOL     OW64957   7.520   7.603   0.519
17495SOL    HW164958   7.594   7.654   0.477
17495SOL    HW264959   7.519   7.510   0.481
17496SOL     OW64960   7.575   8.574   5.118
17496SOL    HW164961   7.552   8.670   5.134
17496SOL    HW264962   7.597   8.561   5.021
17497SOL     OW64963   8.020   8.486   7.020
17497SOL    HW164964   8.090   8.435   7.070
17497SOL    HW264965   8.038   8.479   6.922
17498SOL     OW64966   8.040   8.110   7.190
17498SOL    HW164967   8.088   8.022   7.187
17498SOL    HW264968   7.964   8.109   7.124
17499SOL     OW64969   8.649   7.701   6.382
17499SOL    HW164970   8.617   7.674   6.291
17499SOL    HW264971   8.623   7.795   6.399
17500SOL     OW64972   7.668   7.752   1.926
17500SOL    HW164973   7.723   7.674   1.895
17500SOL    HW264974   7.572   7.725   1.931
17501SOL     OW64975   8.528   7.979   6.854
17501SOL    HW164976   8.517   8.018   6.762
17501SOL    HW264977   8.623   7.993   6.884
17502SOL     OW64978   8.216   7.505   6.772
17502SOL    HW164979   8.308   7.533   6.798
17502SOL    HW264980   8.210   7.500   6.672
17503SOL     OW64981   8.057   8.062   1.531
17503SOL    HW164982   8.027   8.033   1.622
17503SOL    HW264983   7.977   8.068   1.470
17504SOL     OW64984   7.766   7.687   5.994
17504SOL    HW164985   7.704   7.762   6.019
17504SOL    HW264986   7.732   7.601   6.033
17505SOL     OW64987   7.711   8.310   0.952
17505SOL    HW164988   7.700   8.351   0.862
17505SOL    HW264989   7.655   8.227   0.958
17506SOL     OW64990   8.567   0.192   1.462
17506SOL    HW164991   8.528   0.271   1.416
17506SOL    HW264992   8.641   0.153   1.407
17507SOL     OW64993   7.518   7.393   5.428
17507SOL    HW164994   7.529   7.337   5.510
17507SOL    HW264995   7.462   7.472   5.449
17508SOL     OW64996   8.052   8.296   5.932
17508SOL    HW164997   8.108   8.304   6.015
17508SOL    HW264998   8.098   8.343   5.857
17509SOL     OW64999   7.762   7.630   5.722
17509SOL    HW165000   7.757   7.670   5.813
17509SOL    HW265001   7.701   7.679   5.660
17510SOL     OW65002   8.903   8.185   5.810
17510SOL    HW165003   8.959   8.105   5.833
17510SOL    HW265004   8.957   8.249   5.756
17511SOL     OW65005   8.504   7.624   1.845
17511SOL    HW165006   8.492   7.612   1.944
17511SOL    HW265007   8.415   7.642   1.802
17512SOL     OW65008   8.761   8.771   3.207
17512SOL    HW165009   8.724   8.781   3.300
17512SOL    HW265010   8.861   8.770   3.211
17513SOL     OW65011   8.246   8.672   2.420
17513SOL    HW165012   8.338   8.670   2.381
17513SOL    HW265013   8.246   8.729   2.503
17514SOL     OW65014   7.575   7.885   6.047
17514SOL    HW165015   7.506   7.833   6.097
17514SOL    HW265016   7.535   7.921   5.963
17515SOL     OW65017   8.340   8.665   0.944
17515SOL    HW165018   8.339   8.763   0.962
17515SOL    HW265019   8.295   8.617   1.019
17516SOL     OW65020   8.648   8.623   3.594
17516SOL    HW165021   8.678   8.671   3.676
17516SOL    HW265022   8.617   8.689   3.526
17517SOL     OW65023   7.708   8.783   1.509
17517SOL    HW165024   7.783   8.831   1.554
17517SOL    HW265025   7.733   8.762   1.414
17518SOL     OW65026   7.672   7.981   0.736
17518SOL    HW165027   7.647   8.053   0.672
17518SOL    HW265028   7.619   7.992   0.821
17519SOL     OW65029   8.595   7.480   1.616
17519SOL    HW165030   8.521   7.481   1.549
17519SOL    HW265031   8.565   7.525   1.700
17520SOL     OW65032   8.735   8.208   6.028
17520SOL    HW165033   8.743   8.298   6.069
17520SOL    HW265034   8.788   8.205   5.944
17521SOL     OW65035   7.541   8.086   0.959
17521SOL    HW165036   7.463   8.145   0.935
17521SOL    HW265037   7.516   8.027   1.036
17522SOL     OW65038   8.937   7.649   1.062
17522SOL    HW165039   0.003   7.584   1.099
17522SOL    HW265040   8.911   7.621   0.969
17523SOL     OW65041   7.353   7.880   1.770
17523SOL    HW165042   7.385   7.788   1.795
17523SOL    HW265043   7.324   7.929   1.852
17524SOL     OW65044   8.904   7.854   6.725
17524SOL    HW165045   8.857   7.943   6.720
17524SOL    HW265046   8.957   7.849   6.809
17525SOL     OW65047   8.591   7.969   6.358
17525SOL    HW165048   8.501   7.985   6.317
17525SOL    HW265049   8.661   7.972   6.286
17526SOL     OW65050   8.994   8.994   0.897
17526SOL    HW165051   0.007   0.010   0.799
17526SOL    HW265052   0.033   8.906   0.922
17527SOL     OW65053   8.447   7.587   2.119
17527SOL    HW165054   8.353   7.595   2.152
17527SOL    HW265055   8.491   7.509   2.162
17528SOL     OW65056   8.019   7.595   1.990
17528SOL    HW165057   7.932   7.587   1.942
17528SOL    HW265058   8.068   7.677   1.958
17529SOL     OW65059   7.564   8.074   7.345
17529SOL    HW165060   7.581   8.001   7.412
17529SOL    HW265061   7.513   8.037   7.267
17530SOL     OW65062   7.402   8.611   2.486
17530SOL    HW165063   7.365   8.699   2.518
17530SOL    HW265064   7.418   8.551   2.564
17531SOL     OW65065   8.606   8.101   3.554
17531SOL    HW165066   8.547   8.182   3.546
17531SOL    HW265067   8.568   8.038   3.621
17532SOL     OW65068   8.770   8.212   1.572
17532SOL    HW165069   8.690   8.183   1.520
17532SOL    HW265070   8.782   8.152   1.651
17533SOL     OW65071   7.882   8.691   0.846
17533SOL    HW165072   7.928   8.692   0.935
17533SOL    HW265073   7.906   8.774   0.795
17534SOL     OW65074   8.396   8.941   0.967
17534SOL    HW165075   8.486   8.918   0.929
17534SOL    HW265076   8.408   8.971   1.062
17535SOL     OW65077   8.047   8.492   0.180
17535SOL    HW165078   8.077   8.442   0.099
17535SOL    HW265079   8.017   8.427   0.250
17536SOL     OW65080   8.425   8.238   4.311
17536SOL    HW165081   8.513   8.191   4.318
17536SOL    HW265082   8.410   8.265   4.216
17537SOL     OW65083   8.623   8.574   6.696
17537SOL    HW165084   8.552   8.589   6.628
17537SOL    HW265085   8.595   8.500   6.757
17538SOL     OW65086   8.892   8.654   6.747
17538SOL    HW165087   8.902   8.615   6.838
17538SOL    HW265088   8.801   8.634   6.712
17539SOL     OW65089   8.187   8.391   2.351
17539SOL    HW165090   8.246   8.337   2.411
17539SOL    HW265091   8.199   8.488   2.370
17540SOL     OW65092   8.901   8.462   1.605
17540SOL    HW165093   8.999   8.472   1.586
17540SOL    HW265094   8.873   8.368   1.586
17541SOL     OW65095   8.015   7.706   4.996
17541SOL    HW165096   8.040   7.748   4.908
17541SOL    HW265097   7.918   7.685   4.996
17542SOL     OW65098   7.637   8.822   0.871
17542SOL    HW165099   7.721   8.767   0.873
17542SOL    HW265100   7.600   8.824   0.778
17543SOL     OW65101   8.328   7.767   3.229
17543SOL    HW165102   8.260   7.827   3.187
17543SOL    HW265103   8.289   7.725   3.311
17544SOL     OW65104   8.192   7.531   1.161
17544SOL    HW165105   8.198   7.441   1.203
17544SOL    HW265106   8.103   7.541   1.116
17545SOL     OW65107   8.358   8.315   1.929
17545SOL    HW165108   8.376   8.303   1.832
17545SOL    HW265109   8.325   8.408   1.946
17546SOL     OW65110   8.096   7.842   0.706
17546SOL    HW165111   8.118   7.754   0.749
17546SOL    HW265112   8.005   7.838   0.666
17547SOL     OW65113   7.557   7.449   3.073
17547SOL    HW165114   7.632   7.508   3.103
17547SOL    HW265115   7.529   7.390   3.149
17548SOL     OW65116   7.381   7.816   2.262
17548SOL    HW165117   7.344   7.728   2.232
17548SOL    HW265118   7.322   7.853   2.334
17549SOL     OW65119   7.950   7.556   1.045
17549SOL    HW165120   7.961   7.655   1.055
17549SOL    HW265121   7.865   7.537   0.996
17550SOL     OW65122   8.154   8.309   1.611
17550SOL    HW165123   8.133   8.216   1.582
17550SOL    HW265124   8.252   8.317   1.630
17551SOL     OW65125   8.937   7.427   3.864
17551SOL    HW165126   8.880   7.407   3.784
17551SOL    HW265127   8.942   7.526   3.878
17552SOL     OW65128   7.496   7.875   1.370
17552SOL    HW165129   7.454   7.885   1.280
17552SOL    HW265130   7.514   7.965   1.409
17553SOL     OW65131   7.990   7.823   1.089
17553SOL    HW165132   7.957   7.884   1.017
17553SOL    HW265133   8.071   7.864   1.132
17554SOL     OW65134   8.273   7.974   1.386
17554SOL    HW165135   8.266   7.874   1.381
17554SOL    HW265136   8.196   8.010   1.439
17555SOL     OW65137   8.758   7.577   7.045
17555SOL    HW165138   8.844   7.531   7.069
17555SOL    HW265139   8.757   7.597   6.947
17556SOL     OW65140   7.904   7.965   5.614
17556SOL    HW165141   7.904   7.867   5.591
17556SOL    HW265142   7.971   7.981   5.687
17557SOL     OW65143   8.845   7.819   0.127
17557SOL    HW165144   8.810   7.762   0.201
17557SOL    HW265145   8.813   7.783   0.039
17558SOL     OW65146   8.997   8.214   2.931
17558SOL    HW165147   0.081   8.167   2.961
17558SOL    HW265148   8.975   8.184   2.838
17559SOL     OW65149   8.694   8.689   7.248
17559SOL    HW165150   8.644   8.746   7.312
17559SOL    HW265151   8.783   8.731   7.227
17560SOL     OW65152   7.469   7.994   5.816
17560SOL    HW165153   7.389   8.052   5.799
17560SOL    HW265154   7.548   8.030   5.767
17561SOL     OW65155   8.667   8.406   3.935
17561SOL    HW165156   8.735   8.404   3.862
17561SOL    HW265157   8.686   8.333   4.000
17562SOL     OW65158   8.324   8.702   3.417
17562SOL    HW165159   8.298   8.693   3.513
17562SOL    HW265160   8.347   8.612   3.380
17563SOL     OW65161   8.847   8.860   3.941
17563SOL    HW165162   8.899   8.937   3.979
17563SOL    HW265163   8.900   8.816   3.869
17564SOL     OW65164   8.197   8.208   2.131
17564SOL    HW165165   8.254   8.244   2.057
17564SOL    HW265166   8.193   8.275   2.205
17565SOL     OW65167   8.756   7.428   3.654
17565SOL    HW165168   8.775   7.524   3.633
17565SOL    HW265169   8.666   7.421   3.697
17566SOL     OW65170   8.408   8.537   2.996
17566SOL    HW165171   8.317   8.542   3.037
17566SOL    HW265172   8.476   8.526   3.068
17567SOL     OW65173   8.418   8.430   3.815
17567SOL    HW165174   8.390   8.516   3.773
17567SOL    HW265175   8.514   8.438   3.844
17568SOL     OW65176   8.004   8.472   0.733
17568SOL    HW165177   7.965   8.556   0.770
17568SOL    HW265178   8.102   8.485   0.716
17569SOL     OW65179   7.963   7.997   1.788
17569SOL    HW165180   7.870   7.976   1.760
17569SOL    HW265181   7.962   8.049   1.874
17570SOL     OW65182   8.670   8.107   4.357
17570SOL    HW165183   8.680   8.148   4.448
17570SOL    HW265184   8.661   8.008   4.366
17571SOL     OW65185   8.262   7.664   1.712
17571SOL    HW165186   8.220   7.720   1.783
17571SOL    HW265187   8.266   7.715   1.626
17572SOL     OW65188   7.536   8.199   1.700
17572SOL    HW165189   7.444   8.220   1.732
17572SOL    HW265190   7.601   8.260   1.746
17573SOL     OW65191   7.875   8.708   0.247
17573SOL    HW165192   7.931   8.754   0.316
17573SOL    HW265193   7.924   8.628   0.213
17574SOL     OW65194   8.886   7.566   5.825
17574SOL    HW165195   8.881   7.466   5.838
17574SOL    HW265196   8.884   7.611   5.914
17575SOL     OW65197   8.373   7.466   7.312
17575SOL    HW165198   8.281   7.464   7.272
17575SOL    HW265199   8.366   7.476   7.412
17576SOL     OW65200   8.429   8.311   1.661
17576SOL    HW165201   8.455   8.242   1.593
17576SOL    HW265202   8.504   8.376   1.674
17577SOL     OW65203   7.610   8.753   3.582
17577SOL    HW165204   7.675   8.677   3.580
17577SOL    HW265205   7.537   8.736   3.516
17578SOL     OW65206   7.936   8.182   2.581
17578SOL    HW165207   7.867   8.215   2.645
17578SOL    HW265208   7.927   8.231   2.494
17579SOL     OW65209   8.393   7.484   1.421
17579SOL    HW165210   8.333   7.404   1.415
17579SOL    HW265211   8.337   7.567   1.421
17580SOL     OW65212   8.361   8.317   4.565
17580SOL    HW165213   8.375   8.416   4.571
17580SOL    HW265214   8.381   8.285   4.473
17581SOL     OW65215   8.257   8.568   1.954
17581SOL    HW165216   8.184   8.581   1.888
17581SOL    HW265217   8.321   8.645   1.949
17582SOL     OW65218   8.148   8.561   3.083
17582SOL    HW165219   8.090   8.562   3.002
17582SOL    HW265220   8.113   8.494   3.149
17583SOL     OW65221   0.039   7.861   6.958
17583SOL    HW165222   0.005   7.950   6.987
17583SOL    HW265223   0.057   7.804   7.038
17584SOL     OW65224   7.591   8.620   2.289
17584SOL    HW165225   7.524   8.623   2.363
17584SOL    HW265226   7.544   8.603   2.202
17585SOL     OW65227   8.498   7.991   1.729
17585SOL    HW165228   8.563   7.915   1.733
17585SOL    HW265229   8.496   8.039   1.817
17586SOL     OW65230   7.715   8.158   5.291
17586SOL    HW165231   7.705   8.257   5.289
17586SOL    HW265232   7.811   8.135   5.307
17587SOL     OW65233   7.681   8.458   1.191
17587SOL    HW165234   7.696   8.406   1.107
17587SOL    HW265235   7.583   8.478   1.199
17588SOL     OW65236   7.474   8.377   6.412
17588SOL    HW165237   7.442   8.312   6.482
17588SOL    HW265238   7.452   8.341   6.321
17589SOL     OW65239   8.881   8.508   3.495
17589SOL    HW165240   8.796   8.551   3.523
17589SOL    HW265241   8.868   8.463   3.406
17590SOL     OW65242   8.234   7.938   2.152
17590SOL    HW165243   8.228   8.038   2.150
17590SOL    HW265244   8.165   7.902   2.215
17591SOL     OW65245   7.384   7.397   1.813
17591SOL    HW165246   7.428   7.309   1.832
17591SOL    HW265247   7.356   7.401   1.718
17592SOL     OW65248   7.744   8.277   2.759
17592SOL    HW165249   7.774   8.319   2.845
17592SOL    HW265250   7.687   8.342   2.708
17593SOL     OW65251   8.640   8.488   1.700
17593SOL    HW165252   8.729   8.488   1.655
17593SOL    HW265253   8.590   8.571   1.678
17594SOL     OW65254   7.802   8.419   2.992
17594SOL    HW165255   7.713   8.460   2.976
17594SOL    HW265256   7.873   8.474   2.949
17595SOL     OW65257   8.588   8.699   2.657
17595SOL    HW165258   8.545   8.727   2.743
17595SOL    HW265259   8.606   8.780   2.601
17596SOL     OW65260   7.705   8.399   1.814
17596SOL    HW165261   7.793   8.402   1.768
17596SOL    HW265262   7.644   8.468   1.775
17597SOL     OW65263   8.878   8.130   3.597
17597SOL    HW165264   8.934   8.086   3.527
17597SOL    HW265265   8.781   8.115   3.575
17598SOL     OW65266   8.340   8.022   6.249
17598SOL    HW165267   8.370   8.084   6.178
17598SOL    HW265268   8.269   7.961   6.213
17599SOL     OW65269   8.117   7.449   7.211
17599SOL    HW165270   8.120   7.407   7.120
17599SOL    HW265271   8.058   7.530   7.207
17600SOL     OW65272   8.522   7.438   7.083
17600SOL    HW165273   8.612   7.482   7.091
17600SOL    HW265274   8.473   7.447   7.169
17601SOL     OW65275   8.648   8.430   2.666
17601SOL    HW165276   8.636   8.528   2.650
17601SOL    HW265277   8.708   8.415   2.745
17602SOL     OW65278   0.023   8.712   0.575
17602SOL    HW165279   8.982   8.629   0.538
17602SOL    HW265280   0.108   8.690   0.621
17603SOL     OW65281   8.603   8.156   1.219
17603SOL    HW165282   8.571   8.135   1.312
17603SOL    HW265283   8.606   8.072   1.165
17604SOL     OW65284   8.935   7.487   0.346
17604SOL    HW165285   8.858   7.551   0.341
17604SOL    HW265286   0.008   7.527   0.401
17605SOL     OW65287   8.408   7.448   4.274
17605SOL    HW165288   8.332   7.511   4.286
17605SOL    HW265289   8.461   7.443   4.358
17606SOL     OW65290   8.241   8.617   3.673
17606SOL    HW165291   8.186   8.539   3.642
17606SOL    HW265292   8.182   8.697   3.684
17607SOL     OW65293   8.041   8.764   6.913
17607SOL    HW165294   8.085   8.842   6.958
17607SOL    HW265295   8.018   8.696   6.982
17608SOL     OW65296   7.449   7.609   1.427
17608SOL    HW165297   7.458   7.707   1.413
17608SOL    HW265298   7.460   7.561   1.340
17609SOL     OW65299   8.187   7.616   2.207
17609SOL    HW165300   8.147   7.688   2.264
17609SOL    HW265301   8.125   7.596   2.131
17610SOL     OW65302   0.352   7.477   3.494
17610SOL    HW165303   0.389   7.513   3.579
17610SOL    HW265304   0.347   7.550   3.425
17611SOL     OW65305   8.428   8.673   0.553
17611SOL    HW165306   8.521   8.653   0.584
17611SOL    HW265307   8.430   8.703   0.458
17612SOL     OW65308   8.459   8.718   6.880
17612SOL    HW165309   8.463   8.673   6.970
17612SOL    HW265310   8.540   8.691   6.827
17613SOL     OW65311   7.788   8.404   7.143
17613SOL    HW165312   7.872   8.437   7.100
17613SOL    HW265313   7.716   8.398   7.075
17614SOL     OW65314   8.559   7.423   5.995
17614SOL    HW165315   8.523   7.398   5.906
17614SOL    HW265316   8.575   7.341   6.049
17615SOL     OW65317   8.559   8.128   1.972
17615SOL    HW165318   8.582   8.112   2.068
17615SOL    HW265319   8.490   8.200   1.966
17616SOL     OW65320   8.952   8.466   0.470
17616SOL    HW165321   0.032   8.451   0.413
17616SOL    HW265322   8.888   8.390   0.460
17617SOL     OW65323   7.577   8.539   2.908
17617SOL    HW165324   7.528   8.509   2.827
17617SOL    HW265325   7.604   8.634   2.898
17618SOL     OW65326   0.144   0.395   0.354
17618SOL    HW165327   0.188   0.479   0.387
17618SOL    HW265328   0.159   0.386   0.255
17619SOL     OW65329   8.276   7.483   5.398
17619SOL    HW165330   8.208   7.527   5.339
17619SOL    HW265331   8.237   7.400   5.437
17620SOL     OW65332   8.213   8.304   7.110
17620SOL    HW165333   8.244   8.285   7.017
17620SOL    HW265334   8.153   8.229   7.140
17621SOL     OW65335   8.494   8.562   7.107
17621SOL    HW165336   8.567   8.612   7.152
17621SOL    HW265337   8.436   8.519   7.177
17622SOL     OW65338   7.473   7.932   2.661
17622SOL    HW165339   7.542   7.877   2.614
17622SOL    HW265340   7.395   7.874   2.685
17623SOL     OW65341   8.871   7.871   7.300
17623SOL    HW165342   8.782   7.847   7.261
17623SOL    HW265343   8.879   7.971   7.304
17624SOL     OW65344   8.777   7.676   1.533
17624SOL    HW165345   8.728   7.591   1.555
17624SOL    HW265346   8.778   7.689   1.434
17625SOL     OW65347   8.908   0.621   4.254
17625SOL    HW165348   8.931   0.529   4.285
17625SOL    HW265349   8.931   0.631   4.157
17626SOL     OW65350   8.456   8.164   6.040
17626SOL    HW165351   8.554   8.184   6.047
17626SOL    HW265352   8.429   8.165   5.944
17627SOL     OW65353   7.678   7.776   2.552
17627SOL    HW165354   7.669   7.751   2.455
17627SOL    HW265355   7.767   7.820   2.567
17628SOL     OW65356   7.917   8.329   2.342
17628SOL    HW165357   8.014   8.353   2.341
17628SOL    HW265358   7.881   8.331   2.249
17629SOL     OW65359   7.989   8.562   2.859
17629SOL    HW165360   8.037   8.490   2.809
17629SOL    HW265361   7.945   8.624   2.794
17630SOL     OW65362   0.046   7.949   6.256
17630SOL    HW165363   0.064   7.915   6.348
17630SOL    HW265364   8.949   7.935   6.234
17631SOL     OW65365   7.747   7.485   1.275
17631SOL    HW165366   7.829   7.456   1.325
17631SOL    HW265367   7.758   7.579   1.245
17632SOL     OW65368   7.467   7.666   2.932
17632SOL    HW165369   7.488   7.580   2.978
17632SOL    HW265370   7.516   7.741   2.977
17633SOL     OW65371   8.165   8.201   4.716
17633SOL    HW165372   8.156   8.107   4.683
17633SOL    HW265373   8.237   8.248   4.664
17634SOL     OW65374   7.426   8.830   0.436
17634SOL    HW165375   7.343   8.793   0.477
17634SOL    HW265376   7.483   8.754   0.402
17635SOL     OW65377   7.499   7.376   2.540
17635SOL    HW165378   7.490   7.465   2.585
17635SOL    HW265379   7.525   7.307   2.608
17636SOL     OW65380   7.700   7.945   1.728
17636SOL    HW165381   7.628   8.014   1.724
17636SOL    HW265382   7.677   7.878   1.799
17637SOL     OW65383   8.874   8.888   2.821
17637SOL    HW165384   8.800   8.922   2.878
17637SOL    HW265385   8.889   8.791   2.839
17638SOL     OW65386   8.855   7.636   6.101
17638SOL    HW165387   8.756   7.648   6.103
17638SOL    HW265388   8.893   7.657   6.191
17639SOL     OW65389   8.698   7.805   1.756
17639SOL    HW165390   8.642   7.737   1.803
17639SOL    HW265391   8.737   7.763   1.673
17640SOL     OW65392   8.978   8.118   0.467
17640SOL    HW165393   0.066   8.076   0.443
17640SOL    HW265394   8.915   8.108   0.389
17641SOL     OW65395   7.675   8.389   0.310
17641SOL    HW165396   7.653   8.356   0.218
17641SOL    HW265397   7.765   8.354   0.337
17642SOL     OW65398   7.952   8.108   2.043
17642SOL    HW165399   8.044   8.130   2.075
17642SOL    HW265400   7.895   8.190   2.046
17643SOL     OW65401   8.055   8.633   1.786
17643SOL    HW165402   8.000   8.564   1.738
17643SOL    HW265403   7.996   8.702   1.825
17644SOL     OW65404   8.911   8.628   2.897
17644SOL    HW165405   0.007   8.601   2.901
17644SOL    HW265406   8.853   8.547   2.899
17645SOL     OW65407   7.566   8.001   0.399
17645SOL    HW165408   7.516   7.931   0.450
17645SOL    HW265409   7.579   8.081   0.457
17646SOL     OW65410   7.579   8.135   1.433
17646SOL    HW165411   7.550   8.159   1.526
17646SOL    HW265412   7.519   8.181   1.367
17647SOL     OW65413   7.491   7.470   1.189
17647SOL    HW165414   7.583   7.452   1.224
17647SOL    HW265415   7.496   7.539   1.117
17648SOL     OW65416   8.682   8.953   2.035
17648SOL    HW165417   8.609   8.990   1.978
17648SOL    HW265418   8.654   8.955   2.131
17649SOL     OW65419   0.103   7.852   0.866
17649SOL    HW165420   0.004   7.835   0.861
17649SOL    HW265421   0.119   7.944   0.901
17650SOL     OW65422   0.082   7.838   6.517
17650SOL    HW165423   0.166   7.795   6.550
17650SOL    HW265424   0.020   7.855   6.594
17651SOL     OW65425   8.921   8.729   1.691
17651SOL    HW165426   8.880   8.738   1.782
17651SOL    HW265427   8.913   8.634   1.660
17652SOL     OW65428   7.397   8.477   0.077
17652SOL    HW165429   7.427   8.570   0.057
17652SOL    HW265430   7.476   8.415   0.074
17653SOL     OW65431   8.752   0.038   1.333
17653SOL    HW165432   8.765   0.038   1.234
17653SOL    HW265433   8.728   8.945   1.363
17654SOL     OW65434   8.393   8.391   2.761
17654SOL    HW165435   8.484   8.401   2.721
17654SOL    HW265436   8.389   8.441   2.847
17655SOL     OW65437   7.726   7.496   0.902
17655SOL    HW165438   7.654   7.557   0.934
17655SOL    HW265439   7.690   7.403   0.895
17656SOL     OW65440   8.875   0.381   0.356
17656SOL    HW165441   8.852   0.288   0.385
17656SOL    HW265442   8.973   0.395   0.363
17657SOL     OW65443   8.559   8.358   8.353
17657SOL    HW165444   8.593   8.289   8.416
17657SOL    HW265445   8.507   8.314   8.280
17658SOL     OW65446   0.245   8.651   8.053
17658SOL    HW165447   0.192   8.609   8.127
17658SOL    HW265448   0.307   8.583   8.014
17659SOL     OW65449   7.389   7.945   8.496
17659SOL    HW165450   7.316   8.000   8.537
17659SOL    HW265451   7.353   7.893   8.419
17660SOL     OW65452   8.363   7.536   8.335
17660SOL    HW165453   8.288   7.537   8.401
17660SOL    HW265454   8.347   7.464   8.267
17661SOL     OW65455   8.584   8.617   8.271
17661SOL    HW165456   8.596   8.524   8.307
17661SOL    HW265457   8.491   8.647   8.288
17662SOL     OW65458   7.874   7.998   8.283
17662SOL    HW165459   7.918   8.087   8.272
17662SOL    HW265460   7.809   7.983   8.208
17663SOL     OW65461   8.871   8.136   8.099
17663SOL    HW165462   8.794   8.199   8.096
17663SOL    HW265463   8.897   8.111   8.005
17664SOL     OW65464   8.190   8.715   7.623
17664SOL    HW165465   8.129   8.767   7.682
17664SOL    HW265466   8.144   8.630   7.595
17665SOL     OW65467   7.587   7.871   7.534
17665SOL    HW165468   7.534   7.788   7.513
17665SOL    HW265469   7.554   7.911   7.619
17666SOL     OW65470   0.192   7.824   7.977
17666SOL    HW165471   0.175   7.732   7.943
17666SOL    HW265472   0.149   7.835   8.067
17667SOL     OW65473   7.373   8.275   8.512
17667SOL    HW165474   7.393   8.369   8.541
17667SOL    HW265475   7.324   8.228   8.585
17668SOL     OW65476   8.477   8.074   8.742
17668SOL    HW165477   8.384   8.037   8.733
17668SOL    HW265478   8.537   8.004   8.779
17669SOL     OW65479   8.182   7.699   8.759
17669SOL    HW165480   8.086   7.697   8.786
17669SOL    HW265481   8.195   7.642   8.677
17670SOL     OW65482   7.753   8.951   7.788
17670SOL    HW165483   7.722   0.021   7.724
17670SOL    HW265484   7.706   8.865   7.770
17671SOL     OW65485   7.918   7.688   8.816
17671SOL    HW165486   7.864   7.761   8.858
17671SOL    HW265487   7.858   7.611   8.793
17672SOL     OW65488   7.319   8.521   8.188
17672SOL    HW165489   7.376   8.584   8.241
17672SOL    HW265490   7.231   8.564   8.168
17673SOL     OW65491   8.895   8.149   7.312
17673SOL    HW165492   8.804   8.160   7.352
17673SOL    HW265493   8.944   8.237   7.317
17674SOL     OW65494   7.666   7.485   7.583
17674SOL    HW165495   7.614   7.431   7.649
17674SOL    HW265496   7.602   7.534   7.523
17675SOL     OW65497   8.815   8.802   7.747
17675SOL    HW165498   8.718   8.779   7.759
17675SOL    HW265499   8.867   8.772   7.827
17676SOL     OW65500   8.042   8.730   8.820
17676SOL    HW165501   7.974   8.708   8.750
17676SOL    HW265502   7.998   8.780   8.895
17677SOL     OW65503   7.835   8.697   8.637
17677SOL    HW165504   7.784   8.617   8.605
17677SOL    HW265505   7.892   8.733   8.563
17678SOL     OW65506   7.923   7.567   8.072
17678SOL    HW165507   7.898   7.651   8.023
17678SOL    HW265508   7.846   7.538   8.129
17679SOL     OW65509   8.397   8.269   8.139
17679SOL    HW165510   8.354   8.357   8.121
17679SOL    HW265511   8.327   8.198   8.147
17680SOL     OW65512   8.183   8.826   8.032
17680SOL    HW165513   8.226   8.895   8.091
17680SOL    HW265514   8.253   8.773   7.985
17681SOL     OW65515   7.427   8.547   8.551
17681SOL    HW165516   7.432   8.613   8.476
17681SOL    HW265517   7.351   8.571   8.612
17682SOL     OW65518   7.791   8.432   7.935
17682SOL    HW165519   7.811   8.493   7.858
17682SOL    HW265520   7.864   8.440   8.003
17683SOL     OW65521   8.648   8.280   8.022
17683SOL    HW165522   8.648   8.258   7.925
17683SOL    HW265523   8.556   8.268   8.059
17684SOL     OW65524   8.616   8.557   8.007
17684SOL    HW165525   8.647   8.462   8.006
17684SOL    HW265526   8.618   8.592   8.101
17685SOL     OW65527   8.750   7.359   8.411
17685SOL    HW165528   8.683   7.424   8.446
17685SOL    HW265529   8.835   7.366   8.464
17686SOL     OW65530   7.760   7.892   8.915
17686SOL    HW165531   7.728   7.894   0.010
17686SOL    HW265532   7.685   7.918   8.854
17687SOL     OW65533   7.732   7.714   7.726
17687SOL    HW165534   7.700   7.786   7.664
17687SOL    HW265535   7.729   7.626   7.678
17688SOL     OW65536   8.280   8.777   8.946
17688SOL    HW165537   8.202   8.751   8.889
17688SOL    HW265538   8.252   8.777   0.042
17689SOL     OW65539   7.770   8.112   8.646
17689SOL    HW165540   7.771   8.128   8.547
17689SOL    HW265541   7.686   8.064   8.671
17690SOL     OW65542   7.631   8.338   7.364
17690SOL    HW165543   7.687   8.363   7.285
17690SOL    HW265544   7.607   8.241   7.359
17691SOL     OW65545   8.740   7.696   8.634
17691SOL    HW165546   8.670   7.637   8.593
17691SOL    HW265547   8.812   7.713   8.567
17692SOL     OW65548   8.623   8.890   8.283
17692SOL    HW165549   8.627   8.791   8.269
17692SOL    HW265550   8.686   8.916   8.357
17693SOL     OW65551   7.962   8.255   8.249
17693SOL    HW165552   7.874   8.273   8.293
17693SOL    HW265553   7.991   8.335   8.197
17694SOL     OW65554   7.844   7.810   7.958
17694SOL    HW165555   7.780   7.874   7.999
17694SOL    HW265556   7.807   7.778   7.871
17695SOL     OW65557   8.819   8.066   0.244
17695SOL    HW165558   8.720   8.077   0.256
17695SOL    HW265559   8.837   7.979   0.198
17696SOL     OW65560   8.579   8.883   7.420
17696SOL    HW165561   8.656   8.940   7.448
17696SOL    HW265562   8.503   8.942   7.391
17697SOL     OW65563   8.283   8.908   8.495
17697SOL    HW165564   8.319   8.915   8.589
17697SOL    HW265565   8.338   8.965   8.434
17698SOL     OW65566   8.280   8.520   8.100
17698SOL    HW165567   8.296   8.579   8.179
17698SOL    HW265568   8.315   8.564   8.017
17699SOL     OW65569   8.977   0.000   7.406
17699SOL    HW165570   0.000   8.937   7.480
17699SOL    HW265571   0.027   0.086   7.418
17700SOL     OW65572   7.546   7.667   8.360
17700SOL    HW165573   7.598   7.722   8.426
17700SOL    HW265574   7.477   7.725   8.316
17701SOL     OW65575   8.014   8.837   7.808
17701SOL    HW165576   7.934   8.897   7.814
17701SOL    HW265577   8.068   8.845   7.892
17702SOL     OW65578   8.558   7.521   8.525
17702SOL    HW165579   8.493   7.533   8.450
17702SOL    HW265580   8.510   7.488   8.606
17703SOL     OW65581   7.710   8.331   8.805
17703SOL    HW165582   7.743   8.251   8.756
17703SOL    HW265583   7.705   8.409   8.742
17704SOL     OW65584   7.505   8.727   0.058
17704SOL    HW165585   7.570   8.745   8.983
17704SOL    HW265586   7.556   8.705   0.141
17705SOL     OW65587   7.612   8.220   7.917
17705SOL    HW165588   7.675   8.296   7.923
17705SOL    HW265589   7.518   8.254   7.920
17706SOL     OW65590   7.588   7.513   8.966
17706SOL    HW165591   7.625   7.427   8.930
17706SOL    HW265592   7.530   7.555   8.896
17707SOL     OW65593   7.700   7.769   8.569
17707SOL    HW165594   7.792   7.795   8.540
17707SOL    HW265595   7.664   7.840   8.631
17708SOL     OW65596   0.041   8.845   8.658
17708SOL    HW165597   0.079   8.876   8.745
17708SOL    HW265598   8.958   8.899   8.637
17709SOL     OW65599   7.625   8.709   7.706
17709SOL    HW165600   7.720   8.679   7.720
17709SOL    HW265601   7.573   8.635   7.663
17710SOL     OW65602   7.443   8.725   8.336
17710SOL    HW165603   7.372   8.795   8.336
17710SOL    HW265604   7.529   8.764   8.304
17711SOL     OW65605   8.045   8.755   8.457
17711SOL    HW165606   8.082   8.664   8.477
17711SOL    HW265607   8.112   8.824   8.482
17712SOL     OW65608   7.465   7.631   7.455
17712SOL    HW165609   7.391   7.580   7.498
17712SOL    HW265610   7.438   7.655   7.361
17713SOL     OW65611   8.185   8.095   8.165
17713SOL    HW165612   8.154   8.007   8.131
17713SOL    HW265613   8.107   8.149   8.195
17714SOL     OW65614   8.457   8.760   7.648
17714SOL    HW165615   8.361   8.745   7.626
17714SOL    HW265616   8.504   8.798   7.567
17715SOL     OW65617   8.349   0.079   0.108
17715SOL    HW165618   8.442   0.066   0.073
17715SOL    HW265619   8.351   0.150   0.179
17716SOL     OW65620   8.822   7.903   8.237
17716SOL    HW165621   8.732   7.905   8.281
17716SOL    HW265622   8.835   7.986   8.183
17717SOL     OW65623   7.910   8.868   0.017
17717SOL    HW165624   7.899   8.827   0.108
17717SOL    HW265625   7.973   8.946   0.023
17718SOL     OW65626   7.542   7.589   7.905
17718SOL    HW165627   7.607   7.644   7.852
17718SOL    HW265628   7.535   7.498   7.865
17719SOL     OW65629   7.979   8.066   8.828
17719SOL    HW165630   7.932   8.004   8.891
17719SOL    HW265631   7.917   8.094   8.755
17720SOL     OW65632   7.704   8.305   8.337
17720SOL    HW165633   7.674   8.373   8.269
17720SOL    HW265634   7.645   8.224   8.330
17721SOL     OW65635   8.481   0.238   8.813
17721SOL    HW165636   8.549   0.303   8.780
17721SOL    HW265637   8.520   0.183   8.887
17722SOL     OW65638   8.325   8.679   8.328
17722SOL    HW165639   8.314   8.767   8.375
17722SOL    HW265640   8.281   8.607   8.381
17723SOL     OW65641   7.697   8.780   8.871
17723SOL    HW165642   7.770   8.822   8.924
17723SOL    HW265643   7.733   8.753   8.781
17724SOL     OW65644   7.681   8.006   8.080
17724SOL    HW165645   7.669   8.081   8.015
17724SOL    HW265646   7.620   8.019   8.158
17725SOL     OW65647   8.601   7.476   8.957
17725SOL    HW165648   8.579   7.434   8.869
17725SOL    HW265649   8.520   7.519   8.995
17726SOL     OW65650   7.530   8.093   8.298
17726SOL    HW165651   7.455   8.151   8.266
17726SOL    HW265652   7.498   8.036   8.374
17727SOL     OW65653   8.925   7.735   8.437
17727SOL    HW165654   0.002   7.679   8.406
17727SOL    HW265655   8.880   7.776   8.357
17728SOL     OW65656   8.994   0.024   8.345
17728SOL    HW165657   0.005   0.046   8.248
17728SOL    HW265658   0.040   8.938   8.366
17729SOL     OW65659   7.954   8.750   8.196
17729SOL    HW165660   7.983   8.759   8.291
17729SOL    HW265661   8.026   8.786   8.136
17730SOL     OW65662   8.419   0.064   8.320
17730SOL    HW165663   8.494   0.009   8.284
17730SOL    HW265664   8.378   0.117   8.246
17731SOL     OW65665   8.054   8.475   7.567
17731SOL    HW165666   8.022   8.435   7.481
17731SOL    HW265667   8.090   8.403   7.627
17732SOL     OW65668   7.680   8.821   8.201
17732SOL    HW165669   7.776   8.794   8.209
17732SOL    HW265670   7.648   8.805   8.108
17733SOL     OW65671   8.172   7.528   8.537
17733SOL    HW165672   8.186   7.436   8.574
17733SOL    HW265673   8.082   7.533   8.493
17734SOL     OW65674   8.094   7.847   8.074
17734SOL    HW165675   8.116   7.757   8.110
17734SOL    HW265676   8.005   7.844   8.028
17735SOL     OW65677   7.923   7.544   8.421
17735SOL    HW165678   7.935   7.643   8.431
17735SOL    HW265679   7.854   7.526   8.352
17736SOL     OW65680   8.135   8.304   8.989
17736SOL    HW165681   8.084   8.234   8.939
17736SOL    HW265682   8.233   8.293   8.971
17737SOL     OW65683   7.548   7.955   8.719
17737SOL    HW165684   7.496   7.952   8.633
17737SOL    HW265685   7.485   7.972   8.795
17738SOL     OW65686   7.953   7.814   8.463
17738SOL    HW165687   7.928   7.879   8.391
17738SOL    HW265688   8.035   7.847   8.510
17739SOL     OW65689   8.224   7.971   8.735
17739SOL    HW165690   8.219   7.872   8.746
17739SOL    HW265691   8.141   8.013   8.772
17740SOL     OW65692   8.948   7.755   7.535
17740SOL    HW165693   8.870   7.727   7.591
17740SOL    HW265694   8.915   7.802   7.453
17741SOL     OW65695   8.004   8.488   8.112
17741SOL    HW165696   7.974   8.579   8.143
17741SOL    HW265697   8.102   8.490   8.095
17742SOL     OW65698   8.330   7.571   8.962
17742SOL    HW165699   8.301   7.584   0.057
17742SOL    HW265700   8.278   7.631   8.902
17743SOL     OW65701   7.879   8.610   7.737
17743SOL    HW165702   7.933   8.688   7.767
17743SOL    HW265703   7.932   8.557   7.671
17744SOL     OW65704   8.407   8.263   8.935
17744SOL    HW165705   8.428   8.199   8.861
17744SOL    HW265706   8.493   8.298   8.974
17745SOL     OW65707   8.423   7.423   8.745
17745SOL    HW165708   8.353   7.358   8.715
17745SOL    HW265709   8.387   7.477   8.821
17746SOL     OW65710   7.691   8.477   8.560
17746SOL    HW165711   7.703   8.411   8.485
17746SOL    HW265712   7.595   8.505   8.564
17747SOL     OW65713   0.008   8.711   7.922
17747SOL    HW165714   8.990   8.623   7.878
17747SOL    HW265715   0.096   8.708   7.969
17748SOL     OW65716   8.633   8.149   8.523
17748SOL    HW165717   8.581   8.140   8.608
17748SOL    HW265718   8.617   8.069   8.465
17749SOL     OW65719   8.925   7.476   7.772
17749SOL    HW165720   8.850   7.538   7.749
17749SOL    HW265721   0.001   7.528   7.812
17750SOL     OW65722   7.420   7.613   8.772
17750SOL    HW165723   7.420   7.709   8.744
17750SOL    HW265724   7.427   7.555   8.691
17751SOL     OW65725   8.397   8.686   7.909
17751SOL    HW165726   8.482   8.645   7.943
17751SOL    HW265727   8.411   8.716   7.814
17752SOL     OW65728   8.981   8.472   7.792
17752SOL    HW165729   0.055   8.447   7.729
17752SOL    HW265730   8.900   8.418   7.770
17753SOL     OW65731   0.002   0.392   7.793
17753SOL    HW165732   0.079   0.409   7.854
17753SOL    HW265733   8.999   0.295   7.769
17754SOL     OW65734   8.760   7.695   8.905
17754SOL    HW165735   8.713   7.611   8.930
17754SOL    HW265736   8.760   7.705   8.806
17755SOL     OW65737   7.752   7.509   8.641
17755SOL    HW165738   7.826   7.490   8.576
17755SOL    HW265739   7.720   7.603   8.628
17756SOL     OW65740   7.423   8.927   7.736
17756SOL    HW165741   7.365   8.915   7.817
17756SOL    HW265742   7.481   8.847   7.724
17757SOL     OW65743   8.913   8.092   7.835
17757SOL    HW165744   8.998   8.059   7.793
17757SOL    HW265745   8.865   8.152   7.771
17758SOL     OW65746   7.573   8.449   7.601
17758SOL    HW165747   7.603   8.409   7.514
17758SOL    HW265748   7.603   8.391   7.676
17759SOL     OW65749   7.543   7.976   7.784
17759SOL    HW165750   7.517   7.918   7.862
17759SOL    HW265751   7.568   8.067   7.817
17760SOL     OW65752   7.489   7.472   8.540
17760SOL    HW165753   7.580   7.453   8.577
17760SOL    HW265754   7.496   7.538   8.465
17761SOL     OW65755   0.095   7.884   8.224
17761SOL    HW165756   8.996   7.873   8.220
17761SOL    HW265757   0.118   7.974   8.261
17762SOL     OW65758   8.798   8.840   0.136
17762SOL    HW165759   8.794   8.825   0.235
17762SOL    HW265760   8.716   8.801   0.094
17763SOL     OW65761   7.381   8.557   7.424
17763SOL    HW165762   7.401   8.538   7.328
17763SOL    HW265763   7.447   8.509   7.482
17764SOL     OW65764   8.666   8.964   8.753
17764SOL    HW165765   8.712   8.970   8.665
17764SOL    HW265766   8.568   8.951   8.740
17765SOL     OW65767   7.725   7.489   8.246
17765SOL    HW165768   7.649   7.550   8.268
17765SOL    HW265769   7.691   7.398   8.226
   9.00000   9.00000   9.00000
