UNITED-ATOM COORDINATES FOR PVA
65769
    0PVA     C1    1   3.922   7.224   3.315
    0PVA     C2    2   3.834   7.102   3.337
    0PVA     C3    3   3.919   6.984   3.389
    0PVA     C4    4   3.838   6.858   3.424
    0PVA     C5    5   3.924   6.751   3.496
    0PVA     C6    6   3.841   6.642   3.564
    0PVA     C7    7   3.931   6.542   3.640
    0PVA     C8    8   3.854   6.424   3.703
    0PVA     C9    9   3.951   6.313   3.748
    0PVA    C10   10   3.883   6.189   3.812
    0PVA    C11   11   3.984   6.074   3.828
    0PVA    C12   12   3.932   5.954   3.910
    0PVA    C13   13   4.045   5.851   3.930
    0PVA    C14   14   4.015   5.745   4.038
    0PVA    C15   15   4.146   5.676   4.083
    0PVA    C16   16   4.131   5.575   4.198
    0PVA    C17   17   4.272   5.541   4.251
    0PVA    C18   18   4.274   5.452   4.377
    0PVA    C19   19   4.414   5.467   4.442
    0PVA    C20   20   4.436   5.380   4.568
    0PVA    C21   21   4.457   5.231   4.534
    0PVA    C22   22   4.519   5.153   4.651
    0PVA    C23   23   4.568   5.013   4.608
    0PVA    C24   24   4.651   4.950   4.722
    0PVA    C25   25   4.795   5.003   4.725
    0PVA    C26   26   4.850   5.014   4.867
    0PVA    C27   27   4.845   4.880   4.942
    0PVA    C28   28   4.910   4.894   5.081
    0PVA    C29   29   5.063   4.909   5.074
    0PVA    C30   30   5.119   5.044   5.123
    0PVA    C31   31   5.129   5.056   5.277
    0PVA    C32   32   4.998   5.068   5.356
    0PVA    C33   33   4.933   5.204   5.327
    0PVA    C34   34   4.791   5.223   5.383
    0PVA    C35   35   4.692   5.135   5.306
    0PVA    C36   36   4.543   5.163   5.332
    0PVA    C37   37   4.462   5.055   5.259
    0PVA    C38   38   4.311   5.085   5.250
    0PVA    C39   39   4.247   4.986   5.152
    0PVA    C40   40   4.101   5.016   5.115
    0PVA    C41   41   4.062   4.927   4.997
    0PVA    C42   42   3.918   4.948   4.947
    0PVA    C43   43   3.899   4.892   4.805
    0PVA    C44   44   3.929   4.742   4.797
    0PVA    C45   45   3.928   4.689   4.653
    0PVA    C46   46   4.039   4.751   4.565
    0PVA    C47   47   4.082   4.654   4.454
    0PVA    C48   48   4.195   4.710   4.364
    0PVA    C49   49   4.260   4.595   4.284
    0PVA    C50   50   4.372   4.637   4.187
    0PVA    C51   51   4.454   4.514   4.142
    0PVA    C52   52   4.562   4.551   4.038
    0PVA    C53   53   4.673   4.444   4.026
    0PVA    C54   54   4.621   4.302   3.994
    0PVA    C55   55   4.738   4.205   3.964
    0PVA    C56   56   4.699   4.059   3.935
    0PVA    C57   57   4.825   3.973   3.910
    0PVA    C58   58   4.796   3.823   3.886
    0PVA    C59   59   4.725   3.758   4.006
    0PVA    C60   60   4.735   3.604   4.007
    0PVA    C61   61   4.657   3.546   4.127
    0PVA    C62   62   4.667   3.392   4.129
    0PVA    C63   63   4.582   3.329   4.242
    0PVA    C64   64   4.592   3.175   4.241
    0PVA    C65   65   4.528   3.105   4.363
    0PVA    C66   66   4.376   3.122   4.378
    0PVA    C67   67   4.289   3.068   4.261
    0PVA    C68   68   4.140   3.089   4.296
    0PVA    C69   69   4.045   3.074   4.175
    0PVA    C70   70   3.897   3.108   4.205
    0PVA    C71   71   3.878   3.252   4.259
    0PVA    C72   72   3.730   3.292   4.256
    0PVA    C73   73   3.698   3.437   4.300
    0PVA    C74   74   3.749   3.471   4.442
    0PVA    C75   75   3.713   3.616   4.483
    0PVA    C76   76   3.774   3.651   4.620
    0PVA    C77   77   3.780   3.801   4.653
    0PVA    C78   78   3.871   3.887   4.562
    0PVA    C79   79   4.014   3.834   4.534
    0PVA    C80   80   4.107   3.952   4.504
    0PVA    C81   81   4.250   3.912   4.461
    0PVA    C82   82   4.336   4.039   4.444
    0PVA    C83   83   4.481   4.015   4.395
    0PVA    C84   84   4.570   3.937   4.494
    0PVA    C85   85   4.721   3.952   4.466
    0PVA    C86   86   4.807   3.866   4.559
    0PVA    C87   87   4.793   3.892   4.710
    0PVA    C88   88   4.884   3.801   4.792
    0PVA    C89   89   5.033   3.807   4.753
    0PVA    C90   90   5.127   3.764   4.867
    0PVA    C91   91   5.101   3.621   4.916
    0PVA    C92   92   5.176   3.584   5.047
    0PVA    C93   93   5.329   3.583   5.029
    0PVA    C94   94   5.409   3.542   5.153
    0PVA    C95   95   5.559   3.564   5.125
    0PVA    C96   96   5.651   3.516   5.238
    0PVA    C97   97   5.797   3.511   5.187
    0PVA    C98   98   5.894   3.454   5.291
    0PVA    C99   99   6.030   3.417   5.230
    0PVA   C100  100   6.023   3.304   5.124
    0PVA   C101  101   6.163   3.246   5.100
    0PVA   C102  102   6.168   3.149   4.980
    0PVA   C103  103   6.310   3.102   4.955
    0PVA     O1  104   3.768   7.074   3.213
    0PVA     O2  105   3.779   6.802   3.307
    0PVA     O3  106   3.765   6.567   3.469
    0PVA     O4  107   3.781   6.469   3.817
    0PVA     O5  108   3.831   6.215   3.944
    0PVA     O6  109   3.820   5.892   3.845
    0PVA     O7  110   3.923   5.647   3.990
    0PVA     O8  111   4.069   5.452   4.154
    0PVA     O9  112   4.247   5.315   4.347
    0PVA   C104  113   4.321   5.402   4.668
    0PVA    O10  114   4.427   5.139   4.759
    0PVA    O11  115   4.663   4.808   4.707
    0PVA    O12  116   4.773   5.110   4.943
    0PVA    O13  117   4.883   4.778   5.161
    0PVA    O14  118   5.254   5.051   5.073
    0PVA    O15  119   5.032   5.058   5.496
    0PVA    O16  120   4.757   5.362   5.365
    0PVA    O17  121   4.520   5.165   5.473
    0PVA    O18  122   4.253   5.074   5.380
    0PVA    O19  123   4.018   4.990   5.229
    0PVA    O20  124   3.893   5.089   4.948
    0PVA    O21  125   3.834   4.674   4.881
    0PVA    O22  126   3.992   4.876   4.512
    0PVA    O23  127   4.137   4.808   4.277
    0PVA    O24  128   4.318   4.704   4.073
    0PVA    O25  129   4.498   4.572   3.911
    0PVA    O26  130   4.548   4.255   4.108
    0PVA    O27  131   4.614   4.050   3.820
    0PVA    O28  132   4.920   3.754   3.865
    0PVA    O29  133   4.680   3.551   3.885
    0PVA    O30  134   4.805   3.352   4.141
    0PVA    O31  135   4.447   3.374   4.231
    0PVA    O32  136   4.557   2.965   4.358
    0PVA    O33  137   4.318   2.929   4.242
    0PVA    O34  138   4.052   2.939   4.126
    0PVA    O35  139   3.957   3.339   4.178
    0PVA    O36  140   3.756   3.530   4.207
    0PVA    O37  141   3.570   3.627   4.488
    0PVA    O38  142   3.822   3.817   4.791
    0PVA    O39  143   4.020   3.747   4.419
    0PVA    O40  144   4.313   3.831   4.561
    0PVA    O41  145   4.478   3.949   4.266
    0PVA    O42  146   4.752   3.909   4.332
    0PVA    O43  147   4.825   4.027   4.745
    0PVA    O44  148   5.070   3.941   4.714
    0PVA    O45  149   5.263   3.771   4.820
    0PVA    O46  150   5.127   3.455   5.088
    0PVA    O47  151   5.364   3.620   5.264
    0PVA    O48  152   5.637   3.604   5.350
    0PVA    O49  153   5.912   3.551   5.396
    0PVA    O50  154   5.932   3.203   5.172
    0PVA    O51  155   6.118   3.216   4.864
    0PVA   H157  156   3.706   7.002   3.224
    0PVA   H158  157   3.847   6.773   3.245
    0PVA   H159  158   3.696   6.622   3.431
    0PVA   H160  159   3.714   6.532   3.790
    0PVA   H161  160   3.767   6.287   3.943
    0PVA   H162  161   3.744   5.951   3.847
    0PVA   H163  162   3.838   5.687   3.970
    0PVA   H164  163   3.981   5.468   4.117
    0PVA   H165  164   4.156   5.304   4.317
    0PVA   H169  165   4.350   5.087   4.732
    0PVA   H170  166   4.576   4.767   4.711
    0PVA   H171  167   4.778   5.197   4.903
    0PVA   H172  168   4.788   4.769   5.174
    0PVA   H173  169   5.292   5.138   5.094
    0PVA   H174  170   4.953   5.054   5.552
    0PVA   H175  171   4.675   5.380   5.412
    0PVA   H176  172   4.427   5.188   5.489
    0PVA   H177  173   4.160   5.099   5.375
    0PVA   H178  174   3.927   5.015   5.208
    0PVA   H179  175   3.804   5.107   4.915
    0PVA   H180  176   3.852   4.579   4.884
    0PVA   H181  177   4.063   4.919   4.464
    0PVA   H182  178   4.206   4.851   4.224
    0PVA   H183  179   4.269   4.641   4.019
    0PVA   H184  180   4.563   4.600   3.845
    0PVA   H185  181   4.498   4.176   4.089
    0PVA   H186  182   4.529   4.091   3.836
    0PVA   H187  183   4.967   3.792   3.791
    0PVA   H188  184   4.735   3.576   3.810
    0PVA   H189  185   4.842   3.389   4.222
    0PVA   H190  186   4.410   3.348   4.146
    0PVA   H191  187   4.651   2.949   4.359
    0PVA   H192  188   4.266   2.893   4.170
    0PVA   H193  189   3.994   2.930   4.049
    0PVA   H194  190   3.960   3.427   4.217
    0PVA   H195  191   3.717   3.516   4.120
    0PVA   H196  192   3.545   3.719   4.501
    0PVA   H197  193   3.912   3.786   4.803
    0PVA   H198  194   3.971   3.666   4.431
    0PVA   H199  195   4.271   3.744   4.564
    0PVA   H200  196   4.448   3.858   4.278
    0PVA   H201  197   4.710   3.969   4.269
    0PVA   H202  198   4.767   4.089   4.698
    0PVA   H203  199   5.054   4.001   4.788
    0PVA   H204  200   5.283   3.861   4.792
    0PVA   H205  201   5.163   3.430   5.175
    0PVA   H206  202   5.407   3.590   5.345
    0PVA   H207  203   5.689   3.571   5.425
    0PVA   H208  204   5.973   3.516   5.462
    0PVA   H209  205   5.920   3.134   5.105
    0PVA   H210  206   6.123   3.158   4.787
    1PEG      C  207   8.210   0.598  -0.197
    1PEG      C  208   8.080   0.597  -0.281
    1PEG      C  209   7.842   0.623  -0.258
    1PEG      C  210   7.805   0.487  -0.324
    1PEG      C  211   7.795   0.252  -0.290
    1PEG      C  212   7.641   0.232  -0.292
    1PEG      C  213   7.444   0.256  -0.152
    1PEG      C  214   7.404   0.107  -0.147
    1PEG      C  215   7.238  -0.040  -0.060
    1PEG      C  216   7.108  -0.038   0.023
    1PEG      C  217   7.131   0.033   0.158
    1PEG      C  218   7.028   0.097   0.361
    1PEG      C  219   8.857   3.580   7.185
    1PEG      C  220   8.859   3.498   7.055
    1PEG      C  221   8.771   3.486   6.835
    1PEG      C  222   8.671   3.554   6.738
    1PEG      C  223   8.663   3.478   6.604
    1PEG      C  224   8.548   3.475   6.396
    1PEG      C  225   8.438   3.543   6.311
    1PEG      C  226   8.325   3.537   6.105
    1PEG      C  227   8.321   3.465   5.968
    1PEG      C  228   8.225   3.484   5.752
    1PEG      C  229   8.132   3.570   5.665
    1PEG      C  230   8.097   3.789   5.585
    1PEG      C  231   8.150   3.935   5.594
    1PEG      C  232   8.118   4.156   5.512
    1PEG      C  233   8.042   4.240   5.409
    1PEG      C  234   7.825   4.276   5.317
    1PEG      C  235   7.834   4.431   5.312
    1PEG      C  236   7.980   4.474   5.126
    1PEG      C  237   7.898   4.579   5.050
    1PEG      C  238   7.886   4.703   4.850
    1PEG      C  239   7.953   4.723   4.713
    1PEG      C  240   7.946   4.874   4.525
    1PEG      C  241   7.929   4.766   4.417
    1PEG      C  242   7.760   4.626   4.322
    1PEG      C  243   7.832   4.492   4.348
    1PEG      C  244   7.866   4.334   4.524
    1PEG      C  245   8.006   4.292   4.479
    1PEG      C  246   8.163   4.115   4.507
    1PEG      C  247   8.187   3.988   4.591
    1PEG      C  248   8.325   3.799   4.619
    1PEG      C  249   8.444   3.724   4.556
    1PEG      C  250   8.581   3.533   4.579
    1PEG      C  251   8.602   3.412   4.670
    1PEG      C  252   8.728   3.212   4.702
    1PEG      C  253   8.829   3.116   4.638
    1PEG      C  254   8.943   2.910   4.676
    1PEG      C  255   8.962   2.799   4.782
    1PEG      C  256   9.158   2.701   4.684
    1PEG      C  257   9.216   2.562   4.649
    1PEG      C  258   9.418   2.453   4.589
    1PEG      C  259   9.561   2.474   4.536
    1PEG      C  260   9.764   2.366   4.490
    1PEG      C  261   9.849   2.240   4.520
    1PEG      C  262   9.871   2.006   4.488
    1PEG      C  263   9.811   1.880   4.420
    1PEG      C  264   9.905   1.925   4.202
    1PEG      C  265  10.010   1.810   4.210
    1PEG      C  266  10.035   1.575   4.193
    1PEG      C  267   9.955   1.444   4.188
    1PEG      C  268   9.983   1.206   4.178
    1PEG      C  269  10.090   1.096   4.165
    1PEG      C  270  10.242   0.997   4.011
    1PEG      C  271  10.281   0.990   3.862
    1PEG      C  272  10.190   0.945   3.645
    1PEG      C  273  10.056   0.917   3.574
    1PEG      C  274   9.858   0.784   3.590
    1PEG      C  275   9.841   0.760   3.439
    1PEG      C  276   9.679   0.702   3.276
    1PEG      C  277   9.530   0.666   3.258
    1PEG      C  278   9.366   0.620   3.092
    1PEG      C  279   9.346   0.600   2.941
    1PEG      C  280   9.178   0.569   2.775
    1PEG      C  281   9.242   0.448   2.702
    1PEG      C  282   9.243   0.325   2.499
    1PEG      C  283   9.199   0.329   2.352
    1PEG      C  284   9.222   0.217   2.143
    1PEG      C  285   9.278   0.091   2.074
    1PEG      C  286   9.321  -0.015   1.867
    1PEG      C  287   9.317  -0.002   1.715
    1PEG      C  288   9.436   0.105   1.536
    1PEG      C  289   9.315   0.125   1.442
    1PEG      C  290   9.426   0.217   1.248
    1PEG      C  291   9.342   0.344   1.219
    1PEG      C  292   9.153   0.428   1.105
    1PEG      C  293   9.047   0.396   0.999
    1PEG      C  294   8.860   0.496   0.886
    1PEG      C  295   8.907   0.471   0.741
    1PEG      C  296   9.065   0.554   0.581
    1PEG      C  297   8.969   0.566   0.461
    1PEG      C  298   8.825   0.716   0.345
    1PEG      C  299   8.764   0.859   0.353
    1PEG      C  300   8.635   1.023   0.236
    1PEG      C  301   8.554   1.052   0.107
    1PEG      C  302   8.572   1.087  -0.126
    1PEG      C  303   8.667   1.087  -0.247
    1PEG      C  304   8.684   1.152  -0.477
    1PEG      C  305   8.666   1.028  -0.566
    1PEG      C  306   8.671   0.794  -0.576
    1PEG      C  307   8.674   0.666  -0.488
    1PEG      C  308   8.564   0.560  -0.306
    1PEG      C  309   8.445   0.574  -0.209
    1PEG      C  310   6.874  -0.047   0.472
    1PEG      C  311   6.641  -0.005   0.461
    1PEG      C  312   6.516   0.013   0.550
    1PEG      C  313   6.438   0.150   0.729
    1PEG      C  314   6.481   0.262   0.826
    1PEG      C  315   6.413   0.419   0.990
    1PEG      C  316   6.290   0.470   1.069
    1PEG      C  317   6.176   0.555   0.874
    1PEG      C  318   6.199   0.703   0.909
    1PEG      C  319   6.369   0.866   0.952
    1PEG      C  320   6.304   0.929   1.078
    1PEG      C  321   6.259   0.889   1.306
    1PEG      C  322   6.309   0.810   1.428
    1PEG      C  323   6.122   0.797   1.575
    1PEG      C  324   6.052   0.879   1.685
    1PEG      C  325   6.189   0.800   1.865
    1PEG      C  326   6.250   0.847   1.998
    1PEG      C  327   6.345   0.773   2.201
    1PEG      C  328   6.381   0.647   2.281
    1PEG      C  329   6.444   0.580   2.500
    1PEG      C  330   6.469   0.635   2.642
    1PEG      C  331   6.514   0.572   2.868
    1PEG      C  332   6.550   0.452   2.958
    1PEG      C  333   6.781   0.447   2.908
    1PEG      C  334   6.896   0.354   2.866
    1PEG      C  335   7.013   0.160   2.928
    1PEG      C  336   7.007   0.033   3.017
    1PEG      C  337   7.124  -0.165   3.075
    1PEG      C  338   7.257  -0.239   3.060
    1PEG      C  339   7.371  -0.439   3.129
    1PEG      C  340   7.352  -0.566   3.212
    1PEG      C  341   7.195  -0.741   3.244
    1PEG      C  342   7.068  -0.807   3.185
    1PEG      C  343   7.082  -1.006   3.319
    1PEG      C  344   6.998  -1.098   3.412
    1PEG      C  345   7.159  -1.278   3.419
    1PEG      C  346   7.241  -1.362   3.520
    1PEG      C  347   7.423  -1.210   3.560
    1PEG      C  348   7.476  -1.114   3.669
    1PEG      C  349   7.409  -0.923   3.793
    1PEG      C  350   7.287  -0.830   3.820
    1PEG      C  351   7.058  -0.832   3.879
    1PEG      C  352   6.942  -0.926   3.914
    1PEG      C  353   6.798  -0.748   3.984
    1PEG      C  354   6.648  -0.708   3.980
    1PEG      C  355   6.492  -0.546   4.056
    1PEG      C  356   6.479  -0.418   4.140
    1PEG      C  357   6.533  -0.331   4.356
    1PEG      C  358   6.635  -0.225   4.308
    1PEG      C  359   6.850  -0.207   4.205
    1PEG      C  360   6.962  -0.293   4.142
    1PEG      C  361   7.093  -0.487   4.176
    1PEG      C  362   7.136  -0.593   4.280
    1PEG      C  363   7.264  -0.792   4.297
    1PEG      C  364   7.334  -0.898   4.210
    1PEG      C  365   7.527  -0.761   4.159
    1PEG      C  366   7.626  -0.842   4.245
    1PEG      C  367   7.844  -0.838   4.339
    1PEG      C  368   7.967  -0.747   4.358
    1PEG      C  369   8.029  -0.533   4.442
    1PEG      C  370   7.971  -0.405   4.503
    1PEG      C  371   7.841  -0.328   4.691
    1PEG      C  372   7.934  -0.212   4.727
    1PEG      C  373   8.136  -0.156   4.834
    1PEG      C  374   8.246  -0.215   4.925
    1PEG      C  375   8.402  -0.037   4.900
    1PEG      C  376   8.492   0.058   4.982
    1PEG      C  377   8.653   0.066   5.155
    1PEG      C  378   8.735  -0.022   5.250
    1PEG      C  379   8.892  -0.020   5.429
    1PEG      C  380   8.981   0.069   5.517
    1PEG      C  381   9.148   0.059   5.685
    1PEG      C  382   9.239  -0.046   5.753
    1PEG      C  383   9.380  -0.229   5.699
    1PEG      C  384   9.439  -0.301   5.576
    1PEG      C  385   9.384  -0.402   5.369
    1PEG      C  386   9.275  -0.413   5.261
    1PEG      C  387   9.054  -0.494   5.222
    1PEG      C  388   9.086  -0.564   5.088
    1PEG      O  389   6.907   0.089   0.438
    1PEG      O  390   8.323   0.581  -0.285
    1PEG      O  391   7.969   0.619  -0.192
    1PEG      O  392   7.835   0.379  -0.237
    1PEG      O  393   7.587   0.272  -0.164
    1PEG      O  394   7.277   0.098  -0.079
    1PEG      O  395   7.011   0.026   0.238
    1PEG      O  396   8.774   3.560   6.957
    1PEG      O  397   8.559   3.538   6.523
    1PEG      O  398   8.427   3.476   6.186
    1PEG      O  399   8.229   3.539   5.885
    1PEG      O  400   8.177   3.706   5.671
    1PEG      O  401   8.078   4.019   5.501
    1PEG      O  402   7.902   4.218   5.424
    1PEG      O  403   7.962   4.480   5.268
    1PEG      O  404   7.954   4.598   4.919
    1PEG      O  405   7.887   4.834   4.649
    1PEG      O  406   7.791   4.727   4.422
    1PEG      O  407   7.831   4.469   4.490
    1PEG      O  408   8.038   4.171   4.549
    1PEG      O  409   8.302   3.920   4.542
    1PEG      O  410   8.472   3.607   4.635
    1PEG      O  411   8.701   3.324   4.615
    1PEG      O  412   8.856   3.010   4.733
    1PEG      O  413   9.022   2.680   4.729
    1PEG      O  414   9.351   2.579   4.603
    1PEG      O  415   9.635   2.352   4.548
    1PEG      O  416   9.791   2.123   4.457
    1PEG      O  417   9.787   1.898   4.279
    1PEG      O  418   9.942   1.683   4.197
    1PEG      O  419  10.048   1.333   4.174
    1PEG      O  420  10.137   1.095   4.030
    1PEG      O  421  10.164   0.955   3.786
    1PEG      O  422   9.996   0.802   3.633
    1PEG      O  423   9.704   0.722   3.416
    1PEG      O  424   9.505   0.648   3.117
    1PEG      O  425   9.206   0.578   2.916
    1PEG      O  426   9.191   0.439   2.568
    1PEG      O  427   9.247   0.212   2.285
    1PEG      O  428   9.270   0.103   1.931
    1PEG      O  429   9.401   0.108   1.676
    1PEG      O  430   9.348   0.110   1.304
    1PEG      O  431   9.232   0.311   1.133
    1PEG      O  432   8.968   0.515   0.979
    1PEG      O  433   9.000   0.574   0.708
    1PEG      O  434   8.909   0.697   0.460
    1PEG      O  435   8.689   0.889   0.233
    1PEG      O  436   8.641   1.046  -0.007
    1PEG      O  437   8.600   1.148  -0.360
    1PEG      O  438   8.685   0.908  -0.491
    1PEG      O  439   8.566   0.672  -0.394
    1PEG      O  440   6.750  -0.047   0.546
    1PEG      O  441   6.550   0.114   0.647
    1PEG      O  442   6.372   0.308   0.908
    1PEG      O  443   6.170   0.472   0.990
    1PEG      O  444   6.339   0.726   0.937
    1PEG      O  445   6.328   0.843   1.191
    1PEG      O  446   6.249   0.858   1.548
    1PEG      O  447   6.139   0.913   1.795
    1PEG      O  448   6.291   0.734   2.074
    1PEG      O  449   6.412   0.689   2.414
    1PEG      O  450   6.498   0.527   2.732
    1PEG      O  451   6.657   0.374   2.908
    1PEG      O  452   6.898   0.242   2.955
    1PEG      O  453   7.127  -0.045   2.995
    1PEG      O  454   7.252  -0.360   3.138
    1PEG      O  455   7.233  -0.629   3.163
    1PEG      O  456   7.001  -0.896   3.277
    1PEG      O  457   7.082  -1.183   3.494
    1PEG      O  458   7.310  -1.279   3.615
    1PEG      O  459   7.372  -1.019   3.694
    1PEG      O  460   7.174  -0.911   3.856
    1PEG      O  461   6.812  -0.862   3.900
    1PEG      O  462   6.629  -0.590   4.059
    1PEG      O  463   6.530  -0.445   4.271
    1PEG      O  464   6.747  -0.296   4.252
    1PEG      O  465   7.003  -0.393   4.236
    1PEG      O  466   7.214  -0.690   4.210
    1PEG      O  467   7.421  -0.844   4.108
    1PEG      O  468   7.745  -0.764   4.267
    1PEG      O  469   7.924  -0.628   4.422
    1PEG      O  470   7.913  -0.438   4.631
    1PEG      O  471   8.043  -0.261   4.803
    1PEG      O  472   8.325  -0.115   4.991
    1PEG      O  473   8.573  -0.019   5.070
    1PEG      O  474   8.817   0.059   5.334
    1PEG      O  475   9.066  -0.016   5.596
    1PEG      O  476   9.302  -0.120   5.649
    1PEG      O  477   9.334  -0.331   5.483
    1PEG      O  478   9.166  -0.491   5.311
    1PEG      O  479   8.965  -0.595   5.018
    1PEG      O  480   8.934   3.513   7.285
    1PEG     HO  481   8.985  -0.639   4.936
    1PEG     HO  482   8.934   3.563   7.365
    2ACTN    H6  483   4.283   6.229   0.533
    2ACTN    C3  484   4.302   6.149   0.461
    2ACTN    H4  485   4.303   6.052   0.511
    2ACTN    H5  486   4.214   6.139   0.397
    2ACTN    C2  487   4.430   6.176   0.387
    2ACTN    O1  488   4.534   6.147   0.443
    2ACTN    C1  489   4.424   6.264   0.268
    2ACTN    H1  490   4.432   6.213   0.172
    2ACTN    H2  491   4.514   6.325   0.259
    2ACTN    H3  492   4.339   6.332   0.272
    3ACTN    H6  493   2.556   0.659   4.628
    3ACTN    C3  494   2.658   0.694   4.617
    3ACTN    H4  495   2.709   0.647   4.701
    3ACTN    H5  496   2.689   0.646   4.524
    3ACTN    C2  497   2.669   0.844   4.607
    3ACTN    O1  498   2.611   0.906   4.696
    3ACTN    C1  499   2.727   0.894   4.480
    3ACTN    H1  500   2.821   0.840   4.465
    3ACTN    H2  501   2.756   0.999   4.485
    3ACTN    H3  502   2.659   0.883   4.395
    4ACTN    H6  503   5.973   3.427   2.341
    4ACTN    C3  504   5.958   3.319   2.339
    4ACTN    H4  505   5.911   3.299   2.435
    4ACTN    H5  506   5.885   3.302   2.260
    4ACTN    C2  507   6.088   3.247   2.324
    4ACTN    O1  508   6.096   3.134   2.271
    4ACTN    C1  509   6.211   3.286   2.406
    4ACTN    H1  510   6.188   3.374   2.467
    4ACTN    H2  511   6.292   3.309   2.337
    4ACTN    H3  512   6.240   3.200   2.466
    5ACTN    H6  513   1.123   1.094   5.832
    5ACTN    C3  514   1.122   1.112   5.724
    5ACTN    H4  515   1.131   1.220   5.713
    5ACTN    H5  516   1.217   1.075   5.685
    5ACTN    C2  517   0.994   1.070   5.664
    5ACTN    O1  518   0.886   1.105   5.716
    5ACTN    C1  519   0.988   1.006   5.531
    5ACTN    H1  520   1.059   1.054   5.464
    5ACTN    H2  521   0.887   1.013   5.492
    5ACTN    H3  522   1.008   0.899   5.539
    6ACTN    H6  523   4.262   4.301   5.823
    6ACTN    C3  524   4.165   4.251   5.818
    6ACTN    H4  525   4.138   4.242   5.713
    6ACTN    H5  526   4.177   4.149   5.857
    6ACTN    C2  527   4.050   4.333   5.880
    6ACTN    O1  528   3.942   4.286   5.897
    6ACTN    C1  529   4.075   4.472   5.911
    6ACTN    H1  530   4.114   4.471   6.013
    6ACTN    H2  531   3.986   4.536   5.907
    6ACTN    H3  532   4.147   4.518   5.843
    7ACTN    H6  533   4.623   1.894   5.822
    7ACTN    C3  534   4.620   1.792   5.784
    7ACTN    H4  535   4.700   1.731   5.824
    7ACTN    H5  536   4.522   1.749   5.805
    7ACTN    C2  537   4.623   1.796   5.639
    7ACTN    O1  538   4.726   1.762   5.580
    7ACTN    C1  539   4.513   1.873   5.568
    7ACTN    H1  540   4.452   1.934   5.635
    7ACTN    H2  541   4.459   1.817   5.492
    7ACTN    H3  542   4.575   1.947   5.516
    8ACTN    H6  543   6.836   5.813   0.291
    8ACTN    C3  544   6.901   5.894   0.320
    8ACTN    H4  545   6.870   5.925   0.420
    8ACTN    H5  546   7.002   5.853   0.319
    8ACTN    C2  547   6.880   6.003   0.220
    8ACTN    O1  548   6.768   6.043   0.186
    8ACTN    C1  549   7.003   6.085   0.185
    8ACTN    H1  550   7.087   6.015   0.182
    8ACTN    H2  551   7.018   6.165   0.257
    8ACTN    H3  552   6.979   6.133   0.090
    9ACTN    H6  553   7.013   5.431   1.565
    9ACTN    C3  554   7.112   5.412   1.522
    9ACTN    H4  555   7.142   5.487   1.450
    9ACTN    H5  556   7.177   5.410   1.610
    9ACTN    C2  557   7.114   5.278   1.452
    9ACTN    O1  558   7.021   5.238   1.385
    9ACTN    C1  559   7.240   5.196   1.472
    9ACTN    H1  560   7.305   5.241   1.547
    9ACTN    H2  561   7.296   5.184   1.379
    9ACTN    H3  562   7.215   5.095   1.503
   10ACTN    H6  563   6.309   3.233   7.158
   10ACTN    C3  564   6.280   3.143   7.214
   10ACTN    H4  565   6.273   3.159   7.322
   10ACTN    H5  566   6.181   3.111   7.183
   10ACTN    C2  567   6.379   3.030   7.191
   10ACTN    O1  568   6.368   2.932   7.262
   10ACTN    C1  569   6.480   3.032   7.082
   10ACTN    H1  570   6.503   3.130   7.041
   10ACTN    H2  571   6.452   2.967   6.999
   10ACTN    H3  572   6.573   2.991   7.122
   11ACTN    H6  573   0.572   4.732   0.788
   11ACTN    C3  574   0.536   4.720   0.686
   11ACTN    H4  575   0.566   4.620   0.655
   11ACTN    H5  576   0.429   4.730   0.672
   11ACTN    C2  577   0.612   4.810   0.593
   11ACTN    O1  578   0.730   4.837   0.616
   11ACTN    C1  579   0.536   4.867   0.483
   11ACTN    H1  580   0.436   4.825   0.475
   11ACTN    H2  581   0.586   4.840   0.390
   11ACTN    H3  582   0.523   4.976   0.486
   12ACTN    H6  583   5.694   1.217   6.129
   12ACTN    C3  584   5.744   1.302   6.082
   12ACTN    H4  585   5.788   1.265   5.990
   12ACTN    H5  586   5.663   1.373   6.068
   12ACTN    C2  587   5.857   1.363   6.158
   12ACTN    O1  588   5.897   1.482   6.132
   12ACTN    C1  589   5.898   1.298   6.276
   12ACTN    H1  590   5.841   1.208   6.301
   12ACTN    H2  591   5.908   1.358   6.366
   12ACTN    H3  592   5.997   1.255   6.259
   13ACTN    H6  593   5.496   5.253   1.139
   13ACTN    C3  594   5.463   5.351   1.105
   13ACTN    H4  595   5.427   5.403   1.194
   13ACTN    H5  596   5.550   5.410   1.075
   13ACTN    C2  597   5.368   5.344   0.997
   13ACTN    O1  598   5.382   5.419   0.903
   13ACTN    C1  599   5.272   5.232   0.990
   13ACTN    H1  600   5.263   5.178   1.084
   13ACTN    H2  601   5.303   5.174   0.903
   13ACTN    H3  602   5.174   5.275   0.969
   14ACTN    H6  603   6.384   5.176   2.960
   14ACTN    C3  604   6.400   5.127   2.864
   14ACTN    H4  605   6.353   5.188   2.787
   14ACTN    H5  606   6.508   5.130   2.850
   14ACTN    C2  607   6.340   4.988   2.880
   14ACTN    O1  608   6.377   4.907   2.958
   14ACTN    C1  609   6.234   4.953   2.783
   14ACTN    H1  610   6.271   4.865   2.730
   14ACTN    H2  611   6.210   5.037   2.718
   14ACTN    H3  612   6.142   4.920   2.831
   15ACTN    H6  613   7.158   7.177   2.584
   15ACTN    C3  614   7.182   7.093   2.650
   15ACTN    H4  615   7.281   7.102   2.693
   15ACTN    H5  616   7.114   7.106   2.734
   15ACTN    C2  617   7.150   6.970   2.572
   15ACTN    O1  618   7.199   6.865   2.606
   15ACTN    C1  619   7.107   6.988   2.432
   15ACTN    H1  620   7.156   6.915   2.368
   15ACTN    H2  621   7.126   7.086   2.389
   15ACTN    H3  622   7.003   6.960   2.416
   16ACTN    H6  623   1.837   0.576   1.245
   16ACTN    C3  624   1.738   0.542   1.276
   16ACTN    H4  625   1.674   0.570   1.192
   16ACTN    H5  626   1.731   0.436   1.296
   16ACTN    C2  627   1.691   0.611   1.400
   16ACTN    O1  628   1.746   0.718   1.428
   16ACTN    C1  629   1.580   0.554   1.488
   16ACTN    H1  630   1.599   0.545   1.595
   16ACTN    H2  631   1.555   0.454   1.452
   16ACTN    H3  632   1.490   0.611   1.465
   17ACTN    H6  633   0.745   0.855   1.061
   17ACTN    C3  634   0.842   0.881   1.103
   17ACTN    H4  635   0.870   0.816   1.186
   17ACTN    H5  636   0.914   0.880   1.022
   17ACTN    C2  637   0.830   1.024   1.148
   17ACTN    O1  638   0.905   1.109   1.102
   17ACTN    C1  639   0.732   1.059   1.250
   17ACTN    H1  640   0.705   0.968   1.302
   17ACTN    H2  641   0.639   1.110   1.225
   17ACTN    H3  642   0.777   1.107   1.337
   18ACTN    H6  643   6.434   0.253   3.448
   18ACTN    C3  644   6.444   0.326   3.367
   18ACTN    H4  645   6.419   0.284   3.270
   18ACTN    H5  646   6.369   0.400   3.394
   18ACTN    C2  647   6.581   0.384   3.369
   18ACTN    O1  648   6.676   0.314   3.346
   18ACTN    C1  649   6.608   0.528   3.382
   18ACTN    H1  650   6.630   0.561   3.280
   18ACTN    H2  651   6.684   0.537   3.460
   18ACTN    H3  652   6.518   0.583   3.410
   19ACTN    H6  653   3.677   4.422   0.784
   19ACTN    C3  654   3.775   4.375   0.787
   19ACTN    H4  655   3.793   4.323   0.693
   19ACTN    H5  656   3.850   4.455   0.790
   19ACTN    C2  657   3.802   4.275   0.900
   19ACTN    O1  658   3.756   4.164   0.880
   19ACTN    C1  659   3.846   4.317   1.038
   19ACTN    H1  660   3.851   4.426   1.048
   19ACTN    H2  661   3.944   4.274   1.059
   19ACTN    H3  662   3.778   4.270   1.108
   20ACTN    H6  663   3.817   1.393   6.471
   20ACTN    C3  664   3.759   1.315   6.423
   20ACTN    H4  665   3.659   1.311   6.465
   20ACTN    H5  666   3.765   1.343   6.318
   20ACTN    C2  667   3.834   1.189   6.451
   20ACTN    O1  668   3.781   1.081   6.445
   20ACTN    C1  669   3.976   1.188   6.487
   20ACTN    H1  670   4.039   1.139   6.413
   20ACTN    H2  671   3.982   1.146   6.588
   20ACTN    H3  672   4.017   1.289   6.487
   21ACTN    H6  673   0.459   1.548   5.246
   21ACTN    C3  674   0.379   1.475   5.264
   21ACTN    H4  675   0.326   1.460   5.170
   21ACTN    H5  676   0.420   1.377   5.285
   21ACTN    C2  677   0.285   1.522   5.365
   21ACTN    O1  678   0.224   1.627   5.352
   21ACTN    C1  679   0.242   1.431   5.474
   21ACTN    H1  680   0.136   1.406   5.466
   21ACTN    H2  681   0.246   1.485   5.568
   21ACTN    H3  682   0.302   1.341   5.477
   22ACTN    H6  683   1.213   0.871   4.841
   22ACTN    C3  684   1.186   0.966   4.794
   22ACTN    H4  685   1.082   0.964   4.762
   22ACTN    H5  686   1.194   1.038   4.875
   22ACTN    C2  687   1.276   0.986   4.674
   22ACTN    O1  688   1.310   0.892   4.602
   22ACTN    C1  689   1.328   1.124   4.664
   22ACTN    H1  690   1.291   1.173   4.574
   22ACTN    H2  691   1.436   1.137   4.673
   22ACTN    H3  692   1.298   1.181   4.753
   23ACTN    H6  693   3.475   6.138   4.325
   23ACTN    C3  694   3.390   6.162   4.388
   23ACTN    H4  695   3.350   6.065   4.418
   23ACTN    H5  696   3.428   6.207   4.480
   23ACTN    C2  697   3.291   6.235   4.308
   23ACTN    O1  698   3.306   6.352   4.282
   23ACTN    C1  699   3.184   6.159   4.241
   23ACTN    H1  700   3.111   6.238   4.221
   23ACTN    H2  701   3.140   6.084   4.307
   23ACTN    H3  702   3.224   6.123   4.146
   24ACTN    H6  703   4.453   1.970   0.764
   24ACTN    C3  704   4.417   1.918   0.852
   24ACTN    H4  705   4.324   1.870   0.824
   24ACTN    H5  706   4.494   1.848   0.885
   24ACTN    C2  707   4.387   2.026   0.950
   24ACTN    O1  708   4.473   2.057   1.036
   24ACTN    C1  709   4.260   2.097   0.959
   24ACTN    H1  710   4.263   2.202   0.931
   24ACTN    H2  711   4.222   2.096   1.062
   24ACTN    H3  712   4.181   2.042   0.908
   25ACTN    H6  713   4.480   0.463   5.565
   25ACTN    C3  714   4.448   0.388   5.492
   25ACTN    H4  715   4.409   0.440   5.404
   25ACTN    H5  716   4.529   0.325   5.456
   25ACTN    C2  717   4.344   0.303   5.543
   25ACTN    O1  718   4.286   0.226   5.461
   25ACTN    C1  719   4.344   0.257   5.687
   25ACTN    H1  720   4.258   0.194   5.713
   25ACTN    H2  721   4.354   0.340   5.757
   25ACTN    H3  722   4.427   0.188   5.702
   26ACTN    H6  723   0.777   0.930   5.096
   26ACTN    C3  724   0.844   0.992   5.037
   26ACTN    H4  725   0.946   0.960   5.059
   26ACTN    H5  726   0.821   0.975   4.932
   26ACTN    C2  727   0.817   1.138   5.077
   26ACTN    O1  728   0.909   1.211   5.105
   26ACTN    C1  729   0.674   1.183   5.048
   26ACTN    H1  730   0.603   1.164   5.128
   26ACTN    H2  731   0.641   1.125   4.962
   26ACTN    H3  732   0.673   1.289   5.021
   27ACTN    H6  733   2.719   1.448   3.158
   27ACTN    C3  734   2.719   1.505   3.066
   27ACTN    H4  735   2.736   1.442   2.979
   27ACTN    H5  736   2.624   1.560   3.062
   27ACTN    C2  737   2.827   1.606   3.085
   27ACTN    O1  738   2.930   1.601   3.023
   27ACTN    C1  739   2.818   1.709   3.187
   27ACTN    H1  740   2.896   1.782   3.171
   27ACTN    H2  741   2.819   1.664   3.287
   27ACTN    H3  742   2.724   1.761   3.171
   28ACTN    H6  743   2.062   1.834   3.872
   28ACTN    C3  744   2.097   1.790   3.779
   28ACTN    H4  745   2.028   1.826   3.702
   28ACTN    H5  746   2.097   1.681   3.786
   28ACTN    C2  747   2.231   1.846   3.778
   28ACTN    O1  748   2.311   1.777   3.716
   28ACTN    C1  749   2.266   1.967   3.858
   28ACTN    H1  750   2.357   2.009   3.817
   28ACTN    H2  751   2.280   1.953   3.966
   28ACTN    H3  752   2.194   2.047   3.845
   29ACTN    H6  753   2.833   5.478   3.230
   29ACTN    C3  754   2.894   5.425   3.157
   29ACTN    H4  755   2.854   5.434   3.056
   29ACTN    H5  756   2.989   5.477   3.157
   29ACTN    C2  757   2.920   5.287   3.189
   29ACTN    O1  758   2.830   5.211   3.228
   29ACTN    C1  759   3.064   5.240   3.208
   29ACTN    H1  760   3.069   5.185   3.303
   29ACTN    H2  761   3.132   5.324   3.227
   29ACTN    H3  762   3.106   5.179   3.128
   30ACTN    H6  763   6.844   3.647   3.120
   30ACTN    C3  764   6.748   3.613   3.082
   30ACTN    H4  765   6.697   3.699   3.037
   30ACTN    H5  766   6.775   3.540   3.006
   30ACTN    C2  767   6.683   3.548   3.191
   30ACTN    O1  768   6.623   3.613   3.272
   30ACTN    C1  769   6.682   3.404   3.203
   30ACTN    H1  770   6.706   3.358   3.107
   30ACTN    H2  771   6.578   3.379   3.225
   30ACTN    H3  772   6.740   3.361   3.284
   31ACTN    H6  773   6.056   1.995   3.843
   31ACTN    C3  774   6.141   1.929   3.825
   31ACTN    H4  775   6.116   1.826   3.849
   31ACTN    H5  776   6.160   1.926   3.718
   31ACTN    C2  777   6.265   1.981   3.887
   31ACTN    O1  778   6.274   1.980   4.008
   31ACTN    C1  779   6.389   2.011   3.816
   31ACTN    H1  780   6.482   2.007   3.873
   31ACTN    H2  781   6.379   2.112   3.776
   31ACTN    H3  782   6.403   1.943   3.733
   32ACTN    H6  783   7.562   0.629   6.467
   32ACTN    C3  784   7.468   0.661   6.421
   32ACTN    H4  785   7.483   0.753   6.364
   32ACTN    H5  786   7.435   0.587   6.348
   32ACTN    C2  787   7.358   0.676   6.523
   32ACTN    O1  788   7.337   0.788   6.574
   32ACTN    C1  789   7.260   0.561   6.567
   32ACTN    H1  790   7.292   0.514   6.660
   32ACTN    H2  791   7.257   0.484   6.490
   32ACTN    H3  792   7.158   0.596   6.582
   33ACTN    H6  793   4.565   0.506   4.975
   33ACTN    C3  794   4.614   0.589   4.925
   33ACTN    H4  795   4.544   0.656   4.876
   33ACTN    H5  796   4.665   0.653   4.997
   33ACTN    C2  797   4.726   0.537   4.838
   33ACTN    O1  798   4.803   0.450   4.880
   33ACTN    C1  799   4.736   0.584   4.695
   33ACTN    H1  800   4.698   0.686   4.681
   33ACTN    H2  801   4.672   0.516   4.639
   33ACTN    H3  802   4.838   0.576   4.655
   34ACTN    H6  803   0.937   4.661   2.740
   34ACTN    C3  804   0.912   4.725   2.655
   34ACTN    H4  805   0.907   4.830   2.685
   34ACTN    H5  806   0.986   4.712   2.576
   34ACTN    C2  807   0.785   4.670   2.601
   34ACTN    O1  808   0.748   4.562   2.629
   34ACTN    C1  809   0.712   4.758   2.508
   34ACTN    H1  810   0.616   4.722   2.471
   34ACTN    H2  811   0.770   4.777   2.418
   34ACTN    H3  812   0.691   4.852   2.558
   35ACTN    H6  813   5.408   6.211   1.134
   35ACTN    C3  814   5.499   6.249   1.086
   35ACTN    H4  815   5.577   6.175   1.102
   35ACTN    H5  816   5.482   6.254   0.979
   35ACTN    C2  817   5.545   6.383   1.135
   35ACTN    O1  818   5.483   6.451   1.215
   35ACTN    C1  819   5.688   6.421   1.108
   35ACTN    H1  820   5.752   6.372   1.181
   35ACTN    H2  821   5.717   6.526   1.119
   35ACTN    H3  822   5.713   6.390   1.006
   36ACTN    H6  823   4.629   2.728   2.158
   36ACTN    C3  824   4.587   2.701   2.254
   36ACTN    H4  825   4.579   2.593   2.269
   36ACTN    H5  826   4.663   2.732   2.325
   36ACTN    C2  827   4.462   2.771   2.289
   36ACTN    O1  828   4.427   2.778   2.406
   36ACTN    C1  829   4.402   2.854   2.184
   36ACTN    H1  830   4.311   2.906   2.213
   36ACTN    H2  831   4.401   2.800   2.089
   36ACTN    H3  832   4.474   2.934   2.167
   37ACTN    H6  833   2.984   2.056   2.666
   37ACTN    C3  834   3.039   1.998   2.741
   37ACTN    H4  835   3.112   1.938   2.688
   37ACTN    H5  836   3.098   2.060   2.808
   37ACTN    C2  837   2.936   1.918   2.813
   37ACTN    O1  838   2.925   1.931   2.934
   37ACTN    C1  839   2.863   1.801   2.747
   37ACTN    H1  840   2.763   1.832   2.717
   37ACTN    H2  841   2.858   1.712   2.810
   37ACTN    H3  842   2.919   1.774   2.657
   38ACTN    H6  843   6.467   5.367   0.805
   38ACTN    C3  844   6.518   5.291   0.745
   38ACTN    H4  845   6.614   5.264   0.787
   38ACTN    H5  846   6.457   5.200   0.742
   38ACTN    C2  847   6.537   5.348   0.608
   38ACTN    O1  848   6.631   5.425   0.589
   38ACTN    C1  849   6.415   5.360   0.516
   38ACTN    H1  850   6.433   5.306   0.422
   38ACTN    H2  851   6.390   5.464   0.501
   38ACTN    H3  852   6.327   5.314   0.561
   39ACTN    H6  853   0.950   3.836   4.530
   39ACTN    C3  854   1.001   3.740   4.521
   39ACTN    H4  855   0.923   3.664   4.517
   39ACTN    H5  856   1.059   3.742   4.428
   39ACTN    C2  857   1.094   3.713   4.635
   39ACTN    O1  858   1.109   3.793   4.729
   39ACTN    C1  859   1.181   3.589   4.621
   39ACTN    H1  860   1.178   3.534   4.715
   39ACTN    H2  861   1.284   3.617   4.598
   39ACTN    H3  862   1.148   3.527   4.538
   40ACTN    H6  863   0.202   6.299   0.736
   40ACTN    C3  864   0.287   6.233   0.722
   40ACTN    H4  865   0.367   6.261   0.791
   40ACTN    H5  866   0.336   6.239   0.625
   40ACTN    C2  867   0.246   6.090   0.748
   40ACTN    O1  868   0.250   6.047   0.864
   40ACTN    C1  869   0.160   6.026   0.646
   40ACTN    H1  870   0.060   6.066   0.628
   40ACTN    H2  871   0.154   5.921   0.675
   40ACTN    H3  872   0.213   6.031   0.551
   41ACTN    H6  873   0.979   6.872   2.849
   41ACTN    C3  874   0.968   6.947   2.927
   41ACTN    H4  875   0.981   7.047   2.887
   41ACTN    H5  876   0.870   6.932   2.973
   41ACTN    C2  877   1.057   6.918   3.035
   41ACTN    O1  878   1.163   6.861   3.003
   41ACTN    C1  879   1.007   6.918   3.176
   41ACTN    H1  880   1.086   6.914   3.251
   41ACTN    H2  881   0.953   6.823   3.180
   41ACTN    H3  882   0.939   6.998   3.202
   42ACTN    H6  883   4.239   5.248   0.794
   42ACTN    C3  884   4.302   5.333   0.769
   42ACTN    H4  885   4.284   5.359   0.664
   42ACTN    H5  886   4.273   5.418   0.831
   42ACTN    C2  887   4.450   5.329   0.793
   42ACTN    O1  888   4.500   5.219   0.829
   42ACTN    C1  889   4.536   5.448   0.784
   42ACTN    H1  890   4.479   5.528   0.736
   42ACTN    H2  891   4.624   5.423   0.725
   42ACTN    H3  892   4.569   5.482   0.882
   43ACTN    H6  893   0.645   0.225   0.451
   43ACTN    C3  894   0.681   0.180   0.359
   43ACTN    H4  895   0.637   0.082   0.339
   43ACTN    H5  896   0.651   0.254   0.285
   43ACTN    C2  897   0.826   0.166   0.348
   43ACTN    O1  898   0.902   0.211   0.268
   43ACTN    C1  899   0.888   0.082   0.458
   43ACTN    H1  900   0.917  -0.015   0.418
   43ACTN    H2  901   0.820   0.080   0.543
   43ACTN    H3  902   0.981   0.129   0.488
   44ACTN    H6  903   1.119   0.535   5.555
   44ACTN    C3  904   1.040   0.480   5.606
   44ACTN    H4  905   1.042   0.378   5.565
   44ACTN    H5  906   1.066   0.489   5.711
   44ACTN    C2  907   0.913   0.549   5.580
   44ACTN    O1  908   0.879   0.656   5.624
   44ACTN    C1  909   0.809   0.461   5.515
   44ACTN    H1  910   0.838   0.446   5.411
   44ACTN    H2  911   0.707   0.497   5.505
   44ACTN    H3  912   0.800   0.362   5.558
   45ACTN    H6  913   5.814   1.259   4.612
   45ACTN    C3  914   5.850   1.357   4.642
   45ACTN    H4  915   5.822   1.390   4.742
   45ACTN    H5  916   5.807   1.428   4.571
   45ACTN    C2  917   6.000   1.370   4.628
   45ACTN    O1  918   6.070   1.362   4.730
   45ACTN    C1  919   6.044   1.379   4.479
   45ACTN    H1  920   6.032   1.483   4.448
   45ACTN    H2  921   5.969   1.320   4.428
   45ACTN    H3  922   6.146   1.341   4.467
   46ACTN    H6  923   6.007   2.156   6.089
   46ACTN    C3  924   5.902   2.126   6.079
   46ACTN    H4  925   5.890   2.062   5.992
   46ACTN    H5  926   5.876   2.059   6.160
   46ACTN    C2  927   5.807   2.242   6.066
   46ACTN    O1  928   5.773   2.282   5.954
   46ACTN    C1  929   5.732   2.294   6.183
   46ACTN    H1  930   5.659   2.224   6.223
   46ACTN    H2  931   5.673   2.384   6.164
   46ACTN    H3  932   5.803   2.324   6.261
   47ACTN    H6  933   2.262   2.099   5.249
   47ACTN    C3  934   2.329   2.050   5.180
   47ACTN    H4  935   2.312   2.095   5.082
   47ACTN    H5  936   2.424   2.084   5.221
   47ACTN    C2  937   2.324   1.906   5.185
   47ACTN    O1  938   2.413   1.839   5.240
   47ACTN    C1  939   2.200   1.834   5.146
   47ACTN    H1  940   2.135   1.894   5.081
   47ACTN    H2  941   2.158   1.793   5.238
   47ACTN    H3  942   2.222   1.752   5.078
   48ACTN    H6  943   3.191   3.772   7.340
   48ACTN    C3  944   3.295   3.743   7.322
   48ACTN    H4  945   3.333   3.696   7.412
   48ACTN    H5  946   3.289   3.669   7.242
   48ACTN    C2  947   3.378   3.858   7.270
   48ACTN    O1  948   3.478   3.880   7.332
   48ACTN    C1  949   3.323   3.963   7.171
   48ACTN    H1  950   3.357   3.948   7.068
   48ACTN    H2  951   3.356   4.061   7.205
   48ACTN    H3  952   3.215   3.959   7.180
   49ACTN    H6  953   1.719   6.671   4.629
   49ACTN    C3  954   1.690   6.656   4.733
   49ACTN    H4  955   1.707   6.550   4.749
   49ACTN    H5  956   1.753   6.725   4.789
   49ACTN    C2  957   1.542   6.678   4.756
   49ACTN    O1  958   1.459   6.592   4.780
   49ACTN    C1  959   1.500   6.820   4.733
   49ACTN    H1  960   1.398   6.833   4.768
   49ACTN    H2  961   1.500   6.849   4.628
   49ACTN    H3  962   1.557   6.896   4.787
   50ACTN    H6  963   6.719   7.238   4.206
   50ACTN    C3  964   6.743   7.311   4.129
   50ACTN    H4  965   6.688   7.280   4.040
   50ACTN    H5  966   6.708   7.408   4.164
   50ACTN    C2  967   6.886   7.311   4.094
   50ACTN    O1  968   6.954   7.407   4.131
   50ACTN    C1  969   6.959   7.206   4.019
   50ACTN    H1  970   6.982   7.118   4.080
   50ACTN    H2  971   7.058   7.231   3.982
   50ACTN    H3  972   6.899   7.170   3.935
   51ACTN    H6  973   2.847   2.207   4.947
   51ACTN    C3  974   2.773   2.178   4.874
   51ACTN    H4  975   2.679   2.219   4.912
   51ACTN    H5  976   2.788   2.232   4.781
   51ACTN    C2  977   2.781   2.029   4.861
   51ACTN    O1  978   2.880   1.969   4.830
   51ACTN    C1  979   2.654   1.955   4.877
   51ACTN    H1  980   2.609   1.990   4.970
   51ACTN    H2  981   2.678   1.849   4.885
   51ACTN    H3  982   2.582   1.956   4.795
   52ACTN    H6  983   1.294   5.517   2.994
   52ACTN    C3  984   1.348   5.437   2.944
   52ACTN    H4  985   1.386   5.359   3.010
   52ACTN    H5  986   1.274   5.396   2.875
   52ACTN    C2  987   1.471   5.487   2.873
   52ACTN    O1  988   1.569   5.417   2.848
   52ACTN    C1  989   1.451   5.620   2.804
   52ACTN    H1  990   1.347   5.652   2.799
   52ACTN    H2  991   1.489   5.608   2.702
   52ACTN    H3  992   1.500   5.703   2.854
   53ACTN    H6  993   2.826   6.770   6.026
   53ACTN    C3  994   2.883   6.718   5.949
   53ACTN    H4  995   2.991   6.730   5.954
   53ACTN    H5  996   2.868   6.613   5.975
   53ACTN    C2  997   2.814   6.722   5.815
   53ACTN    O1  998   2.875   6.703   5.713
   53ACTN    C1  999   2.668   6.719   5.828
   53ACTN    H1 1000   2.628   6.737   5.927
   53ACTN    H2 1001   2.651   6.612   5.816
   53ACTN    H3 1002   2.615   6.774   5.751
   54ACTN    H6 1003   0.904   7.039   2.081
   54ACTN    C3 1004   0.930   6.960   2.011
   54ACTN    H4 1005   0.835   6.919   1.975
   54ACTN    H5 1006   0.978   7.005   1.923
   54ACTN    C2 1007   1.011   6.846   2.063
   54ACTN    O1 1008   1.076   6.768   1.991
   54ACTN    C1 1009   1.031   6.841   2.209
   54ACTN    H1 1010   0.992   6.935   2.248
   54ACTN    H2 1011   1.137   6.828   2.231
   54ACTN    H3 1012   0.968   6.760   2.245
   55ACTN    H6 1013   1.912   1.743   6.150
   55ACTN    C3 1014   1.896   1.699   6.051
   55ACTN    H4 1015   1.967   1.733   5.975
   55ACTN    H5 1016   1.922   1.594   6.066
   55ACTN    C2 1017   1.754   1.729   6.003
   55ACTN    O1 1018   1.684   1.654   5.931
   55ACTN    C1 1019   1.697   1.857   6.057
   55ACTN    H1 1020   1.768   1.904   6.124
   55ACTN    H2 1021   1.604   1.840   6.112
   55ACTN    H3 1022   1.674   1.924   5.974
   56ACTN    H6 1023   6.326   2.849   1.647
   56ACTN    C3 1024   6.362   2.890   1.741
   56ACTN    H4 1025   6.395   2.811   1.808
   56ACTN    H5 1026   6.458   2.939   1.720
   56ACTN    C2 1027   6.265   2.977   1.808
   56ACTN    O1 1028   6.211   2.939   1.913
   56ACTN    C1 1029   6.244   3.126   1.764
   56ACTN    H1 1030   6.328   3.187   1.796
   56ACTN    H2 1031   6.157   3.164   1.818
   56ACTN    H3 1032   6.229   3.133   1.656
   57ACTN    H6 1033   6.975   1.273   3.571
   57ACTN    C3 1034   6.890   1.335   3.546
   57ACTN    H4 1035   6.825   1.337   3.633
   57ACTN    H5 1036   6.928   1.437   3.536
   57ACTN    C2 1037   6.812   1.303   3.420
   57ACTN    O1 1038   6.856   1.205   3.358
   57ACTN    C1 1039   6.692   1.378   3.379
   57ACTN    H1 1040   6.705   1.482   3.409
   57ACTN    H2 1041   6.599   1.340   3.423
   57ACTN    H3 1042   6.680   1.389   3.271
   58ACTN    H6 1043   2.791   0.972   0.497
   58ACTN    C3 1044   2.714   0.959   0.420
   58ACTN    H4 1045   2.768   0.928   0.330
   58ACTN    H5 1046   2.662   1.053   0.407
   58ACTN    C2 1047   2.611   0.856   0.458
   58ACTN    O1 1048   2.514   0.839   0.384
   58ACTN    C1 1049   2.628   0.782   0.589
   58ACTN    H1 1050   2.729   0.742   0.587
   58ACTN    H2 1051   2.559   0.698   0.602
   58ACTN    H3 1052   2.617   0.856   0.669
   59ACTN    H6 1053   4.128   4.551   6.985
   59ACTN    C3 1054   4.179   4.491   6.910
   59ACTN    H4 1055   4.285   4.516   6.909
   59ACTN    H5 1056   4.174   4.383   6.922
   59ACTN    C2 1057   4.118   4.535   6.786
   59ACTN    O1 1058   4.024   4.473   6.737
   59ACTN    C1 1059   4.153   4.662   6.716
   59ACTN    H1 1060   4.090   4.668   6.627
   59ACTN    H2 1061   4.258   4.679   6.690
   59ACTN    H3 1062   4.130   4.748   6.780
   60ACTN    H6 1063   0.430   2.250   4.900
   60ACTN    C3 1064   0.370   2.303   4.827
   60ACTN    H4 1065   0.291   2.352   4.883
   60ACTN    H5 1066   0.431   2.384   4.787
   60ACTN    C2 1067   0.309   2.223   4.724
   60ACTN    O1 1068   0.269   2.280   4.623
   60ACTN    C1 1069   0.268   2.087   4.763
   60ACTN    H1 1070   0.202   2.101   4.849
   60ACTN    H2 1071   0.356   2.027   4.785
   60ACTN    H3 1072   0.217   2.030   4.686
   61ACTN    H6 1073   1.527   1.326   5.319
   61ACTN    C3 1074   1.541   1.218   5.315
   61ACTN    H4 1075   1.609   1.187   5.394
   61ACTN    H5 1076   1.592   1.204   5.220
   61ACTN    C2 1077   1.403   1.154   5.327
   61ACTN    O1 1078   1.342   1.165   5.435
   61ACTN    C1 1079   1.340   1.077   5.211
   61ACTN    H1 1080   1.247   1.125   5.180
   61ACTN    H2 1081   1.315   0.976   5.242
   61ACTN    H3 1082   1.413   1.069   5.130
   62ACTN    H6 1083   1.454   6.229   2.777
   62ACTN    C3 1084   1.470   6.150   2.705
   62ACTN    H4 1085   1.494   6.192   2.607
   62ACTN    H5 1086   1.555   6.091   2.738
   62ACTN    C2 1087   1.356   6.062   2.709
   62ACTN    O1 1088   1.350   5.963   2.637
   62ACTN    C1 1089   1.251   6.086   2.813
   62ACTN    H1 1090   1.238   5.999   2.877
   62ACTN    H2 1091   1.159   6.117   2.764
   62ACTN    H3 1092   1.273   6.169   2.881
   63ACTN    H6 1093   3.241   6.421   2.405
   63ACTN    C3 1094   3.316   6.493   2.372
   63ACTN    H4 1095   3.412   6.442   2.380
   63ACTN    H5 1096   3.291   6.509   2.267
   63ACTN    C2 1097   3.297   6.612   2.458
   63ACTN    O1 1098   3.357   6.622   2.565
   63ACTN    C1 1099   3.190   6.713   2.429
   63ACTN    H1 1100   3.231   6.787   2.360
   63ACTN    H2 1101   3.143   6.761   2.515
   63ACTN    H3 1102   3.109   6.671   2.371
   64ACTN    H6 1103   2.264   2.393   0.844
   64ACTN    C3 1104   2.202   2.404   0.933
   64ACTN    H4 1105   2.268   2.399   1.019
   64ACTN    H5 1106   2.151   2.500   0.942
   64ACTN    C2 1107   2.102   2.292   0.933
   64ACTN    O1 1108   2.138   2.177   0.967
   64ACTN    C1 1109   1.956   2.320   0.916
   64ACTN    H1 1110   1.924   2.384   0.998
   64ACTN    H2 1111   1.901   2.226   0.907
   64ACTN    H3 1112   1.932   2.371   0.822
   65ACTN    H6 1113   1.722   6.136   5.341
   65ACTN    C3 1114   1.811   6.196   5.358
   65ACTN    H4 1115   1.868   6.149   5.439
   65ACTN    H5 1116   1.878   6.191   5.272
   65ACTN    C2 1117   1.771   6.327   5.394
   65ACTN    O1 1118   1.654   6.365   5.399
   65ACTN    C1 1119   1.868   6.429   5.432
   65ACTN    H1 1120   1.899   6.464   5.334
   65ACTN    H2 1121   1.950   6.397   5.497
   65ACTN    H3 1122   1.823   6.506   5.495
   66ACTN    H6 1123   3.505   3.853   3.773
   66ACTN    C3 1124   3.612   3.857   3.793
   66ACTN    H4 1125   3.627   3.959   3.826
   66ACTN    H5 1126   3.633   3.787   3.874
   66ACTN    C2 1127   3.689   3.833   3.664
   66ACTN    O1 1128   3.688   3.914   3.567
   66ACTN    C1 1129   3.785   3.719   3.648
   66ACTN    H1 1130   3.739   3.649   3.578
   66ACTN    H2 1131   3.799   3.657   3.737
   66ACTN    H3 1132   3.883   3.753   3.616
   67ACTN    H6 1133   1.751   7.244   4.681
   67ACTN    C3 1134   1.787   7.159   4.622
   67ACTN    H4 1135   1.699   7.101   4.594
   67ACTN    H5 1136   1.835   7.201   4.533
   67ACTN    C2 1137   1.876   7.059   4.689
   67ACTN    O1 1138   1.925   6.968   4.628
   67ACTN    C1 1139   1.889   7.070   4.839
   67ACTN    H1 1140   1.840   6.988   4.890
   67ACTN    H2 1141   1.845   7.160   4.882
   67ACTN    H3 1142   1.994   7.067   4.866
   68ACTN    H6 1143   6.095   2.594   0.869
   68ACTN    C3 1144   6.077   2.698   0.843
   68ACTN    H4 1145   6.047   2.704   0.738
   68ACTN    H5 1146   6.000   2.743   0.906
   68ACTN    C2 1147   6.201   2.792   0.857
   68ACTN    O1 1148   6.256   2.842   0.760
   68ACTN    C1 1149   6.253   2.805   0.999
   68ACTN    H1 1150   6.206   2.730   1.062
   68ACTN    H2 1151   6.222   2.904   1.035
   68ACTN    H3 1152   6.361   2.806   1.008
   69ACTN    H6 1153   2.973   3.475   4.069
   69ACTN    C3 1154   3.064   3.523   4.033
   69ACTN    H4 1155   3.143   3.522   4.108
   69ACTN    H5 1156   3.100   3.453   3.958
   69ACTN    C2 1157   3.040   3.658   3.979
   69ACTN    O1 1158   3.030   3.685   3.862
   69ACTN    C1 1159   3.006   3.768   4.075
   69ACTN    H1 1160   3.049   3.762   4.175
   69ACTN    H2 1161   2.898   3.775   4.085
   69ACTN    H3 1162   3.037   3.865   4.036
   70ACTN    H6 1163   5.477   2.890   6.274
   70ACTN    C3 1164   5.567   2.842   6.238
   70ACTN    H4 1165   5.643   2.886   6.303
   70ACTN    H5 1166   5.587   2.861   6.132
   70ACTN    C2 1167   5.555   2.693   6.255
   70ACTN    O1 1168   5.463   2.636   6.207
   70ACTN    C1 1169   5.650   2.624   6.353
   70ACTN    H1 1170   5.585   2.577   6.426
   70ACTN    H2 1171   5.702   2.697   6.415
   70ACTN    H3 1172   5.722   2.554   6.310
   71ACTN    H6 1173   4.029   1.190   1.476
   71ACTN    C3 1174   3.939   1.232   1.431
   71ACTN    H4 1175   3.955   1.236   1.323
   71ACTN    H5 1176   3.861   1.158   1.450
   71ACTN    C2 1177   3.907   1.363   1.489
   71ACTN    O1 1178   3.806   1.373   1.559
   71ACTN    C1 1179   3.994   1.484   1.453
   71ACTN    H1 1180   3.947   1.523   1.363
   71ACTN    H2 1181   4.099   1.460   1.433
   71ACTN    H3 1182   3.982   1.565   1.526
   72ACTN    H6 1183   6.697   4.279   6.106
   72ACTN    C3 1184   6.624   4.199   6.114
   72ACTN    H4 1185   6.639   4.140   6.023
   72ACTN    H5 1186   6.640   4.142   6.205
   72ACTN    C2 1187   6.482   4.253   6.104
   72ACTN    O1 1188   6.455   4.345   6.026
   72ACTN    C1 1189   6.368   4.192   6.177
   72ACTN    H1 1190   6.274   4.221   6.131
   72ACTN    H2 1191   6.367   4.218   6.283
   72ACTN    H3 1192   6.374   4.084   6.168
   73ACTN    H6 1193   6.598   0.406   6.706
   73ACTN    C3 1194   6.625   0.373   6.806
   73ACTN    H4 1195   6.718   0.318   6.794
   73ACTN    H5 1196   6.653   0.463   6.862
   73ACTN    C2 1197   6.521   0.292   6.876
   73ACTN    O1 1198   6.403   0.301   6.837
   73ACTN    C1 1199   6.555   0.216   7.001
   73ACTN    H1 1200   6.464   0.201   7.060
   73ACTN    H2 1201   6.616   0.279   7.066
   73ACTN    H3 1202   6.610   0.124   6.982
   74ACTN    H6 1203   2.858   5.573   6.913
   74ACTN    C3 1204   2.893   5.604   7.011
   74ACTN    H4 1205   2.917   5.711   7.010
   74ACTN    H5 1206   2.804   5.595   7.074
   74ACTN    C2 1207   3.006   5.513   7.051
   74ACTN    O1 1208   2.993   5.417   7.125
   74ACTN    C1 1209   3.121   5.495   6.956
   74ACTN    H1 1210   3.122   5.560   6.868
   74ACTN    H2 1211   3.119   5.393   6.915
   74ACTN    H3 1212   3.217   5.507   7.006
   75ACTN    H6 1213   6.829   6.583   4.011
   75ACTN    C3 1214   6.875   6.664   3.955
   75ACTN    H4 1215   6.814   6.754   3.961
   75ACTN    H5 1216   6.972   6.686   4.000
   75ACTN    C2 1217   6.883   6.641   3.808
   75ACTN    O1 1218   6.983   6.591   3.768
   75ACTN    C1 1219   6.772   6.668   3.717
   75ACTN    H1 1220   6.805   6.635   3.618
   75ACTN    H2 1221   6.738   6.771   3.706
   75ACTN    H3 1222   6.684   6.613   3.749
   76ACTN    H6 1223   2.004   5.938   6.841
   76ACTN    C3 1224   2.058   5.920   6.933
   76ACTN    H4 1225   2.089   6.015   6.976
   76ACTN    H5 1226   1.989   5.877   7.006
   76ACTN    C2 1227   2.186   5.832   6.917
   76ACTN    O1 1228   2.298   5.868   6.941
   76ACTN    C1 1229   2.172   5.697   6.850
   76ACTN    H1 1230   2.072   5.658   6.870
   76ACTN    H2 1231   2.243   5.635   6.905
   76ACTN    H3 1232   2.200   5.705   6.745
   77ACTN    H6 1233   6.544  -0.115   4.518
   77ACTN    C3 1234   6.647  -0.110   4.555
   77ACTN    H4 1235   6.655  -0.175   4.642
   77ACTN    H5 1236   6.722  -0.144   4.484
   77ACTN    C2 1237   6.667   0.035   4.589
   77ACTN    O1 1238   6.622   0.119   4.511
   77ACTN    C1 1239   6.710   0.091   4.719
   77ACTN    H1 1240   6.640   0.165   4.759
   77ACTN    H2 1241   6.806   0.136   4.695
   77ACTN    H3 1242   6.722   0.014   4.795
   78ACTN    H6 1243  -0.050   6.793   3.096
   78ACTN    C3 1244  -0.004   6.803   3.194
   78ACTN    H4 1245  -0.011   6.906   3.230
   78ACTN    H5 1246  -0.060   6.738   3.261
   78ACTN    C2 1247   0.136   6.770   3.174
   78ACTN    O1 1248   0.203   6.848   3.111
   78ACTN    C1 1249   0.203   6.671   3.257
   78ACTN    H1 1250   0.131   6.616   3.318
   78ACTN    H2 1251   0.277   6.726   3.315
   78ACTN    H3 1252   0.262   6.596   3.204
   79ACTN    H6 1253   6.755   1.537   6.627
   79ACTN    C3 1254   6.843   1.557   6.688
   79ACTN    H4 1255   6.851   1.479   6.763
   79ACTN    H5 1256   6.926   1.547   6.619
   79ACTN    C2 1257   6.843   1.693   6.746
   79ACTN    O1 1258   6.934   1.741   6.808
   79ACTN    C1 1259   6.708   1.758   6.738
   79ACTN    H1 1260   6.639   1.682   6.773
   79ACTN    H2 1261   6.684   1.786   6.635
   79ACTN    H3 1262   6.703   1.844   6.805
   80ACTN    H6 1263   3.030   5.652   4.217
   80ACTN    C3 1264   3.076   5.621   4.123
   80ACTN    H4 1265   3.143   5.539   4.148
   80ACTN    H5 1266   2.998   5.585   4.055
   80ACTN    C2 1267   3.152   5.724   4.056
   80ACTN    O1 1268   3.204   5.706   3.950
   80ACTN    C1 1269   3.145   5.867   4.097
   80ACTN    H1 1270   3.093   5.884   4.192
   80ACTN    H2 1271   3.090   5.925   4.023
   80ACTN    H3 1272   3.245   5.910   4.105
   81ACTN    H6 1273   1.153   6.556   2.382
   81ACTN    C3 1274   1.191   6.602   2.474
   81ACTN    H4 1275   1.282   6.550   2.505
   81ACTN    H5 1276   1.223   6.701   2.442
   81ACTN    C2 1277   1.097   6.603   2.588
   81ACTN    O1 1278   1.036   6.705   2.606
   81ACTN    C1 1279   1.061   6.471   2.655
   81ACTN    H1 1280   1.011   6.412   2.577
   81ACTN    H2 1281   0.985   6.499   2.728
   81ACTN    H3 1282   1.152   6.437   2.703
   82ACTN    H6 1283   7.252   5.995   5.673
   82ACTN    C3 1284   7.328   5.977   5.749
   82ACTN    H4 1285   7.294   5.892   5.808
   82ACTN    H5 1286   7.418   5.956   5.690
   82ACTN    C2 1287   7.339   6.092   5.842
   82ACTN    O1 1288   7.263   6.188   5.832
   82ACTN    C1 1289   7.450   6.079   5.947
   82ACTN    H1 1290   7.544   6.093   5.893
   82ACTN    H2 1291   7.451   5.979   5.990
   82ACTN    H3 1292   7.439   6.149   6.030
   83ACTN    H6 1293   3.037   3.176   5.156
   83ACTN    C3 1294   2.994   3.078   5.133
   83ACTN    H4 1295   3.008   3.070   5.025
   83ACTN    H5 1296   3.060   3.004   5.177
   83ACTN    C2 1297   2.846   3.065   5.165
   83ACTN    O1 1298   2.769   3.141   5.103
   83ACTN    C1 1299   2.809   3.019   5.306
   83ACTN    H1 1300   2.801   3.101   5.377
   83ACTN    H2 1301   2.883   2.947   5.341
   83ACTN    H3 1302   2.717   2.962   5.297
   84ACTN    H6 1303   6.035   4.462   1.351
   84ACTN    C3 1304   5.972   4.401   1.416
   84ACTN    H4 1305   5.870   4.426   1.385
   84ACTN    H5 1306   5.998   4.302   1.381
   84ACTN    C2 1307   5.993   4.432   1.564
   84ACTN    O1 1308   6.017   4.344   1.641
   84ACTN    C1 1309   5.972   4.573   1.613
   84ACTN    H1 1310   5.932   4.575   1.714
   84ACTN    H2 1311   5.910   4.639   1.552
   84ACTN    H3 1312   6.070   4.620   1.623
   85ACTN    H6 1313   2.807   6.969   4.488
   85ACTN    C3 1314   2.808   6.894   4.409
   85ACTN    H4 1315   2.825   6.943   4.313
   85ACTN    H5 1316   2.897   6.836   4.431
   85ACTN    C2 1317   2.683   6.805   4.418
   85ACTN    O1 1318   2.635   6.773   4.309
   85ACTN    C1 1319   2.620   6.780   4.549
   85ACTN    H1 1320   2.653   6.860   4.616
   85ACTN    H2 1321   2.647   6.682   4.589
   85ACTN    H3 1322   2.513   6.782   4.528
   86ACTN    H6 1323   1.242   5.437   4.368
   86ACTN    C3 1324   1.303   5.403   4.284
   86ACTN    H4 1325   1.404   5.382   4.319
   86ACTN    H5 1326   1.252   5.318   4.239
   86ACTN    C2 1327   1.307   5.512   4.188
   86ACTN    O1 1328   1.199   5.539   4.127
   86ACTN    C1 1329   1.430   5.587   4.171
   86ACTN    H1 1330   1.478   5.597   4.269
   86ACTN    H2 1331   1.411   5.685   4.126
   86ACTN    H3 1332   1.498   5.542   4.099
   87ACTN    H6 1333   4.729   2.114   6.400
   87ACTN    C3 1334   4.782   2.019   6.404
   87ACTN    H4 1335   4.711   1.937   6.412
   87ACTN    H5 1336   4.835   1.998   6.311
   87ACTN    C2 1337   4.878   2.009   6.514
   87ACTN    O1 1338   4.860   1.928   6.605
   87ACTN    C1 1339   4.998   2.097   6.519
   87ACTN    H1 1340   5.045   2.095   6.617
   87ACTN    H2 1341   4.968   2.200   6.496
   87ACTN    H3 1342   5.073   2.074   6.443
   88ACTN    H6 1343   4.174   1.529   5.079
   88ACTN    C3 1344   4.115   1.607   5.031
   88ACTN    H4 1345   4.066   1.560   4.946
   88ACTN    H5 1346   4.044   1.644   5.105
   88ACTN    C2 1347   4.204   1.719   4.993
   88ACTN    O1 1348   4.213   1.748   4.875
   88ACTN    C1 1349   4.283   1.793   5.092
   88ACTN    H1 1350   4.386   1.758   5.088
   88ACTN    H2 1351   4.245   1.763   5.189
   88ACTN    H3 1352   4.277   1.901   5.078
   89ACTN    H6 1353   1.092   2.408   2.125
   89ACTN    C3 1354   1.009   2.352   2.167
   89ACTN    H4 1355   1.009   2.252   2.125
   89ACTN    H5 1356   1.016   2.347   2.276
   89ACTN    C2 1357   0.882   2.420   2.124
   89ACTN    O1 1358   0.838   2.506   2.199
   89ACTN    C1 1359   0.831   2.409   1.980
   89ACTN    H1 1360   0.905   2.398   1.900
   89ACTN    H2 1361   0.761   2.488   1.952
   89ACTN    H3 1362   0.777   2.315   1.973
   90ACTN    H6 1363   2.568   6.622   2.963
   90ACTN    C3 1364   2.525   6.648   2.867
   90ACTN    H4 1365   2.606   6.643   2.794
   90ACTN    H5 1366   2.453   6.571   2.841
   90ACTN    C2 1367   2.453   6.781   2.858
   90ACTN    O1 1368   2.503   6.875   2.915
   90ACTN    C1 1369   2.317   6.785   2.792
   90ACTN    H1 1370   2.270   6.883   2.803
   90ACTN    H2 1371   2.249   6.713   2.838
   90ACTN    H3 1372   2.318   6.765   2.685
   91ACTN    H6 1373   1.221   0.848   7.200
   91ACTN    C3 1374   1.154   0.763   7.207
   91ACTN    H4 1375   1.071   0.805   7.151
   91ACTN    H5 1376   1.202   0.684   7.150
   91ACTN    C2 1377   1.127   0.729   7.346
   91ACTN    O1 1378   1.224   0.716   7.417
   91ACTN    C1 1379   0.996   0.704   7.393
   91ACTN    H1 1380   0.953   0.782   7.455
   91ACTN    H2 1381   1.012   0.613   7.450
   91ACTN    H3 1382   0.929   0.675   7.312
   92ACTN    H6 1383   1.915   5.129   1.678
   92ACTN    C3 1384   1.823   5.134   1.621
   92ACTN    H4 1385   1.846   5.147   1.515
   92ACTN    H5 1386   1.782   5.036   1.647
   92ACTN    C2 1387   1.746   5.257   1.667
   92ACTN    O1 1388   1.757   5.301   1.775
   92ACTN    C1 1389   1.624   5.284   1.584
   92ACTN    H1 1390   1.614   5.392   1.576
   92ACTN    H2 1391   1.538   5.249   1.641
   92ACTN    H3 1392   1.615   5.236   1.486
   93ACTN    H6 1393   3.618   4.119   1.129
   93ACTN    C3 1394   3.528   4.075   1.087
   93ACTN    H4 1395   3.500   4.139   1.004
   93ACTN    H5 1396   3.454   4.083   1.166
   93ACTN    C2 1397   3.553   3.930   1.047
   93ACTN    O1 1398   3.665   3.878   1.065
   93ACTN    C1 1399   3.444   3.848   0.989
   93ACTN    H1 1400   3.401   3.904   0.905
   93ACTN    H2 1401   3.368   3.825   1.064
   93ACTN    H3 1402   3.478   3.754   0.947
   94ACTN    H6 1403   1.194   6.896   2.658
   94ACTN    C3 1404   1.251   6.986   2.637
   94ACTN    H4 1405   1.287   7.035   2.728
   94ACTN    H5 1406   1.338   6.942   2.588
   94ACTN    C2 1407   1.158   7.065   2.544
   94ACTN    O1 1408   1.206   7.135   2.454
   94ACTN    C1 1409   1.006   7.056   2.565
   94ACTN    H1 1410   0.966   6.974   2.624
   94ACTN    H2 1411   0.960   7.070   2.467
   94ACTN    H3 1412   0.971   7.151   2.606
   95ACTN    H6 1413   4.916   4.926   1.911
   95ACTN    C3 1414   4.994   4.874   1.967
   95ACTN    H4 1415   4.952   4.794   2.028
   95ACTN    H5 1416   5.064   4.829   1.896
   95ACTN    C2 1417   5.064   4.969   2.061
   95ACTN    O1 1418   5.015   4.989   2.168
   95ACTN    C1 1419   5.205   5.012   2.022
   95ACTN    H1 1420   5.204   5.031   1.915
   95ACTN    H2 1421   5.269   4.929   2.051
   95ACTN    H3 1422   5.234   5.104   2.073
   96ACTN    H6 1423   6.265   4.809   5.116
   96ACTN    C3 1424   6.188   4.802   5.193
   96ACTN    H4 1425   6.108   4.739   5.153
   96ACTN    H5 1426   6.232   4.748   5.277
   96ACTN    C2 1427   6.141   4.943   5.223
   96ACTN    O1 1428   6.169   5.031   5.140
   96ACTN    C1 1429   6.071   4.973   5.357
   96ACTN    H1 1430   5.978   5.027   5.339
   96ACTN    H2 1431   6.136   5.042   5.410
   96ACTN    H3 1432   6.058   4.884   5.419
   97ACTN    H6 1433   0.988   7.280   1.945
   97ACTN    C3 1434   1.080   7.266   1.888
   97ACTN    H4 1435   1.104   7.363   1.844
   97ACTN    H5 1436   1.168   7.249   1.951
   97ACTN    C2 1437   1.079   7.165   1.780
   97ACTN    O1 1438   1.001   7.177   1.689
   97ACTN    C1 1439   1.185   7.061   1.764
   97ACTN    H1 1440   1.245   7.051   1.854
   97ACTN    H2 1441   1.250   7.096   1.684
   97ACTN    H3 1442   1.138   6.965   1.740
   98ACTN    H6 1443   0.898   1.781   5.772
   98ACTN    C3 1444   0.916   1.829   5.868
   98ACTN    H4 1445   0.981   1.767   5.931
   98ACTN    H5 1446   0.963   1.923   5.839
   98ACTN    C2 1447   0.787   1.849   5.938
   98ACTN    O1 1448   0.772   1.814   6.055
   98ACTN    C1 1449   0.679   1.925   5.868
   98ACTN    H1 1450   0.599   1.958   5.935
   98ACTN    H2 1451   0.629   1.862   5.794
   98ACTN    H3 1452   0.721   2.012   5.818
   99ACTN    H6 1453   2.897   6.041   4.917
   99ACTN    C3 1454   2.792   6.063   4.932
   99ACTN    H4 1455   2.757   6.024   5.028
   99ACTN    H5 1456   2.783   6.169   4.957
   99ACTN    C2 1457   2.706   6.027   4.817
   99ACTN    O1 1458   2.583   6.026   4.830
   99ACTN    C1 1459   2.760   5.982   4.683
   99ACTN    H1 1460   2.709   6.031   4.600
   99ACTN    H2 1461   2.756   5.874   4.671
   99ACTN    H3 1462   2.866   6.010   4.680
  100ACTN    H6 1463   0.024   5.357   5.407
  100ACTN    C3 1464   0.014   5.438   5.335
  100ACTN    H4 1465  -0.091   5.452   5.306
  100ACTN    H5 1466   0.026   5.534   5.384
  100ACTN    C2 1467   0.107   5.425   5.212
  100ACTN    O1 1468   0.073   5.389   5.101
  100ACTN    C1 1469   0.257   5.456   5.231
  100ACTN    H1 1470   0.316   5.379   5.181
  100ACTN    H2 1471   0.290   5.438   5.334
  100ACTN    H3 1472   0.289   5.556   5.202
  101ACTN    H6 1473   4.111   4.858   0.240
  101ACTN    C3 1474   4.023   4.794   0.233
  101ACTN    H4 1475   3.962   4.818   0.321
  101ACTN    H5 1476   3.967   4.819   0.143
  101ACTN    C2 1477   4.053   4.648   0.233
  101ACTN    O1 1478   4.142   4.603   0.162
  101ACTN    C1 1479   3.983   4.552   0.322
  101ACTN    H1 1480   4.003   4.446   0.310
  101ACTN    H2 1481   3.877   4.572   0.307
  101ACTN    H3 1482   4.000   4.574   0.427
  102ACTN    H6 1483   5.974   0.610   5.959
  102ACTN    C3 1484   6.039   0.530   5.925
  102ACTN    H4 1485   6.135   0.574   5.898
  102ACTN    H5 1486   6.062   0.461   6.006
  102ACTN    C2 1487   5.976   0.466   5.806
  102ACTN    O1 1488   5.974   0.526   5.697
  102ACTN    C1 1489   5.936   0.325   5.818
  102ACTN    H1 1490   6.019   0.256   5.812
  102ACTN    H2 1491   5.863   0.291   5.745
  102ACTN    H3 1492   5.892   0.311   5.917
  103ACTN    H6 1493   5.422   4.212   5.164
  103ACTN    C3 1494   5.410   4.147   5.077
  103ACTN    H4 1495   5.368   4.193   4.989
  103ACTN    H5 1496   5.507   4.100   5.058
  103ACTN    C2 1497   5.311   4.037   5.114
  103ACTN    O1 1498   5.265   4.012   5.229
  103ACTN    C1 1499   5.281   3.942   5.002
  103ACTN    H1 1500   5.365   3.886   4.963
  103ACTN    H2 1501   5.239   3.996   4.917
  103ACTN    H3 1502   5.211   3.865   5.034
  104ACTN    H6 1503   0.219   6.338   3.422
  104ACTN    C3 1504   0.297   6.269   3.455
  104ACTN    H4 1505   0.346   6.306   3.545
  104ACTN    H5 1506   0.255   6.171   3.478
  104ACTN    C2 1507   0.394   6.241   3.345
  104ACTN    O1 1508   0.400   6.322   3.251
  104ACTN    C1 1509   0.513   6.158   3.373
  104ACTN    H1 1510   0.596   6.169   3.303
  104ACTN    H2 1511   0.501   6.050   3.383
  104ACTN    H3 1512   0.547   6.201   3.467
  105ACTN    H6 1513   6.868   4.127   3.440
  105ACTN    C3 1514   6.868   4.064   3.351
  105ACTN    H4 1515   6.763   4.041   3.330
  105ACTN    H5 1516   6.910   4.130   3.276
  105ACTN    C2 1517   6.947   3.939   3.376
  105ACTN    O1 1518   7.067   3.961   3.380
  105ACTN    C1 1519   6.880   3.806   3.386
  105ACTN    H1 1520   6.773   3.822   3.372
  105ACTN    H2 1521   6.899   3.768   3.486
  105ACTN    H3 1522   6.920   3.731   3.318
  106ACTN    H6 1523   6.380   3.529   4.303
  106ACTN    C3 1524   6.357   3.463   4.386
  106ACTN    H4 1525   6.251   3.446   4.406
  106ACTN    H5 1526   6.404   3.367   4.363
  106ACTN    C2 1527   6.420   3.509   4.521
  106ACTN    O1 1528   6.538   3.523   4.543
  106ACTN    C1 1529   6.325   3.503   4.641
  106ACTN    H1 1530   6.301   3.606   4.667
  106ACTN    H2 1531   6.366   3.445   4.724
  106ACTN    H3 1532   6.230   3.461   4.610
  107ACTN    H6 1533   6.406   5.505   2.305
  107ACTN    C3 1534   6.401   5.437   2.220
  107ACTN    H4 1535   6.498   5.389   2.204
  107ACTN    H5 1536   6.325   5.364   2.246
  107ACTN    C2 1537   6.365   5.509   2.099
  107ACTN    O1 1538   6.258   5.574   2.106
  107ACTN    C1 1539   6.450   5.506   1.969
  107ACTN    H1 1540   6.555   5.507   1.998
  107ACTN    H2 1541   6.432   5.596   1.910
  107ACTN    H3 1542   6.418   5.413   1.921
  108ACTN    H6 1543   3.241   4.578   5.394
  108ACTN    C3 1544   3.301   4.517   5.327
  108ACTN    H4 1545   3.282   4.566   5.231
  108ACTN    H5 1546   3.406   4.508   5.354
  108ACTN    C2 1547   3.242   4.375   5.313
  108ACTN    O1 1548   3.233   4.303   5.410
  108ACTN    C1 1549   3.182   4.339   5.180
  108ACTN    H1 1550   3.074   4.354   5.189
  108ACTN    H2 1551   3.204   4.235   5.156
  108ACTN    H3 1552   3.219   4.393   5.093
  109ACTN    H6 1553   3.433   0.127   3.554
  109ACTN    C3 1554   3.400   0.032   3.594
  109ACTN    H4 1555   3.373  -0.030   3.508
  109ACTN    H5 1556   3.477  -0.017   3.654
  109ACTN    C2 1557   3.285   0.040   3.688
  109ACTN    O1 1558   3.180  -0.017   3.657
  109ACTN    C1 1559   3.305   0.135   3.797
  109ACTN    H1 1560   3.333   0.084   3.889
  109ACTN    H2 1561   3.215   0.190   3.820
  109ACTN    H3 1562   3.378   0.210   3.767
  110ACTN    H6 1563   7.130   0.452   3.775
  110ACTN    C3 1564   7.100   0.555   3.759
  110ACTN    H4 1565   7.012   0.558   3.695
  110ACTN    H5 1566   7.074   0.603   3.854
  110ACTN    C2 1567   7.212   0.636   3.700
  110ACTN    O1 1568   7.185   0.738   3.633
  110ACTN    C1 1569   7.342   0.647   3.766
  110ACTN    H1 1570   7.344   0.575   3.848
  110ACTN    H2 1571   7.374   0.745   3.801
  110ACTN    H3 1572   7.411   0.607   3.692
  111ACTN    H6 1573   7.005   2.813   6.350
  111ACTN    C3 1574   7.051   2.821   6.449
  111ACTN    H4 1575   7.088   2.924   6.455
  111ACTN    H5 1576   6.974   2.810   6.525
  111ACTN    C2 1577   7.151   2.711   6.450
  111ACTN    O1 1578   7.157   2.628   6.364
  111ACTN    C1 1579   7.230   2.691   6.583
  111ACTN    H1 1580   7.332   2.667   6.554
  111ACTN    H2 1581   7.190   2.609   6.641
  111ACTN    H3 1582   7.225   2.783   6.642
  112ACTN    H6 1583   5.130   4.174   3.517
  112ACTN    C3 1584   5.213   4.240   3.492
  112ACTN    H4 1585   5.225   4.215   3.387
  112ACTN    H5 1586   5.311   4.215   3.533
  112ACTN    C2 1587   5.191   4.382   3.508
  112ACTN    O1 1588   5.107   4.440   3.441
  112ACTN    C1 1589   5.270   4.467   3.602
  112ACTN    H1 1590   5.259   4.435   3.705
  112ACTN    H2 1591   5.229   4.567   3.592
  112ACTN    H3 1592   5.378   4.465   3.584
  113ACTN    H6 1593   5.226   4.838   3.675
  113ACTN    C3 1594   5.242   4.930   3.731
  113ACTN    H4 1595   5.337   4.976   3.704
  113ACTN    H5 1596   5.163   5.000   3.705
  113ACTN    C2 1597   5.243   4.906   3.879
  113ACTN    O1 1598   5.230   4.994   3.961
  113ACTN    C1 1599   5.242   4.758   3.922
  113ACTN    H1 1600   5.216   4.740   4.026
  113ACTN    H2 1601   5.338   4.711   3.897
  113ACTN    H3 1602   5.170   4.708   3.857
  114ACTN    H6 1603   5.893   1.960   5.588
  114ACTN    C3 1604   5.989   1.945   5.637
  114ACTN    H4 1605   6.015   2.045   5.672
  114ACTN    H5 1606   5.969   1.878   5.721
  114ACTN    C2 1607   6.086   1.883   5.539
  114ACTN    O1 1608   6.046   1.815   5.445
  114ACTN    C1 1609   6.233   1.907   5.574
  114ACTN    H1 1610   6.258   1.852   5.665
  114ACTN    H2 1611   6.263   2.009   5.596
  114ACTN    H3 1612   6.290   1.870   5.488
  115ACTN    H6 1613   5.388   5.528   4.029
  115ACTN    C3 1614   5.413   5.427   4.059
  115ACTN    H4 1615   5.331   5.359   4.037
  115ACTN    H5 1616   5.507   5.392   4.016
  115ACTN    C2 1617   5.427   5.425   4.205
  115ACTN    O1 1618   5.538   5.401   4.247
  115ACTN    C1 1619   5.311   5.452   4.287
  115ACTN    H1 1620   5.335   5.455   4.393
  115ACTN    H2 1621   5.231   5.382   4.264
  115ACTN    H3 1622   5.280   5.555   4.265
  116ACTN    H6 1623   6.872   1.162   5.345
  116ACTN    C3 1624   6.799   1.083   5.364
  116ACTN    H4 1625   6.793   1.015   5.279
  116ACTN    H5 1626   6.846   1.027   5.445
  116ACTN    C2 1627   6.662   1.134   5.410
  116ACTN    O1 1628   6.658   1.221   5.496
  116ACTN    C1 1629   6.548   1.111   5.319
  116ACTN    H1 1630   6.477   1.193   5.322
  116ACTN    H2 1631   6.492   1.019   5.336
  116ACTN    H3 1632   6.582   1.105   5.215
  117ACTN    H6 1633   6.391   5.325   7.520
  117ACTN    C3 1634   6.480   5.331   7.457
  117ACTN    H4 1635   6.506   5.434   7.432
  117ACTN    H5 1636   6.561   5.274   7.502
  117ACTN    C2 1637   6.436   5.257   7.331
  117ACTN    O1 1638   6.333   5.192   7.322
  117ACTN    C1 1639   6.518   5.258   7.206
  117ACTN    H1 1640   6.618   5.218   7.227
  117ACTN    H2 1641   6.526   5.364   7.180
  117ACTN    H3 1642   6.481   5.206   7.118
  118ACTN    H6 1643   2.125   1.977   2.704
  118ACTN    C3 1644   2.157   1.953   2.805
  118ACTN    H4 1645   2.256   1.907   2.797
  118ACTN    H5 1646   2.173   2.033   2.877
  118ACTN    C2 1647   2.066   1.850   2.864
  118ACTN    O1 1648   1.972   1.884   2.937
  118ACTN    C1 1649   2.106   1.715   2.867
  118ACTN    H1 1650   2.206   1.705   2.910
  118ACTN    H2 1651   2.107   1.684   2.762
  118ACTN    H3 1652   2.041   1.649   2.924
  119ACTN    H6 1653   4.558   2.229   1.434
  119ACTN    C3 1654   4.664   2.210   1.415
  119ACTN    H4 1655   4.694   2.124   1.475
  119ACTN    H5 1656   4.660   2.187   1.309
  119ACTN    C2 1657   4.737   2.339   1.442
  119ACTN    O1 1658   4.818   2.368   1.359
  119ACTN    C1 1659   4.681   2.453   1.519
  119ACTN    H1 1660   4.648   2.412   1.614
  119ACTN    H2 1661   4.592   2.497   1.473
  119ACTN    H3 1662   4.752   2.531   1.546
  120ACTN    H6 1663   6.712   6.264   5.408
  120ACTN    C3 1664   6.700   6.354   5.348
  120ACTN    H4 1665   6.605   6.397   5.381
  120ACTN    H5 1666   6.773   6.434   5.356
  120ACTN    C2 1667   6.692   6.315   5.204
  120ACTN    O1 1668   6.781   6.348   5.129
  120ACTN    C1 1669   6.589   6.214   5.161
  120ACTN    H1 1670   6.640   6.126   5.123
  120ACTN    H2 1671   6.536   6.260   5.077
  120ACTN    H3 1672   6.517   6.182   5.237
  121ACTN    H6 1673   4.987   0.229   4.464
  121ACTN    C3 1674   4.933   0.222   4.558
  121ACTN    H4 1675   4.872   0.310   4.577
  121ACTN    H5 1676   4.863   0.140   4.547
  121ACTN    C2 1677   5.029   0.213   4.667
  121ACTN    O1 1678   5.132   0.282   4.668
  121ACTN    C1 1679   4.999   0.135   4.786
  121ACTN    H1 1680   5.077   0.140   4.862
  121ACTN    H2 1681   4.973   0.035   4.753
  121ACTN    H3 1682   4.909   0.181   4.828
  122ACTN    H6 1683   2.117   6.389   4.867
  122ACTN    C3 1684   2.010   6.410   4.865
  122ACTN    H4 1685   1.983   6.438   4.763
  122ACTN    H5 1686   1.953   6.320   4.889
  122ACTN    C2 1687   1.982   6.517   4.961
  122ACTN    O1 1688   1.886   6.510   5.034
  122ACTN    C1 1689   2.047   6.652   4.962
  122ACTN    H1 1690   2.131   6.642   4.894
  122ACTN    H2 1691   2.077   6.691   5.059
  122ACTN    H3 1692   1.984   6.727   4.913
  123ACTN    H6 1693   0.514   2.275   3.875
  123ACTN    C3 1694   0.519   2.371   3.925
  123ACTN    H4 1695   0.494   2.452   3.856
  123ACTN    H5 1696   0.446   2.371   4.006
  123ACTN    C2 1697   0.659   2.387   3.965
  123ACTN    O1 1698   0.740   2.389   3.877
  123ACTN    C1 1699   0.700   2.381   4.110
  123ACTN    H1 1700   0.752   2.475   4.130
  123ACTN    H2 1701   0.772   2.302   4.135
  123ACTN    H3 1702   0.614   2.375   4.176
  124ACTN    H6 1703   4.919   5.720   2.777
  124ACTN    C3 1704   4.944   5.674   2.681
  124ACTN    H4 1705   5.051   5.663   2.663
  124ACTN    H5 1706   4.900   5.740   2.607
  124ACTN    C2 1707   4.878   5.549   2.668
  124ACTN    O1 1708   4.914   5.463   2.587
  124ACTN    C1 1709   4.792   5.511   2.779
  124ACTN    H1 1710   4.845   5.486   2.870
  124ACTN    H2 1711   4.741   5.419   2.748
  124ACTN    H3 1712   4.713   5.584   2.797
  125ACTN    H6 1713   3.488   6.078   0.199
  125ACTN    C3 1714   3.404   6.130   0.153
  125ACTN    H4 1715   3.410   6.137   0.044
  125ACTN    H5 1716   3.313   6.077   0.181
  125ACTN    C2 1717   3.393   6.268   0.202
  125ACTN    O1 1718   3.493   6.334   0.225
  125ACTN    C1 1719   3.259   6.325   0.215
  125ACTN    H1 1720   3.250   6.432   0.236
  125ACTN    H2 1721   3.209   6.284   0.303
  125ACTN    H3 1722   3.196   6.298   0.131
  126ACTN    H6 1723   2.535   5.923   2.132
  126ACTN    C3 1724   2.518   5.902   2.237
  126ACTN    H4 1725   2.612   5.917   2.291
  126ACTN    H5 1726   2.444   5.973   2.274
  126ACTN    C2 1727   2.470   5.760   2.251
  126ACTN    O1 1728   2.369   5.726   2.197
  126ACTN    C1 1729   2.545   5.665   2.335
  126ACTN    H1 1730   2.560   5.570   2.282
  126ACTN    H2 1731   2.490   5.647   2.427
  126ACTN    H3 1732   2.646   5.697   2.360
  127ACTN    H6 1733   7.402   5.978   2.037
  127ACTN    C3 1734   7.302   5.976   1.993
  127ACTN    H4 1735   7.279   5.878   1.953
  127ACTN    H5 1736   7.234   6.009   2.071
  127ACTN    C2 1737   7.291   6.071   1.878
  127ACTN    O1 1738   7.394   6.134   1.849
  127ACTN    C1 1739   7.160   6.075   1.817
  127ACTN    H1 1740   7.118   5.975   1.816
  127ACTN    H2 1741   7.158   6.119   1.717
  127ACTN    H3 1742   7.100   6.140   1.880
  128ACTN    H6 1743   5.780   4.741   5.014
  128ACTN    C3 1744   5.764   4.633   5.008
  128ACTN    H4 1745   5.822   4.601   4.921
  128ACTN    H5 1746   5.807   4.582   5.094
  128ACTN    C2 1747   5.624   4.598   4.995
  128ACTN    O1 1748   5.582   4.586   4.879
  128ACTN    C1 1749   5.524   4.584   5.107
  128ACTN    H1 1750   5.502   4.685   5.141
  128ACTN    H2 1751   5.566   4.522   5.187
  128ACTN    H3 1752   5.431   4.545   5.067
  129ACTN    H6 1753   2.168   5.537   4.898
  129ACTN    C3 1754   2.093   5.462   4.921
  129ACTN    H4 1755   2.049   5.479   5.019
  129ACTN    H5 1756   2.008   5.460   4.854
  129ACTN    C2 1757   2.168   5.331   4.908
  129ACTN    O1 1758   2.280   5.325   4.955
  129ACTN    C1 1759   2.070   5.212   4.897
  129ACTN    H1 1760   2.108   5.139   4.825
  129ACTN    H2 1761   1.968   5.240   4.869
  129ACTN    H3 1762   2.063   5.159   4.992
  130ACTN    H6 1763   0.157   5.610   1.438
  130ACTN    C3 1764   0.088   5.596   1.521
  130ACTN    H4 1765   0.012   5.524   1.489
  130ACTN    H5 1766   0.128   5.555   1.613
  130ACTN    C2 1767   0.027   5.727   1.557
  130ACTN    O1 1768  -0.038   5.801   1.485
  130ACTN    C1 1769   0.074   5.789   1.684
  130ACTN    H1 1770   0.167   5.846   1.678
  130ACTN    H2 1771   0.082   5.719   1.767
  130ACTN    H3 1772   0.002   5.867   1.709
  131ACTN    H6 1773   4.315   2.451   7.149
  131ACTN    C3 1774   4.397   2.455   7.077
  131ACTN    H4 1775   4.394   2.371   7.007
  131ACTN    H5 1776   4.386   2.548   7.021
  131ACTN    C2 1777   4.532   2.457   7.142
  131ACTN    O1 1778   4.576   2.364   7.208
  131ACTN    C1 1779   4.617   2.582   7.130
  131ACTN    H1 1780   4.693   2.580   7.208
  131ACTN    H2 1781   4.560   2.673   7.148
  131ACTN    H3 1782   4.660   2.588   7.030
  132ACTN    H6 1783   2.292   0.963   4.803
  132ACTN    C3 1784   2.289   1.072   4.794
  132ACTN    H4 1785   2.377   1.109   4.846
  132ACTN    H5 1786   2.303   1.092   4.688
  132ACTN    C2 1787   2.162   1.138   4.838
  132ACTN    O1 1788   2.156   1.247   4.886
  132ACTN    C1 1789   2.038   1.055   4.807
  132ACTN    H1 1790   2.002   1.008   4.898
  132ACTN    H2 1791   2.063   0.973   4.740
  132ACTN    H3 1792   1.961   1.116   4.759
  133ACTN    H6 1793   0.088   2.652   5.672
  133ACTN    C3 1794   0.159   2.603   5.738
  133ACTN    H4 1795   0.257   2.631   5.698
  133ACTN    H5 1796   0.157   2.654   5.834
  133ACTN    C2 1797   0.157   2.450   5.721
  133ACTN    O1 1798   0.049   2.398   5.686
  133ACTN    C1 1799   0.284   2.369   5.739
  133ACTN    H1 1800   0.349   2.406   5.660
  133ACTN    H2 1801   0.272   2.261   5.730
  133ACTN    H3 1802   0.326   2.386   5.838
  134ACTN    H6 1803   4.085   1.876   2.980
  134ACTN    C3 1804   4.139   1.940   3.049
  134ACTN    H4 1805   4.086   2.033   3.067
  134ACTN    H5 1806   4.141   1.888   3.145
  134ACTN    C2 1807   4.283   1.959   3.002
  134ACTN    O1 1808   4.309   2.031   2.904
  134ACTN    C1 1809   4.398   1.911   3.082
  134ACTN    H1 1810   4.434   1.824   3.027
  134ACTN    H2 1811   4.369   1.875   3.181
  134ACTN    H3 1812   4.483   1.976   3.102
  135ACTN    H6 1813   0.299   3.874   3.827
  135ACTN    C3 1814   0.401   3.913   3.826
  135ACTN    H4 1815   0.423   3.966   3.919
  135ACTN    H5 1816   0.465   3.826   3.814
  135ACTN    C2 1817   0.421   3.994   3.694
  135ACTN    O1 1818   0.535   4.024   3.652
  135ACTN    C1 1819   0.304   4.002   3.597
  135ACTN    H1 1820   0.313   4.073   3.515
  135ACTN    H2 1821   0.213   4.034   3.648
  135ACTN    H3 1822   0.284   3.905   3.551
  136ACTN    H6 1823   6.621   4.932   0.844
  136ACTN    C3 1824   6.713   4.875   0.848
  136ACTN    H4 1825   6.694   4.803   0.928
  136ACTN    H5 1826   6.724   4.809   0.762
  136ACTN    C2 1827   6.838   4.953   0.873
  136ACTN    O1 1828   6.932   4.895   0.934
  136ACTN    C1 1829   6.842   5.096   0.820
  136ACTN    H1 1830   6.938   5.105   0.770
  136ACTN    H2 1831   6.828   5.176   0.892
  136ACTN    H3 1832   6.755   5.105   0.754
  137ACTN    H6 1833   5.562   1.490   2.557
  137ACTN    C3 1834   5.504   1.477   2.466
  137ACTN    H4 1835   5.567   1.505   2.381
  137ACTN    H5 1836   5.487   1.369   2.459
  137ACTN    C2 1837   5.385   1.570   2.469
  137ACTN    O1 1838   5.269   1.535   2.506
  137ACTN    C1 1839   5.402   1.708   2.409
  137ACTN    H1 1840   5.423   1.703   2.302
  137ACTN    H2 1841   5.481   1.772   2.449
  137ACTN    H3 1842   5.310   1.766   2.412
  138ACTN    H6 1843   0.142   7.348   3.543
  138ACTN    C3 1844   0.200   7.270   3.494
  138ACTN    H4 1845   0.299   7.305   3.521
  138ACTN    H5 1846   0.184   7.178   3.551
  138ACTN    C2 1847   0.177   7.249   3.346
  138ACTN    O1 1848   0.106   7.325   3.279
  138ACTN    C1 1849   0.265   7.140   3.289
  138ACTN    H1 1850   0.337   7.098   3.359
  138ACTN    H2 1851   0.320   7.174   3.201
  138ACTN    H3 1852   0.195   7.061   3.261
  139ACTN    H6 1853   0.425   0.870   6.312
  139ACTN    C3 1854   0.524   0.901   6.344
  139ACTN    H4 1855   0.541   0.845   6.436
  139ACTN    H5 1856   0.600   0.885   6.267
  139ACTN    C2 1857   0.509   1.043   6.391
  139ACTN    O1 1858   0.572   1.094   6.486
  139ACTN    C1 1859   0.406   1.133   6.328
  139ACTN    H1 1860   0.448   1.228   6.296
  139ACTN    H2 1861   0.327   1.159   6.399
  139ACTN    H3 1862   0.356   1.082   6.246
  140ACTN    H6 1863   0.417   7.152   2.282
  140ACTN    C3 1864   0.431   7.063   2.343
  140ACTN    H4 1865   0.507   6.996   2.301
  140ACTN    H5 1866   0.465   7.095   2.442
  140ACTN    C2 1867   0.302   6.994   2.343
  140ACTN    O1 1868   0.300   6.876   2.372
  140ACTN    C1 1869   0.177   7.074   2.363
  140ACTN    H1 1870   0.165   7.149   2.285
  140ACTN    H2 1871   0.171   7.117   2.464
  140ACTN    H3 1872   0.086   7.014   2.354
  141ACTN    H6 1873   6.866   2.378   3.153
  141ACTN    C3 1874   6.936   2.381   3.237
  141ACTN    H4 1875   6.905   2.305   3.309
  141ACTN    H5 1876   6.933   2.482   3.277
  141ACTN    C2 1877   7.074   2.352   3.183
  141ACTN    O1 1878   7.169   2.414   3.222
  141ACTN    C1 1879   7.092   2.223   3.103
  141ACTN    H1 1880   6.993   2.179   3.088
  141ACTN    H2 1881   7.151   2.153   3.162
  141ACTN    H3 1882   7.128   2.244   3.003
  142ACTN    H6 1883   0.345   1.171   4.147
  142ACTN    C3 1884   0.340   1.151   4.040
  142ACTN    H4 1885   0.419   1.081   4.011
  142ACTN    H5 1886   0.245   1.107   4.011
  142ACTN    C2 1887   0.352   1.283   3.963
  142ACTN    O1 1888   0.419   1.303   3.864
  142ACTN    C1 1889   0.262   1.393   4.007
  142ACTN    H1 1890   0.305   1.453   4.087
  142ACTN    H2 1891   0.168   1.351   4.041
  142ACTN    H3 1892   0.242   1.457   3.920
  143ACTN    H6 1893   7.040   5.290   2.118
  143ACTN    C3 1894   6.983   5.244   2.198
  143ACTN    H4 1895   6.880   5.238   2.164
  143ACTN    H5 1896   7.010   5.140   2.220
  143ACTN    C2 1897   6.983   5.340   2.310
  143ACTN    O1 1898   6.889   5.346   2.384
  143ACTN    C1 1899   7.103   5.433   2.346
  143ACTN    H1 1900   7.150   5.390   2.434
  143ACTN    H2 1901   7.065   5.532   2.372
  143ACTN    H3 1902   7.172   5.436   2.262
  144ACTN    H6 1903   0.471   4.464   2.793
  144ACTN    C3 1904   0.454   4.366   2.750
  144ACTN    H4 1905   0.550   4.316   2.731
  144ACTN    H5 1906   0.401   4.296   2.814
  144ACTN    C2 1907   0.363   4.397   2.631
  144ACTN    O1 1908   0.253   4.454   2.651
  144ACTN    C1 1909   0.411   4.346   2.499
  144ACTN    H1 1910   0.513   4.372   2.472
  144ACTN    H2 1911   0.343   4.379   2.421
  144ACTN    H3 1912   0.401   4.237   2.503
  145ACTN    H6 1913   0.521   2.155   3.655
  145ACTN    C3 1914   0.532   2.206   3.559
  145ACTN    H4 1915   0.513   2.312   3.569
  145ACTN    H5 1916   0.452   2.175   3.492
  145ACTN    C2 1917   0.662   2.169   3.493
  145ACTN    O1 1918   0.712   2.245   3.410
  145ACTN    C1 1919   0.722   2.038   3.531
  145ACTN    H1 1920   0.829   2.053   3.548
  145ACTN    H2 1921   0.706   1.975   3.443
  145ACTN    H3 1922   0.671   1.997   3.617
  146ACTN    H6 1923   6.798   4.453   3.579
  146ACTN    C3 1924   6.873   4.465   3.656
  146ACTN    H4 1925   6.842   4.555   3.708
  146ACTN    H5 1926   6.877   4.379   3.722
  146ACTN    C2 1927   7.018   4.480   3.597
  146ACTN    O1 1928   7.115   4.495   3.665
  146ACTN    C1 1929   7.025   4.516   3.451
  146ACTN    H1 1930   6.956   4.453   3.395
  146ACTN    H2 1931   7.122   4.486   3.411
  146ACTN    H3 1932   7.009   4.623   3.433
  147ACTN    H6 1933   5.023   2.568   0.703
  147ACTN    C3 1934   5.084   2.479   0.723
  147ACTN    H4 1935   5.154   2.502   0.804
  147ACTN    H5 1936   5.000   2.414   0.748
  147ACTN    C2 1937   5.164   2.435   0.604
  147ACTN    O1 1938   5.111   2.386   0.504
  147ACTN    C1 1939   5.308   2.421   0.624
  147ACTN    H1 1940   5.333   2.315   0.622
  147ACTN    H2 1941   5.335   2.465   0.720
  147ACTN    H3 1942   5.366   2.471   0.546
  148ACTN    H6 1943   4.930   5.481   0.319
  148ACTN    C3 1944   5.012   5.411   0.302
  148ACTN    H4 1945   5.111   5.456   0.299
  148ACTN    H5 1946   5.018   5.348   0.391
  148ACTN    C2 1947   4.984   5.343   0.168
  148ACTN    O1 1948   5.003   5.397   0.058
  148ACTN    C1 1949   4.943   5.199   0.164
  148ACTN    H1 1950   5.031   5.138   0.183
  148ACTN    H2 1951   4.900   5.165   0.070
  148ACTN    H3 1952   4.865   5.180   0.238
  149ACTN    H6 1953   5.758   0.213   1.678
  149ACTN    C3 1954   5.785   0.278   1.761
  149ACTN    H4 1955   5.894   0.271   1.760
  149ACTN    H5 1956   5.754   0.381   1.741
  149ACTN    C2 1957   5.733   0.208   1.877
  149ACTN    O1 1958   5.776   0.244   1.987
  149ACTN    C1 1959   5.661   0.081   1.862
  149ACTN    H1 1960   5.596   0.066   1.949
  149ACTN    H2 1961   5.733   0.000   1.854
  149ACTN    H3 1962   5.602   0.076   1.770
  150ACTN    H6 1963   6.041   0.903   4.185
  150ACTN    C3 1964   5.936   0.933   4.174
  150ACTN    H4 1965   5.942   1.028   4.122
  150ACTN    H5 1966   5.880   0.859   4.116
  150ACTN    C2 1967   5.862   0.949   4.302
  150ACTN    O1 1968   5.817   1.058   4.339
  150ACTN    C1 1969   5.873   0.833   4.396
  150ACTN    H1 1970   5.915   0.865   4.492
  150ACTN    H2 1971   5.930   0.743   4.371
  150ACTN    H3 1972   5.773   0.794   4.411
  151ACTN    H6 1973   1.706  -0.070   2.091
  151ACTN    C3 1974   1.678  -0.071   2.196
  151ACTN    H4 1975   1.597  -0.144   2.191
  151ACTN    H5 1976   1.759  -0.104   2.261
  151ACTN    C2 1977   1.616   0.050   2.260
  151ACTN    O1 1978   1.497   0.059   2.297
  151ACTN    C1 1979   1.700   0.169   2.283
  151ACTN    H1 1980   1.722   0.194   2.387
  151ACTN    H2 1981   1.660   0.260   2.239
  151ACTN    H3 1982   1.797   0.161   2.233
  152ACTN    H6 1983   6.893   2.786   0.949
  152ACTN    C3 1984   6.882   2.693   0.892
  152ACTN    H4 1985   6.846   2.621   0.966
  152ACTN    H5 1986   6.983   2.662   0.865
  152ACTN    C2 1987   6.799   2.726   0.776
  152ACTN    O1 1988   6.840   2.698   0.662
  152ACTN    C1 1989   6.679   2.811   0.801
  152ACTN    H1 1990   6.609   2.818   0.718
  152ACTN    H2 1991   6.710   2.909   0.838
  152ACTN    H3 1992   6.624   2.770   0.885
  153ACTN    H6 1993   0.989   0.547   2.881
  153ACTN    C3 1994   1.041   0.476   2.817
  153ACTN    H4 1995   1.047   0.379   2.867
  153ACTN    H5 1996   1.142   0.513   2.803
  153ACTN    C2 1997   0.979   0.461   2.679
  153ACTN    O1 1998   0.929   0.353   2.654
  153ACTN    C1 1999   0.978   0.571   2.580
  153ACTN    H1 2000   0.987   0.529   2.480
  153ACTN    H2 2001   1.057   0.639   2.611
  153ACTN    H3 2002   0.882   0.622   2.589
  154ACTN    H6 2003   1.527   0.332   1.888
  154ACTN    C3 2004   1.531   0.240   1.947
  154ACTN    H4 2005   1.620   0.261   2.006
  154ACTN    H5 2006   1.439   0.223   2.003
  154ACTN    C2 2007   1.563   0.128   1.848
  154ACTN    O1 2008   1.671   0.124   1.789
  154ACTN    C1 2009   1.452   0.023   1.867
  154ACTN    H1 2010   1.468  -0.026   1.963
  154ACTN    H2 2011   1.451  -0.048   1.784
  154ACTN    H3 2012   1.354   0.070   1.873
  155ACTN    H6 2013   4.908   0.489   3.289
  155ACTN    C3 2014   4.885   0.577   3.348
  155ACTN    H4 2015   4.837   0.655   3.289
  155ACTN    H5 2016   4.820   0.557   3.433
  155ACTN    C2 2017   5.018   0.631   3.404
  155ACTN    O1 2018   5.021   0.699   3.511
  155ACTN    C1 2019   5.136   0.627   3.319
  155ACTN    H1 2020   5.223   0.616   3.384
  155ACTN    H2 2021   5.136   0.717   3.258
  155ACTN    H3 2022   5.132   0.539   3.254
  156ACTN    H6 2023   0.257   1.779   7.132
  156ACTN    C3 2024   0.157   1.804   7.096
  156ACTN    H4 2025   0.093   1.717   7.109
  156ACTN    H5 2026   0.159   1.833   6.991
  156ACTN    C2 2027   0.102   1.921   7.169
  156ACTN    O1 2028   0.050   2.018   7.113
  156ACTN    C1 2029   0.116   1.916   7.322
  156ACTN    H1 2030   0.012   1.921   7.356
  156ACTN    H2 2031   0.160   2.010   7.355
  156ACTN    H3 2032   0.153   1.823   7.366
  157ACTN    H6 2033   2.070   6.377   3.438
  157ACTN    C3 2034   1.990   6.385   3.513
  157ACTN    H4 2035   1.947   6.284   3.518
  157ACTN    H5 2036   2.033   6.410   3.609
  157ACTN    C2 2037   1.878   6.476   3.465
  157ACTN    O1 2038   1.780   6.510   3.534
  157ACTN    C1 2039   1.889   6.528   3.326
  157ACTN    H1 2040   1.871   6.634   3.308
  157ACTN    H2 2041   1.821   6.468   3.264
  157ACTN    H3 2042   1.984   6.511   3.275
  158ACTN    H6 2043   2.660   2.483   5.169
  158ACTN    C3 2044   2.685   2.475   5.063
  158ACTN    H4 2045   2.701   2.371   5.033
  158ACTN    H5 2046   2.601   2.516   5.007
  158ACTN    C2 2047   2.800   2.555   5.030
  158ACTN    O1 2048   2.838   2.639   5.108
  158ACTN    C1 2049   2.889   2.537   4.913
  158ACTN    H1 2050   2.866   2.449   4.852
  158ACTN    H2 2051   2.994   2.533   4.940
  158ACTN    H3 2052   2.881   2.623   4.847
  159ACTN    H6 2053   0.328   0.661   4.404
  159ACTN    C3 2054   0.335   0.609   4.499
  159ACTN    H4 2055   0.389   0.521   4.464
  159ACTN    H5 2056   0.397   0.676   4.560
  159ACTN    C2 2057   0.203   0.562   4.554
  159ACTN    O1 2058   0.180   0.551   4.674
  159ACTN    C1 2059   0.088   0.535   4.463
  159ACTN    H1 2060   0.121   0.558   4.362
  159ACTN    H2 2061   0.004   0.600   4.488
  159ACTN    H3 2062   0.043   0.436   4.475
  160ACTN    H6 2063   0.898   5.930   5.386
  160ACTN    C3 2064   0.891   6.031   5.347
  160ACTN    H4 2065   0.812   6.097   5.384
  160ACTN    H5 2066   0.984   6.081   5.372
  160ACTN    C2 2067   0.873   6.011   5.197
  160ACTN    O1 2068   0.947   6.072   5.126
  160ACTN    C1 2069   0.760   5.934   5.137
  160ACTN    H1 2070   0.673   5.937   5.203
  160ACTN    H2 2071   0.782   5.828   5.126
  160ACTN    H3 2072   0.735   5.979   5.042
  161ACTN    H6 2073   1.496   6.302   0.694
  161ACTN    C3 2074   1.558   6.263   0.613
  161ACTN    H4 2075   1.557   6.340   0.537
  161ACTN    H5 2076   1.661   6.244   0.645
  161ACTN    C2 2077   1.493   6.135   0.564
  161ACTN    O1 2078   1.550   6.028   0.555
  161ACTN    C1 2079   1.347   6.137   0.574
  161ACTN    H1 2080   1.306   6.064   0.504
  161ACTN    H2 2081   1.294   6.226   0.538
  161ACTN    H3 2082   1.317   6.119   0.678
  162ACTN    H6 2083   5.244   4.637   1.824
  162ACTN    C3 2084   5.219   4.532   1.834
  162ACTN    H4 2085   5.251   4.470   1.749
  162ACTN    H5 2086   5.279   4.500   1.919
  162ACTN    C2 2087   5.070   4.520   1.851
  162ACTN    O1 2088   5.016   4.539   1.958
  162ACTN    C1 2089   4.996   4.457   1.745
  162ACTN    H1 2090   5.002   4.348   1.754
  162ACTN    H2 2091   5.040   4.484   1.649
  162ACTN    H3 2092   4.891   4.487   1.745
  163ACTN    H6 2093   2.407   2.853   5.336
  163ACTN    C3 2094   2.350   2.794   5.264
  163ACTN    H4 2095   2.247   2.828   5.274
  163ACTN    H5 2096   2.345   2.690   5.296
  163ACTN    C2 2097   2.392   2.814   5.114
  163ACTN    O1 2098   2.343   2.742   5.029
  163ACTN    C1 2099   2.511   2.893   5.088
  163ACTN    H1 2100   2.600   2.834   5.071
  163ACTN    H2 2101   2.516   2.970   5.165
  163ACTN    H3 2102   2.497   2.949   4.995
  164ACTN    H6 2103   5.438   7.099   6.279
  164ACTN    C3 2104   5.432   7.200   6.318
  164ACTN    H4 2105   5.511   7.201   6.393
  164ACTN    H5 2106   5.461   7.271   6.240
  164ACTN    C2 2107   5.302   7.237   6.383
  164ACTN    O1 2108   5.197   7.244   6.317
  164ACTN    C1 2109   5.302   7.269   6.527
  164ACTN    H1 2110   5.379   7.342   6.551
  164ACTN    H2 2111   5.331   7.183   6.588
  164ACTN    H3 2112   5.202   7.296   6.561
  165ACTN    H6 2113   3.948   6.610   2.814
  165ACTN    C3 2114   4.013   6.632   2.730
  165ACTN    H4 2115   4.084   6.708   2.762
  165ACTN    H5 2116   4.071   6.541   2.715
  165ACTN    C2 2117   3.938   6.670   2.610
  165ACTN    O1 2118   3.853   6.584   2.572
  165ACTN    C1 2119   3.895   6.809   2.601
  165ACTN    H1 2120   3.788   6.823   2.621
  165ACTN    H2 2121   3.921   6.844   2.502
  165ACTN    H3 2122   3.941   6.881   2.668
  166ACTN    H6 2123   6.291   4.057   4.137
  166ACTN    C3 2124   6.281   4.076   4.031
  166ACTN    H4 2125   6.284   4.185   4.025
  166ACTN    H5 2126   6.372   4.048   3.979
  166ACTN    C2 2127   6.161   4.012   3.973
  166ACTN    O1 2128   6.133   4.038   3.859
  166ACTN    C1 2129   6.093   3.900   4.033
  166ACTN    H1 2130   6.169   3.835   4.077
  166ACTN    H2 2131   6.040   3.838   3.960
  166ACTN    H3 2132   6.024   3.938   4.109
  167ACTN    H6 2133   0.030   1.192   6.108
  167ACTN    C3 2134   0.011   1.298   6.122
  167ACTN    H4 2135   0.009   1.352   6.027
  167ACTN    H5 2136  -0.095   1.300   6.150
  167ACTN    C2 2137   0.101   1.378   6.209
  167ACTN    O1 2138   0.218   1.381   6.176
  167ACTN    C1 2139   0.053   1.432   6.343
  167ACTN    H1 2140   0.107   1.522   6.375
  167ACTN    H2 2141   0.066   1.350   6.414
  167ACTN    H3 2142  -0.054   1.451   6.341
  168ACTN    H6 2143   3.171   1.846   3.093
  168ACTN    C3 2144   3.266   1.855   3.039
  168ACTN    H4 2145   3.327   1.767   3.059
  168ACTN    H5 2146   3.235   1.850   2.935
  168ACTN    C2 2147   3.333   1.982   3.075
  168ACTN    O1 2148   3.261   2.082   3.091
  168ACTN    C1 2149   3.478   1.983   3.109
  168ACTN    H1 2150   3.505   2.087   3.125
  168ACTN    H2 2151   3.543   1.943   3.032
  168ACTN    H3 2152   3.499   1.929   3.202
  169ACTN    H6 2153   6.437   6.686   2.914
  169ACTN    C3 2154   6.546   6.681   2.923
  169ACTN    H4 2155   6.598   6.776   2.931
  169ACTN    H5 2156   6.570   6.633   3.018
  169ACTN    C2 2157   6.603   6.602   2.807
  169ACTN    O1 2158   6.684   6.651   2.728
  169ACTN    C1 2159   6.559   6.458   2.784
  169ACTN    H1 2160   6.582   6.430   2.682
  169ACTN    H2 2161   6.455   6.441   2.811
  169ACTN    H3 2162   6.615   6.398   2.856
  170ACTN    H6 2163   4.850   6.854   6.265
  170ACTN    C3 2164   4.949   6.899   6.257
  170ACTN    H4 2165   4.996   6.928   6.351
  170ACTN    H5 2166   5.018   6.824   6.216
  170ACTN    C2 2167   4.961   7.015   6.173
  170ACTN    O1 2168   5.011   7.005   6.065
  170ACTN    C1 2169   4.892   7.149   6.215
  170ACTN    H1 2170   4.804   7.167   6.153
  170ACTN    H2 2171   4.961   7.232   6.200
  170ACTN    H3 2172   4.852   7.150   6.316
  171ACTN    H6 2173   2.159   5.534   1.455
  171ACTN    C3 2174   2.057   5.516   1.489
  171ACTN    H4 2175   2.035   5.424   1.435
  171ACTN    H5 2176   2.062   5.496   1.596
  171ACTN    C2 2177   1.957   5.627   1.462
  171ACTN    O1 2178   1.839   5.595   1.455
  171ACTN    C1 2179   1.987   5.768   1.508
  171ACTN    H1 2180   1.910   5.798   1.579
  171ACTN    H2 2181   1.991   5.833   1.421
  171ACTN    H3 2182   2.079   5.780   1.566
  172ACTN    H6 2183   5.863   4.987   5.538
  172ACTN    C3 2184   5.782   4.917   5.559
  172ACTN    H4 2185   5.813   4.860   5.646
  172ACTN    H5 2186   5.695   4.975   5.589
  172ACTN    C2 2187   5.733   4.828   5.442
  172ACTN    O1 2188   5.709   4.878   5.336
  172ACTN    C1 2189   5.737   4.685   5.468
  172ACTN    H1 2190   5.686   4.624   5.393
  172ACTN    H2 2191   5.685   4.669   5.563
  172ACTN    H3 2192   5.837   4.640   5.467
  173ACTN    H6 2193   1.580   0.385   4.533
  173ACTN    C3 2194   1.486   0.336   4.559
  173ACTN    H4 2195   1.458   0.284   4.468
  173ACTN    H5 2196   1.497   0.266   4.642
  173ACTN    C2 2197   1.390   0.449   4.586
  173ACTN    O1 2198   1.315   0.496   4.500
  173ACTN    C1 2199   1.406   0.517   4.718
  173ACTN    H1 2200   1.433   0.442   4.793
  173ACTN    H2 2201   1.315   0.561   4.758
  173ACTN    H3 2202   1.481   0.596   4.710
  174ACTN    H6 2203   0.476   3.538   4.957
  174ACTN    C3 2204   0.382   3.486   4.976
  174ACTN    H4 2205   0.413   3.397   5.029
  174ACTN    H5 2206   0.313   3.545   5.036
  174ACTN    C2 2207   0.309   3.460   4.849
  174ACTN    O1 2208   0.374   3.437   4.747
  174ACTN    C1 2209   0.161   3.450   4.858
  174ACTN    H1 2210   0.118   3.420   4.953
  174ACTN    H2 2211   0.127   3.386   4.776
  174ACTN    H3 2212   0.129   3.550   4.831
  175ACTN    H6 2213   5.055   0.391   4.967
  175ACTN    C3 2214   5.153   0.402   5.013
  175ACTN    H4 2215   5.166   0.330   5.093
  175ACTN    H5 2216   5.230   0.389   4.937
  175ACTN    C2 2217   5.164   0.531   5.078
  175ACTN    O1 2218   5.275   0.590   5.082
  175ACTN    C1 2219   5.050   0.578   5.153
  175ACTN    H1 2220   4.965   0.515   5.126
  175ACTN    H2 2221   5.022   0.677   5.119
  175ACTN    H3 2222   5.066   0.593   5.260
  176ACTN    H6 2223   7.027   1.758   5.552
  176ACTN    C3 2224   7.135   1.755   5.534
  176ACTN    H4 2225   7.144   1.733   5.428
  176ACTN    H5 2226   7.172   1.858   5.537
  176ACTN    C2 2227   7.231   1.658   5.596
  176ACTN    O1 2228   7.231   1.539   5.572
  176ACTN    C1 2229   7.322   1.703   5.706
  176ACTN    H1 2230   7.248   1.709   5.786
  176ACTN    H2 2231   7.363   1.804   5.694
  176ACTN    H3 2232   7.403   1.635   5.730
  177ACTN    H6 2233   3.127   6.650   3.804
  177ACTN    C3 2234   3.191   6.599   3.876
  177ACTN    H4 2235   3.295   6.602   3.843
  177ACTN    H5 2236   3.164   6.495   3.891
  177ACTN    C2 2237   3.186   6.686   3.997
  177ACTN    O1 2238   3.201   6.808   3.983
  177ACTN    C1 2239   3.160   6.622   4.129
  177ACTN    H1 2240   3.059   6.641   4.166
  177ACTN    H2 2241   3.220   6.674   4.204
  177ACTN    H3 2242   3.181   6.515   4.132
  178ACTN    H6 2243   1.282   4.843   2.235
  178ACTN    C3 2244   1.200   4.905   2.198
  178ACTN    H4 2245   1.242   4.946   2.107
  178ACTN    H5 2246   1.122   4.837   2.162
  178ACTN    C2 2247   1.147   5.001   2.306
  178ACTN    O1 2248   1.233   5.070   2.357
  178ACTN    C1 2249   1.005   4.994   2.354
  178ACTN    H1 2250   0.944   4.932   2.288
  178ACTN    H2 2251   0.957   5.092   2.364
  178ACTN    H3 2252   1.008   4.951   2.454
  179ACTN    H6 2253   3.952   5.697   2.373
  179ACTN    C3 2254   4.013   5.746   2.448
  179ACTN    H4 2255   4.069   5.668   2.499
  179ACTN    H5 2256   4.088   5.811   2.404
  179ACTN    C2 2257   3.939   5.809   2.562
  179ACTN    O1 2258   3.819   5.806   2.573
  179ACTN    C1 2259   4.027   5.887   2.659
  179ACTN    H1 2260   4.110   5.940   2.613
  179ACTN    H2 2261   4.069   5.825   2.737
  179ACTN    H3 2262   3.958   5.952   2.712
  180ACTN    H6 2263   4.350   0.097   4.318
  180ACTN    C3 2264   4.401   0.184   4.358
  180ACTN    H4 2265   4.490   0.221   4.306
  180ACTN    H5 2266   4.331   0.268   4.355
  180ACTN    C2 2267   4.448   0.154   4.499
  180ACTN    O1 2268   4.423   0.042   4.540
  180ACTN    C1 2269   4.535   0.251   4.573
  180ACTN    H1 2270   4.633   0.207   4.589
  180ACTN    H2 2271   4.499   0.281   4.672
  180ACTN    H3 2272   4.548   0.340   4.511
  181ACTN    H6 2273   7.301   1.712   5.982
  181ACTN    C3 2274   7.276   1.661   6.074
  181ACTN    H4 2275   7.363   1.598   6.095
  181ACTN    H5 2276   7.272   1.739   6.150
  181ACTN    C2 2277   7.148   1.576   6.060
  181ACTN    O1 2278   7.160   1.474   5.991
  181ACTN    C1 2279   7.014   1.606   6.123
  181ACTN    H1 2280   7.011   1.715   6.125
  181ACTN    H2 2281   7.006   1.573   6.227
  181ACTN    H3 2282   6.935   1.570   6.058
  182ACTN    H6 2283   3.851   2.129   3.975
  182ACTN    C3 2284   3.782   2.086   4.047
  182ACTN    H4 2285   3.799   2.121   4.149
  182ACTN    H5 2286   3.678   2.095   4.015
  182ACTN    C2 2287   3.812   1.936   4.052
  182ACTN    O1 2288   3.720   1.867   4.089
  182ACTN    C1 2289   3.950   1.887   4.027
  182ACTN    H1 2290   4.012   1.973   4.004
  182ACTN    H2 2291   3.941   1.841   3.928
  182ACTN    H3 2292   3.989   1.805   4.087
  183ACTN    H6 2293   4.684   4.973   0.362
  183ACTN    C3 2294   4.600   5.025   0.315
  183ACTN    H4 2295   4.622   5.051   0.212
  183ACTN    H5 2296   4.511   4.962   0.304
  183ACTN    C2 2297   4.555   5.144   0.394
  183ACTN    O1 2298   4.647   5.212   0.437
  183ACTN    C1 2299   4.410   5.178   0.394
  183ACTN    H1 2300   4.361   5.088   0.433
  183ACTN    H2 2301   4.365   5.197   0.297
  183ACTN    H3 2302   4.401   5.259   0.467
  184ACTN    H6 2303   6.526   3.044   2.946
  184ACTN    C3 2304   6.619   2.988   2.940
  184ACTN    H4 2305   6.649   2.951   3.038
  184ACTN    H5 2306   6.597   2.901   2.878
  184ACTN    C2 2307   6.725   3.071   2.869
  184ACTN    O1 2308   6.705   3.192   2.855
  184ACTN    C1 2309   6.852   3.002   2.823
  184ACTN    H1 2310   6.835   2.937   2.737
  184ACTN    H2 2311   6.896   2.935   2.896
  184ACTN    H3 2312   6.926   3.075   2.790
  185ACTN    H6 2313   6.723   6.835   5.059
  185ACTN    C3 2314   6.683   6.792   4.967
  185ACTN    H4 2315   6.672   6.873   4.894
  185ACTN    H5 2316   6.754   6.721   4.926
  185ACTN    C2 2317   6.555   6.720   4.993
  185ACTN    O1 2318   6.451   6.739   4.931
  185ACTN    C1 2319   6.570   6.591   5.070
  185ACTN    H1 2320   6.677   6.567   5.066
  185ACTN    H2 2321   6.516   6.507   5.026
  185ACTN    H3 2322   6.529   6.613   5.168
  186ACTN    H6 2323   6.615   6.145   3.196
  186ACTN    C3 2324   6.674   6.152   3.105
  186ACTN    H4 2325   6.632   6.107   3.015
  186ACTN    H5 2326   6.687   6.258   3.084
  186ACTN    C2 2327   6.804   6.092   3.130
  186ACTN    O1 2328   6.858   6.040   3.033
  186ACTN    C1 2329   6.868   6.096   3.262
  186ACTN    H1 2330   6.906   5.998   3.292
  186ACTN    H2 2331   6.788   6.126   3.331
  186ACTN    H3 2332   6.944   6.174   3.266
  187ACTN    H6 2333   6.112   5.251   2.330
  187ACTN    C3 2334   6.084   5.331   2.398
  187ACTN    H4 2335   6.059   5.423   2.346
  187ACTN    H5 2336   5.994   5.286   2.440
  187ACTN    C2 2337   6.184   5.363   2.498
  187ACTN    O1 2338   6.274   5.288   2.532
  187ACTN    C1 2339   6.167   5.486   2.584
  187ACTN    H1 2340   6.172   5.476   2.692
  187ACTN    H2 2341   6.076   5.536   2.550
  187ACTN    H3 2342   6.250   5.550   2.551
  188ACTN    H6 2343   4.405   0.677   4.659
  188ACTN    C3 2344   4.328   0.601   4.644
  188ACTN    H4 2345   4.357   0.525   4.572
  188ACTN    H5 2346   4.320   0.555   4.743
  188ACTN    C2 2347   4.201   0.649   4.587
  188ACTN    O1 2348   4.134   0.580   4.513
  188ACTN    C1 2349   4.151   0.767   4.656
  188ACTN    H1 2350   4.208   0.854   4.626
  188ACTN    H2 2351   4.155   0.749   4.764
  188ACTN    H3 2352   4.051   0.799   4.630
  189ACTN    H6 2353   4.182   2.478   1.418
  189ACTN    C3 2354   4.085   2.511   1.381
  189ACTN    H4 2355   3.997   2.464   1.424
  189ACTN    H5 2356   4.078   2.614   1.415
  189ACTN    C2 2357   4.092   2.515   1.235
  189ACTN    O1 2358   4.159   2.600   1.184
  189ACTN    C1 2359   4.065   2.390   1.159
  189ACTN    H1 2360   4.010   2.320   1.222
  189ACTN    H2 2361   4.155   2.338   1.125
  189ACTN    H3 2362   4.007   2.409   1.069
  190ACTN    H6 2363   0.985   5.143   3.444
  190ACTN    C3 2364   0.900   5.176   3.385
  190ACTN    H4 2365   0.867   5.273   3.423
  190ACTN    H5 2366   0.932   5.186   3.281
  190ACTN    C2 2367   0.789   5.073   3.386
  190ACTN    O1 2368   0.811   4.951   3.368
  190ACTN    C1 2369   0.646   5.110   3.405
  190ACTN    H1 2370   0.624   5.081   3.508
  190ACTN    H2 2371   0.573   5.060   3.342
  190ACTN    H3 2372   0.621   5.216   3.402
  191ACTN    H6 2373   4.452   2.907   0.260
  191ACTN    C3 2374   4.431   2.821   0.197
  191ACTN    H4 2375   4.323   2.818   0.181
  191ACTN    H5 2376   4.460   2.851   0.096
  191ACTN    C2 2377   4.484   2.692   0.236
  191ACTN    O1 2378   4.515   2.608   0.154
  191ACTN    C1 2379   4.532   2.668   0.379
  191ACTN    H1 2380   4.565   2.565   0.386
  191ACTN    H2 2381   4.452   2.682   0.452
  191ACTN    H3 2382   4.608   2.741   0.408
  192ACTN    H6 2383   7.081   0.709   4.308
  192ACTN    C3 2384   7.186   0.719   4.283
  192ACTN    H4 2385   7.238   0.625   4.303
  192ACTN    H5 2386   7.191   0.743   4.177
  192ACTN    C2 2387   7.249   0.820   4.368
  192ACTN    O1 2388   7.354   0.865   4.331
  192ACTN    C1 2389   7.167   0.877   4.480
  192ACTN    H1 2390   7.229   0.935   4.549
  192ACTN    H2 2391   7.106   0.804   4.533
  192ACTN    H3 2392   7.097   0.950   4.438
  193ACTN    H6 2393   2.602   0.279   4.667
  193ACTN    C3 2394   2.553   0.376   4.657
  193ACTN    H4 2395   2.594   0.437   4.737
  193ACTN    H5 2396   2.582   0.421   4.561
  193ACTN    C2 2397   2.403   0.368   4.666
  193ACTN    O1 2398   2.344   0.473   4.681
  193ACTN    C1 2399   2.332   0.238   4.650
  193ACTN    H1 2400   2.379   0.192   4.564
  193ACTN    H2 2401   2.233   0.261   4.612
  193ACTN    H3 2402   2.335   0.173   4.737
  194ACTN    H6 2403   2.137   4.906   5.194
  194ACTN    C3 2404   2.234   4.877   5.154
  194ACTN    H4 2405   2.263   4.924   5.061
  194ACTN    H5 2406   2.310   4.897   5.230
  194ACTN    C2 2407   2.234   4.730   5.123
  194ACTN    O1 2408   2.132   4.689   5.063
  194ACTN    C1 2409   2.340   4.643   5.175
  194ACTN    H1 2410   2.332   4.538   5.145
  194ACTN    H2 2411   2.351   4.631   5.283
  194ACTN    H3 2412   2.434   4.687   5.140
  195ACTN    H6 2413   1.902   6.509   4.150
  195ACTN    C3 2414   1.817   6.513   4.083
  195ACTN    H4 2415   1.840   6.435   4.010
  195ACTN    H5 2416   1.735   6.479   4.146
  195ACTN    C2 2417   1.785   6.651   4.024
  195ACTN    O1 2418   1.877   6.726   3.988
  195ACTN    C1 2419   1.648   6.711   4.054
  195ACTN    H1 2420   1.584   6.637   4.101
  195ACTN    H2 2421   1.597   6.745   3.964
  195ACTN    H3 2422   1.659   6.794   4.125
  196ACTN    H6 2423   3.123   0.949   4.202
  196ACTN    C3 2424   3.036   0.968   4.265
  196ACTN    H4 2425   2.954   0.992   4.196
  196ACTN    H5 2426   3.012   0.881   4.326
  196ACTN    C2 2427   3.053   1.085   4.353
  196ACTN    O1 2428   2.967   1.124   4.428
  196ACTN    C1 2429   3.195   1.132   4.365
  196ACTN    H1 2430   3.193   1.241   4.362
  196ACTN    H2 2431   3.256   1.107   4.278
  196ACTN    H3 2432   3.247   1.098   4.455
  197ACTN    H6 2433   2.103   3.000   4.486
  197ACTN    C3 2434   2.201   3.008   4.438
  197ACTN    H4 2435   2.197   3.104   4.386
  197ACTN    H5 2436   2.282   3.004   4.511
  197ACTN    C2 2437   2.209   2.892   4.344
  197ACTN    O1 2438   2.214   2.781   4.395
  197ACTN    C1 2439   2.223   2.926   4.199
  197ACTN    H1 2440   2.247   2.833   4.147
  197ACTN    H2 2441   2.303   2.999   4.189
  197ACTN    H3 2442   2.134   2.968   4.153
  198ACTN    H6 2443   2.134   2.917   6.607
  198ACTN    C3 2444   2.080   2.872   6.690
  198ACTN    H4 2445   1.971   2.875   6.681
  198ACTN    H5 2446   2.099   2.765   6.679
  198ACTN    C2 2447   2.113   2.926   6.824
  198ACTN    O1 2448   2.230   2.922   6.866
  198ACTN    C1 2449   2.015   3.005   6.904
  198ACTN    H1 2450   1.938   2.950   6.959
  198ACTN    H2 2451   1.964   3.072   6.835
  198ACTN    H3 2452   2.061   3.072   6.977
  199ACTN    H6 2453   1.700   7.283   0.673
  199ACTN    C3 2454   1.599   7.243   0.664
  199ACTN    H4 2455   1.592   7.205   0.562
  199ACTN    H5 2456   1.586   7.164   0.738
  199ACTN    C2 2457   1.501   7.348   0.690
  199ACTN    O1 2458   1.543   7.461   0.701
  199ACTN    C1 2459   1.359   7.316   0.651
  199ACTN    H1 2460   1.347   7.325   0.543
  199ACTN    H2 2461   1.280   7.374   0.700
  199ACTN    H3 2462   1.350   7.209   0.665
  200ACTN    H6 2463   3.536   6.760   3.856
  200ACTN    C3 2464   3.639   6.775   3.888
  200ACTN    H4 2465   3.660   6.701   3.965
  200ACTN    H5 2466   3.699   6.756   3.799
  200ACTN    C2 2467   3.654   6.916   3.933
  200ACTN    O1 2468   3.604   6.945   4.040
  200ACTN    C1 2469   3.747   7.006   3.851
  200ACTN    H1 2470   3.712   7.001   3.748
  200ACTN    H2 2471   3.852   6.979   3.861
  200ACTN    H3 2472   3.727   7.109   3.879
  201ACTN    H6 2473   4.909   3.462   2.164
  201ACTN    C3 2474   4.819   3.479   2.105
  201ACTN    H4 2475   4.833   3.416   2.017
  201ACTN    H5 2476   4.731   3.452   2.163
  201ACTN    C2 2477   4.821   3.619   2.066
  201ACTN    O1 2478   4.860   3.701   2.149
  201ACTN    C1 2479   4.725   3.651   1.957
  201ACTN    H1 2480   4.767   3.609   1.865
  201ACTN    H2 2481   4.713   3.758   1.944
  201ACTN    H3 2482   4.626   3.609   1.977
  202ACTN    H6 2483   0.068   6.356   3.257
  202ACTN    C3 2484   0.009   6.312   3.178
  202ACTN    H4 2485  -0.059   6.232   3.207
  202ACTN    H5 2486  -0.055   6.387   3.130
  202ACTN    C2 2487   0.103   6.251   3.071
  202ACTN    O1 2488   0.135   6.307   2.966
  202ACTN    C1 2489   0.164   6.121   3.106
  202ACTN    H1 2490   0.134   6.086   3.205
  202ACTN    H2 2491   0.272   6.128   3.105
  202ACTN    H3 2492   0.127   6.039   3.044
  203ACTN    H6 2493   5.076   1.434   2.082
  203ACTN    C3 2494   5.181   1.452   2.106
  203ACTN    H4 2495   5.227   1.522   2.037
  203ACTN    H5 2496   5.176   1.489   2.209
  203ACTN    C2 2497   5.259   1.322   2.106
  203ACTN    O1 2498   5.352   1.314   2.185
  203ACTN    C1 2499   5.222   1.200   2.026
  203ACTN    H1 2500   5.222   1.231   1.922
  203ACTN    H2 2501   5.124   1.168   2.059
  203ACTN    H3 2502   5.294   1.119   2.042
  204ACTN    H6 2503   5.983   6.100   1.967
  204ACTN    C3 2504   6.081   6.056   1.947
  204ACTN    H4 2505   6.158   6.133   1.950
  204ACTN    H5 2506   6.111   5.989   2.028
  204ACTN    C2 2507   6.083   5.984   1.820
  204ACTN    O1 2508   6.187   5.917   1.790
  204ACTN    C1 2509   5.987   5.999   1.711
  204ACTN    H1 2510   5.938   5.906   1.682
  204ACTN    H2 2511   6.044   6.037   1.626
  204ACTN    H3 2512   5.910   6.068   1.747
  205ACTN    H6 2513   0.755   5.135   5.784
  205ACTN    C3 2514   0.696   5.121   5.693
  205ACTN    H4 2515   0.763   5.116   5.607
  205ACTN    H5 2516   0.665   5.018   5.706
  205ACTN    C2 2517   0.584   5.220   5.679
  205ACTN    O1 2518   0.498   5.207   5.595
  205ACTN    C1 2519   0.585   5.351   5.761
  205ACTN    H1 2520   0.481   5.371   5.786
  205ACTN    H2 2521   0.617   5.427   5.690
  205ACTN    H3 2522   0.648   5.339   5.849
  206ACTN    H6 2523   0.767   0.658   4.360
  206ACTN    C3 2524   0.716   0.745   4.318
  206ACTN    H4 2525   0.656   0.792   4.396
  206ACTN    H5 2526   0.798   0.812   4.293
  206ACTN    C2 2527   0.620   0.704   4.213
  206ACTN    O1 2528   0.549   0.601   4.224
  206ACTN    C1 2529   0.618   0.777   4.087
  206ACTN    H1 2530   0.682   0.865   4.087
  206ACTN    H2 2531   0.513   0.800   4.069
  206ACTN    H3 2532   0.655   0.709   4.010
  207ACTN    H6 2533   5.339   0.843   4.600
  207ACTN    C3 2534   5.336   0.893   4.503
  207ACTN    H4 2535   5.255   0.846   4.448
  207ACTN    H5 2536   5.333   1.002   4.502
  207ACTN    C2 2537   5.468   0.864   4.439
  207ACTN    O1 2538   5.563   0.860   4.520
  207ACTN    C1 2539   5.497   0.882   4.292
  207ACTN    H1 2540   5.587   0.826   4.266
  207ACTN    H2 2541   5.501   0.986   4.258
  207ACTN    H3 2542   5.418   0.835   4.233
  208ACTN    H6 2543   2.342   4.785   2.405
  208ACTN    C3 2544   2.313   4.715   2.483
  208ACTN    H4 2545   2.204   4.717   2.493
  208ACTN    H5 2546   2.339   4.613   2.456
  208ACTN    C2 2547   2.389   4.725   2.615
  208ACTN    O1 2548   2.346   4.774   2.719
  208ACTN    C1 2549   2.536   4.686   2.614
  208ACTN    H1 2550   2.601   4.769   2.639
  208ACTN    H2 2551   2.565   4.645   2.517
  208ACTN    H3 2552   2.541   4.610   2.692
  209ACTN    H6 2553   0.569   6.404   0.779
  209ACTN    C3 2554   0.613   6.496   0.740
  209ACTN    H4 2555   0.548   6.583   0.734
  209ACTN    H5 2556   0.702   6.513   0.800
  209ACTN    C2 2557   0.638   6.482   0.592
  209ACTN    O1 2558   0.743   6.438   0.546
  209ACTN    C1 2559   0.546   6.536   0.497
  209ACTN    H1 2560   0.521   6.640   0.518
  209ACTN    H2 2561   0.461   6.471   0.518
  209ACTN    H3 2562   0.573   6.523   0.393
  210ACTN    H6 2563   3.577   6.727   4.206
  210ACTN    C3 2564   3.525   6.697   4.297
  210ACTN    H4 2565   3.427   6.744   4.287
  210ACTN    H5 2566   3.531   6.589   4.309
  210ACTN    C2 2567   3.589   6.776   4.405
  210ACTN    O1 2568   3.598   6.899   4.411
  210ACTN    C1 2569   3.644   6.708   4.527
  210ACTN    H1 2570   3.680   6.780   4.600
  210ACTN    H2 2571   3.725   6.650   4.484
  210ACTN    H3 2572   3.566   6.647   4.574
  211ACTN    H6 2573   5.275   2.939   4.270
  211ACTN    C3 2574   5.366   2.889   4.236
  211ACTN    H4 2575   5.343   2.841   4.141
  211ACTN    H5 2576   5.453   2.953   4.221
  211ACTN    C2 2577   5.392   2.782   4.342
  211ACTN    O1 2578   5.467   2.800   4.438
  211ACTN    C1 2579   5.279   2.679   4.357
  211ACTN    H1 2580   5.189   2.698   4.299
  211ACTN    H2 2581   5.243   2.687   4.459
  211ACTN    H3 2582   5.310   2.576   4.338
  212ACTN    H6 2583   4.040   4.937   0.749
  212ACTN    C3 2584   4.040   5.010   0.830
  212ACTN    H4 2585   4.141   5.043   0.856
  212ACTN    H5 2586   3.996   5.102   0.791
  212ACTN    C2 2587   3.959   4.953   0.944
  212ACTN    O1 2588   4.006   4.952   1.054
  212ACTN    C1 2589   3.836   4.891   0.925
  212ACTN    H1 2590   3.804   4.899   0.821
  212ACTN    H2 2591   3.758   4.939   0.984
  212ACTN    H3 2592   3.841   4.784   0.949
  213ACTN    H6 2593   5.564   2.388   6.666
  213ACTN    C3 2594   5.599   2.344   6.759
  213ACTN    H4 2595   5.702   2.311   6.745
  213ACTN    H5 2596   5.602   2.430   6.826
  213ACTN    C2 2597   5.510   2.225   6.791
  213ACTN    O1 2598   5.491   2.135   6.706
  213ACTN    C1 2599   5.472   2.194   6.931
  213ACTN    H1 2600   5.532   2.109   6.963
  213ACTN    H2 2601   5.371   2.151   6.935
  213ACTN    H3 2602   5.476   2.276   7.003
  214ACTN    H6 2603   3.245   6.373   3.294
  214ACTN    C3 2604   3.286   6.292   3.355
  214ACTN    H4 2605   3.212   6.213   3.366
  214ACTN    H5 2606   3.379   6.259   3.308
  214ACTN    C2 2607   3.321   6.341   3.498
  214ACTN    O1 2608   3.263   6.443   3.539
  214ACTN    C1 2609   3.358   6.233   3.595
  214ACTN    H1 2610   3.439   6.256   3.664
  214ACTN    H2 2611   3.372   6.134   3.550
  214ACTN    H3 2612   3.272   6.225   3.661
  215ACTN    H6 2613   5.597   0.462   5.364
  215ACTN    C3 2614   5.653   0.472   5.271
  215ACTN    H4 2615   5.647   0.576   5.242
  215ACTN    H5 2616   5.761   0.465   5.287
  215ACTN    C2 2617   5.616   0.374   5.169
  215ACTN    O1 2618   5.695   0.356   5.078
  215ACTN    C1 2619   5.474   0.328   5.152
  215ACTN    H1 2620   5.435   0.285   5.245
  215ACTN    H2 2621   5.476   0.260   5.067
  215ACTN    H3 2622   5.407   0.411   5.133
  216ACTN    H6 2623   0.791   4.977   1.119
  216ACTN    C3 2624   0.833   4.999   1.021
  216ACTN    H4 2625   0.819   4.907   0.964
  216ACTN    H5 2626   0.941   5.004   1.039
  216ACTN    C2 2627   0.785   5.125   0.956
  216ACTN    O1 2628   0.715   5.205   1.020
  216ACTN    C1 2629   0.804   5.147   0.809
  216ACTN    H1 2630   0.907   5.169   0.782
  216ACTN    H2 2631   0.745   5.235   0.784
  216ACTN    H3 2632   0.772   5.061   0.750
  217ACTN    H6 2633   2.965   5.793   2.701
  217ACTN    C3 2634   2.929   5.888   2.739
  217ACTN    H4 2635   2.822   5.884   2.759
  217ACTN    H5 2636   2.986   5.911   2.828
  217ACTN    C2 2637   2.946   6.003   2.638
  217ACTN    O1 2638   2.873   6.002   2.538
  217ACTN    C1 2639   3.024   6.127   2.671
  217ACTN    H1 2640   3.080   6.117   2.764
  217ACTN    H2 2641   2.950   6.205   2.688
  217ACTN    H3 2642   3.093   6.158   2.593
  218ACTN    H6 2643   6.307   1.674   5.138
  218ACTN    C3 2644   6.397   1.701   5.193
  218ACTN    H4 2645   6.366   1.755   5.283
  218ACTN    H5 2646   6.459   1.617   5.223
  218ACTN    C2 2647   6.485   1.794   5.115
  218ACTN    O1 2648   6.573   1.751   5.040
  218ACTN    C1 2649   6.487   1.936   5.139
  218ACTN    H1 2650   6.567   1.952   5.210
  218ACTN    H2 2651   6.390   1.964   5.180
  218ACTN    H3 2652   6.499   1.995   5.048
  219ACTN    H6 2653   1.792   5.751   2.892
  219ACTN    C3 2654   1.769   5.857   2.895
  219ACTN    H4 2655   1.693   5.873   2.819
  219ACTN    H5 2656   1.723   5.868   2.994
  219ACTN    C2 2657   1.894   5.940   2.861
  219ACTN    O1 2658   1.881   6.025   2.772
  219ACTN    C1 2659   2.032   5.898   2.908
  219ACTN    H1 2660   2.070   5.981   2.968
  219ACTN    H2 2661   2.100   5.883   2.825
  219ACTN    H3 2662   2.026   5.810   2.973
  220ACTN    H6 2663   0.467   7.460   6.448
  220ACTN    C3 2664   0.552   7.398   6.420
  220ACTN    H4 2665   0.580   7.447   6.327
  220ACTN    H5 2666   0.634   7.408   6.491
  220ACTN    C2 2667   0.497   7.255   6.407
  220ACTN    O1 2668   0.481   7.177   6.503
  220ACTN    C1 2669   0.483   7.196   6.276
  220ACTN    H1 2670   0.545   7.253   6.207
  220ACTN    H2 2671   0.379   7.184   6.246
  220ACTN    H3 2672   0.521   7.094   6.271
  221ACTN    H6 2673   2.512   0.292   0.900
  221ACTN    C3 2674   2.422   0.252   0.853
  221ACTN    H4 2675   2.346   0.273   0.928
  221ACTN    H5 2676   2.432   0.146   0.834
  221ACTN    C2 2677   2.376   0.343   0.748
  221ACTN    O1 2678   2.455   0.427   0.702
  221ACTN    C1 2679   2.236   0.339   0.689
  221ACTN    H1 2680   2.156   0.337   0.764
  221ACTN    H2 2681   2.226   0.250   0.628
  221ACTN    H3 2682   2.220   0.427   0.627
  222ACTN    H6 2683   1.132   5.547   6.184
  222ACTN    C3 2684   1.064   5.631   6.200
  222ACTN    H4 2685   1.126   5.720   6.187
  222ACTN    H5 2686   0.999   5.628   6.113
  222ACTN    C2 2687   1.003   5.625   6.336
  222ACTN    O1 2688   1.020   5.539   6.420
  222ACTN    C1 2689   0.926   5.746   6.377
  222ACTN    H1 2690   0.919   5.812   6.291
  222ACTN    H2 2691   0.973   5.804   6.456
  222ACTN    H3 2692   0.828   5.718   6.415
  223ACTN    H6 2693   6.319   3.455   5.135
  223ACTN    C3 2694   6.326   3.516   5.044
  223ACTN    H4 2695   6.250   3.593   5.041
  223ACTN    H5 2696   6.317   3.454   4.955
  223ACTN    C2 2697   6.452   3.585   5.033
  223ACTN    O1 2698   6.459   3.661   4.940
  223ACTN    C1 2699   6.565   3.535   5.116
  223ACTN    H1 2700   6.543   3.562   5.219
  223ACTN    H2 2701   6.661   3.584   5.096
  223ACTN    H3 2702   6.566   3.427   5.127
  224ACTN    H6 2703   0.587   0.087   2.796
  224ACTN    C3 2704   0.538   0.184   2.804
  224ACTN    H4 2705   0.503   0.218   2.707
  224ACTN    H5 2706   0.450   0.171   2.868
  224ACTN    C2 2707   0.620   0.288   2.869
  224ACTN    O1 2708   0.575   0.407   2.864
  224ACTN    C1 2709   0.751   0.246   2.927
  224ACTN    H1 2710   0.741   0.178   3.011
  224ACTN    H2 2711   0.806   0.332   2.965
  224ACTN    H3 2712   0.820   0.207   2.852
  225ACTN    H6 2713   6.988   7.060   5.386
  225ACTN    C3 2714   6.938   7.049   5.290
  225ACTN    H4 2715   6.867   7.130   5.277
  225ACTN    H5 2716   7.014   7.051   5.212
  225ACTN    C2 2717   6.885   6.915   5.274
  225ACTN    O1 2718   6.766   6.902   5.290
  225ACTN    C1 2719   6.966   6.789   5.241
  225ACTN    H1 2720   7.068   6.826   5.229
  225ACTN    H2 2721   6.944   6.741   5.146
  225ACTN    H3 2722   6.964   6.716   5.322
  226ACTN    H6 2723   6.417   4.665   4.983
  226ACTN    C3 2724   6.443   4.732   4.901
  226ACTN    H4 2725   6.516   4.682   4.839
  226ACTN    H5 2726   6.359   4.751   4.834
  226ACTN    C2 2727   6.505   4.861   4.963
  226ACTN    O1 2728   6.595   4.858   5.045
  226ACTN    C1 2729   6.441   4.996   4.937
  226ACTN    H1 2730   6.497   5.077   4.984
  226ACTN    H2 2731   6.335   5.000   4.960
  226ACTN    H3 2732   6.443   5.026   4.832
  227ACTN    H6 2733   0.353   6.707   6.159
  227ACTN    C3 2734   0.328   6.811   6.137
  227ACTN    H4 2735   0.235   6.824   6.082
  227ACTN    H5 2736   0.324   6.858   6.236
  227ACTN    C2 2737   0.443   6.868   6.054
  227ACTN    O1 2738   0.561   6.850   6.077
  227ACTN    C1 2739   0.407   6.956   5.937
  227ACTN    H1 2740   0.347   6.896   5.868
  227ACTN    H2 2741   0.488   7.004   5.883
  227ACTN    H3 2742   0.338   7.031   5.975
  228ACTN    H6 2743   3.143   7.214   2.825
  228ACTN    C3 2744   3.164   7.149   2.910
  228ACTN    H4 2745   3.096   7.177   2.991
  228ACTN    H5 2746   3.140   7.047   2.881
  228ACTN    C2 2747   3.306   7.168   2.938
  228ACTN    O1 2748   3.372   7.069   2.962
  228ACTN    C1 2749   3.351   7.290   3.009
  228ACTN    H1 2750   3.406   7.359   2.945
  228ACTN    H2 2751   3.393   7.279   3.109
  228ACTN    H3 2752   3.255   7.335   3.034
  229ACTN    H6 2753   3.301   7.479   5.972
  229ACTN    C3 2754   3.315   7.390   6.034
  229ACTN    H4 2755   3.362   7.315   5.971
  229ACTN    H5 2756   3.394   7.419   6.103
  229ACTN    C2 2757   3.202   7.351   6.119
  229ACTN    O1 2758   3.176   7.398   6.230
  229ACTN    C1 2759   3.082   7.296   6.050
  229ACTN    H1 2760   3.107   7.214   5.983
  229ACTN    H2 2761   3.049   7.376   5.983
  229ACTN    H3 2762   2.993   7.269   6.107
  230ACTN    H6 2763   3.540   0.192   2.530
  230ACTN    C3 2764   3.496   0.168   2.627
  230ACTN    H4 2765   3.561   0.187   2.712
  230ACTN    H5 2766   3.407   0.229   2.646
  230ACTN    C2 2767   3.452   0.026   2.637
  230ACTN    O1 2768   3.336  -0.008   2.614
  230ACTN    C1 2769   3.547  -0.087   2.671
  230ACTN    H1 2770   3.520  -0.129   2.768
  230ACTN    H2 2771   3.648  -0.052   2.692
  230ACTN    H3 2772   3.562  -0.164   2.596
  231ACTN    H6 2773   3.543   6.942   2.405
  231ACTN    C3 2774   3.638   6.981   2.368
  231ACTN    H4 2775   3.623   7.077   2.320
  231ACTN    H5 2776   3.706   6.982   2.453
  231ACTN    C2 2777   3.687   6.877   2.273
  231ACTN    O1 2778   3.721   6.898   2.154
  231ACTN    C1 2779   3.691   6.737   2.325
  231ACTN    H1 2780   3.787   6.690   2.304
  231ACTN    H2 2781   3.615   6.674   2.279
  231ACTN    H3 2782   3.670   6.736   2.432
  232ACTN    H6 2783   5.335   7.302   5.086
  232ACTN    C3 2784   5.395   7.277   5.173
  232ACTN    H4 2785   5.497   7.250   5.146
  232ACTN    H5 2786   5.401   7.359   5.244
  232ACTN    C2 2787   5.345   7.160   5.253
  232ACTN    O1 2788   5.270   7.176   5.350
  232ACTN    C1 2789   5.388   7.027   5.207
  232ACTN    H1 2790   5.496   7.028   5.216
  232ACTN    H2 2791   5.351   7.009   5.105
  232ACTN    H3 2792   5.354   6.948   5.274
  233ACTN    H6 2793   2.715   1.615   4.588
  233ACTN    C3 2794   2.628   1.677   4.566
  233ACTN    H4 2795   2.622   1.751   4.646
  233ACTN    H5 2796   2.640   1.723   4.468
  233ACTN    C2 2797   2.505   1.587   4.582
  233ACTN    O1 2798   2.415   1.596   4.501
  233ACTN    C1 2799   2.478   1.511   4.702
  233ACTN    H1 2800   2.396   1.440   4.702
  233ACTN    H2 2801   2.461   1.587   4.779
  233ACTN    H3 2802   2.570   1.458   4.727
  234ACTN    H6 2803   5.603   3.564   4.213
  234ACTN    C3 2804   5.514   3.502   4.232
  234ACTN    H4 2805   5.454   3.562   4.301
  234ACTN    H5 2806   5.459   3.490   4.139
  234ACTN    C2 2807   5.568   3.375   4.298
  234ACTN    O1 2808   5.615   3.382   4.407
  234ACTN    C1 2809   5.600   3.265   4.206
  234ACTN    H1 2810   5.564   3.282   4.104
  234ACTN    H2 2811   5.564   3.168   4.238
  234ACTN    H3 2812   5.709   3.262   4.197
  235ACTN    H6 2813   1.385   1.168   0.205
  235ACTN    C3 2814   1.284   1.125   0.209
  235ACTN    H4 2815   1.259   1.080   0.113
  235ACTN    H5 2816   1.223   1.214   0.226
  235ACTN    C2 2817   1.275   1.021   0.313
  235ACTN    O1 2818   1.377   0.971   0.359
  235ACTN    C1 2819   1.139   0.989   0.358
  235ACTN    H1 2820   1.126   1.047   0.449
  235ACTN    H2 2821   1.121   0.884   0.381
  235ACTN    H3 2822   1.062   1.021   0.287
  236ACTN    H6 2823   6.078   2.274   5.866
  236ACTN    C3 2824   6.083   2.382   5.884
  236ACTN    H4 2825   6.004   2.411   5.954
  236ACTN    H5 2826   6.178   2.403   5.932
  236ACTN    C2 2827   6.076   2.453   5.746
  236ACTN    O1 2828   6.147   2.426   5.656
  236ACTN    C1 2829   5.971   2.558   5.725
  236ACTN    H1 2830   5.988   2.613   5.633
  236ACTN    H2 2831   5.967   2.631   5.806
  236ACTN    H3 2832   5.874   2.508   5.733
  237ACTN    H6 2833   2.765   2.127   3.831
  237ACTN    C3 2834   2.729   2.229   3.824
  237ACTN    H4 2835   2.673   2.243   3.917
  237ACTN    H5 2836   2.810   2.301   3.830
  237ACTN    C2 2837   2.635   2.247   3.709
  237ACTN    O1 2838   2.518   2.276   3.729
  237ACTN    C1 2839   2.671   2.196   3.575
  237ACTN    H1 2840   2.700   2.091   3.584
  237ACTN    H2 2841   2.759   2.252   3.545
  237ACTN    H3 2842   2.601   2.208   3.493
  238ACTN    H6 2843   6.978   3.459   0.854
  238ACTN    C3 2844   7.021   3.519   0.774
  238ACTN    H4 2845   7.046   3.448   0.694
  238ACTN    H5 2846   6.939   3.580   0.736
  238ACTN    C2 2847   7.128   3.607   0.819
  238ACTN    O1 2848   7.196   3.564   0.915
  238ACTN    C1 2849   7.152   3.737   0.758
  238ACTN    H1 2850   7.186   3.814   0.827
  238ACTN    H2 2851   7.061   3.783   0.719
  238ACTN    H3 2852   7.226   3.732   0.679
  239ACTN    H6 2853   6.232   2.645   5.443
  239ACTN    C3 2854   6.174   2.737   5.430
  239ACTN    H4 2855   6.162   2.789   5.525
  239ACTN    H5 2856   6.231   2.800   5.361
  239ACTN    C2 2857   6.043   2.714   5.364
  239ACTN    O1 2858   5.937   2.750   5.416
  239ACTN    C1 2859   6.052   2.644   5.228
  239ACTN    H1 2860   5.955   2.637   5.179
  239ACTN    H2 2861   6.106   2.550   5.233
  239ACTN    H3 2862   6.107   2.716   5.167
  240ACTN    H6 2863   5.014   3.876   7.493
  240ACTN    C3 2864   5.003   3.768   7.480
  240ACTN    H4 2865   5.064   3.729   7.562
  240ACTN    H5 2866   4.899   3.750   7.505
  240ACTN    C2 2867   5.031   3.722   7.340
  240ACTN    O1 2868   5.150   3.708   7.307
  240ACTN    C1 2869   4.927   3.695   7.240
  240ACTN    H1 2870   4.904   3.591   7.217
  240ACTN    H2 2871   4.956   3.748   7.149
  240ACTN    H3 2872   4.835   3.743   7.275
  241ACTN    H6 2873   2.040   5.946   0.952
  241ACTN    C3 2874   1.931   5.951   0.944
  241ACTN    H4 2875   1.903   6.010   0.857
  241ACTN    H5 2876   1.895   5.849   0.928
  241ACTN    C2 2877   1.883   6.012   1.069
  241ACTN    O1 2878   1.823   6.119   1.060
  241ACTN    C1 2879   1.904   5.945   1.196
  241ACTN    H1 2880   1.974   5.861   1.184
  241ACTN    H2 2881   1.810   5.906   1.235
  241ACTN    H3 2882   1.944   6.014   1.270
  242ACTN    H6 2883   6.393   1.356   3.869
  242ACTN    C3 2884   6.373   1.288   3.786
  242ACTN    H4 2885   6.265   1.279   3.774
  242ACTN    H5 2886   6.412   1.329   3.692
  242ACTN    C2 2887   6.430   1.155   3.828
  242ACTN    O1 2888   6.552   1.154   3.839
  242ACTN    C1 2889   6.354   1.030   3.848
  242ACTN    H1 2890   6.329   0.996   3.747
  242ACTN    H2 2891   6.269   1.042   3.915
  242ACTN    H3 2892   6.422   0.957   3.891
  243ACTN    H6 2893   2.524   1.603   3.906
  243ACTN    C3 2894   2.588   1.548   3.975
  243ACTN    H4 2895   2.517   1.496   4.039
  243ACTN    H5 2896   2.636   1.465   3.922
  243ACTN    C2 2897   2.678   1.627   4.055
  243ACTN    O1 2898   2.641   1.704   4.148
  243ACTN    C1 2899   2.823   1.595   4.048
  243ACTN    H1 2900   2.841   1.605   3.941
  243ACTN    H2 2901   2.837   1.490   4.073
  243ACTN    H3 2902   2.887   1.662   4.104
  244ACTN    H6 2903   4.707   5.831   1.331
  244ACTN    C3 2904   4.754   5.762   1.261
  244ACTN    H4 2905   4.820   5.692   1.313
  244ACTN    H5 2906   4.679   5.704   1.207
  244ACTN    C2 2907   4.843   5.838   1.162
  244ACTN    O1 2908   4.873   5.789   1.052
  244ACTN    C1 2909   4.925   5.944   1.225
  244ACTN    H1 2910   4.969   6.006   1.147
  244ACTN    H2 2911   5.011   5.902   1.277
  244ACTN    H3 2912   4.870   6.005   1.296
  245ACTN    H6 2913   0.993   5.705   5.707
  245ACTN    C3 2914   0.993   5.804   5.661
  245ACTN    H4 2915   1.022   5.780   5.559
  245ACTN    H5 2916   0.891   5.839   5.650
  245ACTN    C2 2917   1.076   5.901   5.731
  245ACTN    O1 2918   1.099   6.010   5.688
  245ACTN    C1 2919   1.134   5.874   5.868
  245ACTN    H1 2920   1.237   5.912   5.874
  245ACTN    H2 2921   1.136   5.766   5.874
  245ACTN    H3 2922   1.074   5.914   5.950
  246ACTN    H6 2923   1.467   1.744   5.549
  246ACTN    C3 2924   1.437   1.837   5.598
  246ACTN    H4 2925   1.449   1.819   5.705
  246ACTN    H5 2926   1.513   1.912   5.575
  246ACTN    C2 2927   1.297   1.866   5.569
  246ACTN    O1 2928   1.212   1.845   5.652
  246ACTN    C1 2929   1.261   1.911   5.434
  246ACTN    H1 2930   1.191   1.839   5.392
  246ACTN    H2 2931   1.346   1.914   5.366
  246ACTN    H3 2932   1.200   2.002   5.426
  247ACTN    H6 2933   6.850   6.326   3.716
  247ACTN    C3 2934   6.745   6.305   3.733
  247ACTN    H4 2935   6.706   6.377   3.806
  247ACTN    H5 2936   6.732   6.207   3.779
  247ACTN    C2 2937   6.683   6.305   3.594
  247ACTN    O1 2938   6.748   6.332   3.495
  247ACTN    C1 2939   6.540   6.274   3.585
  247ACTN    H1 2940   6.512   6.182   3.637
  247ACTN    H2 2941   6.510   6.265   3.481
  247ACTN    H3 2942   6.473   6.351   3.624
  248ACTN    H6 2943   5.940   6.923   0.804
  248ACTN    C3 2944   5.836   6.935   0.835
  248ACTN    H4 2945   5.787   6.982   0.749
  248ACTN    H5 2946   5.800   6.832   0.839
  248ACTN    C2 2947   5.824   7.005   0.966
  248ACTN    O1 2948   5.884   7.104   0.992
  248ACTN    C1 2949   5.721   6.963   1.059
  248ACTN    H1 2950   5.727   7.012   1.156
  248ACTN    H2 2951   5.719   6.855   1.076
  248ACTN    H3 2952   5.623   6.985   1.019
  249ACTN    H6 2953   4.313   6.898   3.324
  249ACTN    C3 2954   4.359   6.993   3.351
  249ACTN    H4 2955   4.444   6.983   3.419
  249ACTN    H5 2956   4.403   7.028   3.258
  249ACTN    C2 2957   4.271   7.108   3.401
  249ACTN    O1 2958   4.323   7.219   3.425
  249ACTN    C1 2959   4.127   7.072   3.443
  249ACTN    H1 2960   4.142   7.006   3.529
  249ACTN    H2 2961   4.088   7.014   3.359
  249ACTN    H3 2962   4.064   7.152   3.481
  250ACTN    H6 2963   5.536   5.156   3.517
  250ACTN    C3 2964   5.625   5.203   3.560
  250ACTN    H4 2965   5.710   5.165   3.504
  250ACTN    H5 2966   5.635   5.170   3.663
  250ACTN    C2 2967   5.636   5.352   3.561
  250ACTN    O1 2968   5.651   5.413   3.457
  250ACTN    C1 2969   5.647   5.424   3.693
  250ACTN    H1 2970   5.638   5.350   3.772
  250ACTN    H2 2971   5.561   5.488   3.710
  250ACTN    H3 2972   5.740   5.477   3.672
  251ACTN    H6 2973   4.785   5.969   1.772
  251ACTN    C3 2974   4.771   6.064   1.721
  251ACTN    H4 2975   4.805   6.141   1.790
  251ACTN    H5 2976   4.839   6.062   1.636
  251ACTN    C2 2977   4.622   6.064   1.678
  251ACTN    O1 2978   4.553   6.157   1.699
  251ACTN    C1 2979   4.557   5.943   1.627
  251ACTN    H1 2980   4.461   5.961   1.579
  251ACTN    H2 2981   4.546   5.878   1.714
  251ACTN    H3 2982   4.627   5.900   1.556
  252ACTN    H6 2983   2.277   3.217   2.853
  252ACTN    C3 2984   2.385   3.207   2.852
  252ACTN    H4 2985   2.409   3.177   2.954
  252ACTN    H5 2986   2.422   3.138   2.776
  252ACTN    C2 2987   2.462   3.335   2.828
  252ACTN    O1 2988   2.413   3.443   2.788
  252ACTN    C1 2989   2.605   3.320   2.840
  252ACTN    H1 2990   2.649   3.420   2.849
  252ACTN    H2 2991   2.655   3.271   2.756
  252ACTN    H3 2992   2.621   3.271   2.936
  253ACTN    H6 2993   7.155   7.357   4.424
  253ACTN    C3 2994   7.190   7.319   4.328
  253ACTN    H4 2995   7.145   7.223   4.302
  253ACTN    H5 2996   7.169   7.392   4.251
  253ACTN    C2 2997   7.341   7.296   4.333
  253ACTN    O1 2998   7.404   7.271   4.234
  253ACTN    C1 2999   7.394   7.298   4.469
  253ACTN    H1 3000   7.503   7.295   4.458
  253ACTN    H2 3001   7.358   7.214   4.529
  253ACTN    H3 3002   7.365   7.396   4.504
  254ACTN    H6 3003   4.839   4.337   1.474
  254ACTN    C3 3004   4.808   4.296   1.378
  254ACTN    H4 3005   4.708   4.330   1.351
  254ACTN    H5 3006   4.878   4.344   1.309
  254ACTN    C2 3007   4.818   4.149   1.394
  254ACTN    O1 3008   4.855   4.079   1.297
  254ACTN    C1 3009   4.737   4.087   1.508
  254ACTN    H1 3010   4.662   4.163   1.532
  254ACTN    H2 3011   4.798   4.063   1.594
  254ACTN    H3 3012   4.697   3.992   1.473
  255ACTN    H6 3013   6.705  -0.004   5.473
  255ACTN    C3 3014   6.630   0.042   5.409
  255ACTN    H4 3015   6.560  -0.033   5.372
  255ACTN    H5 3016   6.583   0.117   5.472
  255ACTN    C2 3017   6.682   0.114   5.293
  255ACTN    O1 3018   6.801   0.147   5.290
  255ACTN    C1 3019   6.594   0.130   5.164
  255ACTN    H1 3020   6.556   0.232   5.162
  255ACTN    H2 3021   6.519   0.052   5.149
  255ACTN    H3 3022   6.665   0.116   5.082
  256ACTN    H6 3023   3.932   5.115   4.388
  256ACTN    C3 3024   3.908   5.183   4.306
  256ACTN    H4 3025   3.804   5.216   4.313
  256ACTN    H5 3026   3.970   5.272   4.306
  256ACTN    C2 3027   3.931   5.110   4.186
  256ACTN    O1 3028   4.006   5.148   4.100
  256ACTN    C1 3029   3.859   4.982   4.152
  256ACTN    H1 3030   3.926   4.898   4.135
  256ACTN    H2 3031   3.798   4.989   4.062
  256ACTN    H3 3032   3.782   4.960   4.226
  257ACTN    H6 3033   3.190   2.421   5.232
  257ACTN    C3 3034   3.136   2.375   5.149
  257ACTN    H4 3035   3.029   2.397   5.150
  257ACTN    H5 3036   3.165   2.431   5.060
  257ACTN    C2 3037   3.161   2.233   5.144
  257ACTN    O1 3038   3.196   2.174   5.247
  257ACTN    C1 3039   3.133   2.143   5.027
  257ACTN    H1 3040   3.100   2.205   4.944
  257ACTN    H2 3041   3.049   2.079   5.054
  257ACTN    H3 3042   3.220   2.082   5.006
  258ACTN    H6 3043   1.636   0.889   4.031
  258ACTN    C3 3044   1.722   0.833   3.992
  258ACTN    H4 3045   1.796   0.912   3.977
  258ACTN    H5 3046   1.686   0.789   3.899
  258ACTN    C2 3047   1.769   0.748   4.091
  258ACTN    O1 3048   1.698   0.748   4.194
  258ACTN    C1 3049   1.894   0.676   4.074
  258ACTN    H1 3050   1.873   0.569   4.077
  258ACTN    H2 3051   1.968   0.700   4.151
  258ACTN    H3 3052   1.934   0.693   3.974
  259ACTN    H6 3053   1.859   1.577   2.444
  259ACTN    C3 3054   1.950   1.533   2.486
  259ACTN    H4 3055   1.987   1.461   2.413
  259ACTN    H5 3056   2.022   1.613   2.500
  259ACTN    C2 3057   1.901   1.452   2.603
  259ACTN    O1 3058   1.978   1.439   2.698
  259ACTN    C1 3059   1.787   1.349   2.587
  259ACTN    H1 3060   1.694   1.405   2.591
  259ACTN    H2 3061   1.802   1.263   2.653
  259ACTN    H3 3062   1.793   1.312   2.485
  260ACTN    H6 3063   1.543   7.165   1.576
  260ACTN    C3 3064   1.512   7.098   1.496
  260ACTN    H4 3065   1.608   7.056   1.465
  260ACTN    H5 3066   1.451   7.017   1.535
  260ACTN    C2 3067   1.452   7.166   1.378
  260ACTN    O1 3068   1.499   7.264   1.337
  260ACTN    C1 3069   1.313   7.125   1.336
  260ACTN    H1 3070   1.323   7.075   1.240
  260ACTN    H2 3071   1.250   7.213   1.325
  260ACTN    H3 3072   1.263   7.052   1.399
  261ACTN    H6 3073   1.433   6.144   3.897
  261ACTN    C3 3074   1.538   6.150   3.924
  261ACTN    H4 3075   1.546   6.173   4.030
  261ACTN    H5 3076   1.585   6.055   3.900
  261ACTN    C2 3077   1.622   6.255   3.851
  261ACTN    O1 3078   1.606   6.376   3.869
  261ACTN    C1 3079   1.719   6.202   3.755
  261ACTN    H1 3080   1.675   6.141   3.676
  261ACTN    H2 3081   1.782   6.132   3.810
  261ACTN    H3 3082   1.774   6.284   3.707
  262ACTN    H6 3083   2.924   0.608   5.582
  262ACTN    C3 3084   2.823   0.626   5.618
  262ACTN    H4 3085   2.769   0.690   5.548
  262ACTN    H5 3086   2.763   0.534   5.616
  262ACTN    C2 3087   2.807   0.696   5.754
  262ACTN    O1 3088   2.879   0.797   5.778
  262ACTN    C1 3089   2.733   0.629   5.868
  262ACTN    H1 3090   2.719   0.697   5.952
  262ACTN    H2 3091   2.769   0.529   5.891
  262ACTN    H3 3092   2.630   0.618   5.835
  263ACTN    H6 3093   5.213   3.150   4.480
  263ACTN    C3 3094   5.200   3.112   4.581
  263ACTN    H4 3095   5.132   3.028   4.586
  263ACTN    H5 3096   5.296   3.093   4.630
  263ACTN    C2 3097   5.142   3.230   4.649
  263ACTN    O1 3098   5.039   3.213   4.717
  263ACTN    C1 3099   5.222   3.353   4.641
  263ACTN    H1 3100   5.316   3.337   4.588
  263ACTN    H2 3101   5.242   3.381   4.744
  263ACTN    H3 3102   5.172   3.434   4.588
  264ACTN    H6 3103   5.837   6.428   1.726
  264ACTN    C3 3104   5.788   6.518   1.764
  264ACTN    H4 3105   5.831   6.551   1.859
  264ACTN    H5 3106   5.786   6.596   1.688
  264ACTN    C2 3107   5.648   6.467   1.790
  264ACTN    O1 3108   5.568   6.550   1.841
  264ACTN    C1 3109   5.613   6.323   1.784
  264ACTN    H1 3110   5.546   6.304   1.700
  264ACTN    H2 3111   5.565   6.287   1.875
  264ACTN    H3 3112   5.704   6.265   1.770
  265ACTN    H6 3113   0.051   6.291   3.949
  265ACTN    C3 3114   0.153   6.266   3.917
  265ACTN    H4 3115   0.160   6.312   3.818
  265ACTN    H5 3116   0.163   6.158   3.912
  265ACTN    C2 3117   0.239   6.327   4.017
  265ACTN    O1 3118   0.241   6.449   4.024
  265ACTN    C1 3119   0.294   6.245   4.127
  265ACTN    H1 3120   0.271   6.290   4.224
  265ACTN    H2 3121   0.400   6.229   4.106
  265ACTN    H3 3122   0.254   6.145   4.118
  266ACTN    H6 3123   3.187   4.670   1.593
  266ACTN    C3 3124   3.159   4.738   1.673
  266ACTN    H4 3125   3.051   4.749   1.662
  266ACTN    H5 3126   3.185   4.685   1.765
  266ACTN    C2 3127   3.215   4.872   1.661
  266ACTN    O1 3128   3.288   4.912   1.746
  266ACTN    C1 3129   3.181   4.958   1.537
  266ACTN    H1 3130   3.165   5.061   1.568
  266ACTN    H2 3131   3.095   4.923   1.480
  266ACTN    H3 3132   3.263   4.977   1.468
  267ACTN    H6 3133   0.240   2.011   6.474
  267ACTN    C3 3134   0.248   1.913   6.521
  267ACTN    H4 3135   0.218   1.838   6.447
  267ACTN    H5 3136   0.353   1.901   6.548
  267ACTN    C2 3137   0.157   1.905   6.634
  267ACTN    O1 3138   0.112   1.795   6.664
  267ACTN    C1 3139   0.155   2.019   6.731
  267ACTN    H1 3140   0.119   2.114   6.691
  267ACTN    H2 3141   0.257   2.042   6.763
  267ACTN    H3 3142   0.099   1.994   6.821
  268ACTN    H6 3143   7.106   4.851   0.155
  268ACTN    C3 3144   6.997   4.853   0.148
  268ACTN    H4 3145   6.973   4.781   0.070
  268ACTN    H5 3146   6.962   4.814   0.244
  268ACTN    C2 3147   6.930   4.978   0.114
  268ACTN    O1 3148   6.810   4.990   0.126
  268ACTN    C1 3149   7.018   5.097   0.072
  268ACTN    H1 3150   7.007   5.105  -0.036
  268ACTN    H2 3151   7.120   5.078   0.104
  268ACTN    H3 3152   6.988   5.187   0.126
  269ACTN    H6 3153   3.555   2.346   7.362
  269ACTN    C3 3154   3.527   2.426   7.293
  269ACTN    H4 3155   3.544   2.519   7.347
  269ACTN    H5 3156   3.597   2.431   7.210
  269ACTN    C2 3157   3.386   2.424   7.233
  269ACTN    O1 3158   3.356   2.373   7.128
  269ACTN    C1 3159   3.285   2.506   7.306
  269ACTN    H1 3160   3.317   2.532   7.407
  269ACTN    H2 3161   3.188   2.461   7.326
  269ACTN    H3 3162   3.277   2.605   7.261
  270ACTN    H6 3163   6.290   4.428   6.875
  270ACTN    C3 3164   6.335   4.367   6.796
  270ACTN    H4 3165   6.249   4.313   6.757
  270ACTN    H5 3166   6.366   4.437   6.719
  270ACTN    C2 3167   6.447   4.265   6.816
  270ACTN    O1 3168   6.563   4.317   6.829
  270ACTN    C1 3169   6.424   4.123   6.842
  270ACTN    H1 3170   6.353   4.079   6.772
  270ACTN    H2 3171   6.393   4.105   6.945
  270ACTN    H3 3172   6.516   4.069   6.820
  271ACTN    H6 3173   7.168   2.040   5.281
  271ACTN    C3 3174   7.060   2.043   5.298
  271ACTN    H4 3175   7.029   2.085   5.203
  271ACTN    H5 3176   7.033   1.938   5.310
  271ACTN    C2 3177   7.018   2.118   5.420
  271ACTN    O1 3178   7.099   2.162   5.499
  271ACTN    C1 3179   6.874   2.150   5.425
  271ACTN    H1 3180   6.816   2.100   5.347
  271ACTN    H2 3181   6.863   2.257   5.412
  271ACTN    H3 3182   6.833   2.128   5.524
  272ACTN    H6 3183   4.553   5.729   0.068
  272ACTN    C3 3184   4.506   5.801   0.134
  272ACTN    H4 3185   4.491   5.761   0.234
  272ACTN    H5 3186   4.579   5.881   0.138
  272ACTN    C2 3187   4.372   5.837   0.077
  272ACTN    O1 3188   4.358   5.858  -0.045
  272ACTN    C1 3189   4.255   5.831   0.174
  272ACTN    H1 3190   4.184   5.755   0.142
  272ACTN    H2 3191   4.216   5.932   0.179
  272ACTN    H3 3192   4.293   5.819   0.275
  273ACTN    H6 3193   5.782   5.288   5.462
  273ACTN    C3 3194   5.797   5.383   5.513
  273ACTN    H4 3195   5.753   5.378   5.613
  273ACTN    H5 3196   5.904   5.401   5.527
  273ACTN    C2 3197   5.730   5.506   5.449
  273ACTN    O1 3198   5.618   5.558   5.484
  273ACTN    C1 3199   5.783   5.566   5.329
  273ACTN    H1 3200   5.855   5.497   5.283
  273ACTN    H2 3201   5.825   5.664   5.349
  273ACTN    H3 3202   5.708   5.586   5.252
  274ACTN    H6 3203   6.364   3.375   0.697
  274ACTN    C3 3204   6.388   3.437   0.783
  274ACTN    H4 3205   6.427   3.364   0.854
  274ACTN    H5 3206   6.294   3.474   0.824
  274ACTN    C2 3207   6.480   3.545   0.754
  274ACTN    O1 3208   6.453   3.647   0.696
  274ACTN    C1 3209   6.619   3.539   0.800
  274ACTN    H1 3210   6.650   3.608   0.878
  274ACTN    H2 3211   6.686   3.559   0.716
  274ACTN    H3 3212   6.639   3.436   0.833
  275ACTN    H6 3213   2.370   0.182   4.014
  275ACTN    C3 3214   2.344   0.137   3.918
  275ACTN    H4 3215   2.425   0.161   3.848
  275ACTN    H5 3216   2.339   0.030   3.938
  275ACTN    C2 3217   2.209   0.179   3.857
  275ACTN    O1 3218   2.107   0.147   3.909
  275ACTN    C1 3219   2.208   0.237   3.718
  275ACTN    H1 3220   2.111   0.272   3.681
  275ACTN    H2 3221   2.250   0.168   3.644
  275ACTN    H3 3222   2.270   0.326   3.723
  276ACTN    H6 3223   3.621   2.093   0.236
  276ACTN    C3 3224   3.676   2.017   0.291
  276ACTN    H4 3225   3.777   2.052   0.312
  276ACTN    H5 3226   3.619   2.001   0.383
  276ACTN    C2 3227   3.684   1.888   0.214
  276ACTN    O1 3228   3.733   1.794   0.268
  276ACTN    C1 3229   3.630   1.884   0.074
  276ACTN    H1 3230   3.626   1.782   0.036
  276ACTN    H2 3231   3.699   1.933   0.006
  276ACTN    H3 3232   3.536   1.939   0.079
  277ACTN    H6 3233   1.585   7.336   5.270
  277ACTN    C3 3234   1.622   7.379   5.363
  277ACTN    H4 3235   1.639   7.484   5.344
  277ACTN    H5 3236   1.550   7.369   5.445
  277ACTN    C2 3237   1.756   7.319   5.397
  277ACTN    O1 3238   1.770   7.282   5.515
  277ACTN    C1 3239   1.848   7.284   5.283
  277ACTN    H1 3240   1.790   7.264   5.192
  277ACTN    H2 3241   1.922   7.207   5.306
  277ACTN    H3 3242   1.907   7.371   5.255
  278ACTN    H6 3243   0.842   2.852   3.555
  278ACTN    C3 3244   0.759   2.920   3.577
  278ACTN    H4 3245   0.786   3.019   3.538
  278ACTN    H5 3246   0.678   2.888   3.512
  278ACTN    C2 3247   0.699   2.916   3.718
  278ACTN    O1 3248   0.658   3.024   3.756
  278ACTN    C1 3249   0.629   2.797   3.765
  278ACTN    H1 3250   0.697   2.720   3.799
  278ACTN    H2 3251   0.566   2.750   3.689
  278ACTN    H3 3252   0.566   2.816   3.852
  279ACTN    H6 3253   3.474   1.260   1.690
  279ACTN    C3 3254   3.416   1.202   1.618
  279ACTN    H4 3255   3.423   1.099   1.652
  279ACTN    H5 3256   3.315   1.242   1.628
  279ACTN    C2 3257   3.461   1.220   1.477
  279ACTN    O1 3258   3.383   1.252   1.388
  279ACTN    C1 3259   3.594   1.167   1.441
  279ACTN    H1 3260   3.627   1.224   1.354
  279ACTN    H2 3261   3.596   1.058   1.431
  279ACTN    H3 3262   3.660   1.187   1.525
  280ACTN    H6 3263   1.163   2.398   3.908
  280ACTN    C3 3264   1.098   2.472   3.956
  280ACTN    H4 3265   1.124   2.569   3.915
  280ACTN    H5 3266   0.995   2.443   3.934
  280ACTN    C2 3267   1.113   2.475   4.105
  280ACTN    O1 3268   1.054   2.565   4.163
  280ACTN    C1 3269   1.199   2.381   4.177
  280ACTN    H1 3270   1.149   2.285   4.167
  280ACTN    H2 3271   1.215   2.404   4.283
  280ACTN    H3 3272   1.301   2.377   4.139
  281ACTN    H6 3273   4.468   2.122   0.446
  281ACTN    C3 3274   4.543   2.151   0.373
  281ACTN    H4 3275   4.486   2.134   0.281
  281ACTN    H5 3276   4.569   2.257   0.379
  281ACTN    C2 3277   4.666   2.060   0.393
  281ACTN    O1 3278   4.664   1.939   0.377
  281ACTN    C1 3279   4.798   2.122   0.416
  281ACTN    H1 3280   4.876   2.070   0.360
  281ACTN    H2 3281   4.827   2.117   0.522
  281ACTN    H3 3282   4.795   2.228   0.390
  282ACTN    H6 3283   3.123   4.683   4.708
  282ACTN    C3 3284   3.135   4.685   4.817
  282ACTN    H4 3285   3.046   4.659   4.875
  282ACTN    H5 3286   3.218   4.618   4.838
  282ACTN    C2 3287   3.163   4.825   4.865
  282ACTN    O1 3288   3.159   4.917   4.780
  282ACTN    C1 3289   3.158   4.858   5.009
  282ACTN    H1 3290   3.218   4.945   5.035
  282ACTN    H2 3291   3.203   4.781   5.072
  282ACTN    H3 3292   3.056   4.874   5.046
  283ACTN    H6 3293   3.906   4.632   7.096
  283ACTN    C3 3294   3.829   4.557   7.119
  283ACTN    H4 3295   3.737   4.587   7.070
  283ACTN    H5 3296   3.864   4.464   7.075
  283ACTN    C2 3297   3.818   4.543   7.265
  283ACTN    O1 3298   3.806   4.640   7.339
  283ACTN    C1 3299   3.822   4.401   7.313
  283ACTN    H1 3300   3.756   4.348   7.245
  283ACTN    H2 3301   3.795   4.388   7.418
  283ACTN    H3 3302   3.927   4.373   7.305
  284ACTN    H6 3303   0.539   6.069   4.379
  284ACTN    C3 3304   0.640   6.059   4.340
  284ACTN    H4 3305   0.631   6.135   4.263
  284ACTN    H5 3306   0.725   6.093   4.399
  284ACTN    C2 3307   0.679   5.937   4.270
  284ACTN    O1 3308   0.586   5.854   4.260
  284ACTN    C1 3309   0.797   5.933   4.183
  284ACTN    H1 3310   0.875   5.916   4.257
  284ACTN    H2 3311   0.819   6.018   4.119
  284ACTN    H3 3312   0.797   5.843   4.121
  285ACTN    H6 3313   6.303   1.467   6.656
  285ACTN    C3 3314   6.210   1.442   6.707
  285ACTN    H4 3315   6.239   1.365   6.778
  285ACTN    H5 3316   6.165   1.529   6.754
  285ACTN    C2 3317   6.128   1.379   6.605
  285ACTN    O1 3318   6.009   1.416   6.593
  285ACTN    C1 3319   6.186   1.275   6.517
  285ACTN    H1 3320   6.119   1.189   6.521
  285ACTN    H2 3321   6.283   1.238   6.551
  285ACTN    H3 3322   6.189   1.311   6.414
  286ACTN    H6 3323   5.533   6.301   7.172
  286ACTN    C3 3324   5.632   6.345   7.160
  286ACTN    H4 3325   5.641   6.413   7.245
  286ACTN    H5 3326   5.633   6.407   7.071
  286ACTN    C2 3327   5.744   6.246   7.170
  286ACTN    O1 3328   5.797   6.223   7.281
  286ACTN    C1 3329   5.753   6.138   7.072
  286ACTN    H1 3330   5.743   6.037   7.112
  286ACTN    H2 3331   5.846   6.139   7.015
  286ACTN    H3 3332   5.676   6.151   6.996
  287ACTN    H6 3333   1.845   1.080   6.289
  287ACTN    C3 3334   1.810   1.183   6.279
  287ACTN    H4 3335   1.864   1.228   6.196
  287ACTN    H5 3336   1.707   1.166   6.250
  287ACTN    C2 3337   1.812   1.263   6.405
  287ACTN    O1 3338   1.812   1.384   6.400
  287ACTN    C1 3339   1.767   1.201   6.532
  287ACTN    H1 3340   1.775   1.092   6.522
  287ACTN    H2 3341   1.661   1.219   6.553
  287ACTN    H3 3342   1.826   1.230   6.619
  288ACTN    H6 3343   2.329   1.109   2.857
  288ACTN    C3 3344   2.392   1.028   2.893
  288ACTN    H4 3345   2.398   1.029   3.002
  288ACTN    H5 3346   2.337   0.937   2.869
  288ACTN    C2 3347   2.538   1.044   2.832
  288ACTN    O1 3348   2.568   0.967   2.744
  288ACTN    C1 3349   2.646   1.143   2.877
  288ACTN    H1 3350   2.707   1.101   2.957
  288ACTN    H2 3351   2.596   1.234   2.912
  288ACTN    H3 3352   2.716   1.166   2.797
  289ACTN    H6 3353   4.075   5.194   1.869
  289ACTN    C3 3354   4.050   5.293   1.833
  289ACTN    H4 3355   3.948   5.293   1.796
  289ACTN    H5 3356   4.055   5.355   1.922
  289ACTN    C2 3357   4.150   5.347   1.739
  289ACTN    O1 3358   4.175   5.291   1.629
  289ACTN    C1 3359   4.230   5.469   1.768
  289ACTN    H1 3360   4.228   5.506   1.871
  289ACTN    H2 3361   4.197   5.548   1.702
  289ACTN    H3 3362   4.336   5.447   1.750
  290ACTN    H6 3363   0.401   5.344   3.551
  290ACTN    C3 3364   0.426   5.431   3.490
  290ACTN    H4 3365   0.436   5.409   3.384
  290ACTN    H5 3366   0.341   5.500   3.488
  290ACTN    C2 3367   0.555   5.499   3.537
  290ACTN    O1 3368   0.653   5.437   3.576
  290ACTN    C1 3369   0.572   5.637   3.493
  290ACTN    H1 3370   0.646   5.639   3.413
  290ACTN    H2 3371   0.608   5.701   3.574
  290ACTN    H3 3372   0.481   5.679   3.451
  291ACTN    H6 3373   3.189   4.730   3.489
  291ACTN    C3 3374   3.217   4.758   3.387
  291ACTN    H4 3375   3.302   4.825   3.406
  291ACTN    H5 3376   3.253   4.675   3.327
  291ACTN    C2 3377   3.100   4.829   3.314
  291ACTN    O1 3378   3.004   4.869   3.374
  291ACTN    C1 3379   3.118   4.845   3.170
  291ACTN    H1 3380   3.222   4.869   3.146
  291ACTN    H2 3381   3.054   4.926   3.134
  291ACTN    H3 3382   3.100   4.748   3.124
  292ACTN    H6 3383   0.210   5.721   4.435
  292ACTN    C3 3384   0.215   5.806   4.504
  292ACTN    H4 3385   0.111   5.826   4.529
  292ACTN    H5 3386   0.271   5.774   4.592
  292ACTN    C2 3387   0.282   5.922   4.428
  292ACTN    O1 3388   0.338   6.006   4.503
  292ACTN    C1 3389   0.229   5.950   4.290
  292ACTN    H1 3390   0.183   6.048   4.300
  292ACTN    H2 3391   0.154   5.879   4.254
  292ACTN    H3 3392   0.312   5.956   4.221
  293ACTN    H6 3393   1.973   0.396   2.628
  293ACTN    C3 3394   1.931   0.444   2.717
  293ACTN    H4 3395   1.827   0.413   2.717
  293ACTN    H5 3396   1.975   0.407   2.809
  293ACTN    C2 3397   1.948   0.592   2.714
  293ACTN    O1 3398   1.942   0.654   2.609
  293ACTN    C1 3399   1.995   0.669   2.830
  293ACTN    H1 3400   2.084   0.722   2.797
  293ACTN    H2 3401   2.024   0.605   2.914
  293ACTN    H3 3402   1.917   0.743   2.847
  294ACTN    H6 3403   1.768   1.816   3.847
  294ACTN    C3 3404   1.724   1.781   3.940
  294ACTN    H4 3405   1.698   1.867   4.003
  294ACTN    H5 3406   1.631   1.729   3.915
  294ACTN    C2 3407   1.803   1.680   4.019
  294ACTN    O1 3408   1.892   1.712   4.096
  294ACTN    C1 3409   1.791   1.539   3.966
  294ACTN    H1 3410   1.800   1.535   3.858
  294ACTN    H2 3411   1.701   1.495   4.009
  294ACTN    H3 3412   1.875   1.481   4.003
  295ACTN    H6 3413   4.643   6.363   1.538
  295ACTN    C3 3414   4.732   6.407   1.492
  295ACTN    H4 3415   4.729   6.511   1.523
  295ACTN    H5 3416   4.823   6.365   1.537
  295ACTN    C2 3417   4.731   6.393   1.343
  295ACTN    O1 3418   4.629   6.422   1.279
  295ACTN    C1 3419   4.856   6.378   1.269
  295ACTN    H1 3420   4.938   6.348   1.334
  295ACTN    H2 3421   4.878   6.477   1.229
  295ACTN    H3 3422   4.844   6.312   1.183
  296ACTN    H6 3423   0.996   4.864   6.500
  296ACTN    C3 3424   0.934   4.800   6.437
  296ACTN    H4 3425   0.975   4.812   6.337
  296ACTN    H5 3426   0.948   4.698   6.474
  296ACTN    C2 3427   0.785   4.843   6.442
  296ACTN    O1 3428   0.702   4.755   6.458
  296ACTN    C1 3429   0.744   4.987   6.438
  296ACTN    H1 3430   0.785   5.040   6.524
  296ACTN    H2 3431   0.635   4.990   6.449
  296ACTN    H3 3432   0.763   5.048   6.350
  297ACTN    H6 3433   6.709   6.598   1.384
  297ACTN    C3 3434   6.757   6.534   1.458
  297ACTN    H4 3435   6.739   6.431   1.426
  297ACTN    H5 3436   6.862   6.560   1.466
  297ACTN    C2 3437   6.694   6.547   1.600
  297ACTN    O1 3438   6.685   6.658   1.655
  297ACTN    C1 3439   6.643   6.426   1.672
  297ACTN    H1 3440   6.538   6.433   1.698
  297ACTN    H2 3441   6.705   6.410   1.760
  297ACTN    H3 3442   6.652   6.340   1.605
  298ACTN    H6 3443   3.201   1.329   5.880
  298ACTN    C3 3444   3.103   1.307   5.838
  298ACTN    H4 3445   3.024   1.350   5.900
  298ACTN    H5 3446   3.096   1.350   5.737
  298ACTN    C2 3447   3.109   1.156   5.823
  298ACTN    O1 3448   3.105   1.110   5.709
  298ACTN    C1 3449   3.152   1.073   5.943
  298ACTN    H1 3450   3.249   1.113   5.973
  298ACTN    H2 3451   3.154   0.968   5.914
  298ACTN    H3 3452   3.080   1.088   6.024
  299ACTN    H6 3453   1.420   1.183   5.891
  299ACTN    C3 3454   1.465   1.223   5.800
  299ACTN    H4 3455   1.423   1.180   5.709
  299ACTN    H5 3456   1.456   1.331   5.811
  299ACTN    C2 3457   1.612   1.192   5.803
  299ACTN    O1 3458   1.650   1.129   5.900
  299ACTN    C1 3459   1.709   1.254   5.699
  299ACTN    H1 3460   1.725   1.176   5.625
  299ACTN    H2 3461   1.798   1.271   5.759
  299ACTN    H3 3462   1.672   1.343   5.648
  300ACTN    H6 3463   2.167   3.191   1.441
  300ACTN    C3 3464   2.271   3.221   1.425
  300ACTN    H4 3465   2.303   3.206   1.322
  300ACTN    H5 3466   2.268   3.329   1.439
  300ACTN    C2 3467   2.358   3.153   1.522
  300ACTN    O1 3468   2.474   3.117   1.488
  300ACTN    C1 3469   2.300   3.108   1.659
  300ACTN    H1 3470   2.340   3.012   1.690
  300ACTN    H2 3471   2.193   3.113   1.641
  300ACTN    H3 3472   2.332   3.188   1.726
  301ACTN    H6 3473   3.732   3.773   1.684
  301ACTN    C3 3474   3.645   3.722   1.644
  301ACTN    H4 3475   3.639   3.732   1.535
  301ACTN    H5 3476   3.649   3.615   1.666
  301ACTN    C2 3477   3.525   3.778   1.710
  301ACTN    O1 3478   3.495   3.891   1.689
  301ACTN    C1 3479   3.425   3.690   1.776
  301ACTN    H1 3480   3.320   3.706   1.750
  301ACTN    H2 3481   3.448   3.705   1.881
  301ACTN    H3 3482   3.436   3.583   1.754
  302ACTN    H6 3483   1.124   1.442   4.851
  302ACTN    C3 3484   1.030   1.387   4.854
  302ACTN    H4 3485   1.046   1.279   4.852
  302ACTN    H5 3486   0.970   1.413   4.941
  302ACTN    C2 3487   0.958   1.444   4.732
  302ACTN    O1 3488   0.958   1.386   4.624
  302ACTN    C1 3489   0.881   1.570   4.755
  302ACTN    H1 3490   0.816   1.588   4.669
  302ACTN    H2 3491   0.945   1.657   4.770
  302ACTN    H3 3492   0.817   1.555   4.842
  303ACTN    H6 3493   6.383   1.476   4.855
  303ACTN    C3 3494   6.448   1.389   4.845
  303ACTN    H4 3495   6.404   1.329   4.766
  303ACTN    H5 3496   6.550   1.410   4.813
  303ACTN    C2 3497   6.454   1.300   4.961
  303ACTN    O1 3498   6.543   1.319   5.041
  303ACTN    C1 3499   6.330   1.216   4.995
  303ACTN    H1 3500   6.302   1.240   5.098
  303ACTN    H2 3501   6.339   1.110   4.970
  303ACTN    H3 3502   6.243   1.255   4.942
  304ACTN    H6 3503   1.574   1.943   2.732
  304ACTN    C3 3504   1.669   1.922   2.780
  304ACTN    H4 3505   1.721   2.015   2.802
  304ACTN    H5 3506   1.646   1.871   2.874
  304ACTN    C2 3507   1.740   1.823   2.687
  304ACTN    O1 3508   1.692   1.713   2.665
  304ACTN    C1 3509   1.860   1.871   2.606
  304ACTN    H1 3510   1.949   1.821   2.644
  304ACTN    H2 3511   1.868   1.979   2.621
  304ACTN    H3 3512   1.846   1.846   2.501
  305ACTN    H6 3513   6.929   3.800   0.228
  305ACTN    C3 3514   7.032   3.787   0.196
  305ACTN    H4 3515   7.046   3.694   0.143
  305ACTN    H5 3516   7.060   3.866   0.127
  305ACTN    C2 3517   7.116   3.774   0.323
  305ACTN    O1 3518   7.096   3.704   0.418
  305ACTN    C1 3519   7.225   3.875   0.340
  305ACTN    H1 3520   7.259   3.873   0.444
  305ACTN    H2 3521   7.199   3.978   0.316
  305ACTN    H3 3522   7.315   3.848   0.284
  306ACTN    H6 3523   2.516   6.443   3.593
  306ACTN    C3 3524   2.421   6.414   3.548
  306ACTN    H4 3525   2.366   6.504   3.520
  306ACTN    H5 3526   2.443   6.355   3.460
  306ACTN    C2 3527   2.342   6.328   3.642
  306ACTN    O1 3528   2.282   6.381   3.732
  306ACTN    C1 3529   2.330   6.175   3.622
  306ACTN    H1 3530   2.402   6.116   3.679
  306ACTN    H2 3531   2.345   6.149   3.518
  306ACTN    H3 3532   2.235   6.131   3.655
  307ACTN    H6 3533   3.156   3.967   1.457
  307ACTN    C3 3534   3.261   3.967   1.430
  307ACTN    H4 3535   3.282   4.049   1.361
  307ACTN    H5 3536   3.327   3.982   1.515
  307ACTN    C2 3537   3.302   3.831   1.368
  307ACTN    O1 3538   3.417   3.797   1.343
  307ACTN    C1 3539   3.201   3.724   1.358
  307ACTN    H1 3540   3.110   3.770   1.318
  307ACTN    H2 3541   3.187   3.674   1.454
  307ACTN    H3 3542   3.230   3.644   1.289
  308ACTN    H6 3543   0.934   3.918   2.754
  308ACTN    C3 3544   1.013   3.926   2.830
  308ACTN    H4 3545   0.988   4.009   2.897
  308ACTN    H5 3546   0.996   3.844   2.900
  308ACTN    C2 3547   1.151   3.910   2.774
  308ACTN    O1 3548   1.168   3.836   2.680
  308ACTN    C1 3549   1.269   3.986   2.831
  308ACTN    H1 3550   1.360   3.952   2.781
  308ACTN    H2 3551   1.287   3.972   2.937
  308ACTN    H3 3552   1.262   4.093   2.812
  309ACTN    H6 3553   6.783   1.029   4.176
  309ACTN    C3 3554   6.757   1.013   4.072
  309ACTN    H4 3555   6.673   0.945   4.059
  309ACTN    H5 3556   6.733   1.101   4.011
  309ACTN    C2 3557   6.880   0.948   4.011
  309ACTN    O1 3558   6.984   0.932   4.078
  309ACTN    C1 3559   6.867   0.876   3.880
  309ACTN    H1 3560   6.801   0.792   3.902
  309ACTN    H2 3561   6.964   0.847   3.840
  309ACTN    H3 3562   6.827   0.944   3.805
  310ACTN    H6 3563   3.747   6.660   1.419
  310ACTN    C3 3564   3.834   6.606   1.381
  310ACTN    H4 3565   3.846   6.508   1.426
  310ACTN    H5 3566   3.825   6.598   1.273
  310ACTN    C2 3567   3.958   6.685   1.403
  310ACTN    O1 3568   3.970   6.793   1.350
  310ACTN    C1 3569   4.066   6.630   1.494
  310ACTN    H1 3570   4.143   6.702   1.525
  310ACTN    H2 3571   4.108   6.538   1.454
  310ACTN    H3 3572   4.016   6.606   1.587
  311ACTN    H6 3573   1.459   5.888   2.177
  311ACTN    C3 3574   1.558   5.921   2.210
  311ACTN    H4 3575   1.616   5.926   2.118
  311ACTN    H5 3576   1.549   6.018   2.257
  311ACTN    C2 3577   1.620   5.836   2.314
  311ACTN    O1 3578   1.731   5.783   2.296
  311ACTN    C1 3579   1.532   5.788   2.425
  311ACTN    H1 3580   1.449   5.857   2.437
  311ACTN    H2 3581   1.579   5.779   2.523
  311ACTN    H3 3582   1.480   5.696   2.398
  312ACTN    H6 3583   3.469   6.787   4.848
  312ACTN    C3 3584   3.526   6.695   4.857
  312ACTN    H4 3585   3.485   6.621   4.789
  312ACTN    H5 3586   3.628   6.717   4.826
  312ACTN    C2 3587   3.505   6.654   5.004
  312ACTN    O1 3588   3.393   6.610   5.038
  312ACTN    C1 3589   3.626   6.631   5.081
  312ACTN    H1 3590   3.686   6.722   5.085
  312ACTN    H2 3591   3.681   6.541   5.053
  312ACTN    H3 3592   3.591   6.613   5.183
  313ACTN    H6 3593   7.342   5.000   6.729
  313ACTN    C3 3594   7.276   5.033   6.649
  313ACTN    H4 3595   7.218   4.948   6.612
  313ACTN    H5 3596   7.202   5.104   6.686
  313ACTN    C2 3597   7.353   5.087   6.534
  313ACTN    O1 3598   7.364   5.018   6.433
  313ACTN    C1 3599   7.377   5.239   6.535
  313ACTN    H1 3600   7.323   5.297   6.609
  313ACTN    H2 3601   7.356   5.290   6.441
  313ACTN    H3 3602   7.482   5.260   6.552
  314ACTN    H6 3603   3.200   0.507   4.405
  314ACTN    C3 3604   3.105   0.560   4.412
  314ACTN    H4 3605   3.123   0.663   4.381
  314ACTN    H5 3606   3.036   0.518   4.339
  314ACTN    C2 3607   3.064   0.547   4.557
  314ACTN    O1 3608   3.040   0.642   4.628
  314ACTN    C1 3609   3.042   0.407   4.606
  314ACTN    H1 3610   2.964   0.349   4.556
  314ACTN    H2 3611   3.016   0.426   4.710
  314ACTN    H3 3612   3.138   0.354   4.606
  315ACTN    H6 3613   1.006   5.409   3.680
  315ACTN    C3 3614   1.000   5.512   3.644
  315ACTN    H4 3615   1.096   5.534   3.597
  315ACTN    H5 3616   0.915   5.524   3.578
  315ACTN    C2 3617   0.983   5.601   3.761
  315ACTN    O1 3618   1.071   5.687   3.776
  315ACTN    C1 3619   0.848   5.604   3.826
  315ACTN    H1 3620   0.781   5.682   3.791
  315ACTN    H2 3621   0.860   5.616   3.934
  315ACTN    H3 3622   0.793   5.512   3.806
  316ACTN    H6 3623   2.112   1.847   3.338
  316ACTN    C3 3624   2.135   1.906   3.427
  316ACTN    H4 3625   2.054   1.895   3.499
  316ACTN    H5 3626   2.219   1.847   3.462
  316ACTN    C2 3627   2.178   2.047   3.392
  316ACTN    O1 3628   2.174   2.100   3.279
  316ACTN    C1 3629   2.237   2.129   3.509
  316ACTN    H1 3630   2.175   2.217   3.526
  316ACTN    H2 3631   2.331   2.173   3.475
  316ACTN    H3 3632   2.258   2.078   3.603
  317ACTN    H6 3633   2.087   0.135   4.172
  317ACTN    C3 3634   2.177   0.104   4.226
  317ACTN    H4 3635   2.135   0.054   4.314
  317ACTN    H5 3636   2.241   0.044   4.162
  317ACTN    C2 3637   2.236   0.239   4.266
  317ACTN    O1 3638   2.157   0.323   4.310
  317ACTN    C1 3639   2.387   0.263   4.264
  317ACTN    H1 3640   2.441   0.169   4.248
  317ACTN    H2 3641   2.409   0.312   4.359
  317ACTN    H3 3642   2.411   0.330   4.181
  318ACTN    H6 3643   5.332   2.450   6.873
  318ACTN    C3 3644   5.347   2.558   6.886
  318ACTN    H4 3645   5.443   2.578   6.933
  318ACTN    H5 3646   5.339   2.601   6.786
  318ACTN    C2 3647   5.248   2.612   6.978
  318ACTN    O1 3648   5.131   2.580   6.950
  318ACTN    C1 3649   5.281   2.675   7.110
  318ACTN    H1 3650   5.223   2.620   7.185
  318ACTN    H2 3651   5.247   2.779   7.114
  318ACTN    H3 3652   5.388   2.674   7.132
  319ACTN    H6 3653   6.106   7.061   0.871
  319ACTN    C3 3654   6.205   7.016   0.869
  319ACTN    H4 3655   6.193   6.910   0.890
  319ACTN    H5 3656   6.227   7.011   0.763
  319ACTN    C2 3657   6.307   7.083   0.954
  319ACTN    O1 3658   6.383   7.159   0.895
  319ACTN    C1 3659   6.292   7.084   1.105
  319ACTN    H1 3660   6.372   7.145   1.147
  319ACTN    H2 3661   6.293   6.985   1.151
  319ACTN    H3 3662   6.196   7.131   1.127
  320ACTN    H6 3663   3.074   1.655   2.036
  320ACTN    C3 3664   3.073   1.633   2.142
  320ACTN    H4 3665   3.070   1.731   2.188
  320ACTN    H5 3666   2.987   1.577   2.178
  320ACTN    C2 3667   3.202   1.566   2.176
  320ACTN    O1 3668   3.285   1.540   2.092
  320ACTN    C1 3669   3.240   1.533   2.321
  320ACTN    H1 3670   3.346   1.547   2.339
  320ACTN    H2 3671   3.216   1.428   2.343
  320ACTN    H3 3672   3.189   1.604   2.386
  321ACTN    H6 3673   2.619   3.678   6.768
  321ACTN    C3 3674   2.546   3.759   6.773
  321ACTN    H4 3675   2.449   3.726   6.735
  321ACTN    H5 3676   2.545   3.801   6.874
  321ACTN    C2 3677   2.584   3.861   6.678
  321ACTN    O1 3678   2.569   3.982   6.703
  321ACTN    C1 3679   2.669   3.824   6.559
  321ACTN    H1 3680   2.684   3.716   6.551
  321ACTN    H2 3681   2.764   3.878   6.566
  321ACTN    H3 3682   2.616   3.853   6.468
  322ACTN    H6 3683   2.230   1.450   3.515
  322ACTN    C3 3684   2.131   1.495   3.505
  322ACTN    H4 3685   2.149   1.603   3.501
  322ACTN    H5 3686   2.082   1.460   3.414
  322ACTN    C2 3687   2.052   1.457   3.622
  322ACTN    O1 3688   1.945   1.511   3.640
  322ACTN    C1 3689   2.087   1.343   3.711
  322ACTN    H1 3690   2.028   1.260   3.673
  322ACTN    H2 3691   2.070   1.357   3.818
  322ACTN    H3 3692   2.190   1.309   3.705
  323ACTN    H6 3693   3.706   6.437   4.400
  323ACTN    C3 3694   3.778   6.359   4.373
  323ACTN    H4 3695   3.822   6.310   4.460
  323ACTN    H5 3696   3.731   6.283   4.311
  323ACTN    C2 3697   3.889   6.433   4.299
  323ACTN    O1 3698   3.858   6.514   4.208
  323ACTN    C1 3699   4.014   6.424   4.373
  323ACTN    H1 3700   3.995   6.428   4.480
  323ACTN    H2 3701   4.079   6.505   4.341
  323ACTN    H3 3702   4.062   6.328   4.359
  324ACTN    H6 3703   1.429   6.085   3.241
  324ACTN    C3 3704   1.483   6.126   3.156
  324ACTN    H4 3705   1.519   6.043   3.096
  324ACTN    H5 3706   1.403   6.168   3.095
  324ACTN    C2 3707   1.591   6.219   3.200
  324ACTN    O1 3708   1.705   6.219   3.150
  324ACTN    C1 3709   1.561   6.313   3.319
  324ACTN    H1 3710   1.478   6.378   3.289
  324ACTN    H2 3711   1.643   6.379   3.347
  324ACTN    H3 3712   1.521   6.255   3.402
  325ACTN    H6 3713   6.562   3.974   5.868
  325ACTN    C3 3714   6.616   3.879   5.874
  325ACTN    H4 3715   6.722   3.903   5.861
  325ACTN    H5 3716   6.606   3.839   5.975
  325ACTN    C2 3717   6.568   3.793   5.772
  325ACTN    O1 3718   6.454   3.805   5.738
  325ACTN    C1 3719   6.668   3.717   5.701
  325ACTN    H1 3720   6.717   3.777   5.624
  325ACTN    H2 3721   6.635   3.622   5.658
  325ACTN    H3 3722   6.739   3.686   5.777
  326ACTN    H6 3723   6.191   1.352   0.984
  326ACTN    C3 3724   6.142   1.449   0.974
  326ACTN    H4 3725   6.115   1.470   0.870
  326ACTN    H5 3726   6.047   1.436   1.027
  326ACTN    C2 3727   6.219   1.546   1.044
  326ACTN    O1 3728   6.339   1.539   1.078
  326ACTN    C1 3729   6.151   1.683   1.048
  326ACTN    H1 3730   6.212   1.765   1.010
  326ACTN    H2 3731   6.118   1.706   1.150
  326ACTN    H3 3732   6.061   1.677   0.987
  327ACTN    H6 3733   2.433   0.204   0.378
  327ACTN    C3 3734   2.353   0.266   0.339
  327ACTN    H4 3735   2.297   0.201   0.272
  327ACTN    H5 3736   2.281   0.295   0.416
  327ACTN    C2 3737   2.400   0.382   0.266
  327ACTN    O1 3738   2.434   0.382   0.150
  327ACTN    C1 3739   2.409   0.514   0.346
  327ACTN    H1 3740   2.377   0.495   0.448
  327ACTN    H2 3741   2.353   0.595   0.301
  327ACTN    H3 3742   2.512   0.545   0.362
  328ACTN    H6 3743   4.350   1.559   2.853
  328ACTN    C3 3744   4.449   1.518   2.836
  328ACTN    H4 3745   4.500   1.573   2.757
  328ACTN    H5 3746   4.508   1.535   2.926
  328ACTN    C2 3747   4.440   1.371   2.803
  328ACTN    O1 3748   4.536   1.318   2.742
  328ACTN    C1 3749   4.353   1.282   2.886
  328ACTN    H1 3750   4.410   1.201   2.932
  328ACTN    H2 3751   4.262   1.255   2.833
  328ACTN    H3 3752   4.313   1.350   2.962
  329ACTN    H6 3753   2.473   5.608   1.807
  329ACTN    C3 3754   2.391   5.636   1.741
  329ACTN    H4 3755   2.443   5.682   1.656
  329ACTN    H5 3756   2.342   5.547   1.703
  329ACTN    C2 3757   2.287   5.729   1.808
  329ACTN    O1 3758   2.279   5.849   1.777
  329ACTN    C1 3759   2.183   5.662   1.883
  329ACTN    H1 3760   2.210   5.636   1.985
  329ACTN    H2 3761   2.174   5.560   1.844
  329ACTN    H3 3762   2.085   5.711   1.877
  330ACTN    H6 3763   1.569   6.267   6.792
  330ACTN    C3 3764   1.481   6.206   6.772
  330ACTN    H4 3765   1.399   6.234   6.839
  330ACTN    H5 3766   1.449   6.220   6.669
  330ACTN    C2 3767   1.506   6.058   6.799
  330ACTN    O1 3768   1.614   6.025   6.853
  330ACTN    C1 3769   1.408   5.951   6.759
  330ACTN    H1 3770   1.433   5.900   6.666
  330ACTN    H2 3771   1.306   5.985   6.736
  330ACTN    H3 3772   1.407   5.873   6.834
  331ACTN    H6 3773   3.515   1.277   4.429
  331ACTN    C3 3774   3.530   1.355   4.504
  331ACTN    H4 3775   3.626   1.326   4.546
  331ACTN    H5 3776   3.555   1.450   4.457
  331ACTN    C2 3777   3.413   1.367   4.598
  331ACTN    O1 3778   3.335   1.459   4.570
  331ACTN    C1 3779   3.375   1.258   4.687
  331ACTN    H1 3780   3.367   1.310   4.782
  331ACTN    H2 3781   3.454   1.183   4.697
  331ACTN    H3 3782   3.280   1.209   4.666
  332ACTN    H6 3783  -0.110   6.521   1.715
  332ACTN    C3 3784  -0.007   6.554   1.700
  332ACTN    H4 3785   0.058   6.477   1.741
  332ACTN    H5 3786   0.014   6.562   1.593
  332ACTN    C2 3787   0.020   6.683   1.758
  332ACTN    O1 3788   0.131   6.732   1.735
  332ACTN    C1 3789  -0.069   6.725   1.864
  332ACTN    H1 3790  -0.047   6.826   1.900
  332ACTN    H2 3791  -0.069   6.655   1.948
  332ACTN    H3 3792  -0.168   6.720   1.820
  333ACTN    H6 3793   0.219   6.881   4.005
  333ACTN    C3 3794   0.204   6.988   4.016
  333ACTN    H4 3795   0.152   7.007   4.111
  333ACTN    H5 3796   0.300   7.040   4.018
  333ACTN    C2 3797   0.113   7.039   3.910
  333ACTN    O1 3798   0.160   7.046   3.797
  333ACTN    C1 3799  -0.019   7.104   3.942
  333ACTN    H1 3800  -0.072   7.150   3.859
  333ACTN    H2 3801   0.004   7.181   4.015
  333ACTN    H3 3802  -0.083   7.028   3.988
  334ACTN    H6 3803   1.268   0.178   0.481
  334ACTN    C3 3804   1.287   0.285   0.489
  334ACTN    H4 3805   1.211   0.332   0.551
  334ACTN    H5 3806   1.384   0.302   0.534
  334ACTN    C2 3807   1.293   0.350   0.355
  334ACTN    O1 3808   1.347   0.292   0.263
  334ACTN    C1 3809   1.242   0.493   0.327
  334ACTN    H1 3810   1.221   0.520   0.224
  334ACTN    H2 3811   1.319   0.560   0.366
  334ACTN    H3 3812   1.158   0.516   0.393
  335ACTN    H6 3813   0.740   5.579   2.926
  335ACTN    C3 3814   0.727   5.616   3.027
  335ACTN    H4 3815   0.724   5.725   3.025
  335ACTN    H5 3816   0.820   5.596   3.080
  335ACTN    C2 3817   0.618   5.552   3.113
  335ACTN    O1 3818   0.531   5.616   3.160
  335ACTN    C1 3819   0.663   5.418   3.169
  335ACTN    H1 3820   0.677   5.422   3.277
  335ACTN    H2 3821   0.749   5.381   3.112
  335ACTN    H3 3822   0.580   5.350   3.147
  336ACTN    H6 3823   0.842   6.391   3.155
  336ACTN    C3 3824   0.938   6.420   3.198
  336ACTN    H4 3825   1.011   6.346   3.167
  336ACTN    H5 3826   0.964   6.520   3.164
  336ACTN    C2 3827   0.939   6.434   3.346
  336ACTN    O1 3828   0.842   6.385   3.407
  336ACTN    C1 3829   1.042   6.515   3.415
  336ACTN    H1 3830   0.998   6.601   3.464
  336ACTN    H2 3831   1.118   6.544   3.342
  336ACTN    H3 3832   1.099   6.462   3.491
  337ACTN    H6 3833   0.650   5.740   0.770
  337ACTN    C3 3834   0.682   5.824   0.708
  337ACTN    H4 3835   0.747   5.885   0.770
  337ACTN    H5 3836   0.739   5.789   0.622
  337ACTN    C2 3837   0.579   5.917   0.653
  337ACTN    O1 3838   0.490   5.866   0.582
  337ACTN    C1 3839   0.589   6.063   0.685
  337ACTN    H1 3840   0.516   6.119   0.626
  337ACTN    H2 3841   0.685   6.109   0.662
  337ACTN    H3 3842   0.570   6.080   0.791
  338ACTN    H6 3843   5.195   0.209   5.660
  338ACTN    C3 3844   5.178   0.128   5.589
  338ACTN    H4 3845   5.222   0.038   5.631
  338ACTN    H5 3846   5.070   0.119   5.579
  338ACTN    C2 3847   5.249   0.157   5.460
  338ACTN    O1 3848   5.373   0.158   5.458
  338ACTN    C1 3849   5.172   0.164   5.336
  338ACTN    H1 3850   5.132   0.068   5.307
  338ACTN    H2 3851   5.244   0.192   5.259
  338ACTN    H3 3852   5.092   0.238   5.341
  339ACTN    H6 3853   6.858   4.542   1.936
  339ACTN    C3 3854   6.811   4.640   1.943
  339ACTN    H4 3855   6.709   4.617   1.974
  339ACTN    H5 3856   6.861   4.693   2.024
  339ACTN    C2 3857   6.826   4.707   1.809
  339ACTN    O1 3858   6.909   4.665   1.731
  339ACTN    C1 3859   6.713   4.786   1.749
  339ACTN    H1 3860   6.688   4.869   1.815
  339ACTN    H2 3861   6.626   4.721   1.740
  339ACTN    H3 3862   6.740   4.822   1.650
  340ACTN    H6 3863   0.869   2.999   3.270
  340ACTN    C3 3864   0.826   3.088   3.225
  340ACTN    H4 3865   0.908   3.143   3.179
  340ACTN    H5 3866   0.759   3.053   3.147
  340ACTN    C2 3867   0.742   3.171   3.313
  340ACTN    O1 3868   0.632   3.128   3.348
  340ACTN    C1 3869   0.808   3.293   3.377
  340ACTN    H1 3870   0.857   3.278   3.474
  340ACTN    H2 3871   0.737   3.374   3.391
  340ACTN    H3 3872   0.888   3.340   3.320
  341ACTN    H6 3873   5.537   2.500   4.988
  341ACTN    C3 3874   5.439   2.512   4.942
  341ACTN    H4 3875   5.365   2.462   5.004
  341ACTN    H5 3876   5.409   2.617   4.939
  341ACTN    C2 3877   5.445   2.444   4.807
  341ACTN    O1 3878   5.438   2.321   4.796
  341ACTN    C1 3879   5.423   2.522   4.682
  341ACTN    H1 3880   5.518   2.566   4.653
  341ACTN    H2 3881   5.361   2.611   4.681
  341ACTN    H3 3882   5.383   2.465   4.597
  342ACTN    H6 3883   6.756   1.477   2.176
  342ACTN    C3 3884   6.685   1.537   2.233
  342ACTN    H4 3885   6.743   1.586   2.311
  342ACTN    H5 3886   6.653   1.622   2.172
  342ACTN    C2 3887   6.574   1.455   2.281
  342ACTN    O1 3888   6.469   1.471   2.220
  342ACTN    C1 3889   6.573   1.383   2.411
  342ACTN    H1 3890   6.666   1.332   2.436
  342ACTN    H2 3891   6.497   1.305   2.412
  342ACTN    H3 3892   6.567   1.453   2.494
  343ACTN    H6 3893   1.756   6.461   1.845
  343ACTN    C3 3894   1.683   6.516   1.787
  343ACTN    H4 3895   1.702   6.494   1.682
  343ACTN    H5 3896   1.590   6.468   1.817
  343ACTN    C2 3897   1.680   6.666   1.829
  343ACTN    O1 3898   1.743   6.700   1.930
  343ACTN    C1 3899   1.579   6.749   1.749
  343ACTN    H1 3900   1.628   6.833   1.700
  343ACTN    H2 3901   1.496   6.784   1.811
  343ACTN    H3 3902   1.535   6.694   1.666
  344ACTN    H6 3903   4.639   2.587   2.975
  344ACTN    C3 3904   4.709   2.510   2.942
  344ACTN    H4 3905   4.747   2.541   2.844
  344ACTN    H5 3906   4.790   2.509   3.014
  344ACTN    C2 3907   4.636   2.377   2.933
  344ACTN    O1 3908   4.695   2.273   2.934
  344ACTN    C1 3909   4.487   2.377   2.931
  344ACTN    H1 3910   4.457   2.397   2.828
  344ACTN    H2 3911   4.447   2.451   3.000
  344ACTN    H3 3912   4.442   2.287   2.973
  345ACTN    H6 3913   6.203   1.793   0.294
  345ACTN    C3 3914   6.253   1.713   0.239
  345ACTN    H4 3915   6.270   1.747   0.136
  345ACTN    H5 3916   6.345   1.705   0.296
  345ACTN    C2 3917   6.190   1.579   0.237
  345ACTN    O1 3918   6.236   1.494   0.165
  345ACTN    C1 3919   6.086   1.550   0.338
  345ACTN    H1 3920   6.011   1.628   0.353
  345ACTN    H2 3921   6.129   1.523   0.434
  345ACTN    H3 3922   6.032   1.459   0.311
  346ACTN    H6 3923   6.232   3.073   4.130
  346ACTN    C3 3924   6.154   3.052   4.203
  346ACTN    H4 3925   6.188   2.968   4.263
  346ACTN    H5 3926   6.143   3.135   4.272
  346ACTN    C2 3927   6.005   3.030   4.159
  346ACTN    O1 3928   5.932   2.951   4.222
  346ACTN    C1 3929   5.950   3.098   4.039
  346ACTN    H1 3930   6.004   3.071   3.948
  346ACTN    H2 3931   5.968   3.204   4.056
  346ACTN    H3 3932   5.844   3.077   4.023
  347ACTN    H6 3933   2.760   2.606   4.529
  347ACTN    C3 3934   2.686   2.686   4.535
  347ACTN    H4 3935   2.726   2.785   4.554
  347ACTN    H5 3936   2.641   2.691   4.436
  347ACTN    C2 3937   2.587   2.659   4.646
  347ACTN    O1 3938   2.601   2.563   4.722
  347ACTN    C1 3939   2.470   2.746   4.683
  347ACTN    H1 3940   2.413   2.775   4.595
  347ACTN    H2 3941   2.500   2.833   4.742
  347ACTN    H3 3942   2.398   2.687   4.739
  348ACTN    H6 3943   2.632   7.342   6.686
  348ACTN    C3 3944   2.549   7.321   6.619
  348ACTN    H4 3945   2.592   7.276   6.529
  348ACTN    H5 3946   2.502   7.417   6.599
  348ACTN    C2 3947   2.459   7.223   6.681
  348ACTN    O1 3948   2.339   7.233   6.660
  348ACTN    C1 3949   2.508   7.126   6.783
  348ACTN    H1 3950   2.444   7.039   6.784
  348ACTN    H2 3951   2.503   7.170   6.883
  348ACTN    H3 3952   2.607   7.088   6.758
  349ACTN    H6 3953   2.189   1.644   4.024
  349ACTN    C3 3954   2.248   1.640   4.115
  349ACTN    H4 3955   2.347   1.671   4.084
  349ACTN    H5 3956   2.204   1.706   4.189
  349ACTN    C2 3957   2.238   1.503   4.172
  349ACTN    O1 3958   2.310   1.408   4.154
  349ACTN    C1 3959   2.113   1.481   4.248
  349ACTN    H1 3960   2.141   1.398   4.314
  349ACTN    H2 3961   2.033   1.447   4.182
  349ACTN    H3 3962   2.084   1.563   4.314
  350ACTN    H6 3963   0.206   2.937   4.678
  350ACTN    C3 3964   0.304   2.906   4.712
  350ACTN    H4 3965   0.336   2.802   4.712
  350ACTN    H5 3966   0.372   2.969   4.655
  350ACTN    C2 3967   0.319   2.945   4.863
  350ACTN    O1 3968   0.298   3.064   4.893
  350ACTN    C1 3969   0.328   2.841   4.973
  350ACTN    H1 3970   0.231   2.827   5.020
  350ACTN    H2 3971   0.405   2.865   5.046
  350ACTN    H3 3972   0.348   2.742   4.933
  351ACTN    H6 3973   1.601   7.059   2.542
  351ACTN    C3 3974   1.571   7.161   2.568
  351ACTN    H4 3975   1.527   7.204   2.478
  351ACTN    H5 3976   1.486   7.160   2.636
  351ACTN    C2 3977   1.680   7.249   2.614
  351ACTN    O1 3978   1.791   7.221   2.584
  351ACTN    C1 3979   1.643   7.380   2.677
  351ACTN    H1 3980   1.536   7.394   2.665
  351ACTN    H2 3981   1.692   7.467   2.634
  351ACTN    H3 3982   1.660   7.374   2.784
  352ACTN    H6 3983   1.275   5.376   5.557
  352ACTN    C3 3984   1.190   5.393   5.491
  352ACTN    H4 3985   1.115   5.318   5.515
  352ACTN    H5 3986   1.152   5.489   5.524
  352ACTN    C2 3987   1.243   5.391   5.347
  352ACTN    O1 3988   1.278   5.498   5.296
  352ACTN    C1 3989   1.256   5.258   5.295
  352ACTN    H1 3990   1.291   5.252   5.192
  352ACTN    H2 3991   1.169   5.195   5.309
  352ACTN    H3 3992   1.337   5.218   5.357
  353ACTN    H6 3993   5.556   6.259   0.095
  353ACTN    C3 3994   5.448   6.271   0.095
  353ACTN    H4 3995   5.435   6.375   0.064
  353ACTN    H5 3996   5.418   6.196   0.022
  353ACTN    C2 3997   5.406   6.267   0.240
  353ACTN    O1 3998   5.487   6.238   0.325
  353ACTN    C1 3999   5.261   6.288   0.277
  353ACTN    H1 4000   5.249   6.387   0.321
  353ACTN    H2 4001   5.242   6.219   0.360
  353ACTN    H3 4002   5.201   6.272   0.188
  354ACTN    H6 4003  -0.052   0.270   3.324
  354ACTN    C3 4004   0.046   0.294   3.364
  354ACTN    H4 4005   0.102   0.201   3.363
  354ACTN    H5 4006   0.106   0.356   3.297
  354ACTN    C2 4007   0.028   0.352   3.500
  354ACTN    O1 4008  -0.085   0.375   3.541
  354ACTN    C1 4009   0.142   0.368   3.596
  354ACTN    H1 4010   0.204   0.278   3.591
  354ACTN    H2 4011   0.115   0.375   3.702
  354ACTN    H3 4012   0.203   0.456   3.575
  355ACTN    H6 4013   6.237   2.464   2.932
  355ACTN    C3 4014   6.342   2.449   2.908
  355ACTN    H4 4015   6.365   2.515   2.823
  355ACTN    H5 4016   6.397   2.481   2.996
  355ACTN    C2 4017   6.368   2.310   2.863
  355ACTN    O1 4018   6.463   2.238   2.903
  355ACTN    C1 4019   6.284   2.257   2.749
  355ACTN    H1 4020   6.264   2.333   2.674
  355ACTN    H2 4021   6.190   2.228   2.798
  355ACTN    H3 4022   6.330   2.168   2.706
  356ACTN    H6 4023   5.696   5.883   2.853
  356ACTN    C3 4024   5.633   5.944   2.918
  356ACTN    H4 4025   5.528   5.919   2.904
  356ACTN    H5 4026   5.651   5.939   3.025
  356ACTN    C2 4027   5.663   6.085   2.881
  356ACTN    O1 4028   5.688   6.171   2.966
  356ACTN    C1 4029   5.630   6.135   2.742
  356ACTN    H1 4030   5.648   6.242   2.747
  356ACTN    H2 4031   5.522   6.125   2.733
  356ACTN    H3 4032   5.680   6.085   2.659
  357ACTN    H6 4033   7.081   6.626   5.821
  357ACTN    C3 4034   7.100   6.691   5.736
  357ACTN    H4 4035   7.125   6.785   5.785
  357ACTN    H5 4036   7.178   6.654   5.670
  357ACTN    C2 4037   6.968   6.709   5.658
  357ACTN    O1 4038   6.934   6.818   5.615
  357ACTN    C1 4039   6.880   6.587   5.642
  357ACTN    H1 4040   6.874   6.581   5.533
  357ACTN    H2 4041   6.783   6.617   5.681
  357ACTN    H3 4042   6.903   6.493   5.692
  358ACTN    H6 4043   3.831   3.955   3.204
  358ACTN    C3 4044   3.796   3.854   3.224
  358ACTN    H4 4045   3.740   3.853   3.317
  358ACTN    H5 4046   3.720   3.830   3.149
  358ACTN    C2 4047   3.905   3.748   3.240
  358ACTN    O1 4048   3.987   3.760   3.332
  358ACTN    C1 4049   3.906   3.646   3.129
  358ACTN    H1 4050   3.926   3.547   3.170
  358ACTN    H2 4051   3.979   3.676   3.054
  358ACTN    H3 4052   3.816   3.634   3.069
  359ACTN    H6 4053   5.282   5.306   0.351
  359ACTN    C3 4054   5.369   5.371   0.355
  359ACTN    H4 4055   5.454   5.306   0.338
  359ACTN    H5 4056   5.369   5.452   0.283
  359ACTN    C2 4057   5.366   5.432   0.486
  359ACTN    O1 4058   5.267   5.482   0.534
  359ACTN    C1 4059   5.490   5.415   0.566
  359ACTN    H1 4060   5.505   5.494   0.639
  359ACTN    H2 4061   5.585   5.403   0.514
  359ACTN    H3 4062   5.483   5.323   0.623
  360ACTN    H6 4063   0.413   0.543   3.899
  360ACTN    C3 4064   0.324   0.551   3.962
  360ACTN    H4 4065   0.345   0.502   4.057
  360ACTN    H5 4066   0.249   0.495   3.905
  360ACTN    C2 4067   0.302   0.694   3.987
  360ACTN    O1 4068   0.309   0.768   3.887
  360ACTN    C1 4069   0.203   0.718   4.095
  360ACTN    H1 4070   0.221   0.643   4.172
  360ACTN    H2 4071   0.099   0.697   4.071
  360ACTN    H3 4072   0.199   0.820   4.131
  361ACTN    H6 4073   7.211   5.509   0.358
  361ACTN    C3 4074   7.155   5.599   0.331
  361ACTN    H4 4075   7.141   5.600   0.223
  361ACTN    H5 4076   7.056   5.601   0.376
  361ACTN    C2 4077   7.245   5.713   0.373
  361ACTN    O1 4078   7.236   5.750   0.487
  361ACTN    C1 4079   7.318   5.796   0.275
  361ACTN    H1 4080   7.247   5.843   0.208
  361ACTN    H2 4081   7.396   5.742   0.222
  361ACTN    H3 4082   7.376   5.876   0.320
  362ACTN    H6 4083   3.366   6.511   4.493
  362ACTN    C3 4084   3.313   6.510   4.588
  362ACTN    H4 4085   3.348   6.428   4.649
  362ACTN    H5 4086   3.331   6.597   4.652
  362ACTN    C2 4087   3.166   6.493   4.561
  362ACTN    O1 4088   3.105   6.396   4.601
  362ACTN    C1 4089   3.109   6.583   4.455
  362ACTN    H1 4090   3.009   6.549   4.429
  362ACTN    H2 4091   3.172   6.569   4.367
  362ACTN    H3 4092   3.107   6.690   4.479
  363ACTN    H6 4093   6.943   0.388   7.409
  363ACTN    C3 4094   7.050   0.378   7.386
  363ACTN    H4 4095   7.078   0.284   7.338
  363ACTN    H5 4096   7.103   0.383   7.481
  363ACTN    C2 4097   7.098   0.491   7.299
  363ACTN    O1 4098   7.049   0.500   7.186
  363ACTN    C1 4099   7.169   0.608   7.369
  363ACTN    H1 4100   7.125   0.705   7.344
  363ACTN    H2 4101   7.270   0.616   7.328
  363ACTN    H3 4102   7.164   0.598   7.477
  364ACTN    H6 4103  -0.021   4.954   5.191
  364ACTN    C3 4104   0.055   4.899   5.246
  364ACTN    H4 4105   0.019   4.895   5.349
  364ACTN    H5 4106   0.079   4.800   5.209
  364ACTN    C2 4107   0.179   4.978   5.227
  364ACTN    O1 4108   0.255   5.018   5.316
  364ACTN    C1 4109   0.231   5.004   5.089
  364ACTN    H1 4110   0.180   5.092   5.049
  364ACTN    H2 4111   0.211   4.918   5.026
  364ACTN    H3 4112   0.338   5.027   5.084
  365ACTN    H6 4113   1.541   5.479   0.940
  365ACTN    C3 4114   1.497   5.575   0.965
  365ACTN    H4 4115   1.422   5.601   0.890
  365ACTN    H5 4116   1.454   5.552   1.062
  365ACTN    C2 4117   1.611   5.673   0.987
  365ACTN    O1 4118   1.620   5.777   0.921
  365ACTN    C1 4119   1.704   5.652   1.110
  365ACTN    H1 4120   1.729   5.549   1.135
  365ACTN    H2 4121   1.656   5.707   1.192
  365ACTN    H3 4122   1.801   5.696   1.090
  366ACTN    H6 4123   0.047   1.302   5.643
  366ACTN    C3 4124   0.017   1.276   5.744
  366ACTN    H4 4125  -0.004   1.365   5.804
  366ACTN    H5 4126  -0.076   1.220   5.733
  366ACTN    C2 4127   0.112   1.191   5.821
  366ACTN    O1 4128   0.093   1.076   5.847
  366ACTN    C1 4129   0.250   1.247   5.847
  366ACTN    H1 4130   0.251   1.269   5.954
  366ACTN    H2 4131   0.269   1.340   5.794
  366ACTN    H3 4132   0.331   1.176   5.833
  367ACTN    H6 4133   0.613   1.318   4.078
  367ACTN    C3 4134   0.698   1.339   4.144
  367ACTN    H4 4135   0.781   1.374   4.082
  367ACTN    H5 4136   0.675   1.419   4.214
  367ACTN    C2 4137   0.720   1.212   4.218
  367ACTN    O1 4138   0.746   1.109   4.152
  367ACTN    C1 4139   0.706   1.213   4.371
  367ACTN    H1 4140   0.773   1.292   4.406
  367ACTN    H2 4141   0.744   1.118   4.410
  367ACTN    H3 4142   0.605   1.232   4.406
  368ACTN    H6 4143   2.977   0.668   0.467
  368ACTN    C3 4144   3.013   0.767   0.493
  368ACTN    H4 4145   3.121   0.756   0.478
  368ACTN    H5 4146   2.973   0.845   0.428
  368ACTN    C2 4147   3.008   0.793   0.638
  368ACTN    O1 4148   2.957   0.722   0.722
  368ACTN    C1 4149   3.062   0.926   0.678
  368ACTN    H1 4150   2.986   0.979   0.735
  368ACTN    H2 4151   3.085   0.997   0.598
  368ACTN    H3 4152   3.154   0.906   0.733
  369ACTN    H6 4153   3.389   7.104   0.208
  369ACTN    C3 4154   3.361   7.023   0.275
  369ACTN    H4 4155   3.454   6.995   0.323
  369ACTN    H5 4156   3.299   7.055   0.359
  369ACTN    C2 4157   3.312   6.902   0.207
  369ACTN    O1 4158   3.224   6.899   0.124
  369ACTN    C1 4159   3.360   6.769   0.244
  369ACTN    H1 4160   3.469   6.767   0.236
  369ACTN    H2 4161   3.323   6.682   0.188
  369ACTN    H3 4162   3.344   6.744   0.348
  370ACTN    H6 4163   6.555   7.144   5.560
  370ACTN    C3 4164   6.524   7.039   5.561
  370ACTN    H4 4165   6.440   7.035   5.491
  370ACTN    H5 4166   6.617   6.989   5.535
  370ACTN    C2 4167   6.474   7.020   5.703
  370ACTN    O1 4168   6.518   6.928   5.775
  370ACTN    C1 4169   6.401   7.129   5.774
  370ACTN    H1 4170   6.373   7.091   5.872
  370ACTN    H2 4171   6.306   7.155   5.726
  370ACTN    H3 4172   6.463   7.219   5.779
  371ACTN    H6 4173   1.380   6.573   6.101
  371ACTN    C3 4174   1.385   6.468   6.073
  371ACTN    H4 4175   1.284   6.430   6.058
  371ACTN    H5 4176   1.433   6.472   5.976
  371ACTN    C2 4177   1.474   6.397   6.170
  371ACTN    O1 4178   1.441   6.356   6.277
  371ACTN    C1 4179   1.606   6.351   6.124
  371ACTN    H1 4180   1.613   6.243   6.133
  371ACTN    H2 4181   1.682   6.399   6.185
  371ACTN    H3 4182   1.625   6.373   6.019
  372ACTN    H6 4183   0.162   4.340   3.334
  372ACTN    C3 4184   0.257   4.393   3.333
  372ACTN    H4 4185   0.228   4.496   3.353
  372ACTN    H5 4186   0.319   4.358   3.416
  372ACTN    C2 4187   0.332   4.375   3.210
  372ACTN    O1 4188   0.294   4.421   3.107
  372ACTN    C1 4189   0.450   4.284   3.214
  372ACTN    H1 4190   0.527   4.335   3.272
  372ACTN    H2 4191   0.482   4.255   3.114
  372ACTN    H3 4192   0.427   4.193   3.270
  373ACTN    H6 4193   1.079   4.598   4.653
  373ACTN    C3 4194   1.042   4.501   4.687
  373ACTN    H4 4195   0.981   4.456   4.609
  373ACTN    H5 4196   1.133   4.444   4.706
  373ACTN    C2 4197   0.964   4.526   4.811
  373ACTN    O1 4198   1.027   4.505   4.915
  373ACTN    C1 4199   0.814   4.521   4.823
  373ACTN    H1 4200   0.780   4.549   4.922
  373ACTN    H2 4201   0.786   4.417   4.806
  373ACTN    H3 4202   0.767   4.582   4.746
  374ACTN    H6 4203   3.026   1.640   4.788
  374ACTN    C3 4204   3.124   1.678   4.756
  374ACTN    H4 4205   3.140   1.654   4.651
  374ACTN    H5 4206   3.139   1.785   4.746
  374ACTN    C2 4207   3.219   1.625   4.862
  374ACTN    O1 4208   3.219   1.507   4.897
  374ACTN    C1 4209   3.259   1.721   4.967
  374ACTN    H1 4210   3.188   1.803   4.977
  374ACTN    H2 4211   3.346   1.775   4.931
  374ACTN    H3 4212   3.279   1.677   5.065
  375ACTN    H6 4213   6.716   1.873   5.664
  375ACTN    C3 4214   6.650   1.788   5.643
  375ACTN    H4 4215   6.629   1.741   5.739
  375ACTN    H5 4216   6.558   1.839   5.611
  375ACTN    C2 4217   6.719   1.694   5.535
  375ACTN    O1 4218   6.741   1.740   5.426
  375ACTN    C1 4219   6.798   1.572   5.572
  375ACTN    H1 4220   6.898   1.616   5.576
  375ACTN    H2 4221   6.791   1.487   5.505
  375ACTN    H3 4222   6.780   1.531   5.671
  376ACTN    H6 4223   2.381   0.815   2.528
  376ACTN    C3 4224   2.280   0.801   2.567
  376ACTN    H4 4225   2.258   0.695   2.576
  376ACTN    H5 4226   2.281   0.847   2.666
  376ACTN    C2 4227   2.177   0.872   2.479
  376ACTN    O1 4228   2.092   0.947   2.523
  376ACTN    C1 4229   2.205   0.862   2.329
  376ACTN    H1 4230   2.290   0.804   2.294
  376ACTN    H2 4231   2.211   0.963   2.287
  376ACTN    H3 4232   2.118   0.818   2.280
  377ACTN    H6 4233   6.006   3.105   6.298
  377ACTN    C3 4234   5.923   3.034   6.292
  377ACTN    H4 4235   5.842   3.052   6.363
  377ACTN    H5 4236   5.881   3.048   6.192
  377ACTN    C2 4237   5.969   2.894   6.310
  377ACTN    O1 4238   5.998   2.835   6.209
  377ACTN    C1 4239   5.991   2.832   6.441
  377ACTN    H1 4240   6.009   2.725   6.455
  377ACTN    H2 4241   5.901   2.844   6.501
  377ACTN    H3 4242   6.069   2.880   6.500
  378ACTN    H6 4243   1.382   2.598   3.567
  378ACTN    C3 4244   1.370   2.529   3.652
  378ACTN    H4 4245   1.323   2.579   3.736
  378ACTN    H5 4246   1.303   2.455   3.608
  378ACTN    C2 4247   1.493   2.459   3.691
  378ACTN    O1 4248   1.511   2.399   3.793
  378ACTN    C1 4249   1.613   2.481   3.605
  378ACTN    H1 4250   1.590   2.474   3.499
  378ACTN    H2 4251   1.688   2.403   3.620
  378ACTN    H3 4252   1.658   2.576   3.633
  379ACTN    H6 4253   6.383   1.522   3.995
  379ACTN    C3 4254   6.344   1.612   3.948
  379ACTN    H4 4255   6.300   1.584   3.853
  379ACTN    H5 4256   6.273   1.644   4.024
  379ACTN    C2 4257   6.459   1.710   3.938
  379ACTN    O1 4258   6.514   1.725   3.834
  379ACTN    C1 4259   6.519   1.764   4.065
  379ACTN    H1 4260   6.445   1.816   4.125
  379ACTN    H2 4261   6.596   1.837   4.038
  379ACTN    H3 4262   6.565   1.694   4.136
  380ACTN    H6 4263   0.061   1.617   4.855
  380ACTN    C3 4264   0.078   1.678   4.943
  380ACTN    H4 4265   0.186   1.695   4.949
  380ACTN    H5 4266   0.028   1.775   4.937
  380ACTN    C2 4267   0.022   1.615   5.068
  380ACTN    O1 4268   0.035   1.493   5.080
  380ACTN    C1 4269  -0.065   1.705   5.153
  380ACTN    H1 4270  -0.057   1.803   5.107
  380ACTN    H2 4271  -0.028   1.713   5.255
  380ACTN    H3 4272  -0.169   1.671   5.154
  381ACTN    H6 4273   0.356   6.836   1.890
  381ACTN    C3 4274   0.301   6.900   1.960
  381ACTN    H4 4275   0.247   6.833   2.026
  381ACTN    H5 4276   0.379   6.942   2.024
  381ACTN    C2 4277   0.223   7.018   1.911
  381ACTN    O1 4278   0.152   7.074   1.994
  381ACTN    C1 4279   0.206   7.029   1.766
  381ACTN    H1 4280   0.296   6.989   1.719
  381ACTN    H2 4281   0.192   7.134   1.744
  381ACTN    H3 4282   0.119   6.972   1.734
  382ACTN    H6 4283   2.794   6.461   4.680
  382ACTN    C3 4284   2.734   6.421   4.762
  382ACTN    H4 4285   2.630   6.441   4.735
  382ACTN    H5 4286   2.757   6.315   4.772
  382ACTN    C2 4287   2.780   6.488   4.892
  382ACTN    O1 4288   2.825   6.421   4.989
  382ACTN    C1 4289   2.798   6.635   4.890
  382ACTN    H1 4290   2.779   6.667   4.992
  382ACTN    H2 4291   2.733   6.680   4.815
  382ACTN    H3 4292   2.897   6.663   4.854
  383ACTN    H6 4293   7.250   6.986   3.601
  383ACTN    C3 4294   7.177   7.038   3.539
  383ACTN    H4 4295   7.125   7.098   3.614
  383ACTN    H5 4296   7.224   7.102   3.465
  383ACTN    C2 4297   7.075   6.952   3.469
  383ACTN    O1 4298   6.980   7.003   3.410
  383ACTN    C1 4299   7.089   6.798   3.471
  383ACTN    H1 4300   7.193   6.779   3.498
  383ACTN    H2 4301   7.070   6.757   3.372
  383ACTN    H3 4302   7.023   6.758   3.548
  384ACTN    H6 4303   1.230   4.799   2.608
  384ACTN    C3 4304   1.312   4.783   2.677
  384ACTN    H4 4305   1.401   4.758   2.619
  384ACTN    H5 4306   1.338   4.869   2.739
  384ACTN    C2 4307   1.292   4.665   2.774
  384ACTN    O1 4308   1.247   4.558   2.733
  384ACTN    C1 4309   1.298   4.689   2.917
  384ACTN    H1 4310   1.225   4.767   2.937
  384ACTN    H2 4311   1.400   4.712   2.947
  384ACTN    H3 4312   1.260   4.603   2.971
  385ACTN    H6 4313   3.810   3.465   7.105
  385ACTN    C3 4314   3.733   3.389   7.122
  385ACTN    H4 4315   3.731   3.310   7.047
  385ACTN    H5 4316   3.758   3.330   7.210
  385ACTN    C2 4317   3.593   3.441   7.141
  385ACTN    O1 4318   3.499   3.372   7.167
  385ACTN    C1 4319   3.571   3.585   7.110
  385ACTN    H1 4320   3.660   3.643   7.133
  385ACTN    H2 4321   3.498   3.624   7.182
  385ACTN    H3 4322   3.544   3.604   7.006
  386ACTN    H6 4323   6.362   0.122   2.890
  386ACTN    C3 4324   6.279   0.137   2.821
  386ACTN    H4 4325   6.192   0.131   2.887
  386ACTN    H5 4326   6.298   0.237   2.782
  386ACTN    C2 4327   6.272   0.040   2.709
  386ACTN    O1 4328   6.360  -0.039   2.674
  386ACTN    C1 4329   6.148   0.069   2.626
  386ACTN    H1 4330   6.164   0.147   2.552
  386ACTN    H2 4331   6.059   0.091   2.684
  386ACTN    H3 4332   6.126  -0.023   2.572
  387ACTN    H6 4333   3.054   4.841   6.800
  387ACTN    C3 4334   2.968   4.782   6.767
  387ACTN    H4 4335   2.882   4.846   6.748
  387ACTN    H5 4336   2.925   4.721   6.846
  387ACTN    C2 4337   2.990   4.685   6.659
  387ACTN    O1 4338   2.963   4.566   6.670
  387ACTN    C1 4339   3.029   4.731   6.524
  387ACTN    H1 4340   3.070   4.832   6.517
  387ACTN    H2 4341   2.942   4.739   6.458
  387ACTN    H3 4342   3.101   4.663   6.481
  388ACTN    H6 4343   4.414   6.400   7.189
  388ACTN    C3 4344   4.380   6.296   7.195
  388ACTN    H4 4345   4.438   6.253   7.276
  388ACTN    H5 4346   4.281   6.314   7.237
  388ACTN    C2 4347   4.371   6.216   7.069
  388ACTN    O1 4348   4.361   6.097   7.085
  388ACTN    C1 4349   4.377   6.284   6.933
  388ACTN    H1 4350   4.392   6.211   6.853
  388ACTN    H2 4351   4.459   6.354   6.920
  388ACTN    H3 4352   4.289   6.341   6.903
  389ACTN    H6 4353   7.119   6.406   0.736
  389ACTN    C3 4354   7.165   6.493   0.688
  389ACTN    H4 4355   7.143   6.495   0.582
  389ACTN    H5 4356   7.113   6.578   0.731
  389ACTN    C2 4357   7.311   6.502   0.726
  389ACTN    O1 4358   7.394   6.476   0.638
  389ACTN    C1 4359   7.352   6.491   0.870
  389ACTN    H1 4360   7.268   6.446   0.923
  389ACTN    H2 4361   7.367   6.592   0.908
  389ACTN    H3 4362   7.439   6.427   0.881
  390ACTN    H6 4363   2.312   6.261   6.735
  390ACTN    C3 4364   2.328   6.154   6.729
  390ACTN    H4 4365   2.432   6.131   6.705
  390ACTN    H5 4366   2.296   6.094   6.814
  390ACTN    C2 4367   2.251   6.094   6.607
  390ACTN    O1 4368   2.177   6.164   6.539
  390ACTN    C1 4369   2.280   5.956   6.566
  390ACTN    H1 4370   2.192   5.892   6.566
  390ACTN    H2 4371   2.352   5.901   6.627
  390ACTN    H3 4372   2.319   5.966   6.464
  391ACTN    H6 4373   2.906   4.896   2.347
  391ACTN    C3 4374   2.909   4.792   2.380
  391ACTN    H4 4375   3.008   4.748   2.373
  391ACTN    H5 4376   2.867   4.788   2.480
  391ACTN    C2 4377   2.817   4.711   2.287
  391ACTN    O1 4378   2.701   4.743   2.263
  391ACTN    C1 4379   2.878   4.597   2.218
  391ACTN    H1 4380   2.807   4.559   2.144
  391ACTN    H2 4381   2.892   4.516   2.289
  391ACTN    H3 4382   2.968   4.628   2.165
  392ACTN    H6 4383   7.012   0.335   1.535
  392ACTN    C3 4384   6.984   0.333   1.640
  392ACTN    H4 4385   7.032   0.405   1.706
  392ACTN    H5 4386   6.877   0.349   1.650
  392ACTN    C2 4387   7.013   0.200   1.691
  392ACTN    O1 4388   6.989   0.098   1.621
  392ACTN    C1 4389   7.065   0.174   1.830
  392ACTN    H1 4390   7.120   0.080   1.831
  392ACTN    H2 4391   6.977   0.176   1.894
  392ACTN    H3 4392   7.121   0.256   1.875
  393ACTN    H6 4393   0.653   1.210   4.755
  393ACTN    C3 4394   0.546   1.219   4.734
  393ACTN    H4 4395   0.538   1.225   4.625
  393ACTN    H5 4396   0.492   1.129   4.762
  393ACTN    C2 4397   0.486   1.343   4.801
  393ACTN    O1 4398   0.388   1.330   4.875
  393ACTN    C1 4399   0.516   1.483   4.750
  393ACTN    H1 4400   0.556   1.540   4.834
  393ACTN    H2 4401   0.430   1.539   4.714
  393ACTN    H3 4402   0.592   1.485   4.672
  394ACTN    H6 4403   3.164   1.899   4.008
  394ACTN    C3 4404   3.241   1.823   4.012
  394ACTN    H4 4405   3.317   1.845   4.087
  394ACTN    H5 4406   3.207   1.721   4.031
  394ACTN    C2 4407   3.308   1.819   3.875
  394ACTN    O1 4408   3.246   1.771   3.782
  394ACTN    C1 4409   3.453   1.860   3.859
  394ACTN    H1 4410   3.470   1.932   3.779
  394ACTN    H2 4411   3.511   1.770   3.839
  394ACTN    H3 4412   3.492   1.903   3.951
  395ACTN    H6 4413   4.298   3.819   1.139
  395ACTN    C3 4414   4.221   3.890   1.107
  395ACTN    H4 4415   4.222   3.881   0.999
  395ACTN    H5 4416   4.122   3.858   1.137
  395ACTN    C2 4417   4.247   4.028   1.161
  395ACTN    O1 4418   4.344   4.097   1.146
  395ACTN    C1 4419   4.136   4.084   1.235
  395ACTN    H1 4420   4.145   4.075   1.343
  395ACTN    H2 4421   4.043   4.032   1.215
  395ACTN    H3 4422   4.126   4.189   1.207
  396ACTN    H6 4423   2.700   0.537   3.985
  396ACTN    C3 4424   2.776   0.565   4.058
  396ACTN    H4 4425   2.871   0.520   4.029
  396ACTN    H5 4426   2.780   0.674   4.061
  396ACTN    C2 4427   2.736   0.523   4.193
  396ACTN    O1 4428   2.694   0.593   4.283
  396ACTN    C1 4429   2.769   0.375   4.225
  396ACTN    H1 4430   2.856   0.379   4.292
  396ACTN    H2 4431   2.814   0.324   4.140
  396ACTN    H3 4432   2.684   0.316   4.262
  397ACTN    H6 4433   0.773   0.948   3.845
  397ACTN    C3 4434   0.736   1.048   3.825
  397ACTN    H4 4435   0.684   1.103   3.903
  397ACTN    H5 4436   0.820   1.110   3.791
  397ACTN    C2 4437   0.650   1.046   3.705
  397ACTN    O1 4438   0.700   1.032   3.597
  397ACTN    C1 4439   0.509   1.002   3.729
  397ACTN    H1 4440   0.497   0.895   3.712
  397ACTN    H2 4441   0.445   1.052   3.656
  397ACTN    H3 4442   0.473   1.029   3.829
  398ACTN    H6 4443   4.642   6.325   2.360
  398ACTN    C3 4444   4.599   6.353   2.264
  398ACTN    H4 4445   4.642   6.446   2.230
  398ACTN    H5 4446   4.613   6.276   2.189
  398ACTN    C2 4447   4.445   6.365   2.290
  398ACTN    O1 4448   4.409   6.426   2.390
  398ACTN    C1 4449   4.351   6.278   2.207
  398ACTN    H1 4450   4.303   6.345   2.136
  398ACTN    H2 4451   4.266   6.236   2.262
  398ACTN    H3 4452   4.415   6.207   2.155
  399ACTN    H6 4453   1.538   6.777   2.109
  399ACTN    C3 4454   1.443   6.829   2.103
  399ACTN    H4 4455   1.384   6.784   2.024
  399ACTN    H5 4456   1.389   6.804   2.194
  399ACTN    C2 4457   1.454   6.975   2.076
  399ACTN    O1 4458   1.526   7.019   1.985
  399ACTN    C1 4459   1.364   7.068   2.151
  399ACTN    H1 4460   1.416   7.090   2.244
  399ACTN    H2 4461   1.265   7.028   2.174
  399ACTN    H3 4462   1.356   7.157   2.089
  400ACTN    H6 4463   6.896   0.947   4.802
  400ACTN    C3 4464   6.800   0.909   4.838
  400ACTN    H4 4465   6.761   0.847   4.758
  400ACTN    H5 4466   6.822   0.852   4.928
  400ACTN    C2 4467   6.719   1.022   4.873
  400ACTN    O1 4468   6.614   1.002   4.919
  400ACTN    C1 4469   6.764   1.161   4.828
  400ACTN    H1 4470   6.867   1.160   4.793
  400ACTN    H2 4471   6.755   1.239   4.904
  400ACTN    H3 4472   6.702   1.196   4.746
  401ACTN    H6 4473   6.069   4.725   2.342
  401ACTN    C3 4474   6.129   4.634   2.342
  401ACTN    H4 4475   6.059   4.551   2.348
  401ACTN    H5 4476   6.168   4.621   2.241
  401ACTN    C2 4477   6.231   4.623   2.449
  401ACTN    O1 4478   6.217   4.712   2.530
  401ACTN    C1 4479   6.347   4.526   2.442
  401ACTN    H1 4480   6.431   4.585   2.406
  401ACTN    H2 4481   6.333   4.446   2.369
  401ACTN    H3 4482   6.376   4.489   2.541
  402ACTN    H6 4483   5.269   3.245   1.201
  402ACTN    C3 4484   5.176   3.188   1.193
  402ACTN    H4 4485   5.196   3.084   1.221
  402ACTN    H5 4486   5.103   3.236   1.258
  402ACTN    C2 4487   5.140   3.190   1.048
  402ACTN    O1 4488   5.040   3.256   1.021
  402ACTN    C1 4489   5.236   3.142   0.945
  402ACTN    H1 4490   5.310   3.220   0.930
  402ACTN    H2 4491   5.182   3.134   0.850
  402ACTN    H3 4492   5.285   3.049   0.973
  403ACTN    H6 4493   0.540   1.318   7.302
  403ACTN    C3 4494   0.435   1.339   7.320
  403ACTN    H4 4495   0.381   1.303   7.232
  403ACTN    H5 4496   0.405   1.284   7.409
  403ACTN    C2 4497   0.409   1.485   7.339
  403ACTN    O1 4498   0.488   1.563   7.285
  403ACTN    C1 4499   0.299   1.545   7.423
  403ACTN    H1 4500   0.337   1.605   7.506
  403ACTN    H2 4501   0.223   1.474   7.458
  403ACTN    H3 4502   0.239   1.617   7.369
  404ACTN    H6 4503   5.412   1.694   2.066
  404ACTN    C3 4504   5.499   1.636   2.033
  404ACTN    H4 4505   5.592   1.692   2.041
  404ACTN    H5 4506   5.507   1.546   2.093
  404ACTN    C2 4507   5.455   1.597   1.894
  404ACTN    O1 4508   5.422   1.485   1.868
  404ACTN    C1 4509   5.445   1.711   1.789
  404ACTN    H1 4510   5.457   1.806   1.840
  404ACTN    H2 4511   5.350   1.707   1.735
  404ACTN    H3 4512   5.520   1.707   1.710
  405ACTN    H6 4513   4.820   1.038   2.445
  405ACTN    C3 4514   4.731   0.992   2.402
  405ACTN    H4 4515   4.700   1.058   2.322
  405ACTN    H5 4516   4.751   0.897   2.351
  405ACTN    C2 4517   4.619   0.971   2.499
  405ACTN    O1 4518   4.508   0.942   2.458
  405ACTN    C1 4519   4.637   0.980   2.644
  405ACTN    H1 4520   4.626   0.888   2.702
  405ACTN    H2 4521   4.577   1.060   2.686
  405ACTN    H3 4522   4.739   1.013   2.664
  406ACTN    H6 4523   5.008   6.498   5.337
  406ACTN    C3 4524   5.114   6.494   5.313
  406ACTN    H4 4525   5.165   6.509   5.408
  406ACTN    H5 4526   5.130   6.393   5.274
  406ACTN    C2 4527   5.165   6.588   5.208
  406ACTN    O1 4528   5.248   6.673   5.229
  406ACTN    C1 4529   5.079   6.601   5.083
  406ACTN    H1 4530   5.044   6.704   5.081
  406ACTN    H2 4531   4.998   6.528   5.080
  406ACTN    H3 4532   5.145   6.594   4.996
  407ACTN    H6 4533   6.993   0.770   3.386
  407ACTN    C3 4534   6.967   0.665   3.377
  407ACTN    H4 4535   7.036   0.614   3.444
  407ACTN    H5 4536   6.862   0.661   3.407
  407ACTN    C2 4537   6.983   0.639   3.236
  407ACTN    O1 4538   6.905   0.696   3.161
  407ACTN    C1 4539   7.078   0.532   3.191
  407ACTN    H1 4540   7.182   0.565   3.190
  407ACTN    H2 4541   7.057   0.498   3.090
  407ACTN    H3 4542   7.077   0.441   3.251
  408ACTN    H6 4543   4.182   1.753   6.519
  408ACTN    C3 4544   4.077   1.735   6.500
  408ACTN    H4 4545   4.024   1.694   6.586
  408ACTN    H5 4546   4.025   1.828   6.478
  408ACTN    C2 4547   4.052   1.651   6.377
  408ACTN    O1 4548   3.938   1.615   6.347
  408ACTN    C1 4549   4.173   1.623   6.297
  408ACTN    H1 4550   4.138   1.563   6.213
  408ACTN    H2 4551   4.254   1.569   6.346
  408ACTN    H3 4552   4.202   1.722   6.261
  409ACTN    H6 4553   0.430   5.671   2.278
  409ACTN    C3 4554   0.379   5.720   2.361
  409ACTN    H4 4555   0.322   5.652   2.424
  409ACTN    H5 4556   0.458   5.771   2.416
  409ACTN    C2 4557   0.283   5.820   2.307
  409ACTN    O1 4558   0.266   5.830   2.184
  409ACTN    C1 4559   0.219   5.920   2.403
  409ACTN    H1 4560   0.233   6.017   2.354
  409ACTN    H2 4561   0.267   5.937   2.499
  409ACTN    H3 4562   0.114   5.903   2.428
  410ACTN    H6 4563   1.420   3.173   6.779
  410ACTN    C3 4564   1.515   3.210   6.818
  410ACTN    H4 4565   1.495   3.232   6.923
  410ACTN    H5 4566   1.584   3.126   6.811
  410ACTN    C2 4567   1.566   3.325   6.738
  410ACTN    O1 4568   1.679   3.367   6.757
  410ACTN    C1 4569   1.477   3.396   6.635
  410ACTN    H1 4570   1.384   3.342   6.618
  410ACTN    H2 4571   1.531   3.408   6.541
  410ACTN    H3 4572   1.452   3.497   6.666
  411ACTN    H6 4573   6.414   2.550   1.951
  411ACTN    C3 4574   6.417   2.450   1.905
  411ACTN    H4 4575   6.357   2.453   1.814
  411ACTN    H5 4576   6.518   2.430   1.870
  411ACTN    C2 4577   6.368   2.347   2.007
  411ACTN    O1 4578   6.446   2.317   2.102
  411ACTN    C1 4579   6.242   2.274   1.984
  411ACTN    H1 4580   6.249   2.226   1.886
  411ACTN    H2 4581   6.155   2.340   1.980
  411ACTN    H3 4582   6.218   2.200   2.060
  412ACTN    H6 4583   3.725   5.337   1.475
  412ACTN    C3 4584   3.831   5.350   1.497
  412ACTN    H4 4585   3.846   5.450   1.537
  412ACTN    H5 4586   3.884   5.278   1.560
  412ACTN    C2 4587   3.896   5.340   1.359
  412ACTN    O1 4588   3.853   5.411   1.272
  412ACTN    C1 4589   3.999   5.235   1.325
  412ACTN    H1 4590   3.998   5.211   1.219
  412ACTN    H2 4591   3.988   5.145   1.385
  412ACTN    H3 4592   4.097   5.273   1.353
  413ACTN    H6 4593   1.115   6.752   1.288
  413ACTN    C3 4594   1.214   6.770   1.330
  413ACTN    H4 4595   1.259   6.852   1.273
  413ACTN    H5 4596   1.206   6.813   1.430
  413ACTN    C2 4597   1.301   6.651   1.332
  413ACTN    O1 4598   1.381   6.637   1.426
  413ACTN    C1 4599   1.332   6.566   1.213
  413ACTN    H1 4600   1.247   6.517   1.165
  413ACTN    H2 4601   1.390   6.481   1.249
  413ACTN    H3 4602   1.391   6.617   1.137
  414ACTN    H6 4603   1.548   5.699   5.662
  414ACTN    C3 4604   1.518   5.597   5.638
  414ACTN    H4 4605   1.442   5.605   5.560
  414ACTN    H5 4606   1.604   5.553   5.587
  414ACTN    C2 4607   1.466   5.515   5.755
  414ACTN    O1 4608   1.541   5.445   5.820
  414ACTN    C1 4609   1.342   5.560   5.817
  414ACTN    H1 4610   1.343   5.649   5.881
  414ACTN    H2 4611   1.303   5.483   5.884
  414ACTN    H3 4612   1.272   5.576   5.735
  415ACTN    H6 4613   1.657   6.379   2.089
  415ACTN    C3 4614   1.666   6.271   2.105
  415ACTN    H4 4615   1.643   6.212   2.017
  415ACTN    H5 4616   1.599   6.245   2.188
  415ACTN    C2 4617   1.809   6.242   2.137
  415ACTN    O1 4618   1.842   6.124   2.126
  415ACTN    C1 4619   1.888   6.331   2.213
  415ACTN    H1 4620   1.864   6.331   2.319
  415ACTN    H2 4621   1.870   6.432   2.177
  415ACTN    H3 4622   1.990   6.297   2.198
  416ACTN    H6 4623   5.395   3.324   3.431
  416ACTN    C3 4624   5.408   3.403   3.358
  416ACTN    H4 4625   5.499   3.390   3.298
  416ACTN    H5 4626   5.325   3.418   3.289
  416ACTN    C2 4627   5.424   3.532   3.442
  416ACTN    O1 4628   5.521   3.602   3.426
  416ACTN    C1 4629   5.321   3.577   3.543
  416ACTN    H1 4630   5.272   3.494   3.594
  416ACTN    H2 4631   5.239   3.633   3.499
  416ACTN    H3 4632   5.374   3.637   3.617
  417ACTN    H6 4633   5.644   1.117   2.153
  417ACTN    C3 4634   5.604   1.038   2.217
  417ACTN    H4 4635   5.623   0.935   2.187
  417ACTN    H5 4636   5.498   1.061   2.213
  417ACTN    C2 4637   5.665   1.053   2.347
  417ACTN    O1 4638   5.669   0.957   2.430
  417ACTN    C1 4639   5.749   1.178   2.363
  417ACTN    H1 4640   5.855   1.152   2.363
  417ACTN    H2 4641   5.724   1.216   2.461
  417ACTN    H3 4642   5.741   1.257   2.288
  418ACTN    H6 4643   2.707   0.470   6.120
  418ACTN    C3 4644   2.663   0.480   6.219
  418ACTN    H4 4645   2.638   0.385   6.267
  418ACTN    H5 4646   2.723   0.542   6.285
  418ACTN    C2 4647   2.524   0.538   6.188
  418ACTN    O1 4648   2.513   0.654   6.149
  418ACTN    C1 4649   2.405   0.462   6.237
  418ACTN    H1 4650   2.416   0.357   6.213
  418ACTN    H2 4651   2.306   0.491   6.201
  418ACTN    H3 4652   2.401   0.477   6.345
  419ACTN    H6 4653   6.922   5.089   2.704
  419ACTN    C3 4654   6.992   5.077   2.621
  419ACTN    H4 4655   6.928   5.099   2.536
  419ACTN    H5 4656   7.071   5.153   2.620
  419ACTN    C2 4657   7.052   4.938   2.608
  419ACTN    O1 4658   7.055   4.891   2.493
  419ACTN    C1 4659   7.098   4.869   2.728
  419ACTN    H1 4660   7.073   4.764   2.710
  419ACTN    H2 4661   7.037   4.885   2.817
  419ACTN    H3 4662   7.204   4.874   2.750
  420ACTN    H6 4663   0.945   6.798   0.441
  420ACTN    C3 4664   0.917   6.717   0.374
  420ACTN    H4 4665   1.009   6.675   0.334
  420ACTN    H5 4666   0.861   6.645   0.433
  420ACTN    C2 4667   0.836   6.789   0.276
  420ACTN    O1 4668   0.874   6.798   0.159
  420ACTN    C1 4669   0.704   6.852   0.321
  420ACTN    H1 4670   0.626   6.809   0.259
  420ACTN    H2 4671   0.703   6.961   0.309
  420ACTN    H3 4672   0.681   6.837   0.426
  421ACTN    H6 4673   3.315   2.839   3.458
  421ACTN    C3 4674   3.259   2.853   3.365
  421ACTN    H4 4675   3.159   2.812   3.373
  421ACTN    H5 4676   3.259   2.959   3.340
  421ACTN    C2 4677   3.332   2.780   3.255
  421ACTN    O1 4678   3.327   2.819   3.137
  421ACTN    C1 4679   3.414   2.657   3.293
  421ACTN    H1 4680   3.347   2.574   3.315
  421ACTN    H2 4681   3.468   2.679   3.386
  421ACTN    H3 4682   3.489   2.620   3.224
  422ACTN    H6 4683   3.006   3.902   5.994
  422ACTN    C3 4684   2.914   3.947   5.959
  422ACTN    H4 4685   2.908   4.051   5.990
  422ACTN    H5 4686   2.912   3.951   5.850
  422ACTN    C2 4687   2.792   3.877   6.012
  422ACTN    O1 4688   2.756   3.928   6.120
  422ACTN    C1 4689   2.760   3.741   5.962
  422ACTN    H1 4690   2.841   3.714   5.894
  422ACTN    H2 4691   2.665   3.729   5.910
  422ACTN    H3 4692   2.763   3.669   6.044
  423ACTN    H6 4693   1.056   0.591   1.095
  423ACTN    C3 4694   1.046   0.502   1.032
  423ACTN    H4 4695   1.018   0.419   1.097
  423ACTN    H5 4696   0.962   0.527   0.967
  423ACTN    C2 4697   1.162   0.457   0.956
  423ACTN    O1 4698   1.270   0.439   1.008
  423ACTN    C1 4699   1.149   0.439   0.810
  423ACTN    H1 4700   1.242   0.440   0.755
  423ACTN    H2 4701   1.088   0.520   0.770
  423ACTN    H3 4702   1.099   0.346   0.780
  424ACTN    H6 4703   1.295   5.028   4.435
  424ACTN    C3 4704   1.322   4.935   4.484
  424ACTN    H4 4705   1.335   4.851   4.415
  424ACTN    H5 4706   1.409   4.953   4.547
  424ACTN    C2 4707   1.205   4.905   4.571
  424ACTN    O1 4708   1.214   4.886   4.691
  424ACTN    C1 4709   1.098   4.843   4.491
  424ACTN    H1 4710   1.047   4.770   4.554
  424ACTN    H2 4711   1.145   4.783   4.414
  424ACTN    H3 4712   1.033   4.920   4.450
  425ACTN    H6 4713   6.740   1.832   3.669
  425ACTN    C3 4714   6.794   1.923   3.642
  425ACTN    H4 4715   6.814   1.971   3.738
  425ACTN    H5 4716   6.885   1.886   3.595
  425ACTN    C2 4717   6.699   2.007   3.561
  425ACTN    O1 4718   6.616   1.946   3.485
  425ACTN    C1 4719   6.732   2.150   3.519
  425ACTN    H1 4720   6.745   2.167   3.412
  425ACTN    H2 4721   6.823   2.183   3.569
  425ACTN    H3 4722   6.654   2.222   3.542
  426ACTN    H6 4723   0.227   0.270   5.270
  426ACTN    C3 4724   0.220   0.294   5.164
  426ACTN    H4 4725   0.197   0.205   5.107
  426ACTN    H5 4726   0.139   0.367   5.154
  426ACTN    C2 4727   0.339   0.360   5.101
  426ACTN    O1 4728   0.386   0.311   5.000
  426ACTN    C1 4729   0.379   0.500   5.148
  426ACTN    H1 4730   0.294   0.543   5.201
  426ACTN    H2 4731   0.391   0.560   5.058
  426ACTN    H3 4732   0.471   0.486   5.205
  427ACTN    H6 4733   1.412   1.754   6.095
  427ACTN    C3 4734   1.340   1.730   6.017
  427ACTN    H4 4735   1.267   1.811   6.022
  427ACTN    H5 4736   1.384   1.740   5.918
  427ACTN    C2 4737   1.273   1.599   6.031
  427ACTN    O1 4738   1.204   1.586   6.127
  427ACTN    C1 4739   1.254   1.514   5.905
  427ACTN    H1 4740   1.311   1.422   5.918
  427ACTN    H2 4741   1.304   1.559   5.819
  427ACTN    H3 4742   1.151   1.486   5.883
  428ACTN    H6 4743   6.673   1.310   1.211
  428ACTN    C3 4744   6.680   1.210   1.170
  428ACTN    H4 4745   6.780   1.166   1.178
  428ACTN    H5 4746   6.608   1.142   1.216
  428ACTN    C2 4747   6.641   1.221   1.028
  428ACTN    O1 4748   6.524   1.243   0.996
  428ACTN    C1 4749   6.731   1.145   0.934
  428ACTN    H1 4750   6.681   1.140   0.837
  428ACTN    H2 4751   6.757   1.044   0.967
  428ACTN    H3 4752   6.821   1.206   0.921
  429ACTN    H6 4753   1.204   4.750   6.034
  429ACTN    C3 4754   1.260   4.718   6.121
  429ACTN    H4 4755   1.210   4.722   6.218
  429ACTN    H5 4756   1.293   4.615   6.104
  429ACTN    C2 4757   1.387   4.807   6.140
  429ACTN    O1 4758   1.412   4.872   6.239
  429ACTN    C1 4759   1.485   4.804   6.029
  429ACTN    H1 4760   1.446   4.846   5.936
  429ACTN    H2 4761   1.514   4.702   6.003
  429ACTN    H3 4762   1.570   4.864   6.061
  430ACTN    H6 4763   4.895   5.305   4.095
  430ACTN    C3 4764   4.983   5.242   4.078
  430ACTN    H4 4765   4.975   5.188   3.984
  430ACTN    H5 4766   5.064   5.313   4.062
  430ACTN    C2 4767   4.998   5.147   4.188
  430ACTN    O1 4768   5.070   5.168   4.288
  430ACTN    C1 4769   4.902   5.035   4.204
  430ACTN    H1 4770   4.851   5.005   4.113
  430ACTN    H2 4771   4.826   5.074   4.272
  430ACTN    H3 4772   4.947   4.945   4.247
  431ACTN    H6 4773   1.299   7.228   4.352
  431ACTN    C3 4774   1.303   7.201   4.246
  431ACTN    H4 4775   1.380   7.257   4.194
  431ACTN    H5 4776   1.205   7.215   4.200
  431ACTN    C2 4777   1.341   7.057   4.234
  431ACTN    O1 4778   1.264   6.975   4.191
  431ACTN    C1 4779   1.484   7.015   4.266
  431ACTN    H1 4780   1.488   7.017   4.375
  431ACTN    H2 4781   1.551   7.095   4.232
  431ACTN    H3 4782   1.494   6.920   4.213
  432ACTN    H6 4783   1.678   5.102   0.211
  432ACTN    C3 4784   1.665   5.078   0.105
  432ACTN    H4 4785   1.717   4.985   0.083
  432ACTN    H5 4786   1.558   5.059   0.102
  432ACTN    C2 4787   1.722   5.186   0.017
  432ACTN    O1 4788   1.837   5.179  -0.026
  432ACTN    C1 4789   1.634   5.299  -0.026
  432ACTN    H1 4790   1.571   5.329   0.057
  432ACTN    H2 4791   1.572   5.275  -0.112
  432ACTN    H3 4792   1.702   5.378  -0.060
  433ACTN    H6 4793   5.124   6.652   5.723
  433ACTN    C3 4794   5.043   6.680   5.655
  433ACTN    H4 4795   5.043   6.619   5.565
  433ACTN    H5 4796   4.948   6.656   5.703
  433ACTN    C2 4797   5.046   6.829   5.627
  433ACTN    O1 4798   5.012   6.911   5.713
  433ACTN    C1 4799   5.094   6.865   5.493
  433ACTN    H1 4800   5.203   6.871   5.489
  433ACTN    H2 4801   5.049   6.962   5.469
  433ACTN    H3 4802   5.058   6.796   5.416
  434ACTN    H6 4803   2.432   0.359   2.742
  434ACTN    C3 4804   2.396   0.407   2.834
  434ACTN    H4 4805   2.297   0.451   2.818
  434ACTN    H5 4806   2.390   0.323   2.903
  434ACTN    C2 4807   2.494   0.511   2.885
  434ACTN    O1 4808   2.499   0.619   2.830
  434ACTN    C1 4809   2.586   0.473   3.000
  434ACTN    H1 4810   2.660   0.549   3.026
  434ACTN    H2 4811   2.639   0.383   2.972
  434ACTN    H3 4812   2.530   0.468   3.094
  435ACTN    H6 4813   0.866   2.754   1.798
  435ACTN    C3 4814   0.937   2.683   1.754
  435ACTN    H4 4815   0.889   2.586   1.743
  435ACTN    H5 4816   0.957   2.717   1.652
  435ACTN    C2 4817   1.065   2.676   1.829
  435ACTN    O1 4818   1.070   2.656   1.953
  435ACTN    C1 4819   1.191   2.711   1.756
  435ACTN    H1 4820   1.170   2.757   1.659
  435ACTN    H2 4821   1.260   2.629   1.737
  435ACTN    H3 4822   1.239   2.796   1.804
  436ACTN    H6 4823   2.604   3.400   2.384
  436ACTN    C3 4824   2.622   3.462   2.472
  436ACTN    H4 4825   2.582   3.422   2.565
  436ACTN    H5 4826   2.729   3.464   2.493
  436ACTN    C2 4827   2.560   3.601   2.461
  436ACTN    O1 4828   2.448   3.619   2.407
  436ACTN    C1 4829   2.606   3.699   2.555
  436ACTN    H1 4830   2.645   3.782   2.496
  436ACTN    H2 4831   2.695   3.661   2.606
  436ACTN    H3 4832   2.531   3.732   2.627
  437ACTN    H6 4833   1.277  -0.098   4.761
  437ACTN    C3 4834   1.284   0.002   4.719
  437ACTN    H4 4835   1.182   0.037   4.727
  437ACTN    H5 4836   1.344   0.065   4.785
  437ACTN    C2 4837   1.345  -0.000   4.580
  437ACTN    O1 4838   1.295   0.068   4.493
  437ACTN    C1 4839   1.487  -0.056   4.563
  437ACTN    H1 4840   1.485  -0.104   4.465
  437ACTN    H2 4841   1.496  -0.137   4.635
  437ACTN    H3 4842   1.566   0.018   4.577
  438ACTN    H6 4843   1.351   3.847   4.904
  438ACTN    C3 4844   1.385   3.819   5.004
  438ACTN    H4 4845   1.487   3.854   5.016
  438ACTN    H5 4846   1.340   3.880   5.082
  438ACTN    C2 4847   1.362   3.680   5.035
  438ACTN    O1 4848   1.252   3.656   5.080
  438ACTN    C1 4849   1.451   3.574   5.004
  438ACTN    H1 4850   1.552   3.596   5.040
  438ACTN    H2 4851   1.469   3.575   4.897
  438ACTN    H3 4852   1.419   3.476   5.040
  439ACTN    H6 4853   1.774   5.544   2.689
  439ACTN    C3 4854   1.802   5.604   2.602
  439ACTN    H4 4855   1.728   5.578   2.526
  439ACTN    H5 4856   1.798   5.709   2.628
  439ACTN    C2 4857   1.933   5.567   2.560
  439ACTN    O1 4858   2.031   5.615   2.612
  439ACTN    C1 4859   1.937   5.426   2.505
  439ACTN    H1 4860   1.840   5.378   2.513
  439ACTN    H2 4861   2.014   5.372   2.561
  439ACTN    H3 4862   1.957   5.426   2.398
  440ACTN    H6 4863   6.969   1.537   0.556
  440ACTN    C3 4864   6.992   1.643   0.553
  440ACTN    H4 4865   7.022   1.675   0.653
  440ACTN    H5 4866   7.071   1.651   0.478
  440ACTN    C2 4867   6.872   1.716   0.491
  440ACTN    O1 4868   6.852   1.714   0.368
  440ACTN    C1 4869   6.771   1.786   0.582
  440ACTN    H1 4870   6.675   1.813   0.537
  440ACTN    H2 4871   6.820   1.873   0.625
  440ACTN    H3 4872   6.772   1.714   0.664
  441ACTN    H6 4873   2.481   4.753   1.520
  441ACTN    C3 4874   2.578   4.779   1.562
  441ACTN    H4 4875   2.651   4.699   1.548
  441ACTN    H5 4876   2.615   4.872   1.518
  441ACTN    C2 4877   2.554   4.802   1.711
  441ACTN    O1 4878   2.597   4.909   1.760
  441ACTN    C1 4879   2.510   4.693   1.804
  441ACTN    H1 4880   2.410   4.714   1.840
  441ACTN    H2 4881   2.566   4.683   1.897
  441ACTN    H3 4882   2.513   4.599   1.749
  442ACTN    H6 4883   2.417   3.817   6.097
  442ACTN    C3 4884   2.353   3.778   6.176
  442ACTN    H4 4885   2.306   3.863   6.225
  442ACTN    H5 4886   2.278   3.718   6.126
  442ACTN    C2 4887   2.428   3.697   6.274
  442ACTN    O1 4888   2.390   3.704   6.393
  442ACTN    C1 4889   2.529   3.602   6.224
  442ACTN    H1 4890   2.627   3.646   6.240
  442ACTN    H2 4891   2.518   3.576   6.118
  442ACTN    H3 4892   2.522   3.510   6.282
  443ACTN    H6 4893   1.511   5.262   2.658
  443ACTN    C3 4894   1.435   5.245   2.582
  443ACTN    H4 4895   1.453   5.313   2.499
  443ACTN    H5 4896   1.467   5.144   2.555
  443ACTN    C2 4897   1.288   5.249   2.631
  443ACTN    O1 4898   1.214   5.342   2.594
  443ACTN    C1 4899   1.235   5.135   2.707
  443ACTN    H1 4900   1.311   5.097   2.775
  443ACTN    H2 4901   1.198   5.057   2.639
  443ACTN    H3 4902   1.150   5.168   2.767
  444ACTN    H6 4903   1.605   0.505   3.225
  444ACTN    C3 4904   1.636   0.471   3.324
  444ACTN    H4 4905   1.741   0.491   3.345
  444ACTN    H5 4906   1.575   0.521   3.399
  444ACTN    C2 4907   1.618   0.317   3.322
  444ACTN    O1 4908   1.688   0.257   3.241
  444ACTN    C1 4909   1.550   0.242   3.433
  444ACTN    H1 4910   1.511   0.149   3.392
  444ACTN    H2 4911   1.477   0.308   3.478
  444ACTN    H3 4912   1.622   0.211   3.509
  445ACTN    H6 4913   4.482   2.544   6.453
  445ACTN    C3 4914   4.392   2.552   6.514
  445ACTN    H4 4915   4.314   2.495   6.463
  445ACTN    H5 4916   4.412   2.504   6.610
  445ACTN    C2 4917   4.360   2.706   6.533
  445ACTN    O1 4918   4.259   2.741   6.598
  445ACTN    C1 4919   4.437   2.805   6.449
  445ACTN    H1 4920   4.403   2.906   6.472
  445ACTN    H2 4921   4.432   2.797   6.341
  445ACTN    H3 4922   4.542   2.801   6.475
  446ACTN    H6 4923   3.180   1.528   4.124
  446ACTN    C3 4924   3.173   1.555   4.229
  446ACTN    H4 4925   3.269   1.546   4.280
  446ACTN    H5 4926   3.139   1.657   4.249
  446ACTN    C2 4927   3.076   1.457   4.294
  446ACTN    O1 4928   3.041   1.359   4.232
  446ACTN    C1 4929   3.034   1.472   4.434
  446ACTN    H1 4930   3.028   1.373   4.481
  446ACTN    H2 4931   2.940   1.526   4.439
  446ACTN    H3 4932   3.107   1.531   4.489
  447ACTN    H6 4933   5.018   4.763   3.132
  447ACTN    C3 4934   4.985   4.665   3.168
  447ACTN    H4 4935   5.010   4.655   3.273
  447ACTN    H5 4936   4.878   4.655   3.149
  447ACTN    C2 4937   5.060   4.554   3.100
  447ACTN    O1 4938   5.002   4.447   3.065
  447ACTN    C1 4939   5.209   4.574   3.074
  447ACTN    H1 4940   5.217   4.660   3.007
  447ACTN    H2 4941   5.262   4.487   3.036
  447ACTN    H3 4942   5.249   4.610   3.169
  448ACTN    H6 4943   5.241   3.985   6.239
  448ACTN    C3 4944   5.184   4.070   6.203
  448ACTN    H4 4945   5.228   4.125   6.120
  448ACTN    H5 4946   5.105   4.015   6.150
  448ACTN    C2 4947   5.111   4.151   6.311
  448ACTN    O1 4948   5.113   4.117   6.425
  448ACTN    C1 4949   5.044   4.278   6.257
  448ACTN    H1 4950   5.115   4.338   6.200
  448ACTN    H2 4951   4.990   4.340   6.329
  448ACTN    H3 4952   4.969   4.255   6.181
  449ACTN    H6 4953   7.174   5.193   1.133
  449ACTN    C3 4954   7.162   5.109   1.066
  449ACTN    H4 4955   7.085   5.042   1.105
  449ACTN    H5 4956   7.135   5.152   0.969
  449ACTN    C2 4957   7.294   5.034   1.067
  449ACTN    O1 4958   7.378   5.100   1.016
  449ACTN    C1 4959   7.305   4.883   1.067
  449ACTN    H1 4960   7.273   4.838   1.161
  449ACTN    H2 4961   7.409   4.854   1.049
  449ACTN    H3 4962   7.242   4.840   0.989
  450ACTN    H6 4963   7.167   0.265   1.213
  450ACTN    C3 4964   7.096   0.334   1.167
  450ACTN    H4 4965   7.130   0.432   1.200
  450ACTN    H5 4966   7.100   0.324   1.058
  450ACTN    C2 4967   6.954   0.307   1.212
  450ACTN    O1 4968   6.862   0.386   1.191
  450ACTN    C1 4969   6.934   0.193   1.298
  450ACTN    H1 4970   6.954   0.093   1.258
  450ACTN    H2 4971   6.831   0.192   1.332
  450ACTN    H3 4972   6.998   0.200   1.385
  451ACTN    H6 4973   1.348   6.171   4.157
  451ACTN    C3 4974   1.255   6.142   4.109
  451ACTN    H4 4975   1.196   6.233   4.117
  451ACTN    H5 4976   1.267   6.111   4.005
  451ACTN    C2 4977   1.183   6.025   4.174
  451ACTN    O1 4978   1.148   6.021   4.292
  451ACTN    C1 4979   1.170   5.903   4.087
  451ACTN    H1 4980   1.171   5.919   3.979
  451ACTN    H2 4981   1.080   5.849   4.115
  451ACTN    H3 4982   1.250   5.830   4.102
  452ACTN    H6 4983   6.912   6.256   4.451
  452ACTN    C3 4984   6.977   6.330   4.405
  452ACTN    H4 4985   7.033   6.391   4.476
  452ACTN    H5 4986   7.053   6.278   4.346
  452ACTN    C2 4987   6.905   6.423   4.324
  452ACTN    O1 4988   6.960   6.515   4.261
  452ACTN    C1 4989   6.761   6.393   4.303
  452ACTN    H1 4990   6.733   6.431   4.205
  452ACTN    H2 4991   6.702   6.449   4.376
  452ACTN    H3 4992   6.738   6.286   4.302
  453ACTN    H6 4993   2.999   0.463   0.706
  453ACTN    C3 4994   2.931   0.401   0.763
  453ACTN    H4 4995   2.974   0.318   0.819
  453ACTN    H5 4996   2.889   0.470   0.836
  453ACTN    C2 4997   2.828   0.349   0.671
  453ACTN    O1 4998   2.766   0.246   0.703
  453ACTN    C1 4999   2.793   0.422   0.542
  453ACTN    H1 5000   2.785   0.345   0.465
  453ACTN    H2 5001   2.876   0.487   0.515
  453ACTN    H3 5002   2.701   0.478   0.562
  454ACTN    H6 5003   5.817   4.313   4.968
  454ACTN    C3 5004   5.799   4.258   4.875
  454ACTN    H4 5005   5.709   4.202   4.897
  454ACTN    H5 5006   5.773   4.320   4.789
  454ACTN    C2 5007   5.908   4.160   4.846
  454ACTN    O1 5008   5.886   4.041   4.818
  454ACTN    C1 5009   6.045   4.226   4.816
  454ACTN    H1 5010   6.065   4.308   4.884
  454ACTN    H2 5011   6.043   4.270   4.717
  454ACTN    H3 5012   6.128   4.155   4.809
  455ACTN    H6 5013   1.092   5.373   1.054
  455ACTN    C3 5014   1.122   5.310   1.137
  455ACTN    H4 5015   1.228   5.322   1.163
  455ACTN    H5 5016   1.112   5.207   1.101
  455ACTN    C2 5017   1.034   5.337   1.261
  455ACTN    O1 5018   1.070   5.298   1.371
  455ACTN    C1 5019   0.919   5.429   1.265
  455ACTN    H1 5020   0.872   5.435   1.167
  455ACTN    H2 5021   0.959   5.525   1.296
  455ACTN    H3 5022   0.838   5.398   1.331
  456ACTN    H6 5023   2.681   5.736   3.531
  456ACTN    C3 5024   2.726   5.790   3.615
  456ACTN    H4 5025   2.827   5.808   3.579
  456ACTN    H5 5026   2.678   5.887   3.629
  456ACTN    C2 5027   2.739   5.706   3.734
  456ACTN    O1 5028   2.640   5.665   3.794
  456ACTN    C1 5029   2.871   5.688   3.798
  456ACTN    H1 5030   2.879   5.748   3.888
  456ACTN    H2 5031   2.957   5.707   3.734
  456ACTN    H3 5032   2.878   5.584   3.832
  457ACTN    H6 5033   1.556   5.850   6.373
  457ACTN    C3 5034   1.551   5.843   6.265
  457ACTN    H4 5035   1.498   5.934   6.236
  457ACTN    H5 5036   1.649   5.853   6.218
  457ACTN    C2 5037   1.482   5.704   6.227
  457ACTN    O1 5038   1.504   5.648   6.118
  457ACTN    C1 5039   1.439   5.625   6.346
  457ACTN    H1 5040   1.402   5.679   6.433
  457ACTN    H2 5041   1.528   5.566   6.367
  457ACTN    H3 5042   1.366   5.548   6.325
  458ACTN    H6 5043   7.102   5.451   6.553
  458ACTN    C3 5044   7.014   5.399   6.513
  458ACTN    H4 5045   6.991   5.311   6.572
  458ACTN    H5 5046   6.933   5.468   6.533
  458ACTN    C2 5047   7.039   5.375   6.363
  458ACTN    O1 5048   6.990   5.281   6.310
  458ACTN    C1 5049   7.093   5.484   6.274
  458ACTN    H1 5050   7.119   5.575   6.327
  458ACTN    H2 5051   7.005   5.507   6.214
  458ACTN    H3 5052   7.177   5.449   6.214
  459ACTN    H6 5053   6.452   4.390   5.709
  459ACTN    C3 5054   6.433   4.454   5.623
  459ACTN    H4 5055   6.481   4.550   5.641
  459ACTN    H5 5056   6.470   4.407   5.532
  459ACTN    C2 5057   6.289   4.482   5.613
  459ACTN    O1 5058   6.213   4.412   5.681
  459ACTN    C1 5059   6.222   4.581   5.524
  459ACTN    H1 5060   6.251   4.682   5.554
  459ACTN    H2 5061   6.113   4.578   5.528
  459ACTN    H3 5062   6.250   4.564   5.420
  460ACTN    H6 5063   1.935   4.340   1.485
  460ACTN    C3 5064   2.032   4.292   1.501
  460ACTN    H4 5065   2.066   4.263   1.401
  460ACTN    H5 5066   2.106   4.367   1.532
  460ACTN    C2 5067   2.025   4.166   1.584
  460ACTN    O1 5068   1.944   4.072   1.565
  460ACTN    C1 5069   2.132   4.150   1.697
  460ACTN    H1 5070   2.123   4.053   1.747
  460ACTN    H2 5071   2.122   4.229   1.771
  460ACTN    H3 5072   2.234   4.168   1.662
  461ACTN    H6 5073   4.400   1.289   0.101
  461ACTN    C3 5074   4.368   1.371   0.165
  461ACTN    H4 5075   4.424   1.371   0.259
  461ACTN    H5 5076   4.389   1.465   0.113
  461ACTN    C2 5077   4.222   1.362   0.198
  461ACTN    O1 5078   4.151   1.439   0.144
  461ACTN    C1 5079   4.161   1.248   0.279
  461ACTN    H1 5080   4.088   1.277   0.355
  461ACTN    H2 5081   4.243   1.187   0.317
  461ACTN    H3 5082   4.120   1.171   0.213
  462ACTN    H6 5083   0.302   2.980   4.172
  462ACTN    C3 5084   0.293   2.874   4.150
  462ACTN    H4 5085   0.232   2.829   4.228
  462ACTN    H5 5086   0.249   2.872   4.051
  462ACTN    C2 5087   0.430   2.814   4.135
  462ACTN    O1 5088   0.526   2.887   4.129
  462ACTN    C1 5089   0.438   2.668   4.125
  462ACTN    H1 5090   0.347   2.625   4.166
  462ACTN    H2 5091   0.534   2.643   4.170
  462ACTN    H3 5092   0.442   2.640   4.020
  463ACTN    H6 5093   7.117   0.781   7.133
  463ACTN    C3 5094   7.218   0.818   7.116
  463ACTN    H4 5095   7.217   0.912   7.061
  463ACTN    H5 5096   7.254   0.826   7.218
  463ACTN    C2 5097   7.295   0.714   7.040
  463ACTN    O1 5098   7.396   0.670   7.092
  463ACTN    C1 5099   7.243   0.636   6.928
  463ACTN    H1 5100   7.241   0.706   6.844
  463ACTN    H2 5101   7.142   0.599   6.945
  463ACTN    H3 5102   7.309   0.553   6.902
  464ACTN    H6 5103   0.925   6.390   5.000
  464ACTN    C3 5104   0.853   6.399   4.919
  464ACTN    H4 5105   0.907   6.366   4.830
  464ACTN    H5 5106   0.784   6.317   4.938
  464ACTN    C2 5107   0.793   6.531   4.913
  464ACTN    O1 5108   0.681   6.544   4.958
  464ACTN    C1 5109   0.871   6.650   4.880
  464ACTN    H1 5110   0.822   6.738   4.921
  464ACTN    H2 5111   0.883   6.662   4.772
  464ACTN    H3 5112   0.968   6.647   4.930
  465ACTN    H6 5113   5.339   5.154   3.448
  465ACTN    C3 5114   5.260   5.228   3.452
  465ACTN    H4 5115   5.271   5.294   3.366
  465ACTN    H5 5116   5.163   5.183   3.431
  465ACTN    C2 5117   5.274   5.312   3.577
  465ACTN    O1 5118   5.295   5.255   3.682
  465ACTN    C1 5119   5.295   5.454   3.551
  465ACTN    H1 5120   5.196   5.498   3.535
  465ACTN    H2 5121   5.354   5.457   3.459
  465ACTN    H3 5122   5.351   5.508   3.627
  466ACTN    H6 5123   3.490   4.088   6.753
  466ACTN    C3 5124   3.528   3.994   6.713
  466ACTN    H4 5125   3.613   4.009   6.645
  466ACTN    H5 5126   3.560   3.928   6.794
  466ACTN    C2 5127   3.414   3.919   6.638
  466ACTN    O1 5128   3.360   3.821   6.686
  466ACTN    C1 5129   3.351   3.984   6.517
  466ACTN    H1 5130   3.370   3.936   6.421
  466ACTN    H2 5131   3.374   4.090   6.505
  466ACTN    H3 5132   3.245   3.974   6.541
  467ACTN    H6 5133   1.168   0.418   3.885
  467ACTN    C3 5134   1.252   0.377   3.941
  467ACTN    H4 5135   1.249   0.417   4.042
  467ACTN    H5 5136   1.249   0.268   3.948
  467ACTN    C2 5137   1.386   0.423   3.883
  467ACTN    O1 5138   1.422   0.343   3.801
  467ACTN    C1 5139   1.444   0.563   3.890
  467ACTN    H1 5140   1.460   0.606   3.790
  467ACTN    H2 5141   1.539   0.565   3.944
  467ACTN    H3 5142   1.378   0.631   3.944
  468ACTN    H6 5143   4.286   3.639   6.111
  468ACTN    C3 5144   4.258   3.605   6.012
  468ACTN    H4 5145   4.194   3.517   6.021
  468ACTN    H5 5146   4.200   3.681   5.960
  468ACTN    C2 5147   4.378   3.566   5.926
  468ACTN    O1 5148   4.495   3.598   5.965
  468ACTN    C1 5149   4.360   3.496   5.792
  468ACTN    H1 5150   4.303   3.406   5.816
  468ACTN    H2 5151   4.453   3.458   5.748
  468ACTN    H3 5152   4.311   3.561   5.720
  469ACTN    H6 5153   3.069   1.115   2.435
  469ACTN    C3 5154   2.988   1.042   2.424
  469ACTN    H4 5155   2.936   1.051   2.519
  469ACTN    H5 5156   3.033   0.943   2.424
  469ACTN    C2 5157   2.900   1.065   2.307
  469ACTN    O1 5158   2.787   1.012   2.302
  469ACTN    C1 5159   2.936   1.166   2.204
  469ACTN    H1 5160   2.935   1.269   2.240
  469ACTN    H2 5161   2.868   1.146   2.122
  469ACTN    H3 5162   3.032   1.134   2.165
  470ACTN    H6 5163   4.607   0.527   4.038
  470ACTN    C3 5164   4.509   0.568   4.013
  470ACTN    H4 5165   4.474   0.502   3.934
  470ACTN    H5 5166   4.449   0.569   4.104
  470ACTN    C2 5167   4.521   0.706   3.947
  470ACTN    O1 5168   4.613   0.733   3.870
  470ACTN    C1 5169   4.411   0.806   3.971
  470ACTN    H1 5170   4.450   0.906   3.948
  470ACTN    H2 5171   4.380   0.791   4.074
  470ACTN    H3 5172   4.326   0.777   3.910
  471ACTN    H6 5173   6.065   4.574   6.855
  471ACTN    C3 5174   6.080   4.651   6.780
  471ACTN    H4 5175   6.186   4.671   6.767
  471ACTN    H5 5176   6.040   4.612   6.686
  471ACTN    C2 5177   6.012   4.783   6.811
  471ACTN    O1 5178   5.918   4.779   6.893
  471ACTN    C1 5179   6.100   4.902   6.816
  471ACTN    H1 5180   6.084   4.951   6.912
  471ACTN    H2 5181   6.078   4.965   6.729
  471ACTN    H3 5182   6.206   4.881   6.801
  472ACTN    H6 5183   7.160   6.110   4.074
  472ACTN    C3 5184   7.240   6.133   4.144
  472ACTN    H4 5185   7.212   6.090   4.241
  472ACTN    H5 5186   7.327   6.078   4.110
  472ACTN    C2 5187   7.262   6.282   4.157
  472ACTN    O1 5188   7.350   6.321   4.237
  472ACTN    C1 5189   7.186   6.385   4.075
  472ACTN    H1 5190   7.119   6.340   4.002
  472ACTN    H2 5191   7.266   6.432   4.018
  472ACTN    H3 5192   7.146   6.473   4.124
  473ACTN    H6 5193   6.787   1.207   6.048
  473ACTN    C3 5194   6.886   1.229   6.087
  473ACTN    H4 5195   6.913   1.329   6.053
  473ACTN    H5 5196   6.877   1.222   6.196
  473ACTN    C2 5197   6.985   1.126   6.039
  473ACTN    O1 5198   6.984   1.015   6.085
  473ACTN    C1 5199   7.062   1.169   5.916
  473ACTN    H1 5200   6.996   1.231   5.855
  473ACTN    H2 5201   7.087   1.082   5.856
  473ACTN    H3 5202   7.152   1.223   5.944
  474ACTN    H6 5203   0.949   3.673   2.441
  474ACTN    C3 5204   0.862   3.621   2.479
  474ACTN    H4 5205   0.775   3.671   2.438
  474ACTN    H5 5206   0.862   3.519   2.440
  474ACTN    C2 5207   0.861   3.622   2.628
  474ACTN    O1 5208   0.962   3.579   2.691
  474ACTN    C1 5209   0.751   3.685   2.703
  474ACTN    H1 5210   0.757   3.674   2.811
  474ACTN    H2 5211   0.657   3.643   2.669
  474ACTN    H3 5212   0.739   3.790   2.674
  475ACTN    H6 5213   1.800   6.075   5.770
  475ACTN    C3 5214   1.713   6.137   5.750
  475ACTN    H4 5215   1.674   6.159   5.850
  475ACTN    H5 5216   1.762   6.218   5.696
  475ACTN    C2 5217   1.629   6.047   5.675
  475ACTN    O1 5218   1.684   6.006   5.576
  475ACTN    C1 5219   1.507   5.987   5.724
  475ACTN    H1 5220   1.433   5.975   5.645
  475ACTN    H2 5221   1.472   6.058   5.800
  475ACTN    H3 5222   1.516   5.890   5.773
  476ACTN    H6 5223   4.671   1.830   1.111
  476ACTN    C3 5224   4.713   1.874   1.200
  476ACTN    H4 5225   4.819   1.899   1.193
  476ACTN    H5 5226   4.656   1.967   1.211
  476ACTN    C2 5227   4.681   1.783   1.318
  476ACTN    O1 5228   4.597   1.695   1.308
  476ACTN    C1 5229   4.744   1.810   1.449
  476ACTN    H1 5230   4.850   1.785   1.439
  476ACTN    H2 5231   4.707   1.758   1.538
  476ACTN    H3 5232   4.751   1.917   1.467
  477ACTN    H6 5233   1.033   0.084   3.519
  477ACTN    C3 5234   0.927   0.086   3.546
  477ACTN    H4 5235   0.913   0.014   3.627
  477ACTN    H5 5236   0.877   0.052   3.456
  477ACTN    C2 5237   0.882   0.220   3.587
  477ACTN    O1 5238   0.840   0.300   3.503
  477ACTN    C1 5239   0.868   0.238   3.732
  477ACTN    H1 5240   0.770   0.203   3.764
  477ACTN    H2 5241   0.877   0.344   3.752
  477ACTN    H3 5242   0.944   0.179   3.784
  478ACTN    H6 5243   1.697   3.925   3.263
  478ACTN    C3 5244   1.756   3.877   3.341
  478ACTN    H4 5245   1.685   3.836   3.413
  478ACTN    H5 5246   1.818   3.796   3.303
  478ACTN    C2 5247   1.834   3.976   3.410
  478ACTN    O1 5248   1.767   4.075   3.439
  478ACTN    C1 5249   1.956   3.941   3.482
  478ACTN    H1 5250   2.035   3.917   3.411
  478ACTN    H2 5251   1.930   3.855   3.543
  478ACTN    H3 5252   1.994   4.028   3.537
  479ACTN    H6 5253   0.327   5.137   1.209
  479ACTN    C3 5254   0.336   5.211   1.130
  479ACTN    H4 5255   0.436   5.204   1.087
  479ACTN    H5 5256   0.266   5.175   1.055
  479ACTN    C2 5257   0.301   5.349   1.180
  479ACTN    O1 5258   0.376   5.400   1.267
  479ACTN    C1 5259   0.185   5.421   1.116
  479ACTN    H1 5260   0.096   5.374   1.158
  479ACTN    H2 5261   0.192   5.410   1.008
  479ACTN    H3 5262   0.191   5.525   1.148
  480ACTN    H6 5263   2.399   5.206   6.846
  480ACTN    C3 5264   2.402   5.098   6.850
  480ACTN    H4 5265   2.451   5.061   6.940
  480ACTN    H5 5266   2.303   5.051   6.849
  480ACTN    C2 5267   2.482   5.041   6.736
  480ACTN    O1 5268   2.575   4.963   6.759
  480ACTN    C1 5269   2.436   5.067   6.594
  480ACTN    H1 5270   2.516   5.116   6.539
  480ACTN    H2 5271   2.349   5.133   6.590
  480ACTN    H3 5272   2.405   4.978   6.539
  481ACTN    H6 5273   0.770   2.222   2.670
  481ACTN    C3 5274   0.769   2.115   2.648
  481ACTN    H4 5275   0.857   2.080   2.594
  481ACTN    H5 5276   0.763   2.059   2.741
  481ACTN    C2 5277   0.652   2.073   2.575
  481ACTN    O1 5278   0.661   2.016   2.462
  481ACTN    C1 5279   0.520   2.100   2.640
  481ACTN    H1 5280   0.479   2.190   2.595
  481ACTN    H2 5281   0.538   2.129   2.744
  481ACTN    H3 5282   0.458   2.011   2.635
  482ACTN    H6 5283   0.234   6.098   5.412
  482ACTN    C3 5284   0.157   6.096   5.335
  482ACTN    H4 5285   0.210   6.046   5.254
  482ACTN    H5 5286   0.069   6.038   5.365
  482ACTN    C2 5287   0.116   6.237   5.291
  482ACTN    O1 5288   0.123   6.321   5.379
  482ACTN    C1 5289   0.041   6.278   5.170
  482ACTN    H1 5290   0.047   6.384   5.145
  482ACTN    H2 5291  -0.063   6.246   5.161
  482ACTN    H3 5292   0.093   6.223   5.091
  483ACTN    H6 5293   0.748   6.096   2.943
  483ACTN    C3 5294   0.657   6.132   2.894
  483ACTN    H4 5295   0.574   6.074   2.935
  483ACTN    H5 5296   0.635   6.228   2.941
  483ACTN    C2 5297   0.670   6.135   2.746
  483ACTN    O1 5298   0.627   6.237   2.689
  483ACTN    C1 5299   0.761   6.047   2.684
  483ACTN    H1 5300   0.725   6.027   2.583
  483ACTN    H2 5301   0.786   5.952   2.732
  483ACTN    H3 5302   0.851   6.106   2.670
  484ACTN    H6 5303   6.235   6.996   4.360
  484ACTN    C3 5304   6.300   6.973   4.275
  484ACTN    H4 5305   6.332   6.870   4.294
  484ACTN    H5 5306   6.252   6.969   4.177
  484ACTN    C2 5307   6.416   7.070   4.278
  484ACTN    O1 5308   6.532   7.029   4.252
  484ACTN    C1 5309   6.387   7.215   4.279
  484ACTN    H1 5310   6.312   7.238   4.355
  484ACTN    H2 5311   6.361   7.260   4.183
  484ACTN    H3 5312   6.472   7.268   4.320
  485ACTN    H6 5313   6.881   6.338   1.825
  485ACTN    C3 5314   6.950   6.417   1.796
  485ACTN    H4 5315   6.997   6.388   1.703
  485ACTN    H5 5316   6.884   6.503   1.780
  485ACTN    C2 5317   7.039   6.453   1.909
  485ACTN    O1 5318   7.154   6.406   1.918
  485ACTN    C1 5319   7.005   6.571   1.996
  485ACTN    H1 5320   6.935   6.540   2.074
  485ACTN    H2 5321   6.972   6.660   1.942
  485ACTN    H3 5322   7.090   6.613   2.049
  486ACTN    H6 5323   0.934   6.898   1.631
  486ACTN    C3 5324   0.862   6.816   1.623
  486ACTN    H4 5325   0.894   6.748   1.545
  486ACTN    H5 5326   0.864   6.754   1.713
  486ACTN    C2 5327   0.722   6.859   1.601
  486ACTN    O1 5328   0.651   6.799   1.522
  486ACTN    C1 5329   0.657   6.944   1.704
  486ACTN    H1 5330   0.562   6.991   1.678
  486ACTN    H2 5331   0.721   7.030   1.724
  486ACTN    H3 5332   0.640   6.885   1.794
  487ACTN    H6 5333   0.619   1.379   5.923
  487ACTN    C3 5334   0.667   1.470   5.958
  487ACTN    H4 5335   0.640   1.546   5.885
  487ACTN    H5 5336   0.610   1.505   6.045
  487ACTN    C2 5337   0.815   1.452   5.983
  487ACTN    O1 5338   0.892   1.479   5.893
  487ACTN    C1 5339   0.859   1.371   6.095
  487ACTN    H1 5340   0.919   1.431   6.164
  487ACTN    H2 5341   0.933   1.299   6.059
  487ACTN    H3 5342   0.786   1.318   6.155
  488ACTN    H6 5343   5.634   2.220   4.519
  488ACTN    C3 5344   5.628   2.126   4.463
  488ACTN    H4 5345   5.685   2.048   4.514
  488ACTN    H5 5346   5.527   2.089   4.481
  488ACTN    C2 5347   5.669   2.130   4.322
  488ACTN    O1 5348   5.604   2.072   4.235
  488ACTN    C1 5349   5.783   2.219   4.292
  488ACTN    H1 5350   5.861   2.171   4.233
  488ACTN    H2 5351   5.826   2.261   4.383
  488ACTN    H3 5352   5.751   2.303   4.230
  489ACTN    H6 5353   1.003   1.799   6.548
  489ACTN    C3 5354   1.013   1.781   6.655
  489ACTN    H4 5355   0.964   1.856   6.717
  489ACTN    H5 5356   0.949   1.696   6.682
  489ACTN    C2 5357   1.154   1.751   6.709
  489ACTN    O1 5358   1.231   1.845   6.732
  489ACTN    C1 5359   1.204   1.610   6.721
  489ACTN    H1 5360   1.311   1.611   6.742
  489ACTN    H2 5361   1.196   1.554   6.628
  489ACTN    H3 5362   1.150   1.562   6.803
  490ACTN    H6 5363   2.175   5.233   6.896
  490ACTN    C3 5364   2.069   5.253   6.876
  490ACTN    H4 5365   2.003   5.178   6.920
  490ACTN    H5 5366   2.046   5.345   6.930
  490ACTN    C2 5367   2.062   5.254   6.730
  490ACTN    O1 5368   2.067   5.146   6.680
  490ACTN    C1 5369   2.031   5.373   6.653
  490ACTN    H1 5370   2.009   5.352   6.548
  490ACTN    H2 5371   2.113   5.444   6.656
  490ACTN    H3 5372   1.949   5.431   6.697
  491ACTN    H6 5373   5.404   0.454   4.520
  491ACTN    C3 5374   5.340   0.528   4.474
  491ACTN    H4 5375   5.396   0.621   4.465
  491ACTN    H5 5376   5.308   0.477   4.383
  491ACTN    C2 5377   5.223   0.548   4.563
  491ACTN    O1 5378   5.111   0.563   4.511
  491ACTN    C1 5379   5.238   0.566   4.713
  491ACTN    H1 5380   5.142   0.581   4.763
  491ACTN    H2 5381   5.288   0.663   4.720
  491ACTN    H3 5382   5.299   0.488   4.759
  492ACTN    H6 5383   0.435   7.052   4.392
  492ACTN    C3 5384   0.488   7.096   4.476
  492ACTN    H4 5385   0.424   7.134   4.555
  492ACTN    H5 5386   0.538   7.017   4.532
  492ACTN    C2 5387   0.589   7.196   4.446
  492ACTN    O1 5388   0.572   7.261   4.346
  492ACTN    C1 5389   0.660   7.243   4.566
  492ACTN    H1 5390   0.764   7.212   4.575
  492ACTN    H2 5391   0.610   7.213   4.658
  492ACTN    H3 5392   0.667   7.352   4.568
  493ACTN    H6 5393   0.553   1.757   6.313
  493ACTN    C3 5394   0.539   1.649   6.303
  493ACTN    H4 5395   0.431   1.636   6.294
  493ACTN    H5 5396   0.594   1.605   6.220
  493ACTN    C2 5397   0.583   1.596   6.430
  493ACTN    O1 5398   0.550   1.651   6.531
  493ACTN    C1 5399   0.679   1.483   6.426
  493ACTN    H1 5400   0.633   1.400   6.372
  493ACTN    H2 5401   0.691   1.450   6.529
  493ACTN    H3 5402   0.777   1.510   6.387
  494ACTN    H6 5403   5.607   0.066   0.308
  494ACTN    C3 5404   5.638   0.142   0.380
  494ACTN    H4 5405   5.557   0.215   0.368
  494ACTN    H5 5406   5.642   0.104   0.482
  494ACTN    C2 5407   5.765   0.198   0.334
  494ACTN    O1 5408   5.797   0.310   0.370
  494ACTN    C1 5409   5.832   0.136   0.214
  494ACTN    H1 5410   5.922   0.194   0.191
  494ACTN    H2 5411   5.765   0.144   0.128
  494ACTN    H3 5412   5.843   0.029   0.228
  495ACTN    H6 5413   0.752   6.655   4.190
  495ACTN    C3 5414   0.786   6.757   4.205
  495ACTN    H4 5415   0.879   6.761   4.261
  495ACTN    H5 5416   0.811   6.794   4.105
  495ACTN    C2 5417   0.686   6.856   4.254
  495ACTN    O1 5418   0.703   6.886   4.373
  495ACTN    C1 5419   0.569   6.894   4.167
  495ACTN    H1 5420   0.509   6.810   4.131
  495ACTN    H2 5421   0.584   6.952   4.076
  495ACTN    H3 5422   0.502   6.958   4.225
  496ACTN    H6 5423   0.642   6.538   2.812
  496ACTN    C3 5424   0.573   6.536   2.897
  496ACTN    H4 5425   0.476   6.571   2.861
  496ACTN    H5 5426   0.561   6.432   2.929
  496ACTN    C2 5427   0.626   6.610   3.013
  496ACTN    O1 5428   0.700   6.704   2.983
  496ACTN    C1 5429   0.576   6.593   3.152
  496ACTN    H1 5430   0.656   6.614   3.223
  496ACTN    H2 5431   0.547   6.490   3.175
  496ACTN    H3 5432   0.488   6.650   3.178
  497ACTN    H6 5433   7.111   5.131   3.591
  497ACTN    C3 5434   7.165   5.204   3.532
  497ACTN    H4 5435   7.161   5.175   3.427
  497ACTN    H5 5436   7.119   5.301   3.551
  497ACTN    C2 5437   7.300   5.195   3.605
  497ACTN    O1 5438   7.349   5.294   3.656
  497ACTN    C1 5439   7.380   5.064   3.621
  497ACTN    H1 5440   7.325   4.997   3.688
  497ACTN    H2 5441   7.478   5.086   3.661
  497ACTN    H3 5442   7.377   5.001   3.532
  498ACTN    H6 5443   6.501  -0.105   3.693
  498ACTN    C3 5444   6.495  -0.064   3.794
  498ACTN    H4 5445   6.397  -0.094   3.831
  498ACTN    H5 5446   6.573  -0.106   3.858
  498ACTN    C2 5447   6.526   0.082   3.784
  498ACTN    O1 5448   6.531   0.149   3.888
  498ACTN    C1 5449   6.582   0.145   3.657
  498ACTN    H1 5450   6.532   0.110   3.567
  498ACTN    H2 5451   6.687   0.116   3.656
  498ACTN    H3 5452   6.576   0.254   3.658
  499ACTN    H6 5453   2.720   1.469   5.436
  499ACTN    C3 5454   2.643   1.457   5.360
  499ACTN    H4 5455   2.663   1.513   5.269
  499ACTN    H5 5456   2.627   1.350   5.343
  499ACTN    C2 5457   2.503   1.499   5.414
  499ACTN    O1 5458   2.392   1.461   5.377
  499ACTN    C1 5459   2.506   1.592   5.525
  499ACTN    H1 5460   2.444   1.676   5.493
  499ACTN    H2 5461   2.609   1.622   5.542
  499ACTN    H3 5462   2.462   1.570   5.622
  500ACTN    H6 5463   7.126   5.784   5.659
  500ACTN    C3 5464   7.148   5.683   5.625
  500ACTN    H4 5465   7.254   5.678   5.598
  500ACTN    H5 5466   7.136   5.617   5.711
  500ACTN    C2 5467   7.057   5.645   5.519
  500ACTN    O1 5468   6.963   5.714   5.484
  500ACTN    C1 5469   7.046   5.502   5.463
  500ACTN    H1 5470   7.075   5.510   5.358
  500ACTN    H2 5471   6.944   5.471   5.483
  500ACTN    H3 5472   7.109   5.427   5.510
  501ACTN    H6 5473   4.338   7.054   0.299
  501ACTN    C3 5474   4.299   7.129   0.368
  501ACTN    H4 5475   4.315   7.091   0.469
  501ACTN    H5 5476   4.356   7.219   0.346
  501ACTN    C2 5477   4.154   7.137   0.347
  501ACTN    O1 5478   4.110   7.249   0.322
  501ACTN    C1 5479   4.065   7.032   0.408
  501ACTN    H1 5480   3.974   7.005   0.355
  501ACTN    H2 5481   4.049   7.067   0.510
  501ACTN    H3 5482   4.122   6.940   0.421
  502ACTN    H6 5483   4.814   3.498   0.678
  502ACTN    C3 5484   4.711   3.463   0.685
  502ACTN    H4 5485   4.641   3.544   0.707
  502ACTN    H5 5486   4.683   3.421   0.589
  502ACTN    C2 5487   4.709   3.351   0.786
  502ACTN    O1 5488   4.778   3.246   0.775
  502ACTN    C1 5489   4.607   3.360   0.891
  502ACTN    H1 5490   4.509   3.334   0.851
  502ACTN    H2 5491   4.601   3.457   0.938
  502ACTN    H3 5492   4.636   3.279   0.958
  503ACTN    H6 5493   2.667   2.243   5.486
  503ACTN    C3 5494   2.663   2.271   5.381
  503ACTN    H4 5495   2.607   2.196   5.325
  503ACTN    H5 5496   2.611   2.366   5.370
  503ACTN    C2 5497   2.801   2.263   5.332
  503ACTN    O1 5498   2.824   2.183   5.244
  503ACTN    C1 5499   2.896   2.355   5.404
  503ACTN    H1 5500   2.999   2.341   5.369
  503ACTN    H2 5501   2.883   2.324   5.508
  503ACTN    H3 5502   2.880   2.462   5.393
  504ACTN    H6 5503   6.044   4.547   6.218
  504ACTN    C3 5504   6.078   4.452   6.261
  504ACTN    H4 5505   6.025   4.378   6.202
  504ACTN    H5 5506   6.181   4.439   6.225
  504ACTN    C2 5507   6.061   4.426   6.412
  504ACTN    O1 5508   5.971   4.477   6.476
  504ACTN    C1 5509   6.174   4.361   6.481
  504ACTN    H1 5510   6.159   4.301   6.571
  504ACTN    H2 5511   6.254   4.434   6.500
  504ACTN    H3 5512   6.216   4.296   6.405
  505ACTN    H6 5513   6.957   1.876   3.178
  505ACTN    C3 5514   6.946   1.772   3.146
  505ACTN    H4 5515   7.025   1.751   3.074
  505ACTN    H5 5516   6.849   1.755   3.099
  505ACTN    C2 5517   6.966   1.669   3.252
  505ACTN    O1 5518   6.920   1.696   3.364
  505ACTN    C1 5519   7.016   1.527   3.233
  505ACTN    H1 5520   6.939   1.460   3.196
  505ACTN    H2 5521   7.054   1.486   3.327
  505ACTN    H3 5522   7.091   1.535   3.154
  506ACTN    H6 5523   2.266   4.079   2.346
  506ACTN    C3 5524   2.311   4.095   2.248
  506ACTN    H4 5525   2.379   4.179   2.264
  506ACTN    H5 5526   2.233   4.131   2.181
  506ACTN    C2 5527   2.381   3.979   2.195
  506ACTN    O1 5528   2.480   3.942   2.261
  506ACTN    C1 5529   2.324   3.915   2.076
  506ACTN    H1 5530   2.312   3.992   1.999
  506ACTN    H2 5531   2.223   3.876   2.089
  506ACTN    H3 5532   2.388   3.836   2.038
  507ACTN    H6 5533   5.674   4.630   2.259
  507ACTN    C3 5534   5.727   4.688   2.335
  507ACTN    H4 5535   5.785   4.772   2.296
  507ACTN    H5 5536   5.801   4.618   2.370
  507ACTN    C2 5537   5.628   4.739   2.429
  507ACTN    O1 5538   5.565   4.837   2.401
  507ACTN    C1 5539   5.629   4.683   2.568
  507ACTN    H1 5540   5.732   4.689   2.603
  507ACTN    H2 5541   5.589   4.582   2.575
  507ACTN    H3 5542   5.570   4.745   2.636
  508ACTN    H6 5543   2.319   6.456   5.081
  508ACTN    C3 5544   2.425   6.430   5.074
  508ACTN    H4 5545   2.433   6.382   4.976
  508ACTN    H5 5546   2.490   6.518   5.074
  508ACTN    C2 5547   2.469   6.342   5.186
  508ACTN    O1 5548   2.465   6.394   5.296
  508ACTN    C1 5549   2.546   6.214   5.164
  508ACTN    H1 5550   2.468   6.141   5.183
  508ACTN    H2 5551   2.625   6.178   5.231
  508ACTN    H3 5552   2.583   6.203   5.062
  509ACTN    H6 5553   1.208   1.456   1.193
  509ACTN    C3 5554   1.168   1.368   1.242
  509ACTN    H4 5555   1.125   1.403   1.337
  509ACTN    H5 5556   1.085   1.333   1.181
  509ACTN    C2 5557   1.255   1.252   1.260
  509ACTN    O1 5558   1.382   1.265   1.265
  509ACTN    C1 5559   1.196   1.124   1.306
  509ACTN    H1 5560   1.153   1.148   1.403
  509ACTN    H2 5561   1.275   1.050   1.316
  509ACTN    H3 5562   1.116   1.092   1.238
  510ACTN    H6 5563   1.014   3.075   4.139
  510ACTN    C3 5564   1.062   2.988   4.094
  510ACTN    H4 5565   1.138   3.017   4.021
  510ACTN    H5 5566   1.108   2.948   4.184
  510ACTN    C2 5567   0.953   2.896   4.042
  510ACTN    O1 5568   0.915   2.899   3.930
  510ACTN    C1 5569   0.861   2.821   4.137
  510ACTN    H1 5570   0.862   2.717   4.102
  510ACTN    H2 5571   0.765   2.871   4.130
  510ACTN    H3 5572   0.890   2.827   4.242
  511ACTN    H6 5573   1.407   7.226   3.186
  511ACTN    C3 5574   1.395   7.212   3.079
  511ACTN    H4 5575   1.327   7.130   3.058
  511ACTN    H5 5576   1.342   7.302   3.045
  511ACTN    C2 5577   1.529   7.199   3.008
  511ACTN    O1 5578   1.623   7.253   3.064
  511ACTN    C1 5579   1.561   7.097   2.904
  511ACTN    H1 5580   1.649   7.120   2.844
  511ACTN    H2 5581   1.478   7.083   2.836
  511ACTN    H3 5582   1.580   6.999   2.947
  512ACTN    H6 5583   5.325   3.411   0.214
  512ACTN    C3 5584   5.244   3.445   0.279
  512ACTN    H4 5585   5.262   3.551   0.299
  512ACTN    H5 5586   5.154   3.431   0.221
  512ACTN    C2 5587   5.218   3.372   0.404
  512ACTN    O1 5588   5.132   3.410   0.480
  512ACTN    C1 5589   5.305   3.251   0.431
  512ACTN    H1 5590   5.266   3.162   0.381
  512ACTN    H2 5591   5.312   3.231   0.538
  512ACTN    H3 5592   5.403   3.273   0.389
  513ACTN    H6 5593   2.699   3.606   7.283
  513ACTN    C3 5594   2.591   3.612   7.292
  513ACTN    H4 5595   2.541   3.708   7.291
  513ACTN    H5 5596   2.558   3.571   7.387
  513ACTN    C2 5597   2.519   3.520   7.192
  513ACTN    O1 5598   2.414   3.473   7.225
  513ACTN    C1 5599   2.573   3.503   7.053
  513ACTN    H1 5600   2.681   3.491   7.063
  513ACTN    H2 5601   2.551   3.586   6.986
  513ACTN    H3 5602   2.540   3.408   7.012
  514ACTN    H6 5603   2.746   5.798   5.700
  514ACTN    C3 5604   2.793   5.890   5.665
  514ACTN    H4 5605   2.731   5.976   5.690
  514ACTN    H5 5606   2.887   5.894   5.720
  514ACTN    C2 5607   2.790   5.862   5.520
  514ACTN    O1 5608   2.858   5.771   5.480
  514ACTN    C1 5609   2.685   5.927   5.439
  514ACTN    H1 5610   2.587   5.882   5.452
  514ACTN    H2 5611   2.707   5.910   5.334
  514ACTN    H3 5612   2.680   6.033   5.462
  515ACTN    H6 5613   2.843   6.713   2.549
  515ACTN    C3 5614   2.858   6.818   2.573
  515ACTN    H4 5615   2.947   6.861   2.527
  515ACTN    H5 5616   2.779   6.872   2.521
  515ACTN    C2 5617   2.860   6.838   2.723
  515ACTN    O1 5618   2.923   6.756   2.789
  515ACTN    C1 5619   2.847   6.961   2.798
  515ACTN    H1 5620   2.741   6.984   2.786
  515ACTN    H2 5621   2.905   7.047   2.764
  515ACTN    H3 5622   2.862   6.936   2.903
  516ACTN    H6 5623   3.666   2.160   3.718
  516ACTN    C3 5624   3.607   2.243   3.679
  516ACTN    H4 5625   3.550   2.296   3.755
  516ACTN    H5 5626   3.679   2.316   3.643
  516ACTN    C2 5627   3.509   2.206   3.571
  516ACTN    O1 5628   3.486   2.093   3.544
  516ACTN    C1 5629   3.423   2.312   3.503
  516ACTN    H1 5630   3.317   2.315   3.531
  516ACTN    H2 5631   3.417   2.309   3.394
  516ACTN    H3 5632   3.462   2.407   3.540
  517ACTN    H6 5633   1.351   0.067   5.031
  517ACTN    C3 5634   1.401   0.145   5.088
  517ACTN    H4 5635   1.430   0.108   5.187
  517ACTN    H5 5636   1.492   0.177   5.037
  517ACTN    C2 5637   1.310   0.261   5.096
  517ACTN    O1 5638   1.300   0.332   4.999
  517ACTN    C1 5639   1.215   0.267   5.212
  517ACTN    H1 5640   1.237   0.357   5.270
  517ACTN    H2 5641   1.226   0.182   5.280
  517ACTN    H3 5642   1.111   0.269   5.178
  518ACTN    H6 5643   1.821   3.079   4.768
  518ACTN    C3 5644   1.918   3.096   4.815
  518ACTN    H4 5645   1.976   3.150   4.740
  518ACTN    H5 5646   1.897   3.149   4.908
  518ACTN    C2 5647   2.001   2.972   4.831
  518ACTN    O1 5648   1.960   2.859   4.807
  518ACTN    C1 5649   2.148   2.996   4.862
  518ACTN    H1 5650   2.212   2.957   4.782
  518ACTN    H2 5651   2.177   2.939   4.949
  518ACTN    H3 5652   2.170   3.101   4.883
  519ACTN    H6 5653   0.138   2.631   1.618
  519ACTN    C3 5654   0.169   2.561   1.541
  519ACTN    H4 5655   0.125   2.464   1.562
  519ACTN    H5 5656   0.116   2.591   1.451
  519ACTN    C2 5657   0.316   2.558   1.512
  519ACTN    O1 5658   0.377   2.646   1.578
  519ACTN    C1 5659   0.367   2.493   1.390
  519ACTN    H1 5660   0.324   2.393   1.391
  519ACTN    H2 5661   0.475   2.488   1.379
  519ACTN    H3 5662   0.332   2.551   1.305
  520ACTN    H6 5663   2.761   6.239   3.518
  520ACTN    C3 5664   2.748   6.197   3.618
  520ACTN    H4 5665   2.659   6.135   3.614
  520ACTN    H5 5666   2.834   6.130   3.609
  520ACTN    C2 5667   2.761   6.308   3.720
  520ACTN    O1 5668   2.662   6.331   3.790
  520ACTN    C1 5669   2.896   6.372   3.730
  520ACTN    H1 5670   2.980   6.305   3.749
  520ACTN    H2 5671   2.893   6.457   3.799
  520ACTN    H3 5672   2.912   6.419   3.633
  521ACTN    H6 5673   6.684   0.367   4.283
  521ACTN    C3 5674   6.703   0.343   4.179
  521ACTN    H4 5675   6.796   0.286   4.177
  521ACTN    H5 5676   6.623   0.286   4.132
  521ACTN    C2 5677   6.715   0.476   4.099
  521ACTN    O1 5678   6.629   0.565   4.107
  521ACTN    C1 5679   6.828   0.492   4.023
  521ACTN    H1 5680   6.903   0.554   4.071
  521ACTN    H2 5681   6.817   0.533   3.922
  521ACTN    H3 5682   6.870   0.393   4.007
  522ACTN    H6 5683   0.392   1.779   5.800
  522ACTN    C3 5684   0.403   1.740   5.901
  522ACTN    H4 5685   0.387   1.632   5.900
  522ACTN    H5 5686   0.504   1.745   5.943
  522ACTN    C2 5687   0.308   1.823   5.982
  522ACTN    O1 5688   0.193   1.829   5.943
  522ACTN    C1 5689   0.356   1.908   6.094
  522ACTN    H1 5690   0.465   1.912   6.089
  522ACTN    H2 5691   0.319   1.878   6.192
  522ACTN    H3 5692   0.323   2.012   6.087
  523ACTN    H6 5693   3.724   3.627   6.725
  523ACTN    C3 5694   3.651   3.578   6.660
  523ACTN    H4 5695   3.710   3.574   6.569
  523ACTN    H5 5696   3.560   3.636   6.641
  523ACTN    C2 5697   3.617   3.437   6.706
  523ACTN    O1 5698   3.708   3.359   6.713
  523ACTN    C1 5699   3.480   3.397   6.758
  523ACTN    H1 5700   3.396   3.445   6.707
  523ACTN    H2 5701   3.480   3.417   6.866
  523ACTN    H3 5702   3.458   3.291   6.745
  524ACTN    H6 5703   7.157   4.593   4.533
  524ACTN    C3 5704   7.070   4.529   4.538
  524ACTN    H4 5705   6.992   4.576   4.478
  524ACTN    H5 5706   7.092   4.427   4.509
  524ACTN    C2 5707   7.023   4.536   4.685
  524ACTN    O1 5708   7.095   4.472   4.768
  524ACTN    C1 5709   6.918   4.619   4.735
  524ACTN    H1 5710   6.951   4.664   4.829
  524ACTN    H2 5711   6.824   4.568   4.758
  524ACTN    H3 5712   6.895   4.706   4.673
  525ACTN    H6 5713   6.606   3.714   4.063
  525ACTN    C3 5714   6.518   3.772   4.036
  525ACTN    H4 5715   6.461   3.792   4.127
  525ACTN    H5 5716   6.544   3.861   3.979
  525ACTN    C2 5717   6.421   3.691   3.960
  525ACTN    O1 5718   6.403   3.716   3.842
  525ACTN    C1 5719   6.338   3.587   4.031
  525ACTN    H1 5720   6.384   3.488   4.028
  525ACTN    H2 5721   6.246   3.565   3.977
  525ACTN    H3 5722   6.309   3.615   4.133
  526ACTN    H6 5723   3.224   6.915   4.811
  526ACTN    C3 5724   3.184   6.876   4.717
  526ACTN    H4 5725   3.239   6.794   4.671
  526ACTN    H5 5726   3.086   6.846   4.754
  526ACTN    C2 5727   3.161   6.992   4.629
  526ACTN    O1 5728   3.119   6.982   4.515
  526ACTN    C1 5729   3.207   7.124   4.678
  526ACTN    H1 5730   3.183   7.209   4.613
  526ACTN    H2 5731   3.313   7.125   4.703
  526ACTN    H3 5732   3.144   7.145   4.764
  527ACTN    H6 5733   2.345   4.882   2.939
  527ACTN    C3 5734   2.406   4.877   3.029
  527ACTN    H4 5735   2.383   4.950   3.108
  527ACTN    H5 5736   2.392   4.778   3.073
  527ACTN    C2 5737   2.551   4.901   2.986
  527ACTN    O1 5738   2.584   4.980   2.900
  527ACTN    C1 5739   2.651   4.852   3.082
  527ACTN    H1 5740   2.714   4.934   3.115
  527ACTN    H2 5741   2.713   4.776   3.034
  527ACTN    H3 5742   2.616   4.812   3.177
  528ACTN    H6 5743   1.988   5.413   4.190
  528ACTN    C3 5744   2.090   5.391   4.160
  528ACTN    H4 5745   2.157   5.446   4.226
  528ACTN    H5 5746   2.100   5.420   4.055
  528ACTN    C2 5747   2.091   5.239   4.167
  528ACTN    O1 5748   2.182   5.173   4.220
  528ACTN    C1 5749   1.984   5.174   4.088
  528ACTN    H1 5750   1.949   5.239   4.008
  528ACTN    H2 5751   1.906   5.150   4.160
  528ACTN    H3 5752   2.012   5.083   4.035
  529ACTN    H6 5753   4.648   4.531   0.507
  529ACTN    C3 5754   4.623   4.580   0.413
  529ACTN    H4 5755   4.651   4.685   0.418
  529ACTN    H5 5756   4.672   4.541   0.324
  529ACTN    C2 5757   4.476   4.585   0.380
  529ACTN    O1 5758   4.411   4.681   0.423
  529ACTN    C1 5759   4.422   4.458   0.328
  529ACTN    H1 5760   4.501   4.387   0.304
  529ACTN    H2 5761   4.361   4.464   0.237
  529ACTN    H3 5762   4.359   4.408   0.401
  530ACTN    H6 5763   1.104   0.540   4.194
  530ACTN    C3 5764   1.084   0.445   4.244
  530ACTN    H4 5765   1.167   0.377   4.224
  530ACTN    H5 5766   1.079   0.462   4.352
  530ACTN    C2 5767   0.953   0.392   4.200
  530ACTN    O1 5768   0.897   0.306   4.265
  530ACTN    C1 5769   0.895   0.462   4.084
  530ACTN    H1 5770   0.801   0.413   4.059
  530ACTN    H2 5771   0.963   0.460   3.999
  530ACTN    H3 5772   0.866   0.562   4.116
  531ACTN    H6 5773   1.663   5.744   7.087
  531ACTN    C3 5774   1.680   5.679   7.172
  531ACTN    H4 5775   1.699   5.743   7.258
  531ACTN    H5 5776   1.597   5.609   7.184
  531ACTN    C2 5777   1.802   5.602   7.132
  531ACTN    O1 5778   1.914   5.653   7.169
  531ACTN    C1 5779   1.789   5.522   7.004
  531ACTN    H1 5780   1.694   5.538   6.954
  531ACTN    H2 5781   1.794   5.414   7.018
  531ACTN    H3 5782   1.869   5.546   6.935
  532ACTN    H6 5783   3.817   3.777   7.069
  532ACTN    C3 5784   3.817   3.860   7.140
  532ACTN    H4 5785   3.719   3.870   7.185
  532ACTN    H5 5786   3.894   3.844   7.215
  532ACTN    C2 5787   3.848   3.993   7.076
  532ACTN    O1 5788   3.830   4.006   6.959
  532ACTN    C1 5789   3.848   4.124   7.161
  532ACTN    H1 5790   3.771   4.183   7.112
  532ACTN    H2 5791   3.941   4.181   7.163
  532ACTN    H3 5792   3.812   4.103   7.262
  533ACTN    H6 5793   0.489   2.021   1.688
  533ACTN    C3 5794   0.453   2.124   1.684
  533ACTN    H4 5795   0.393   2.147   1.595
  533ACTN    H5 5796   0.389   2.132   1.771
  533ACTN    C2 5797   0.566   2.219   1.693
  533ACTN    O1 5798   0.679   2.180   1.671
  533ACTN    C1 5799   0.547   2.360   1.748
  533ACTN    H1 5800   0.578   2.439   1.679
  533ACTN    H2 5801   0.594   2.366   1.846
  533ACTN    H3 5802   0.440   2.373   1.763
  534ACTN    H6 5803   5.402   5.853   0.983
  534ACTN    C3 5804   5.421   5.769   1.049
  534ACTN    H4 5805   5.357   5.686   1.020
  534ACTN    H5 5806   5.525   5.738   1.042
  534ACTN    C2 5807   5.370   5.808   1.183
  534ACTN    O1 5808   5.389   5.926   1.222
  534ACTN    C1 5809   5.341   5.701   1.281
  534ACTN    H1 5810   5.258   5.731   1.346
  534ACTN    H2 5811   5.430   5.671   1.337
  534ACTN    H3 5812   5.309   5.607   1.236
  535ACTN    H6 5813   2.504   6.778   7.009
  535ACTN    C3 5814   2.416   6.724   7.044
  535ACTN    H4 5815   2.436   6.733   7.151
  535ACTN    H5 5816   2.316   6.761   7.023
  535ACTN    C2 5817   2.423   6.577   7.002
  535ACTN    O1 5818   2.514   6.517   7.057
  535ACTN    C1 5819   2.357   6.525   6.874
  535ACTN    H1 5820   2.346   6.417   6.873
  535ACTN    H2 5821   2.404   6.559   6.781
  535ACTN    H3 5822   2.259   6.572   6.881
  536ACTN    H6 5823   6.705   7.135   6.179
  536ACTN    C3 5824   6.637   7.069   6.124
  536ACTN    H4 5825   6.576   7.016   6.197
  536ACTN    H5 5826   6.566   7.123   6.062
  536ACTN    C2 5827   6.736   6.975   6.057
  536ACTN    O1 5828   6.803   7.017   5.961
  536ACTN    C1 5829   6.722   6.827   6.085
  536ACTN    H1 5830   6.789   6.815   6.170
  536ACTN    H2 5831   6.760   6.761   6.007
  536ACTN    H3 5832   6.620   6.795   6.108
  537ACTN    H6 5833   0.279   2.223   2.924
  537ACTN    C3 5834   0.249   2.292   2.845
  537ACTN    H4 5835   0.313   2.290   2.758
  537ACTN    H5 5836   0.151   2.268   2.804
  537ACTN    C2 5837   0.243   2.419   2.920
  537ACTN    O1 5838   0.354   2.461   2.952
  537ACTN    C1 5839   0.114   2.449   3.000
  537ACTN    H1 5840   0.128   2.493   3.098
  537ACTN    H2 5841   0.061   2.357   3.024
  537ACTN    H3 5842   0.049   2.509   2.936
  538ACTN    H6 5843   4.158   1.929   0.348
  538ACTN    C3 5844   4.091   2.012   0.372
  538ACTN    H4 5845   4.140   2.107   0.351
  538ACTN    H5 5846   3.999   2.001   0.315
  538ACTN    C2 5847   4.058   2.021   0.516
  538ACTN    O1 5848   3.943   2.031   0.549
  538ACTN    C1 5849   4.170   2.010   0.617
  538ACTN    H1 5850   4.182   2.098   0.682
  538ACTN    H2 5851   4.267   1.998   0.570
  538ACTN    H3 5852   4.157   1.921   0.679
  539ACTN    H6 5853   2.467   0.751   4.051
  539ACTN    C3 5854   2.465   0.727   3.944
  539ACTN    H4 5855   2.416   0.806   3.887
  539ACTN    H5 5856   2.562   0.716   3.895
  539ACTN    C2 5857   2.370   0.613   3.935
  539ACTN    O1 5858   2.407   0.522   3.862
  539ACTN    C1 5859   2.226   0.616   3.958
  539ACTN    H1 5860   2.166   0.629   3.868
  539ACTN    H2 5861   2.211   0.702   4.023
  539ACTN    H3 5862   2.186   0.530   4.013
  540ACTN    H6 5863   2.899   4.772   4.201
  540ACTN    C3 5864   2.884   4.666   4.181
  540ACTN    H4 5865   2.963   4.628   4.117
  540ACTN    H5 5866   2.794   4.657   4.120
  540ACTN    C2 5867   2.862   4.598   4.311
  540ACTN    O1 5868   2.958   4.579   4.385
  540ACTN    C1 5869   2.719   4.546   4.327
  540ACTN    H1 5870   2.719   4.507   4.429
  540ACTN    H2 5871   2.695   4.469   4.254
  540ACTN    H3 5872   2.647   4.628   4.321
  541ACTN    H6 5873   1.630   2.895   3.989
  541ACTN    C3 5874   1.584   2.835   4.069
  541ACTN    H4 5875   1.649   2.748   4.075
  541ACTN    H5 5876   1.572   2.886   4.164
  541ACTN    C2 5877   1.453   2.778   4.025
  541ACTN    O1 5878   1.391   2.698   4.093
  541ACTN    C1 5879   1.406   2.833   3.892
  541ACTN    H1 5880   1.394   2.941   3.895
  541ACTN    H2 5881   1.308   2.798   3.861
  541ACTN    H3 5882   1.477   2.808   3.814
  542ACTN    H6 5883   0.264   5.352   3.123
  542ACTN    C3 5884   0.171   5.296   3.126
  542ACTN    H4 5885   0.084   5.356   3.154
  542ACTN    H5 5886   0.149   5.257   3.027
  542ACTN    C2 5887   0.176   5.180   3.221
  542ACTN    O1 5888   0.096   5.089   3.197
  542ACTN    C1 5889   0.278   5.170   3.330
  542ACTN    H1 5890   0.263   5.248   3.405
  542ACTN    H2 5891   0.375   5.177   3.282
  542ACTN    H3 5892   0.263   5.080   3.391
  543ACTN    H6 5893   3.319   4.799   2.179
  543ACTN    C3 5894   3.253   4.719   2.147
  543ACTN    H4 5895   3.228   4.659   2.235
  543ACTN    H5 5896   3.163   4.764   2.104
  543ACTN    C2 5897   3.320   4.636   2.046
  543ACTN    O1 5898   3.433   4.663   2.014
  543ACTN    C1 5899   3.249   4.510   2.012
  543ACTN    H1 5900   3.309   4.451   1.943
  543ACTN    H2 5901   3.151   4.539   1.973
  543ACTN    H3 5902   3.228   4.454   2.103
  544ACTN    H6 5903   3.001   4.563   2.973
  544ACTN    C3 5904   2.922   4.598   2.907
  544ACTN    H4 5905   2.850   4.515   2.900
  544ACTN    H5 5906   2.871   4.680   2.957
  544ACTN    C2 5907   2.965   4.640   2.771
  544ACTN    O1 5908   2.938   4.570   2.675
  544ACTN    C1 5909   3.041   4.767   2.752
  544ACTN    H1 5910   3.066   4.786   2.647
  544ACTN    H2 5911   3.135   4.777   2.805
  544ACTN    H3 5912   2.974   4.846   2.785
  545ACTN    H6 5913   4.923   2.884   5.842
  545ACTN    C3 5914   4.938   2.777   5.853
  545ACTN    H4 5915   4.860   2.737   5.918
  545ACTN    H5 5916   5.035   2.767   5.902
  545ACTN    C2 5917   4.944   2.703   5.722
  545ACTN    O1 5918   4.942   2.582   5.725
  545ACTN    C1 5919   4.941   2.771   5.589
  545ACTN    H1 5920   5.012   2.729   5.517
  545ACTN    H2 5921   4.948   2.878   5.606
  545ACTN    H3 5922   4.841   2.751   5.551
  546ACTN    H6 5923   5.537   4.944   2.738
  546ACTN    C3 5924   5.470   5.030   2.747
  546ACTN    H4 5925   5.391   5.016   2.674
  546ACTN    H5 5926   5.424   5.019   2.845
  546ACTN    C2 5927   5.531   5.159   2.713
  546ACTN    O1 5928   5.552   5.240   2.807
  546ACTN    C1 5929   5.581   5.183   2.576
  546ACTN    H1 5930   5.561   5.283   2.538
  546ACTN    H2 5931   5.545   5.114   2.500
  546ACTN    H3 5932   5.688   5.163   2.576
  547ACTN    H6 5933   0.281   6.084   4.826
  547ACTN    C3 5934   0.356   6.058   4.901
  547ACTN    H4 5935   0.325   5.962   4.942
  547ACTN    H5 5936   0.455   6.044   4.856
  547ACTN    C2 5937   0.372   6.171   5.004
  547ACTN    O1 5938   0.408   6.137   5.117
  547ACTN    C1 5939   0.396   6.309   4.962
  547ACTN    H1 5940   0.493   6.325   4.914
  547ACTN    H2 5941   0.373   6.367   5.051
  547ACTN    H3 5942   0.322   6.335   4.887
  548ACTN    H6 5943   5.910   6.050   6.075
  548ACTN    C3 5944   5.837   6.090   6.145
  548ACTN    H4 5945   5.848   6.197   6.158
  548ACTN    H5 5946   5.741   6.066   6.098
  548ACTN    C2 5947   5.853   6.017   6.273
  548ACTN    O1 5948   5.961   6.005   6.327
  548ACTN    C1 5949   5.722   5.958   6.319
  548ACTN    H1 5950   5.640   6.009   6.267
  548ACTN    H2 5951   5.713   5.977   6.426
  548ACTN    H3 5952   5.712   5.853   6.292
  549ACTN    H6 5953   0.516   7.203   3.832
  549ACTN    C3 5954   0.478   7.181   3.732
  549ACTN    H4 5955   0.386   7.237   3.720
  549ACTN    H5 5956   0.462   7.074   3.721
  549ACTN    C2 5957   0.585   7.209   3.641
  549ACTN    O1 5958   0.660   7.114   3.606
  549ACTN    C1 5959   0.609   7.345   3.581
  549ACTN    H1 5960   0.705   7.373   3.625
  549ACTN    H2 5961   0.527   7.408   3.614
  549ACTN    H3 5962   0.624   7.340   3.473
  550ACTN    H6 5963   4.509   3.029   6.679
  550ACTN    C3 5964   4.427   3.053   6.747
  550ACTN    H4 5965   4.344   3.087   6.685
  550ACTN    H5 5966   4.459   3.138   6.808
  550ACTN    C2 5967   4.398   2.946   6.842
  550ACTN    O1 5968   4.297   2.958   6.913
  550ACTN    C1 5969   4.496   2.827   6.840
  550ACTN    H1 5970   4.574   2.839   6.764
  550ACTN    H2 5971   4.437   2.737   6.825
  550ACTN    H3 5972   4.542   2.829   6.939
  551ACTN    H6 5973   0.400   3.732   2.823
  551ACTN    C3 5974   0.367   3.629   2.820
  551ACTN    H4 5975   0.453   3.581   2.867
  551ACTN    H5 5976   0.273   3.611   2.871
  551ACTN    C2 5977   0.365   3.572   2.689
  551ACTN    O1 5978   0.421   3.631   2.600
  551ACTN    C1 5979   0.292   3.447   2.669
  551ACTN    H1 5980   0.184   3.460   2.663
  551ACTN    H2 5981   0.321   3.379   2.748
  551ACTN    H3 5982   0.318   3.410   2.570
  552ACTN    H6 5983   1.986   0.290   4.516
  552ACTN    C3 5984   1.881   0.272   4.540
  552ACTN    H4 5985   1.878   0.175   4.590
  552ACTN    H5 5986   1.857   0.352   4.610
  552ACTN    C2 5987   1.791   0.276   4.417
  552ACTN    O1 5988   1.719   0.178   4.387
  552ACTN    C1 5989   1.776   0.410   4.345
  552ACTN    H1 5990   1.833   0.396   4.253
  552ACTN    H2 5991   1.811   0.494   4.405
  552ACTN    H3 5992   1.676   0.441   4.315
  553ACTN    H6 5993   7.450   4.123   1.102
  553ACTN    C3 5994   7.421   4.020   1.085
  553ACTN    H4 5995   7.502   3.958   1.125
  553ACTN    H5 5996   7.411   4.006   0.977
  553ACTN    C2 5997   7.295   3.977   1.146
  553ACTN    O1 5998   7.208   4.058   1.177
  553ACTN    C1 5999   7.265   3.837   1.148
  553ACTN    H1 6000   7.294   3.793   1.053
  553ACTN    H2 6001   7.159   3.820   1.164
  553ACTN    H3 6002   7.319   3.785   1.226
  554ACTN    H6 6003   0.363   5.543   1.741
  554ACTN    C3 6004   0.404   5.459   1.686
  554ACTN    H4 6005   0.374   5.459   1.581
  554ACTN    H5 6006   0.511   5.476   1.697
  554ACTN    C2 6007   0.376   5.327   1.753
  554ACTN    O1 6008   0.262   5.288   1.761
  554ACTN    C1 6009   0.485   5.257   1.826
  554ACTN    H1 6010   0.551   5.330   1.873
  554ACTN    H2 6011   0.549   5.210   1.752
  554ACTN    H3 6012   0.451   5.184   1.900
  555ACTN    H6 6013   4.426   5.728   1.397
  555ACTN    C3 6014   4.408   5.647   1.326
  555ACTN    H4 6015   4.505   5.607   1.297
  555ACTN    H5 6016   4.355   5.566   1.376
  555ACTN    C2 6017   4.329   5.690   1.208
  555ACTN    O1 6018   4.306   5.806   1.190
  555ACTN    C1 6019   4.304   5.585   1.109
  555ACTN    H1 6020   4.355   5.609   1.016
  555ACTN    H2 6021   4.197   5.590   1.087
  555ACTN    H3 6022   4.320   5.486   1.153
  556ACTN    H6 6023   0.173   0.040   3.985
  556ACTN    C3 6024   0.257  -0.001   3.928
  556ACTN    H4 6025   0.293  -0.097   3.965
  556ACTN    H5 6026   0.221  -0.017   3.827
  556ACTN    C2 6027   0.360   0.100   3.942
  556ACTN    O1 6028   0.429   0.141   3.848
  556ACTN    C1 6029   0.398   0.129   4.080
  556ACTN    H1 6030   0.329   0.196   4.131
  556ACTN    H2 6031   0.489   0.190   4.082
  556ACTN    H3 6032   0.414   0.040   4.141
  557ACTN    H6 6033   3.167   2.062   4.296
  557ACTN    C3 6034   3.123   1.977   4.348
  557ACTN    H4 6035   3.195   1.896   4.341
  557ACTN    H5 6036   3.123   1.997   4.455
  557ACTN    C2 6037   2.985   1.952   4.290
  557ACTN    O1 6038   2.943   2.022   4.199
  557ACTN    C1 6039   2.896   1.849   4.366
  557ACTN    H1 6040   2.868   1.768   4.299
  557ACTN    H2 6041   2.799   1.885   4.400
  557ACTN    H3 6042   2.951   1.812   4.453
  558ACTN    H6 6043   4.131   6.091   1.690
  558ACTN    C3 6044   4.215   6.136   1.638
  558ACTN    H4 6045   4.253   6.217   1.700
  558ACTN    H5 6046   4.291   6.059   1.639
  558ACTN    C2 6047   4.195   6.176   1.500
  558ACTN    O1 6048   4.093   6.236   1.478
  558ACTN    C1 6049   4.295   6.159   1.390
  558ACTN    H1 6050   4.238   6.111   1.310
  558ACTN    H2 6051   4.376   6.094   1.422
  558ACTN    H3 6052   4.340   6.247   1.344
  559ACTN    H6 6053   0.437   0.327   4.510
  559ACTN    C3 6054   0.544   0.316   4.498
  559ACTN    H4 6055   0.579   0.215   4.480
  559ACTN    H5 6056   0.570   0.380   4.414
  559ACTN    C2 6057   0.623   0.378   4.612
  559ACTN    O1 6058   0.576   0.487   4.650
  559ACTN    C1 6059   0.771   0.359   4.624
  559ACTN    H1 6060   0.797   0.254   4.639
  559ACTN    H2 6061   0.817   0.428   4.695
  559ACTN    H3 6062   0.824   0.381   4.531
  560ACTN    H6 6063   1.070   0.707   3.310
  560ACTN    C3 6064   1.097   0.747   3.212
  560ACTN    H4 6065   1.071   0.674   3.135
  560ACTN    H5 6066   1.037   0.830   3.177
  560ACTN    C2 6067   1.244   0.782   3.202
  560ACTN    O1 6068   1.281   0.890   3.156
  560ACTN    C1 6069   1.345   0.677   3.246
  560ACTN    H1 6070   1.322   0.580   3.203
  560ACTN    H2 6071   1.362   0.652   3.351
  560ACTN    H3 6072   1.442   0.702   3.203
  561ACTN    H6 6073   6.093   3.135   0.581
  561ACTN    C3 6074   6.037   3.144   0.674
  561ACTN    H4 6075   6.104   3.153   0.759
  561ACTN    H5 6076   5.977   3.235   0.665
  561ACTN    C2 6077   5.950   3.034   0.684
  561ACTN    O1 6078   5.931   2.956   0.590
  561ACTN    C1 6079   5.875   3.018   0.815
  561ACTN    H1 6080   5.953   2.986   0.884
  561ACTN    H2 6081   5.788   2.953   0.805
  561ACTN    H3 6082   5.832   3.110   0.853
  562ACTN    H6 6083   2.192   1.223   4.002
  562ACTN    C3 6084   2.255   1.135   4.011
  562ACTN    H4 6085   2.355   1.178   4.001
  562ACTN    H5 6086   2.246   1.097   4.113
  562ACTN    C2 6087   2.227   1.041   3.901
  562ACTN    O1 6088   2.319   1.029   3.817
  562ACTN    C1 6089   2.090   0.989   3.882
  562ACTN    H1 6090   2.055   0.946   3.976
  562ACTN    H2 6091   2.091   0.911   3.807
  562ACTN    H3 6092   2.019   1.066   3.850
  563ACTN    H6 6093   1.077   5.880   2.992
  563ACTN    C3 6094   1.124   5.783   2.980
  563ACTN    H4 6095   1.138   5.753   3.084
  563ACTN    H5 6096   1.223   5.793   2.933
  563ACTN    C2 6097   1.046   5.685   2.903
  563ACTN    O1 6098   1.051   5.571   2.950
  563ACTN    C1 6099   1.029   5.706   2.756
  563ACTN    H1 6100   0.975   5.800   2.740
  563ACTN    H2 6101   0.972   5.623   2.715
  563ACTN    H3 6102   1.129   5.721   2.714
  564ACTN    H6 6103   3.376   1.135   1.990
  564ACTN    C3 6104   3.469   1.079   1.986
  564ACTN    H4 6105   3.455   0.976   2.018
  564ACTN    H5 6106   3.493   1.087   1.880
  564ACTN    C2 6107   3.575   1.151   2.068
  564ACTN    O1 6108   3.680   1.093   2.081
  564ACTN    C1 6109   3.538   1.279   2.145
  564ACTN    H1 6110   3.439   1.269   2.190
  564ACTN    H2 6111   3.535   1.367   2.082
  564ACTN    H3 6112   3.615   1.296   2.221
  565ACTN    H6 6113   4.244   4.989   3.941
  565ACTN    C3 6114   4.285   4.988   4.042
  565ACTN    H4 6115   4.227   5.053   4.107
  565ACTN    H5 6116   4.277   4.886   4.080
  565ACTN    C2 6117   4.436   5.013   4.049
  565ACTN    O1 6118   4.502   5.015   4.152
  565ACTN    C1 6119   4.498   5.052   3.918
  565ACTN    H1 6120   4.478   4.969   3.850
  565ACTN    H2 6121   4.607   5.055   3.923
  565ACTN    H3 6122   4.458   5.144   3.877
  566ACTN    H6 6123   0.641   6.721   2.480
  566ACTN    C3 6124   0.552   6.713   2.543
  566ACTN    H4 6125   0.462   6.744   2.489
  566ACTN    H5 6126   0.536   6.610   2.575
  566ACTN    C2 6127   0.555   6.819   2.648
  566ACTN    O1 6128   0.461   6.830   2.720
  566ACTN    C1 6129   0.678   6.895   2.678
  566ACTN    H1 6130   0.664   6.955   2.768
  566ACTN    H2 6131   0.699   6.965   2.598
  566ACTN    H3 6132   0.762   6.828   2.695
  567ACTN    H6 6133   3.031   0.373   6.474
  567ACTN    C3 6134   3.066   0.403   6.375
  567ACTN    H4 6135   3.014   0.344   6.300
  567ACTN    H5 6136   3.039   0.508   6.363
  567ACTN    C2 6137   3.217   0.382   6.366
  567ACTN    O1 6138   3.282   0.420   6.463
  567ACTN    C1 6139   3.277   0.342   6.240
  567ACTN    H1 6140   3.205   0.329   6.159
  567ACTN    H2 6141   3.324   0.245   6.258
  567ACTN    H3 6142   3.357   0.410   6.210
  568ACTN    H6 6143   5.521   2.291   1.074
  568ACTN    C3 6144   5.433   2.245   1.028
  568ACTN    H4 6145   5.412   2.302   0.938
  568ACTN    H5 6146   5.467   2.143   1.009
  568ACTN    C2 6147   5.307   2.263   1.114
  568ACTN    O1 6148   5.241   2.165   1.147
  568ACTN    C1 6149   5.260   2.399   1.164
  568ACTN    H1 6150   5.289   2.485   1.105
  568ACTN    H2 6151   5.310   2.417   1.260
  568ACTN    H3 6152   5.153   2.406   1.186
  569ACTN    H6 6153   2.545   5.946   5.216
  569ACTN    C3 6154   2.496   5.862   5.167
  569ACTN    H4 6155   2.478   5.887   5.062
  569ACTN    H5 6156   2.571   5.783   5.173
  569ACTN    C2 6157   2.371   5.829   5.235
  569ACTN    O1 6158   2.332   5.895   5.330
  569ACTN    C1 6159   2.285   5.726   5.166
  569ACTN    H1 6160   2.263   5.764   5.066
  569ACTN    H2 6161   2.193   5.690   5.212
  569ACTN    H3 6162   2.350   5.639   5.157
  570ACTN    H6 6163   4.101   1.826   2.431
  570ACTN    C3 6164   4.042   1.735   2.437
  570ACTN    H4 6165   4.081   1.657   2.371
  570ACTN    H5 6166   4.050   1.706   2.542
  570ACTN    C2 6167   3.904   1.770   2.400
  570ACTN    O1 6168   3.822   1.686   2.416
  570ACTN    C1 6169   3.876   1.904   2.339
  570ACTN    H1 6170   3.776   1.909   2.296
  570ACTN    H2 6171   3.944   1.910   2.254
  570ACTN    H3 6172   3.892   1.988   2.407
  571ACTN    H6 6173   2.783   2.734   5.783
  571ACTN    C3 6174   2.838   2.814   5.832
  571ACTN    H4 6175   2.828   2.815   5.941
  571ACTN    H5 6176   2.946   2.808   5.814
  571ACTN    C2 6177   2.793   2.956   5.783
  571ACTN    O1 6178   2.797   3.044   5.867
  571ACTN    C1 6179   2.708   2.968   5.654
  571ACTN    H1 6180   2.691   3.073   5.631
  571ACTN    H2 6181   2.607   2.926   5.651
  571ACTN    H3 6182   2.755   2.925   5.566
  572ACTN    H6 6183   5.739   1.696   5.562
  572ACTN    C3 6184   5.805   1.617   5.598
  572ACTN    H4 6185   5.836   1.579   5.500
  572ACTN    H5 6186   5.888   1.660   5.653
  572ACTN    C2 6187   5.722   1.520   5.673
  572ACTN    O1 6188   5.698   1.545   5.791
  572ACTN    C1 6189   5.695   1.383   5.618
  572ACTN    H1 6190   5.677   1.299   5.686
  572ACTN    H2 6191   5.787   1.350   5.570
  572ACTN    H3 6192   5.615   1.380   5.544
  573ACTN    H6 6193   3.290   0.738   5.001
  573ACTN    C3 6194   3.347   0.659   4.954
  573ACTN    H4 6195   3.396   0.701   4.867
  573ACTN    H5 6196   3.431   0.648   5.023
  573ACTN    C2 6197   3.264   0.547   4.909
  573ACTN    O1 6198   3.268   0.507   4.792
  573ACTN    C1 6199   3.205   0.459   5.014
  573ACTN    H1 6200   3.267   0.370   5.024
  573ACTN    H2 6201   3.099   0.441   5.001
  573ACTN    H3 6202   3.213   0.511   5.109
  574ACTN    H6 6203   4.084   5.314   0.021
  574ACTN    C3 6204   4.039   5.413   0.014
  574ACTN    H4 6205   4.096   5.487   0.072
  574ACTN    H5 6206   4.049   5.448  -0.089
  574ACTN    C2 6207   3.898   5.404   0.054
  574ACTN    O1 6208   3.822   5.350  -0.025
  574ACTN    C1 6209   3.845   5.460   0.185
  574ACTN    H1 6210   3.914   5.542   0.206
  574ACTN    H2 6211   3.854   5.384   0.262
  574ACTN    H3 6212   3.745   5.502   0.181
  575ACTN    H6 6213   3.792   4.701   5.910
  575ACTN    C3 6214   3.690   4.665   5.916
  575ACTN    H4 6215   3.626   4.753   5.923
  575ACTN    H5 6216   3.656   4.610   5.828
  575ACTN    C2 6217   3.651   4.589   6.044
  575ACTN    O1 6218   3.726   4.501   6.090
  575ACTN    C1 6219   3.556   4.645   6.146
  575ACTN    H1 6220   3.460   4.659   6.096
  575ACTN    H2 6221   3.584   4.742   6.186
  575ACTN    H3 6222   3.536   4.583   6.234
  576ACTN    H6 6223   6.366   5.063   6.600
  576ACTN    C3 6224   6.451   5.012   6.554
  576ACTN    H4 6225   6.473   5.061   6.459
  576ACTN    H5 6226   6.536   5.022   6.621
  576ACTN    C2 6227   6.416   4.870   6.517
  576ACTN    O1 6228   6.346   4.808   6.596
  576ACTN    C1 6229   6.497   4.797   6.415
  576ACTN    H1 6230   6.557   4.863   6.352
  576ACTN    H2 6231   6.425   4.745   6.353
  576ACTN    H3 6232   6.563   4.725   6.463
  577ACTN    H6 6233   6.780   2.225   6.564
  577ACTN    C3 6234   6.710   2.149   6.598
  577ACTN    H4 6235   6.766   2.056   6.611
  577ACTN    H5 6236   6.676   2.170   6.699
  577ACTN    C2 6237   6.587   2.135   6.509
  577ACTN    O1 6238   6.578   2.052   6.417
  577ACTN    C1 6239   6.466   2.219   6.526
  577ACTN    H1 6240   6.374   2.161   6.530
  577ACTN    H2 6241   6.468   2.294   6.447
  577ACTN    H3 6242   6.476   2.274   6.620
  578ACTN    H6 6243   4.317   4.837   1.712
  578ACTN    C3 6244   4.232   4.904   1.697
  578ACTN    H4 6245   4.171   4.907   1.788
  578ACTN    H5 6246   4.271   5.005   1.693
  578ACTN    C2 6247   4.150   4.886   1.580
  578ACTN    O1 6248   4.033   4.852   1.583
  578ACTN    C1 6249   4.214   4.915   1.441
  578ACTN    H1 6250   4.318   4.882   1.434
  578ACTN    H2 6251   4.205   5.022   1.424
  578ACTN    H3 6252   4.159   4.865   1.362
  579ACTN    H6 6253   7.231   7.034   2.035
  579ACTN    C3 6254   7.198   7.032   2.139
  579ACTN    H4 6255   7.180   6.927   2.162
  579ACTN    H5 6256   7.275   7.069   2.207
  579ACTN    C2 6257   7.071   7.110   2.136
  579ACTN    O1 6258   6.960   7.064   2.168
  579ACTN    C1 6259   7.082   7.247   2.081
  579ACTN    H1 6260   7.176   7.262   2.027
  579ACTN    H2 6261   7.075   7.317   2.164
  579ACTN    H3 6262   7.012   7.264   2.000
  580ACTN    H6 6263   3.678   4.110   5.574
  580ACTN    C3 6264   3.729   4.138   5.666
  580ACTN    H4 6265   3.837   4.144   5.648
  580ACTN    H5 6266   3.693   4.239   5.686
  580ACTN    C2 6267   3.683   4.047   5.777
  580ACTN    O1 6268   3.599   4.089   5.855
  580ACTN    C1 6269   3.745   3.910   5.799
  580ACTN    H1 6270   3.703   3.845   5.876
  580ACTN    H2 6271   3.851   3.907   5.825
  580ACTN    H3 6272   3.726   3.852   5.709
  581ACTN    H6 6273   0.791   2.623   6.034
  581ACTN    C3 6274   0.705   2.587   6.090
  581ACTN    H4 6275   0.742   2.526   6.172
  581ACTN    H5 6276   0.646   2.670   6.130
  581ACTN    C2 6277   0.612   2.524   5.998
  581ACTN    O1 6278   0.579   2.407   6.012
  581ACTN    C1 6279   0.548   2.616   5.894
  581ACTN    H1 6280   0.448   2.578   5.876
  581ACTN    H2 6281   0.601   2.606   5.799
  581ACTN    H3 6282   0.543   2.721   5.922
  582ACTN    H6 6283   4.379   4.833  -0.091
  582ACTN    C3 6284   4.297   4.834  -0.019
  582ACTN    H4 6285   4.211   4.788  -0.068
  582ACTN    H5 6286   4.319   4.777   0.072
  582ACTN    C2 6287   4.265   4.972   0.009
  582ACTN    O1 6288   4.264   5.014   0.123
  582ACTN    C1 6289   4.252   5.062  -0.110
  582ACTN    H1 6290   4.268   5.002  -0.200
  582ACTN    H2 6291   4.319   5.147  -0.118
  582ACTN    H3 6292   4.151   5.101  -0.118
  583ACTN    H6 6293   0.208   1.016   4.924
  583ACTN    C3 6294   0.177   0.918   4.962
  583ACTN    H4 6295   0.163   0.841   4.886
  583ACTN    H5 6296   0.253   0.891   5.035
  583ACTN    C2 6297   0.038   0.926   5.018
  583ACTN    O1 6298  -0.063   0.914   4.952
  583ACTN    C1 6299   0.024   0.946   5.162
  583ACTN    H1 6300   0.044   0.851   5.211
  583ACTN    H2 6301  -0.080   0.967   5.188
  583ACTN    H3 6302   0.087   1.025   5.204
  584ACTN    H6 6303   1.052   2.678   2.232
  584ACTN    C3 6304   1.124   2.751   2.269
  584ACTN    H4 6305   1.109   2.773   2.375
  584ACTN    H5 6306   1.228   2.720   2.258
  584ACTN    C2 6307   1.096   2.874   2.186
  584ACTN    O1 6308   1.195   2.930   2.139
  584ACTN    C1 6309   0.959   2.917   2.153
  584ACTN    H1 6310   0.911   2.838   2.096
  584ACTN    H2 6311   0.955   3.011   2.097
  584ACTN    H3 6312   0.907   2.924   2.248
  585ACTN    H6 6313   7.152   6.380   5.504
  585ACTN    C3 6314   7.070   6.358   5.436
  585ACTN    H4 6315   7.003   6.444   5.428
  585ACTN    H5 6316   7.123   6.335   5.343
  585ACTN    C2 6317   6.998   6.233   5.484
  585ACTN    O1 6318   6.940   6.225   5.595
  585ACTN    C1 6319   6.999   6.115   5.389
  585ACTN    H1 6320   6.994   6.148   5.285
  585ACTN    H2 6321   6.906   6.061   5.406
  585ACTN    H3 6322   7.088   6.055   5.411
  586ACTN    H6 6323   1.629   5.154   2.021
  586ACTN    C3 6324   1.567   5.220   2.082
  586ACTN    H4 6325   1.508   5.299   2.036
  586ACTN    H5 6326   1.507   5.145   2.133
  586ACTN    C2 6327   1.647   5.285   2.189
  586ACTN    O1 6328   1.714   5.211   2.259
  586ACTN    C1 6329   1.635   5.431   2.226
  586ACTN    H1 6330   1.590   5.495   2.151
  586ACTN    H2 6331   1.736   5.470   2.240
  586ACTN    H3 6332   1.581   5.439   2.321
  587ACTN    H6 6333   0.558   4.645   2.952
  587ACTN    C3 6334   0.612   4.554   2.979
  587ACTN    H4 6335   0.546   4.481   3.027
  587ACTN    H5 6336   0.652   4.510   2.888
  587ACTN    C2 6337   0.721   4.586   3.076
  587ACTN    O1 6338   0.711   4.694   3.136
  587ACTN    C1 6339   0.820   4.485   3.110
  587ACTN    H1 6340   0.887   4.475   3.025
  587ACTN    H2 6341   0.776   4.388   3.132
  587ACTN    H3 6342   0.882   4.504   3.198
  588ACTN    H6 6343   6.774   3.730   1.435
  588ACTN    C3 6344   6.874   3.704   1.402
  588ACTN    H4 6345   6.941   3.788   1.418
  588ACTN    H5 6346   6.874   3.674   1.298
  588ACTN    C2 6347   6.926   3.592   1.487
  588ACTN    O1 6348   6.872   3.567   1.595
  588ACTN    C1 6349   7.063   3.542   1.460
  588ACTN    H1 6350   7.110   3.607   1.386
  588ACTN    H2 6351   7.057   3.441   1.419
  588ACTN    H3 6352   7.110   3.532   1.558
  589ACTN    H6 6353   7.098   6.428   3.428
  589ACTN    C3 6354   7.102   6.425   3.537
  589ACTN    H4 6355   7.085   6.525   3.578
  589ACTN    H5 6356   7.017   6.366   3.573
  589ACTN    C2 6357   7.236   6.367   3.578
  589ACTN    O1 6358   7.337   6.436   3.584
  589ACTN    C1 6359   7.244   6.224   3.626
  589ACTN    H1 6360   7.243   6.150   3.547
  589ACTN    H2 6361   7.157   6.206   3.690
  589ACTN    H3 6362   7.335   6.207   3.684
  590ACTN    H6 6363   1.752   1.292   4.831
  590ACTN    C3 6364   1.754   1.400   4.844
  590ACTN    H4 6365   1.825   1.428   4.922
  590ACTN    H5 6366   1.797   1.444   4.754
  590ACTN    C2 6367   1.622   1.451   4.880
  590ACTN    O1 6368   1.572   1.533   4.803
  590ACTN    C1 6369   1.538   1.394   4.992
  590ACTN    H1 6370   1.490   1.299   4.969
  590ACTN    H2 6371   1.457   1.462   5.017
  590ACTN    H3 6372   1.598   1.386   5.083
  591ACTN    H6 6373   1.892   6.864   5.392
  591ACTN    C3 6374   1.826   6.933   5.444
  591ACTN    H4 6375   1.834   6.909   5.550
  591ACTN    H5 6376   1.853   7.038   5.440
  591ACTN    C2 6377   1.685   6.903   5.416
  591ACTN    O1 6378   1.642   6.814   5.345
  591ACTN    C1 6379   1.582   6.991   5.475
  591ACTN    H1 6380   1.507   7.010   5.399
  591ACTN    H2 6381   1.614   7.090   5.509
  591ACTN    H3 6382   1.534   6.943   5.560
  592ACTN    H6 6383   1.002   6.799   0.698
  592ACTN    C3 6384   0.956   6.707   0.736
  592ACTN    H4 6385   0.849   6.726   0.736
  592ACTN    H5 6386   0.986   6.624   0.672
  592ACTN    C2 6387   0.994   6.688   0.878
  592ACTN    O1 6388   0.951   6.591   0.934
  592ACTN    C1 6389   1.076   6.793   0.941
  592ACTN    H1 6390   1.016   6.884   0.940
  592ACTN    H2 6391   1.170   6.814   0.890
  592ACTN    H3 6392   1.104   6.770   1.044
  593ACTN    H6 6393   5.998   7.327   1.263
  593ACTN    C3 6394   5.974   7.253   1.339
  593ACTN    H4 6395   5.905   7.302   1.408
  593ACTN    H5 6396   5.922   7.167   1.297
  593ACTN    C2 6397   6.107   7.234   1.409
  593ACTN    O1 6398   6.198   7.318   1.399
  593ACTN    C1 6399   6.151   7.101   1.457
  593ACTN    H1 6400   6.065   7.034   1.463
  593ACTN    H2 6401   6.187   7.104   1.560
  593ACTN    H3 6402   6.235   7.053   1.407
  594ACTN    H6 6403   0.560   6.161   2.350
  594ACTN    C3 6404   0.629   6.083   2.318
  594ACTN    H4 6405   0.619   5.997   2.383
  594ACTN    H5 6406   0.597   6.047   2.220
  594ACTN    C2 6407   0.772   6.117   2.318
  594ACTN    O1 6408   0.862   6.033   2.307
  594ACTN    C1 6409   0.806   6.260   2.350
  594ACTN    H1 6410   0.879   6.271   2.430
  594ACTN    H2 6411   0.720   6.324   2.369
  594ACTN    H3 6412   0.852   6.292   2.257
  595ACTN    H6 6413   2.118   1.488   5.102
  595ACTN    C3 6414   2.084   1.458   5.201
  595ACTN    H4 6415   2.106   1.353   5.221
  595ACTN    H5 6416   2.139   1.525   5.268
  595ACTN    C2 6417   1.931   1.472   5.210
  595ACTN    O1 6418   1.862   1.367   5.216
  595ACTN    C1 6419   1.873   1.610   5.177
  595ACTN    H1 6420   1.800   1.602   5.096
  595ACTN    H2 6421   1.949   1.685   5.155
  595ACTN    H3 6422   1.830   1.655   5.267
  596ACTN    H6 6423   5.904   6.716   0.683
  596ACTN    C3 6424   5.936   6.639   0.614
  596ACTN    H4 6425   5.864   6.557   0.602
  596ACTN    H5 6426   5.959   6.693   0.523
  596ACTN    C2 6427   6.067   6.593   0.668
  596ACTN    O1 6428   6.172   6.652   0.665
  596ACTN    C1 6429   6.057   6.451   0.717
  596ACTN    H1 6430   5.973   6.450   0.787
  596ACTN    H2 6431   6.148   6.437   0.776
  596ACTN    H3 6432   6.044   6.370   0.646
  597ACTN    H6 6433   1.904   5.498   2.858
  597ACTN    C3 6434   1.889   5.503   2.966
  597ACTN    H4 6435   1.903   5.605   3.002
  597ACTN    H5 6436   1.787   5.473   2.988
  597ACTN    C2 6437   1.968   5.401   3.031
  597ACTN    O1 6438   2.036   5.445   3.126
  597ACTN    C1 6439   1.977   5.268   2.976
  597ACTN    H1 6440   2.083   5.246   2.960
  597ACTN    H2 6441   1.925   5.264   2.880
  597ACTN    H3 6442   1.942   5.189   3.043
  598ACTN    H6 6443   6.643   4.370   2.362
  598ACTN    C3 6444   6.669   4.401   2.261
  598ACTN    H4 6445   6.724   4.317   2.218
  598ACTN    H5 6446   6.589   4.426   2.191
  598ACTN    C2 6447   6.752   4.526   2.285
  598ACTN    O1 6448   6.700   4.633   2.288
  598ACTN    C1 6449   6.885   4.497   2.361
  598ACTN    H1 6450   6.920   4.396   2.341
  598ACTN    H2 6451   6.876   4.511   2.469
  598ACTN    H3 6452   6.960   4.571   2.332
  599ACTN    H6 6453   3.531   1.112   3.755
  599ACTN    C3 6454   3.449   1.048   3.723
  599ACTN    H4 6455   3.483   0.957   3.675
  599ACTN    H5 6456   3.381   1.094   3.651
  599ACTN    C2 6457   3.356   1.009   3.839
  599ACTN    O1 6458   3.340   0.897   3.877
  599ACTN    C1 6459   3.295   1.129   3.894
  599ACTN    H1 6460   3.276   1.208   3.821
  599ACTN    H2 6461   3.347   1.173   3.979
  599ACTN    H3 6462   3.196   1.107   3.934
  600ACTN    H6 6463   1.425   7.161   3.995
  600ACTN    C3 6464   1.422   7.089   3.914
  600ACTN    H4 6465   1.365   7.005   3.954
  600ACTN    H5 6466   1.366   7.122   3.826
  600ACTN    C2 6467   1.559   7.030   3.888
  600ACTN    O1 6468   1.637   7.022   3.990
  600ACTN    C1 6469   1.601   6.972   3.762
  600ACTN    H1 6470   1.556   6.873   3.751
  600ACTN    H2 6471   1.709   6.964   3.755
  600ACTN    H3 6472   1.572   7.036   3.678
  601ACTN    H6 6473   0.600   6.652   6.557
  601ACTN    C3 6474   0.547   6.744   6.582
  601ACTN    H4 6475   0.601   6.804   6.654
  601ACTN    H5 6476   0.550   6.803   6.490
  601ACTN    C2 6477   0.406   6.712   6.618
  601ACTN    O1 6478   0.322   6.693   6.534
  601ACTN    C1 6479   0.375   6.693   6.760
  601ACTN    H1 6480   0.269   6.710   6.776
  601ACTN    H2 6481   0.434   6.761   6.822
  601ACTN    H3 6482   0.409   6.594   6.792
  602ACTN    H6 6483   1.721   1.644   6.321
  602ACTN    C3 6484   1.698   1.693   6.416
  602ACTN    H4 6485   1.778   1.663   6.484
  602ACTN    H5 6486   1.701   1.801   6.402
  602ACTN    C2 6487   1.566   1.642   6.457
  602ACTN    O1 6488   1.478   1.632   6.376
  602ACTN    C1 6489   1.533   1.644   6.605
  602ACTN    H1 6490   1.463   1.721   6.637
  602ACTN    H2 6491   1.621   1.649   6.670
  602ACTN    H3 6492   1.487   1.548   6.627
  603ACTN    H6 6493   0.693   1.871   0.000
  603ACTN    C3 6494   0.633   1.818   0.074
  603ACTN    H4 6495   0.557   1.756   0.027
  603ACTN    H5 6496   0.702   1.758   0.134
  603ACTN    C2 6497   0.564   1.921   0.146
  603ACTN    O1 6498   0.443   1.938   0.127
  603ACTN    C1 6499   0.650   2.027   0.215
  603ACTN    H1 6500   0.611   2.116   0.165
  603ACTN    H2 6501   0.755   2.012   0.190
  603ACTN    H3 6502   0.636   2.027   0.323
  604ACTN    H6 6503   2.824   2.772   6.245
  604ACTN    C3 6504   2.721   2.768   6.209
  604ACTN    H4 6505   2.650   2.791   6.289
  604ACTN    H5 6506   2.716   2.849   6.137
  604ACTN    C2 6507   2.692   2.631   6.147
  604ACTN    O1 6508   2.700   2.533   6.219
  604ACTN    C1 6509   2.623   2.616   6.012
  604ACTN    H1 6510   2.581   2.714   5.991
  604ACTN    H2 6511   2.546   2.539   6.016
  604ACTN    H3 6512   2.701   2.597   5.938
  605ACTN    H6 6513   0.809   3.317   2.229
  605ACTN    C3 6514   0.808   3.230   2.296
  605ACTN    H4 6515   0.798   3.145   2.228
  605ACTN    H5 6516   0.905   3.224   2.345
  605ACTN    C2 6517   0.697   3.218   2.397
  605ACTN    O1 6518   0.677   3.109   2.446
  605ACTN    C1 6519   0.582   3.315   2.409
  605ACTN    H1 6520   0.492   3.267   2.373
  605ACTN    H2 6521   0.593   3.403   2.346
  605ACTN    H3 6522   0.566   3.341   2.514
  606ACTN    H6 6523   1.813   0.464   1.630
  606ACTN    C3 6524   1.892   0.455   1.705
  606ACTN    H4 6525   1.883   0.352   1.738
  606ACTN    H5 6526   1.990   0.465   1.659
  606ACTN    C2 6527   1.873   0.561   1.808
  606ACTN    O1 6528   1.765   0.574   1.863
  606ACTN    C1 6529   1.975   0.666   1.816
  606ACTN    H1 6530   1.950   0.743   1.889
  606ACTN    H2 6531   1.977   0.716   1.719
  606ACTN    H3 6532   2.075   0.626   1.829
  607ACTN    H6 6533   2.657   5.406   5.957
  607ACTN    C3 6534   2.759   5.370   5.964
  607ACTN    H4 6535   2.783   5.385   6.069
  607ACTN    H5 6536   2.771   5.264   5.943
  607ACTN    C2 6537   2.849   5.460   5.890
  607ACTN    O1 6538   2.857   5.449   5.766
  607ACTN    C1 6539   2.918   5.581   5.954
  607ACTN    H1 6540   3.019   5.552   5.982
  607ACTN    H2 6541   2.869   5.619   6.043
  607ACTN    H3 6542   2.926   5.671   5.893
  608ACTN    H6 6543   6.686   6.162   1.518
  608ACTN    C3 6544   6.666   6.149   1.412
  608ACTN    H4 6545   6.577   6.209   1.397
  608ACTN    H5 6546   6.743   6.196   1.350
  608ACTN    C2 6547   6.641   6.007   1.369
  608ACTN    O1 6548   6.651   5.912   1.448
  608ACTN    C1 6549   6.623   5.971   1.225
  608ACTN    H1 6550   6.713   5.920   1.191
  608ACTN    H2 6551   6.599   6.059   1.166
  608ACTN    H3 6552   6.533   5.908   1.218
  609ACTN    H6 6553   0.984   6.912   4.757
  609ACTN    C3 6554   1.082   6.959   4.769
  609ACTN    H4 6555   1.072   7.064   4.793
  609ACTN    H5 6556   1.134   6.912   4.853
  609ACTN    C2 6557   1.179   6.940   4.659
  609ACTN    O1 6558   1.255   7.022   4.615
  609ACTN    C1 6559   1.170   6.811   4.579
  609ACTN    H1 6560   1.266   6.759   4.582
  609ACTN    H2 6561   1.146   6.839   4.476
  609ACTN    H3 6562   1.085   6.757   4.620
  610ACTN    H6 6563   6.273   2.044   6.150
  610ACTN    C3 6564   6.278   2.036   6.042
  610ACTN    H4 6565   6.246   1.935   6.018
  610ACTN    H5 6566   6.196   2.091   5.998
  610ACTN    C2 6567   6.410   2.059   5.979
  610ACTN    O1 6568   6.479   2.154   6.014
  610ACTN    C1 6569   6.469   1.963   5.885
  610ACTN    H1 6570   6.563   1.927   5.925
  610ACTN    H2 6571   6.481   2.007   5.786
  610ACTN    H3 6572   6.396   1.883   5.873
  611ACTN    H6 6573   4.668   6.233   1.099
  611ACTN    C3 6574   4.648   6.140   1.046
  611ACTN    H4 6575   4.619   6.055   1.108
  611ACTN    H5 6576   4.563   6.155   0.979
  611ACTN    C2 6577   4.766   6.106   0.963
  611ACTN    O1 6578   4.864   6.183   0.958
  611ACTN    C1 6579   4.736   5.999   0.862
  611ACTN    H1 6580   4.665   6.051   0.798
  611ACTN    H2 6581   4.696   5.908   0.908
  611ACTN    H3 6582   4.827   5.964   0.812
  612ACTN    H6 6583   2.503   5.013   2.355
  612ACTN    C3 6584   2.536   5.060   2.448
  612ACTN    H4 6585   2.485   5.006   2.528
  612ACTN    H5 6586   2.638   5.024   2.451
  612ACTN    C2 6587   2.517   5.210   2.455
  612ACTN    O1 6588   2.609   5.283   2.484
  612ACTN    C1 6589   2.381   5.257   2.450
  612ACTN    H1 6590   2.355   5.312   2.540
  612ACTN    H2 6591   2.311   5.174   2.433
  612ACTN    H3 6592   2.369   5.321   2.363
  613ACTN    H6 6593   6.684   5.462   5.161
  613ACTN    C3 6594   6.742   5.519   5.089
  613ACTN    H4 6595   6.673   5.591   5.045
  613ACTN    H5 6596   6.816   5.584   5.137
  613ACTN    C2 6597   6.820   5.434   4.985
  613ACTN    O1 6598   6.940   5.457   4.976
  613ACTN    C1 6599   6.745   5.348   4.888
  613ACTN    H1 6600   6.683   5.277   4.942
  613ACTN    H2 6601   6.820   5.306   4.822
  613ACTN    H3 6602   6.687   5.420   4.830
  614ACTN    H6 6603   1.712   6.884   2.227
  614ACTN    C3 6604   1.734   6.878   2.333
  614ACTN    H4 6605   1.840   6.853   2.327
  614ACTN    H5 6606   1.739   6.977   2.377
  614ACTN    C2 6607   1.645   6.776   2.402
  614ACTN    O1 6608   1.531   6.813   2.408
  614ACTN    C1 6609   1.691   6.641   2.452
  614ACTN    H1 6610   1.698   6.567   2.372
  614ACTN    H2 6611   1.619   6.619   2.532
  614ACTN    H3 6612   1.783   6.664   2.505
  615ACTN    H6 6613   5.513   5.832   0.051
  615ACTN    C3 6614   5.586   5.868   0.124
  615ACTN    H4 6615   5.682   5.846   0.076
  615ACTN    H5 6616   5.570   5.975   0.136
  615ACTN    C2 6617   5.568   5.785   0.246
  615ACTN    O1 6618   5.580   5.664   0.233
  615ACTN    C1 6619   5.573   5.857   0.380
  615ACTN    H1 6620   5.488   5.925   0.375
  615ACTN    H2 6621   5.667   5.911   0.385
  615ACTN    H3 6622   5.555   5.781   0.456
  616ACTN    H6 6623   6.947   5.805   0.917
  616ACTN    C3 6624   7.028   5.828   0.986
  616ACTN    H4 6625   6.992   5.806   1.086
  616ACTN    H5 6626   7.100   5.750   0.959
  616ACTN    C2 6627   7.088   5.971   0.975
  616ACTN    O1 6628   7.021   6.065   1.018
  616ACTN    C1 6629   7.228   5.994   0.944
  616ACTN    H1 6630   7.237   5.998   0.835
  616ACTN    H2 6631   7.295   5.920   0.986
  616ACTN    H3 6632   7.266   6.089   0.981
  617ACTN    H6 6633   2.880   5.396   2.270
  617ACTN    C3 6634   2.917   5.372   2.370
  617ACTN    H4 6635   2.985   5.455   2.391
  617ACTN    H5 6636   2.839   5.380   2.445
  617ACTN    C2 6637   2.994   5.245   2.390
  617ACTN    O1 6638   3.089   5.233   2.322
  617ACTN    C1 6639   2.950   5.142   2.493
  617ACTN    H1 6640   2.961   5.198   2.586
  617ACTN    H2 6641   2.995   5.044   2.485
  617ACTN    H3 6642   2.842   5.131   2.480
  618ACTN    H6 6643   2.779  -0.044   5.830
  618ACTN    C3 6644   2.834   0.035   5.778
  618ACTN    H4 6645   2.938   0.008   5.797
  618ACTN    H5 6646   2.831   0.021   5.670
  618ACTN    C2 6647   2.800   0.172   5.818
  618ACTN    O1 6648   2.755   0.243   5.732
  618ACTN    C1 6649   2.815   0.225   5.960
  618ACTN    H1 6650   2.879   0.313   5.953
  618ACTN    H2 6651   2.860   0.149   6.025
  618ACTN    H3 6652   2.716   0.261   5.987
  619ACTN    H6 6653   3.264   0.988  -0.077
  619ACTN    C3 6654   3.157   1.010  -0.072
  619ACTN    H4 6655   3.136   1.100  -0.130
  619ACTN    H5 6656   3.109   0.929  -0.127
  619ACTN    C2 6657   3.104   1.028   0.069
  619ACTN    O1 6658   3.001   0.972   0.104
  619ACTN    C1 6659   3.183   1.100   0.175
  619ACTN    H1 6660   3.131   1.192   0.201
  619ACTN    H2 6661   3.285   1.124   0.145
  619ACTN    H3 6662   3.185   1.041   0.267
  620ACTN    H6 6663   2.793   1.566   5.091
  620ACTN    C3 6664   2.791   1.568   4.982
  620ACTN    H4 6665   2.685   1.568   4.957
  620ACTN    H5 6666   2.843   1.660   4.955
  620ACTN    C2 6667   2.871   1.459   4.923
  620ACTN    O1 6668   2.857   1.422   4.808
  620ACTN    C1 6669   2.954   1.368   5.011
  620ACTN    H1 6670   3.049   1.412   5.043
  620ACTN    H2 6671   2.962   1.269   4.966
  620ACTN    H3 6672   2.898   1.353   5.103
  621ACTN    H6 6673   1.342   6.231   4.608
  621ACTN    C3 6674   1.399   6.273   4.691
  621ACTN    H4 6675   1.412   6.379   4.670
  621ACTN    H5 6676   1.332   6.274   4.777
  621ACTN    C2 6677   1.529   6.205   4.723
  621ACTN    O1 6678   1.543   6.084   4.754
  621ACTN    C1 6679   1.655   6.291   4.714
  621ACTN    H1 6680   1.634   6.378   4.651
  621ACTN    H2 6681   1.744   6.236   4.684
  621ACTN    H3 6682   1.664   6.333   4.814
  622ACTN    H6 6683   5.045   1.908   0.949
  622ACTN    C3 6684   4.990   1.963   0.873
  622ACTN    H4 6685   4.928   1.887   0.827
  622ACTN    H5 6686   4.926   2.038   0.919
  622ACTN    C2 6687   5.092   2.026   0.787
  622ACTN    O1 6688   5.057   2.091   0.690
  622ACTN    C1 6689   5.227   2.047   0.840
  622ACTN    H1 6690   5.273   1.968   0.900
  622ACTN    H2 6691   5.218   2.132   0.909
  622ACTN    H3 6692   5.303   2.063   0.764
  623ACTN    H6 6693   3.758   2.488   4.009
  623ACTN    C3 6694   3.680   2.418   3.979
  623ACTN    H4 6695   3.665   2.434   3.872
  623ACTN    H5 6696   3.716   2.317   3.997
  623ACTN    C2 6697   3.555   2.432   4.069
  623ACTN    O1 6698   3.470   2.345   4.043
  623ACTN    C1 6699   3.509   2.565   4.136
  623ACTN    H1 6700   3.591   2.637   4.138
  623ACTN    H2 6701   3.473   2.539   4.235
  623ACTN    H3 6702   3.419   2.600   4.085
  624ACTN    H6 6703  -0.034   6.804   3.698
  624ACTN    C3 6704   0.062   6.755   3.710
  624ACTN    H4 6705   0.118   6.781   3.800
  624ACTN    H5 6706   0.042   6.648   3.717
  624ACTN    C2 6707   0.155   6.783   3.593
  624ACTN    O1 6708   0.139   6.875   3.509
  624ACTN    C1 6709   0.282   6.702   3.593
  624ACTN    H1 6710   0.364   6.773   3.598
  624ACTN    H2 6711   0.294   6.642   3.502
  624ACTN    H3 6712   0.283   6.640   3.683
  625ACTN    H6 6713   2.966   0.560   5.252
  625ACTN    C3 6714   2.872   0.506   5.262
  625ACTN    H4 6715   2.863   0.414   5.204
  625ACTN    H5 6716   2.860   0.482   5.368
  625ACTN    C2 6717   2.777   0.607   5.205
  625ACTN    O1 6718   2.679   0.644   5.263
  625ACTN    C1 6719   2.798   0.641   5.056
  625ACTN    H1 6720   2.714   0.688   5.005
  625ACTN    H2 6721   2.799   0.543   5.009
  625ACTN    H3 6722   2.888   0.699   5.035
  626ACTN    H6 6723   5.092   4.365   6.807
  626ACTN    C3 6724   5.031   4.443   6.853
  626ACTN    H4 6725   5.070   4.542   6.829
  626ACTN    H5 6726   4.930   4.422   6.817
  626ACTN    C2 6727   5.035   4.417   6.999
  626ACTN    O1 6728   5.086   4.310   7.036
  626ACTN    C1 6729   4.957   4.504   7.093
  626ACTN    H1 6730   4.851   4.492   7.069
  626ACTN    H2 6731   4.976   4.611   7.082
  626ACTN    H3 6732   4.963   4.475   7.198
  627ACTN    H6 6733   1.568   1.320   4.411
  627ACTN    C3 6734   1.536   1.418   4.447
  627ACTN    H4 6735   1.433   1.411   4.481
  627ACTN    H5 6736   1.592   1.440   4.538
  627ACTN    C2 6737   1.545   1.544   4.354
  627ACTN    O1 6738   1.570   1.530   4.236
  627ACTN    C1 6739   1.524   1.676   4.408
  627ACTN    H1 6740   1.535   1.672   4.516
  627ACTN    H2 6741   1.426   1.714   4.378
  627ACTN    H3 6742   1.602   1.739   4.366
  628ACTN    H6 6743   4.104   0.366   3.913
  628ACTN    C3 6744   4.072   0.280   3.972
  628ACTN    H4 6745   3.994   0.304   4.045
  628ACTN    H5 6746   4.025   0.216   3.898
  628ACTN    C2 6747   4.183   0.210   4.048
  628ACTN    O1 6748   4.152   0.134   4.136
  628ACTN    C1 6749   4.325   0.236   4.008
  628ACTN    H1 6750   4.357   0.321   4.066
  628ACTN    H2 6751   4.326   0.275   3.906
  628ACTN    H3 6752   4.389   0.148   4.020
  629ACTN    H6 6753   2.111   0.588   4.472
  629ACTN    C3 6754   2.121   0.695   4.459
  629ACTN    H4 6755   2.027   0.749   4.447
  629ACTN    H5 6756   2.155   0.728   4.557
  629ACTN    C2 6757   2.219   0.729   4.349
  629ACTN    O1 6758   2.189   0.818   4.272
  629ACTN    C1 6759   2.359   0.677   4.359
  629ACTN    H1 6760   2.433   0.757   4.357
  629ACTN    H2 6761   2.388   0.604   4.282
  629ACTN    H3 6762   2.374   0.621   4.451
  630ACTN    H6 6763   1.807   5.050   6.178
  630ACTN    C3 6764   1.735   5.129   6.195
  630ACTN    H4 6765   1.658   5.098   6.265
  630ACTN    H5 6766   1.691   5.149   6.097
  630ACTN    C2 6767   1.815   5.244   6.247
  630ACTN    O1 6768   1.933   5.259   6.212
  630ACTN    C1 6769   1.751   5.355   6.327
  630ACTN    H1 6770   1.646   5.372   6.302
  630ACTN    H2 6771   1.803   5.450   6.317
  630ACTN    H3 6772   1.752   5.331   6.434
  631ACTN    H6 6773   0.362   1.851   5.233
  631ACTN    C3 6774   0.357   1.911   5.142
  631ACTN    H4 6775   0.387   1.848   5.058
  631ACTN    H5 6776   0.250   1.929   5.134
  631ACTN    C2 6777   0.449   2.035   5.164
  631ACTN    O1 6778   0.433   2.144   5.112
  631ACTN    C1 6779   0.557   2.007   5.263
  631ACTN    H1 6780   0.630   1.932   5.232
  631ACTN    H2 6781   0.508   1.964   5.349
  631ACTN    H3 6782   0.618   2.092   5.294
  632ACTN    H6 6783   6.694   1.403   3.844
  632ACTN    C3 6784   6.749   1.486   3.890
  632ACTN    H4 6785   6.809   1.545   3.820
  632ACTN    H5 6786   6.674   1.543   3.943
  632ACTN    C2 6787   6.849   1.429   3.984
  632ACTN    O1 6788   6.801   1.398   4.092
  632ACTN    C1 6789   6.981   1.382   3.950
  632ACTN    H1 6790   6.980   1.273   3.949
  632ACTN    H2 6791   7.049   1.427   4.022
  632ACTN    H3 6792   6.998   1.424   3.850
  633ACTN    H6 6793   5.993   0.891   5.604
  633ACTN    C3 6794   5.933   0.934   5.685
  633ACTN    H4 6795   5.963   0.883   5.776
  633ACTN    H5 6796   5.958   1.039   5.697
  633ACTN    C2 6797   5.788   0.906   5.656
  633ACTN    O1 6798   5.706   0.998   5.646
  633ACTN    C1 6799   5.749   0.763   5.658
  633ACTN    H1 6800   5.647   0.740   5.627
  633ACTN    H2 6801   5.767   0.715   5.754
  633ACTN    H3 6802   5.819   0.712   5.591
  634ACTN    H6 6803   6.681   6.029   0.814
  634ACTN    C3 6804   6.635   6.127   0.827
  634ACTN    H4 6805   6.536   6.110   0.871
  634ACTN    H5 6806   6.700   6.177   0.898
  634ACTN    C2 6807   6.629   6.188   0.687
  634ACTN    O1 6808   6.601   6.307   0.661
  634ACTN    C1 6809   6.676   6.095   0.574
  634ACTN    H1 6810   6.749   6.023   0.611
  634ACTN    H2 6811   6.711   6.154   0.490
  634ACTN    H3 6812   6.599   6.029   0.535
  635ACTN    H6 6813   4.505   4.492   0.779
  635ACTN    C3 6814   4.528   4.569   0.853
  635ACTN    H4 6815   4.579   4.511   0.930
  635ACTN    H5 6816   4.599   4.639   0.810
  635ACTN    C2 6817   4.410   4.635   0.905
  635ACTN    O1 6818   4.325   4.577   0.974
  635ACTN    C1 6819   4.399   4.786   0.882
  635ACTN    H1 6820   4.334   4.799   0.796
  635ACTN    H2 6821   4.497   4.830   0.868
  635ACTN    H3 6822   4.360   4.850   0.962
  636ACTN    H6 6823   3.721   1.365   3.797
  636ACTN    C3 6824   3.669   1.454   3.834
  636ACTN    H4 6825   3.725   1.501   3.915
  636ACTN    H5 6826   3.671   1.526   3.752
  636ACTN    C2 6827   3.526   1.428   3.878
  636ACTN    O1 6828   3.515   1.407   3.999
  636ACTN    C1 6829   3.421   1.444   3.774
  636ACTN    H1 6830   3.444   1.532   3.713
  636ACTN    H2 6831   3.324   1.467   3.818
  636ACTN    H3 6832   3.416   1.358   3.708
  637ACTN    H6 6833   1.672   0.485   2.233
  637ACTN    C3 6834   1.716   0.551   2.309
  637ACTN    H4 6835   1.643   0.630   2.325
  637ACTN    H5 6836   1.735   0.487   2.395
  637ACTN    C2 6837   1.842   0.614   2.261
  637ACTN    O1 6838   1.933   0.549   2.225
  637ACTN    C1 6839   1.852   0.768   2.264
  637ACTN    H1 6840   1.916   0.785   2.350
  637ACTN    H2 6841   1.754   0.815   2.265
  637ACTN    H3 6842   1.911   0.808   2.181
  638ACTN    H6 6843   0.309   5.075   6.810
  638ACTN    C3 6844   0.313   5.184   6.811
  638ACTN    H4 6845   0.210   5.219   6.809
  638ACTN    H5 6846   0.346   5.217   6.909
  638ACTN    C2 6847   0.405   5.242   6.702
  638ACTN    O1 6848   0.363   5.220   6.593
  638ACTN    C1 6849   0.505   5.337   6.735
  638ACTN    H1 6850   0.601   5.297   6.702
  638ACTN    H2 6851   0.512   5.348   6.843
  638ACTN    H3 6852   0.490   5.432   6.684
  639ACTN    H6 6853   0.862   0.406   6.526
  639ACTN    C3 6854   0.908   0.441   6.619
  639ACTN    H4 6855   0.931   0.357   6.684
  639ACTN    H5 6856   1.000   0.493   6.594
  639ACTN    C2 6857   0.810   0.531   6.689
  639ACTN    O1 6858   0.841   0.640   6.741
  639ACTN    C1 6859   0.674   0.469   6.715
  639ACTN    H1 6860   0.649   0.472   6.821
  639ACTN    H2 6861   0.682   0.364   6.686
  639ACTN    H3 6862   0.591   0.510   6.658
  640ACTN    H6 6863   4.911   4.859   7.157
  640ACTN    C3 6864   4.905   4.921   7.246
  640ACTN    H4 6865   4.913   5.027   7.221
  640ACTN    H5 6866   4.985   4.895   7.316
  640ACTN    C2 6867   4.776   4.884   7.310
  640ACTN    O1 6868   4.677   4.950   7.287
  640ACTN    C1 6869   4.762   4.750   7.368
  640ACTN    H1 6870   4.670   4.700   7.338
  640ACTN    H2 6871   4.762   4.753   7.477
  640ACTN    H3 6872   4.845   4.688   7.335
  641ACTN    H6 6873   3.820   2.235   0.205
  641ACTN    C3 6874   3.798   2.341   0.217
  641ACTN    H4 6875   3.693   2.362   0.237
  641ACTN    H5 6876   3.858   2.381   0.299
  641ACTN    C2 6877   3.847   2.418   0.089
  641ACTN    O1 6878   3.905   2.350   0.005
  641ACTN    C1 6879   3.823   2.569   0.077
  641ACTN    H1 6880   3.916   2.622   0.097
  641ACTN    H2 6881   3.741   2.600   0.142
  641ACTN    H3 6882   3.791   2.576  -0.027
  642ACTN    H6 6883   3.192   3.384   2.658
  642ACTN    C3 6884   3.163   3.485   2.628
  642ACTN    H4 6885   3.075   3.479   2.563
  642ACTN    H5 6886   3.131   3.528   2.723
  642ACTN    C2 6887   3.277   3.553   2.576
  642ACTN    O1 6888   3.385   3.514   2.613
  642ACTN    C1 6889   3.265   3.640   2.456
  642ACTN    H1 6890   3.172   3.619   2.404
  642ACTN    H2 6891   3.348   3.623   2.387
  642ACTN    H3 6892   3.262   3.745   2.485
  643ACTN    H6 6893   6.831   6.747   4.302
  643ACTN    C3 6894   6.730   6.785   4.284
  643ACTN    H4 6895   6.745   6.891   4.259
  643ACTN    H5 6896   6.694   6.728   4.199
  643ACTN    C2 6897   6.651   6.762   4.413
  643ACTN    O1 6898   6.556   6.681   4.416
  643ACTN    C1 6899   6.682   6.850   4.527
  643ACTN    H1 6900   6.789   6.870   4.527
  643ACTN    H2 6901   6.648   6.814   4.624
  643ACTN    H3 6902   6.624   6.942   4.521
  644ACTN    H6 6903   7.197   1.181   4.110
  644ACTN    C3 6904   7.290   1.210   4.061
  644ACTN    H4 6905   7.318   1.310   4.095
  644ACTN    H5 6906   7.368   1.139   4.085
  644ACTN    C2 6907   7.265   1.202   3.917
  644ACTN    O1 6908   7.280   1.299   3.847
  644ACTN    C1 6909   7.243   1.074   3.850
  644ACTN    H1 6910   7.262   0.989   3.915
  644ACTN    H2 6911   7.293   1.069   3.754
  644ACTN    H3 6912   7.137   1.063   3.827
  645ACTN    H6 6913   3.050   7.018   3.189
  645ACTN    C3 6914   3.025   7.049   3.290
  645ACTN    H4 6915   2.920   7.030   3.313
  645ACTN    H5 6916   3.085   6.989   3.359
  645ACTN    C2 6917   3.053   7.193   3.311
  645ACTN    O1 6918   2.970   7.283   3.307
  645ACTN    C1 6919   3.196   7.220   3.330
  645ACTN    H1 6920   3.244   7.183   3.240
  645ACTN    H2 6921   3.228   7.165   3.419
  645ACTN    H3 6922   3.216   7.327   3.335
  646ACTN    H6 6923   5.861   3.582   4.441
  646ACTN    C3 6924   5.939   3.635   4.387
  646ACTN    H4 6925   6.033   3.640   4.441
  646ACTN    H5 6926   5.901   3.733   4.357
  646ACTN    C2 6927   5.957   3.566   4.252
  646ACTN    O1 6928   6.014   3.461   4.247
  646ACTN    C1 6929   5.888   3.621   4.129
  646ACTN    H1 6930   5.964   3.657   4.059
  646ACTN    H2 6931   5.821   3.704   4.148
  646ACTN    H3 6932   5.841   3.536   4.080
  647ACTN    H6 6933   6.813   5.131   5.205
  647ACTN    C3 6934   6.872   5.184   5.280
  647ACTN    H4 6935   6.838   5.288   5.287
  647ACTN    H5 6936   6.852   5.127   5.370
  647ACTN    C2 6937   7.025   5.182   5.261
  647ACTN    O1 6938   7.081   5.261   5.181
  647ACTN    C1 6939   7.101   5.081   5.336
  647ACTN    H1 6940   7.196   5.055   5.288
  647ACTN    H2 6941   7.044   4.989   5.349
  647ACTN    H3 6942   7.135   5.122   5.431
  648ACTN    H6 6943  -0.040   2.042   0.919
  648ACTN    C3 6944   0.018   1.972   0.979
  648ACTN    H4 6945   0.120   2.012   0.980
  648ACTN    H5 6946  -0.009   1.982   1.084
  648ACTN    C2 6947   0.009   1.832   0.931
  648ACTN    O1 6948   0.101   1.772   0.887
  648ACTN    C1 6949  -0.113   1.748   0.952
  648ACTN    H1 6950  -0.100   1.670   1.028
  648ACTN    H2 6951  -0.144   1.701   0.859
  648ACTN    H3 6952  -0.202   1.808   0.972
  649ACTN    H6 6953   3.593   2.243   5.456
  649ACTN    C3 6954   3.548   2.173   5.385
  649ACTN    H4 6955   3.566   2.068   5.410
  649ACTN    H5 6956   3.443   2.201   5.383
  649ACTN    C2 6957   3.614   2.189   5.248
  649ACTN    O1 6958   3.543   2.194   5.151
  649ACTN    C1 6959   3.759   2.173   5.246
  649ACTN    H1 6960   3.789   2.158   5.142
  649ACTN    H2 6961   3.784   2.080   5.297
  649ACTN    H3 6962   3.806   2.262   5.290
  650ACTN    H6 6963   4.515   6.228   5.926
  650ACTN    C3 6964   4.450   6.250   5.842
  650ACTN    H4 6965   4.473   6.351   5.808
  650ACTN    H5 6966   4.467   6.174   5.766
  650ACTN    C2 6967   4.299   6.251   5.868
  650ACTN    O1 6968   4.239   6.145   5.857
  650ACTN    C1 6969   4.230   6.388   5.878
  650ACTN    H1 6970   4.163   6.400   5.793
  650ACTN    H2 6971   4.304   6.466   5.864
  650ACTN    H3 6972   4.172   6.410   5.968
  651ACTN    H6 6973   5.242   4.161   5.871
  651ACTN    C3 6974   5.230   4.053   5.862
  651ACTN    H4 6975   5.301   3.995   5.920
  651ACTN    H5 6976   5.132   4.022   5.899
  651ACTN    C2 6977   5.223   4.025   5.717
  651ACTN    O1 6978   5.189   4.112   5.638
  651ACTN    C1 6979   5.225   3.877   5.679
  651ACTN    H1 6980   5.133   3.853   5.627
  651ACTN    H2 6981   5.237   3.809   5.763
  651ACTN    H3 6982   5.307   3.856   5.610
  652ACTN    H6 6983   1.528   5.260   4.000
  652ACTN    C3 6984   1.510   5.261   3.893
  652ACTN    H4 6985   1.581   5.191   3.848
  652ACTN    H5 6986   1.412   5.215   3.879
  652ACTN    C2 6987   1.513   5.396   3.829
  652ACTN    O1 6988   1.608   5.465   3.838
  652ACTN    C1 6989   1.398   5.426   3.739
  652ACTN    H1 6990   1.376   5.344   3.671
  652ACTN    H2 6991   1.428   5.507   3.674
  652ACTN    H3 6992   1.310   5.466   3.789
  653ACTN    H6 6993   0.494   0.164   6.902
  653ACTN    C3 6994   0.430   0.124   6.823
  653ACTN    H4 6995   0.500   0.101   6.743
  653ACTN    H5 6996   0.374   0.035   6.850
  653ACTN    C2 6997   0.321   0.219   6.782
  653ACTN    O1 6998   0.330   0.281   6.673
  653ACTN    C1 6999   0.201   0.225   6.871
  653ACTN    H1 7000   0.209   0.294   6.956
  653ACTN    H2 7001   0.184   0.127   6.914
  653ACTN    H3 7002   0.109   0.260   6.822
  654ACTN    H6 7003   1.473   6.641   7.331
  654ACTN    C3 7004   1.498   6.713   7.253
  654ACTN    H4 7005   1.564   6.784   7.303
  654ACTN    H5 7006   1.554   6.662   7.174
  654ACTN    C2 7007   1.376   6.782   7.198
  654ACTN    O1 7008   1.305   6.853   7.263
  654ACTN    C1 7009   1.366   6.782   7.041
  654ACTN    H1 7010   1.291   6.851   7.002
  654ACTN    H2 7011   1.340   6.684   7.000
  654ACTN    H3 7012   1.460   6.811   6.995
  655ACTN    H6 7013   0.549   5.093   7.061
  655ACTN    C3 7014   0.513   5.038   7.148
  655ACTN    H4 7015   0.505   4.932   7.124
  655ACTN    H5 7016   0.588   5.058   7.224
  655ACTN    C2 7017   0.381   5.088   7.185
  655ACTN    O1 7018   0.286   5.068   7.109
  655ACTN    C1 7019   0.360   5.130   7.327
  655ACTN    H1 7020   0.277   5.072   7.369
  655ACTN    H2 7021   0.331   5.235   7.333
  655ACTN    H3 7022   0.451   5.122   7.387
  656ACTN    H6 7023  -0.023   5.452   3.925
  656ACTN    C3 7024   0.049   5.534   3.928
  656ACTN    H4 7025   0.131   5.499   3.991
  656ACTN    H5 7026   0.091   5.544   3.828
  656ACTN    C2 7027  -0.001   5.654   3.984
  656ACTN    O1 7028  -0.035   5.665   4.104
  656ACTN    C1 7029   0.007   5.768   3.889
  656ACTN    H1 7030   0.106   5.785   3.846
  656ACTN    H2 7031  -0.018   5.862   3.938
  656ACTN    H3 7032  -0.061   5.748   3.806
  657ACTN    H6 7033   6.284   7.012   2.019
  657ACTN    C3 7034   6.273   7.027   1.911
  657ACTN    H4 7035   6.174   6.993   1.880
  657ACTN    H5 7036   6.281   7.135   1.900
  657ACTN    C2 7037   6.377   6.950   1.837
  657ACTN    O1 7038   6.357   6.827   1.815
  657ACTN    C1 7039   6.507   7.003   1.793
  657ACTN    H1 7040   6.555   7.062   1.871
  657ACTN    H2 7041   6.485   7.062   1.704
  657ACTN    H3 7042   6.573   6.925   1.756
  658ACTN    H6 7043   7.508   6.651   2.474
  658ACTN    C3 7044   7.438   6.568   2.489
  658ACTN    H4 7045   7.506   6.484   2.506
  658ACTN    H5 7046   7.384   6.580   2.583
  658ACTN    C2 7047   7.348   6.552   2.375
  658ACTN    O1 7048   7.262   6.465   2.380
  658ACTN    C1 7049   7.367   6.631   2.253
  658ACTN    H1 7050   7.287   6.705   2.249
  658ACTN    H2 7051   7.358   6.578   2.158
  658ACTN    H3 7052   7.467   6.671   2.241
  659ACTN    H6 7053   4.644   7.025   2.282
  659ACTN    C3 7054   4.676   7.049   2.181
  659ACTN    H4 7055   4.647   6.969   2.114
  659ACTN    H5 7056   4.618   7.132   2.142
  659ACTN    C2 7057   4.821   7.079   2.171
  659ACTN    O1 7058   4.870   7.176   2.228
  659ACTN    C1 7059   4.906   7.013   2.071
  659ACTN    H1 7060   4.880   7.046   1.971
  659ACTN    H2 7061   4.880   6.908   2.082
  659ACTN    H3 7062   5.009   7.035   2.100
  660ACTN    H6 7063   0.466   2.245   3.308
  660ACTN    C3 7064   0.453   2.239   3.200
  660ACTN    H4 7065   0.349   2.253   3.171
  660ACTN    H5 7066   0.508   2.320   3.152
  660ACTN    C2 7067   0.503   2.113   3.143
  660ACTN    O1 7068   0.500   2.016   3.215
  660ACTN    C1 7069   0.511   2.102   2.994
  660ACTN    H1 7070   0.498   2.203   2.954
  660ACTN    H2 7071   0.443   2.032   2.946
  660ACTN    H3 7072   0.612   2.068   2.972
  661ACTN    H6 7073   6.018   6.000   0.652
  661ACTN    C3 7074   5.920   5.997   0.699
  661ACTN    H4 7075   5.839   6.034   0.638
  661ACTN    H5 7076   5.901   5.894   0.729
  661ACTN    C2 7077   5.915   6.085   0.826
  661ACTN    O1 7078   5.843   6.180   0.831
  661ACTN    C1 7079   6.028   6.073   0.925
  661ACTN    H1 7080   5.987   6.003   0.998
  661ACTN    H2 7081   6.042   6.168   0.977
  661ACTN    H3 7082   6.118   6.028   0.883
  662ACTN    H6 7083   6.656   1.511   6.265
  662ACTN    C3 7084   6.691   1.484   6.365
  662ACTN    H4 7085   6.794   1.454   6.347
  662ACTN    H5 7086   6.688   1.576   6.423
  662ACTN    C2 7087   6.607   1.384   6.430
  662ACTN    O1 7088   6.551   1.403   6.534
  662ACTN    C1 7089   6.571   1.263   6.357
  662ACTN    H1 7090   6.633   1.249   6.268
  662ACTN    H2 7091   6.466   1.270   6.329
  662ACTN    H3 7092   6.586   1.172   6.415
  663ACTN    H6 7093   7.414   6.055   4.531
  663ACTN    C3 7094   7.309   6.084   4.534
  663ACTN    H4 7095   7.298   6.184   4.492
  663ACTN    H5 7096   7.248   6.022   4.468
  663ACTN    C2 7097   7.250   6.081   4.667
  663ACTN    O1 7098   7.308   6.036   4.765
  663ACTN    C1 7099   7.121   6.157   4.686
  663ACTN    H1 7100   7.077   6.139   4.785
  663ACTN    H2 7101   7.049   6.126   4.611
  663ACTN    H3 7102   7.145   6.263   4.677
  664ACTN    H6 7103   0.470   4.309   3.748
  664ACTN    C3 7104   0.454   4.416   3.747
  664ACTN    H4 7105   0.383   4.438   3.667
  664ACTN    H5 7106   0.412   4.430   3.847
  664ACTN    C2 7107   0.583   4.495   3.734
  664ACTN    O1 7108   0.585   4.617   3.760
  664ACTN    C1 7109   0.715   4.418   3.717
  664ACTN    H1 7110   0.693   4.315   3.687
  664ACTN    H2 7111   0.771   4.423   3.811
  664ACTN    H3 7112   0.778   4.459   3.638
  665ACTN    H6 7113   0.101   5.199   2.210
  665ACTN    C3 7114   0.111   5.167   2.106
  665ACTN    H4 7115   0.040   5.218   2.041
  665ACTN    H5 7116   0.210   5.191   2.069
  665ACTN    C2 7117   0.092   5.021   2.085
  665ACTN    O1 7118   0.073   4.949   2.185
  665ACTN    C1 7119   0.084   4.972   1.946
  665ACTN    H1 7120   0.053   4.869   1.928
  665ACTN    H2 7121   0.182   4.992   1.901
  665ACTN    H3 7122   0.017   5.030   1.883
  666ACTN    H6 7123   2.011   6.204   0.750
  666ACTN    C3 7124   2.007   6.311   0.769
  666ACTN    H4 7125   1.905   6.348   0.783
  666ACTN    H5 7126   2.073   6.338   0.851
  666ACTN    C2 7127   2.041   6.369   0.635
  666ACTN    O1 7128   1.982   6.335   0.531
  666ACTN    C1 7129   2.166   6.450   0.627
  666ACTN    H1 7130   2.255   6.388   0.625
  666ACTN    H2 7131   2.166   6.515   0.715
  666ACTN    H3 7132   2.164   6.512   0.538
  667ACTN    H6 7133   0.127   2.463   6.188
  667ACTN    C3 7134   0.113   2.514   6.093
  667ACTN    H4 7135   0.213   2.526   6.052
  667ACTN    H5 7136   0.064   2.437   6.033
  667ACTN    C2 7137   0.035   2.636   6.112
  667ACTN    O1 7138  -0.039   2.673   6.019
  667ACTN    C1 7139   0.073   2.725   6.225
  667ACTN    H1 7140   0.001   2.803   6.248
  667ACTN    H2 7141   0.166   2.774   6.198
  667ACTN    H3 7142   0.078   2.668   6.318
  668ACTN    H6 7143   1.838   0.646   5.133
  668ACTN    C3 7144   1.899   0.699   5.060
  668ACTN    H4 7145   1.847   0.795   5.052
  668ACTN    H5 7146   1.998   0.714   5.103
  668ACTN    C2 7147   1.889   0.630   4.928
  668ACTN    O1 7148   1.785   0.578   4.898
  668ACTN    C1 7149   2.008   0.625   4.828
  668ACTN    H1 7150   1.987   0.697   4.749
  668ACTN    H2 7151   2.003   0.528   4.778
  668ACTN    H3 7152   2.110   0.633   4.866
  669ACTN    H6 7153   3.687   2.396   2.734
  669ACTN    C3 7154   3.594   2.372   2.683
  669ACTN    H4 7155   3.589   2.449   2.607
  669ACTN    H5 7156   3.592   2.280   2.625
  669ACTN    C2 7157   3.480   2.368   2.784
  669ACTN    O1 7158   3.420   2.266   2.811
  669ACTN    C1 7159   3.423   2.496   2.838
  669ACTN    H1 7160   3.490   2.581   2.827
  669ACTN    H2 7161   3.400   2.486   2.945
  669ACTN    H3 7162   3.330   2.520   2.786
  670ACTN    H6 7163   3.017   6.123   3.482
  670ACTN    C3 7164   3.045   6.017   3.478
  670ACTN    H4 7165   2.956   5.957   3.458
  670ACTN    H5 7166   3.124   6.003   3.404
  670ACTN    C2 7167   3.096   5.975   3.606
  670ACTN    O1 7168   3.056   6.035   3.704
  670ACTN    C1 7169   3.197   5.860   3.601
  670ACTN    H1 7170   3.205   5.829   3.497
  670ACTN    H2 7171   3.171   5.774   3.662
  670ACTN    H3 7172   3.286   5.909   3.641
  671ACTN    H6 7173   3.264   3.970   2.799
  671ACTN    C3 7174   3.177   4.031   2.772
  671ACTN    H4 7175   3.150   4.077   2.867
  671ACTN    H5 7176   3.213   4.108   2.705
  671ACTN    C2 7177   3.064   3.952   2.710
  671ACTN    O1 7178   3.086   3.833   2.690
  671ACTN    C1 7179   2.946   4.025   2.655
  671ACTN    H1 7180   2.948   4.133   2.672
  671ACTN    H2 7181   2.851   3.986   2.691
  671ACTN    H3 7182   2.943   4.015   2.547
  672ACTN    H6 7183   5.005   4.480   3.700
  672ACTN    C3 7184   4.924   4.521   3.760
  672ACTN    H4 7185   4.832   4.467   3.737
  672ACTN    H5 7186   4.946   4.508   3.865
  672ACTN    C2 7187   4.895   4.667   3.718
  672ACTN    O1 7188   4.985   4.733   3.660
  672ACTN    C1 7189   4.770   4.735   3.750
  672ACTN    H1 7190   4.703   4.724   3.666
  672ACTN    H2 7191   4.789   4.841   3.763
  672ACTN    H3 7192   4.724   4.705   3.844
  673ACTN    H6 7193   6.117   4.882   6.383
  673ACTN    C3 7194   6.076   4.785   6.355
  673ACTN    H4 7195   6.112   4.771   6.253
  673ACTN    H5 7196   6.117   4.708   6.420
  673ACTN    C2 7197   5.927   4.801   6.351
  673ACTN    O1 7198   5.865   4.830   6.451
  673ACTN    C1 7199   5.858   4.757   6.223
  673ACTN    H1 7200   5.919   4.796   6.142
  673ACTN    H2 7201   5.759   4.804   6.227
  673ACTN    H3 7202   5.844   4.650   6.212
  674ACTN    H6 7203   6.966   0.925   0.024
  674ACTN    C3 7204   7.004   0.945   0.124
  674ACTN    H4 7205   7.045   0.853   0.165
  674ACTN    H5 7206   7.083   1.020   0.117
  674ACTN    C2 7207   6.883   0.990   0.208
  674ACTN    O1 7208   6.850   0.932   0.311
  674ACTN    C1 7209   6.812   1.108   0.156
  674ACTN    H1 7210   6.709   1.118   0.189
  674ACTN    H2 7211   6.803   1.111   0.047
  674ACTN    H3 7212   6.865   1.195   0.195
  675ACTN    H6 7213   7.430   1.433   2.086
  675ACTN    C3 7214   7.334   1.470   2.120
  675ACTN    H4 7215   7.266   1.484   2.036
  675ACTN    H5 7216   7.295   1.397   2.191
  675ACTN    C2 7217   7.352   1.606   2.174
  675ACTN    O1 7218   7.412   1.683   2.106
  675ACTN    C1 7219   7.251   1.649   2.279
  675ACTN    H1 7220   7.148   1.667   2.247
  675ACTN    H2 7221   7.285   1.734   2.338
  675ACTN    H3 7222   7.239   1.567   2.349
  676ACTN    H6 7223   0.202   6.646   4.291
  676ACTN    C3 7224   0.251   6.741   4.313
  676ACTN    H4 7225   0.354   6.732   4.279
  676ACTN    H5 7226   0.209   6.827   4.261
  676ACTN    C2 7227   0.240   6.771   4.462
  676ACTN    O1 7228   0.151   6.843   4.506
  676ACTN    C1 7229   0.363   6.729   4.536
  676ACTN    H1 7230   0.335   6.650   4.605
  676ACTN    H2 7231   0.398   6.818   4.589
  676ACTN    H3 7232   0.448   6.696   4.478
  677ACTN    H6 7233   5.988   0.643   3.628
  677ACTN    C3 7234   5.929   0.723   3.582
  677ACTN    H4 7235   5.912   0.700   3.477
  677ACTN    H5 7236   5.836   0.735   3.638
  677ACTN    C2 7237   6.009   0.848   3.590
  677ACTN    O1 7238   6.040   0.916   3.491
  677ACTN    C1 7239   6.046   0.894   3.731
  677ACTN    H1 7240   6.086   0.809   3.786
  677ACTN    H2 7241   5.960   0.933   3.784
  677ACTN    H3 7242   6.122   0.972   3.730
  678ACTN    H6 7243   3.625   1.745   3.285
  678ACTN    C3 7244   3.680   1.816   3.347
  678ACTN    H4 7245   3.604   1.877   3.396
  678ACTN    H5 7246   3.744   1.765   3.419
  678ACTN    C2 7247   3.763   1.896   3.260
  678ACTN    O1 7248   3.780   2.014   3.289
  678ACTN    C1 7249   3.852   1.836   3.160
  678ACTN    H1 7250   3.934   1.785   3.212
  678ACTN    H2 7251   3.901   1.908   3.095
  678ACTN    H3 7252   3.804   1.758   3.101
  679ACTN    H6 7253   0.575   0.841   0.534
  679ACTN    C3 7254   0.592   0.748   0.478
  679ACTN    H4 7255   0.621   0.681   0.560
  679ACTN    H5 7256   0.493   0.714   0.449
  679ACTN    C2 7257   0.670   0.769   0.354
  679ACTN    O1 7258   0.707   0.881   0.327
  679ACTN    C1 7259   0.734   0.655   0.286
  679ACTN    H1 7260   0.819   0.633   0.350
  679ACTN    H2 7261   0.755   0.688   0.184
  679ACTN    H3 7262   0.674   0.565   0.297
  680ACTN    H6 7263   2.953   4.846   1.848
  680ACTN    C3 7264   2.902   4.868   1.942
  680ACTN    H4 7265   2.797   4.861   1.916
  680ACTN    H5 7266   2.923   4.798   2.023
  680ACTN    C2 7267   2.944   5.004   1.978
  680ACTN    O1 7268   3.050   5.021   2.038
  680ACTN    C1 7269   2.864   5.120   1.930
  680ACTN    H1 7270   2.820   5.097   1.833
  680ACTN    H2 7271   2.928   5.207   1.915
  680ACTN    H3 7272   2.782   5.144   1.998
  681ACTN    H6 7273   0.488   7.333   4.973
  681ACTN    C3 7274   0.394   7.283   4.952
  681ACTN    H4 7275   0.413   7.177   4.935
  681ACTN    H5 7276   0.325   7.291   5.037
  681ACTN    C2 7277   0.332   7.353   4.831
  681ACTN    O1 7278   0.217   7.327   4.789
  681ACTN    C1 7279   0.408   7.463   4.756
  681ACTN    H1 7280   0.343   7.549   4.746
  681ACTN    H2 7281   0.425   7.427   4.655
  681ACTN    H3 7282   0.503   7.488   4.805
  682ACTN    H6 7283   3.614  -0.057   5.769
  682ACTN    C3 7284   3.668   0.030   5.807
  682ACTN    H4 7285   3.755   0.047   5.744
  682ACTN    H5 7286   3.600   0.115   5.798
  682ACTN    C2 7287   3.715   0.019   5.951
  682ACTN    O1 7288   3.768   0.111   6.012
  682ACTN    C1 7289   3.680  -0.104   6.018
  682ACTN    H1 7290   3.607  -0.157   5.956
  682ACTN    H2 7291   3.629  -0.089   6.113
  682ACTN    H3 7292   3.768  -0.167   6.021
  683ACTN    H6 7293   0.521   6.513   0.985
  683ACTN    C3 7294   0.495   6.465   1.080
  683ACTN    H4 7295   0.463   6.541   1.152
  683ACTN    H5 7296   0.413   6.394   1.067
  683ACTN    C2 7297   0.609   6.371   1.117
  683ACTN    O1 7298   0.648   6.289   1.037
  683ACTN    C1 7299   0.691   6.404   1.233
  683ACTN    H1 7300   0.764   6.325   1.251
  683ACTN    H2 7301   0.635   6.423   1.325
  683ACTN    H3 7302   0.740   6.499   1.209
  684ACTN    H6 7303   6.973   6.870   4.694
  684ACTN    C3 7304   6.960   6.960   4.754
  684ACTN    H4 7305   6.969   7.052   4.696
  684ACTN    H5 7306   6.860   6.947   4.797
  684ACTN    C2 7307   7.071   6.975   4.860
  684ACTN    O1 7308   7.082   6.893   4.955
  684ACTN    C1 7309   7.178   7.076   4.831
  684ACTN    H1 7310   7.268   7.016   4.816
  684ACTN    H2 7311   7.195   7.154   4.905
  684ACTN    H3 7312   7.164   7.135   4.741
  685ACTN    H6 7313   0.197   0.798   3.569
  685ACTN    C3 7314   0.198   0.871   3.488
  685ACTN    H4 7315   0.122   0.942   3.520
  685ACTN    H5 7316   0.292   0.925   3.479
  685ACTN    C2 7317   0.177   0.782   3.365
  685ACTN    O1 7318   0.182   0.662   3.357
  685ACTN    C1 7319   0.152   0.844   3.232
  685ACTN    H1 7320   0.056   0.809   3.195
  685ACTN    H2 7321   0.226   0.815   3.157
  685ACTN    H3 7322   0.151   0.953   3.238
  686ACTN    H6 7323   4.824  -0.143   5.726
  686ACTN    C3 7324   4.749  -0.134   5.804
  686ACTN    H4 7325   4.653  -0.154   5.757
  686ACTN    H5 7326   4.760  -0.195   5.894
  686ACTN    C2 7327   4.758   0.012   5.828
  686ACTN    O1 7328   4.852   0.081   5.790
  686ACTN    C1 7329   4.627   0.077   5.877
  686ACTN    H1 7330   4.636   0.098   5.983
  686ACTN    H2 7331   4.541   0.010   5.882
  686ACTN    H3 7332   4.601   0.166   5.821
  687ACTN    H6 7333   6.874   5.780   1.623
  687ACTN    C3 7334   6.976   5.766   1.586
  687ACTN    H4 7335   7.044   5.802   1.664
  687ACTN    H5 7336   6.989   5.659   1.570
  687ACTN    C2 7337   6.982   5.832   1.451
  687ACTN    O1 7338   6.943   5.778   1.351
  687ACTN    C1 7339   7.009   5.975   1.440
  687ACTN    H1 7340   6.972   6.021   1.349
  687ACTN    H2 7341   7.113   6.006   1.429
  687ACTN    H3 7342   6.974   6.027   1.529
  688ACTN    H6 7343   0.450   5.749   2.924
  688ACTN    C3 7344   0.358   5.807   2.919
  688ACTN    H4 7345   0.338   5.836   3.022
  688ACTN    H5 7346   0.377   5.893   2.855
  688ACTN    C2 7347   0.239   5.732   2.884
  688ACTN    O1 7348   0.211   5.615   2.929
  688ACTN    C1 7349   0.153   5.793   2.774
  688ACTN    H1 7350   0.161   5.744   2.676
  688ACTN    H2 7351   0.185   5.896   2.759
  688ACTN    H3 7352   0.047   5.789   2.800
  689ACTN    H6 7353   0.556   6.794   3.643
  689ACTN    C3 7354   0.607   6.751   3.729
  689ACTN    H4 7355   0.699   6.809   3.736
  689ACTN    H5 7356   0.538   6.776   3.809
  689ACTN    C2 7357   0.603   6.606   3.717
  689ACTN    O1 7358   0.603   6.536   3.813
  689ACTN    C1 7359   0.616   6.543   3.576
  689ACTN    H1 7360   0.722   6.535   3.549
  689ACTN    H2 7361   0.579   6.614   3.503
  689ACTN    H3 7362   0.569   6.445   3.573
  690ACTN    H6 7363   2.435   4.234   2.980
  690ACTN    C3 7364   2.519   4.301   2.993
  690ACTN    H4 7365   2.541   4.281   3.098
  690ACTN    H5 7366   2.609   4.280   2.935
  690ACTN    C2 7367   2.498   4.453   2.986
  690ACTN    O1 7368   2.592   4.528   3.003
  690ACTN    C1 7369   2.367   4.506   2.932
  690ACTN    H1 7370   2.379   4.615   2.924
  690ACTN    H2 7371   2.289   4.479   3.003
  690ACTN    H3 7372   2.343   4.470   2.832
  691ACTN    H6 7373   2.691   7.473   2.502
  691ACTN    C3 7374   2.584   7.469   2.480
  691ACTN    H4 7375   2.534   7.558   2.517
  691ACTN    H5 7376   2.564   7.458   2.373
  691ACTN    C2 7377   2.525   7.346   2.549
  691ACTN    O1 7378   2.450   7.368   2.642
  691ACTN    C1 7379   2.573   7.205   2.529
  691ACTN    H1 7380   2.679   7.202   2.556
  691ACTN    H2 7381   2.575   7.162   2.429
  691ACTN    H3 7382   2.528   7.136   2.601
  692ACTN    H6 7383   1.589   5.671   1.453
  692ACTN    C3 7384   1.489   5.672   1.409
  692ACTN    H4 7385   1.486   5.623   1.312
  692ACTN    H5 7386   1.428   5.610   1.474
  692ACTN    C2 7387   1.437   5.811   1.403
  692ACTN    O1 7388   1.510   5.914   1.415
  692ACTN    C1 7389   1.307   5.833   1.339
  692ACTN    H1 7390   1.318   5.915   1.268
  692ACTN    H2 7391   1.231   5.865   1.410
  692ACTN    H3 7392   1.273   5.743   1.287
  693ACTN    H6 7393   6.080   6.787   4.625
  693ACTN    C3 7394   6.091   6.681   4.645
  693ACTN    H4 7395   6.196   6.659   4.625
  693ACTN    H5 7396   6.034   6.628   4.568
  693ACTN    C2 7397   6.046   6.636   4.778
  693ACTN    O1 7398   5.927   6.652   4.800
  693ACTN    C1 7399   6.133   6.558   4.871
  693ACTN    H1 7400   6.228   6.535   4.822
  693ACTN    H2 7401   6.090   6.462   4.899
  693ACTN    H3 7402   6.142   6.623   4.958
  694ACTN    H6 7403   6.852   0.851   4.554
  694ACTN    C3 7404   6.809   0.852   4.454
  694ACTN    H4 7405   6.817   0.952   4.411
  694ACTN    H5 7406   6.860   0.778   4.392
  694ACTN    C2 7407   6.665   0.805   4.466
  694ACTN    O1 7408   6.640   0.699   4.516
  694ACTN    C1 7409   6.552   0.901   4.426
  694ACTN    H1 7410   6.586   1.002   4.447
  694ACTN    H2 7411   6.467   0.882   4.491
  694ACTN    H3 7412   6.523   0.883   4.322
  695ACTN    H6 7413   4.748   2.217   6.868
  695ACTN    C3 7414   4.822   2.269   6.807
  695ACTN    H4 7415   4.872   2.341   6.872
  695ACTN    H5 7416   4.884   2.187   6.769
  695ACTN    C2 7417   4.753   2.327   6.694
  695ACTN    O1 7418   4.807   2.393   6.605
  695ACTN    C1 7419   4.607   2.299   6.687
  695ACTN    H1 7420   4.557   2.330   6.596
  695ACTN    H2 7421   4.560   2.341   6.777
  695ACTN    H3 7422   4.588   2.193   6.704
  696ACTN    H6 7423   4.073   4.085   6.809
  696ACTN    C3 7424   4.134   4.075   6.719
  696ACTN    H4 7425   4.063   4.053   6.640
  696ACTN    H5 7426   4.182   4.170   6.694
  696ACTN    C2 7427   4.229   3.967   6.740
  696ACTN    O1 7428   4.255   3.919   6.847
  696ACTN    C1 7429   4.306   3.921   6.621
  696ACTN    H1 7430   4.255   3.841   6.568
  696ACTN    H2 7431   4.410   3.902   6.647
  696ACTN    H3 7432   4.303   3.996   6.542
  697ACTN    H6 7433   4.355   6.630   5.373
  697ACTN    C3 7434   4.357   6.733   5.337
  697ACTN    H4 7435   4.463   6.759   5.337
  697ACTN    H5 7436   4.315   6.737   5.236
  697ACTN    C2 7437   4.292   6.817   5.439
  697ACTN    O1 7438   4.364   6.889   5.509
  697ACTN    C1 7439   4.141   6.822   5.437
  697ACTN    H1 7440   4.109   6.887   5.355
  697ACTN    H2 7441   4.096   6.854   5.530
  697ACTN    H3 7442   4.107   6.721   5.415
  698ACTN    H6 7443   1.765   1.402   2.167
  698ACTN    C3 7444   1.720   1.472   2.097
  698ACTN    H4 7445   1.782   1.471   2.008
  698ACTN    H5 7446   1.622   1.435   2.065
  698ACTN    C2 7447   1.713   1.609   2.150
  698ACTN    O1 7448   1.812   1.681   2.143
  698ACTN    C1 7449   1.591   1.641   2.229
  698ACTN    H1 7450   1.553   1.735   2.189
  698ACTN    H2 7451   1.622   1.661   2.331
  698ACTN    H3 7452   1.507   1.571   2.230
  699ACTN    H6 7453   0.795   6.155   1.695
  699ACTN    C3 7454   0.823   6.069   1.635
  699ACTN    H4 7455   0.927   6.087   1.605
  699ACTN    H5 7456   0.829   5.973   1.686
  699ACTN    C2 7457   0.742   6.066   1.512
  699ACTN    O1 7458   0.660   6.155   1.490
  699ACTN    C1 7459   0.773   5.969   1.401
  699ACTN    H1 7460   0.689   5.946   1.335
  699ACTN    H2 7461   0.821   5.875   1.427
  699ACTN    H3 7462   0.844   6.027   1.343
  700ACTN    H6 7463   1.318   6.517   3.106
  700ACTN    C3 7464   1.404   6.576   3.073
  700ACTN    H4 7465   1.410   6.674   3.122
  700ACTN    H5 7466   1.490   6.515   3.098
  700ACTN    C2 7467   1.392   6.601   2.926
  700ACTN    O1 7468   1.342   6.504   2.859
  700ACTN    C1 7469   1.455   6.724   2.867
  700ACTN    H1 7470   1.383   6.806   2.873
  700ACTN    H2 7471   1.487   6.710   2.764
  700ACTN    H3 7472   1.543   6.756   2.923
  701ACTN    H6 7473   5.361   1.381   5.022
  701ACTN    C3 7474   5.288   1.393   4.942
  701ACTN    H4 7475   5.285   1.299   4.888
  701ACTN    H5 7476   5.197   1.413   4.999
  701ACTN    C2 7477   5.322   1.504   4.853
  701ACTN    O1 7478   5.279   1.616   4.876
  701ACTN    C1 7479   5.409   1.494   4.733
  701ACTN    H1 7480   5.471   1.583   4.722
  701ACTN    H2 7481   5.341   1.485   4.649
  701ACTN    H3 7482   5.482   1.412   4.737
  702ACTN    H6 7483   0.418   7.032   0.068
  702ACTN    C3 7484   0.336   7.104   0.066
  702ACTN    H4 7485   0.326   7.144   0.168
  702ACTN    H5 7486   0.352   7.182  -0.008
  702ACTN    C2 7487   0.207   7.035   0.025
  702ACTN    O1 7488   0.188   6.991  -0.088
  702ACTN    C1 7489   0.093   7.036   0.120
  702ACTN    H1 7490   0.002   7.057   0.064
  702ACTN    H2 7491   0.108   7.101   0.206
  702ACTN    H3 7492   0.076   6.935   0.157
  703ACTN    H6 7493   4.853   1.032   4.701
  703ACTN    C3 7494   4.773   1.019   4.628
  703ACTN    H4 7495   4.779   1.114   4.576
  703ACTN    H5 7496   4.799   0.942   4.555
  703ACTN    C2 7497   4.640   0.975   4.685
  703ACTN    O1 7498   4.625   0.931   4.800
  703ACTN    C1 7499   4.523   0.973   4.587
  703ACTN    H1 7500   4.426   0.964   4.636
  703ACTN    H2 7501   4.536   0.888   4.520
  703ACTN    H3 7502   4.516   1.060   4.522
  704ACTN    H6 7503   5.959   5.609   6.803
  704ACTN    C3 7504   5.865   5.570   6.840
  704ACTN    H4 7505   5.890   5.474   6.885
  704ACTN    H5 7506   5.836   5.639   6.919
  704ACTN    C2 7507   5.765   5.567   6.737
  704ACTN    O1 7508   5.752   5.463   6.669
  704ACTN    C1 7509   5.697   5.693   6.698
  704ACTN    H1 7510   5.767   5.763   6.651
  704ACTN    H2 7511   5.653   5.742   6.784
  704ACTN    H3 7512   5.623   5.662   6.624
  705ACTN    H6 7513   6.543   6.073   1.996
  705ACTN    C3 7514   6.572   6.106   1.896
  705ACTN    H4 7515   6.492   6.076   1.828
  705ACTN    H5 7516   6.583   6.214   1.898
  705ACTN    C2 7517   6.696   6.038   1.852
  705ACTN    O1 7518   6.794   6.099   1.809
  705ACTN    C1 7519   6.688   5.896   1.837
  705ACTN    H1 7520   6.630   5.844   1.914
  705ACTN    H2 7521   6.787   5.851   1.836
  705ACTN    H3 7522   6.636   5.882   1.742
  706ACTN    H6 7523   0.274   0.453   7.083
  706ACTN    C3 7524   0.379   0.468   7.107
  706ACTN    H4 7525   0.424   0.503   7.014
  706ACTN    H5 7526   0.377   0.560   7.166
  706ACTN    C2 7527   0.447   0.353   7.175
  706ACTN    O1 7528   0.558   0.362   7.213
  706ACTN    C1 7529   0.362   0.241   7.213
  706ACTN    H1 7530   0.381   0.154   7.150
  706ACTN    H2 7531   0.255   0.261   7.222
  706ACTN    H3 7532   0.400   0.206   7.309
  707ACTN    H6 7533   6.430   5.047   2.179
  707ACTN    C3 7534   6.458   5.121   2.104
  707ACTN    H4 7535   6.371   5.186   2.098
  707ACTN    H5 7536   6.547   5.175   2.136
  707ACTN    C2 7537   6.489   5.060   1.971
  707ACTN    O1 7538   6.531   5.110   1.871
  707ACTN    C1 7539   6.437   4.918   1.951
  707ACTN    H1 7540   6.383   4.896   1.859
  707ACTN    H2 7541   6.376   4.889   2.037
  707ACTN    H3 7542   6.515   4.843   1.958
  708ACTN    H6 7543   5.073   5.773   0.248
  708ACTN    C3 7544   5.113   5.759   0.348
  708ACTN    H4 7545   5.027   5.729   0.408
  708ACTN    H5 7546   5.180   5.674   0.339
  708ACTN    C2 7547   5.184   5.880   0.404
  708ACTN    O1 7548   5.239   5.950   0.321
  708ACTN    C1 7549   5.232   5.872   0.548
  708ACTN    H1 7550   5.157   5.807   0.595
  708ACTN    H2 7551   5.237   5.974   0.586
  708ACTN    H3 7552   5.334   5.834   0.554
  709ACTN    H6 7553   6.283   5.340   6.472
  709ACTN    C3 7554   6.289   5.281   6.380
  709ACTN    H4 7555   6.279   5.352   6.298
  709ACTN    H5 7556   6.389   5.238   6.380
  709ACTN    C2 7557   6.188   5.178   6.369
  709ACTN    O1 7558   6.182   5.115   6.265
  709ACTN    C1 7559   6.092   5.168   6.488
  709ACTN    H1 7560   6.068   5.261   6.539
  709ACTN    H2 7561   6.135   5.104   6.565
  709ACTN    H3 7562   5.995   5.126   6.465
  710ACTN    H6 7563   6.931   3.888   6.354
  710ACTN    C3 7564   6.900   3.791   6.316
  710ACTN    H4 7565   6.983   3.722   6.333
  710ACTN    H5 7566   6.820   3.762   6.384
  710ACTN    C2 7567   6.860   3.797   6.168
  710ACTN    O1 7568   6.798   3.893   6.123
  710ACTN    C1 7569   6.910   3.679   6.081
  710ACTN    H1 7570   6.838   3.645   6.007
  710ACTN    H2 7571   6.924   3.597   6.152
  710ACTN    H3 7572   7.006   3.696   6.033
  711ACTN    H6 7573   4.567   2.853   1.257
  711ACTN    C3 7574   4.478   2.900   1.216
  711ACTN    H4 7575   4.507   3.005   1.216
  711ACTN    H5 7576   4.448   2.868   1.116
  711ACTN    C2 7577   4.359   2.871   1.305
  711ACTN    O1 7578   4.375   2.817   1.412
  711ACTN    C1 7579   4.228   2.936   1.286
  711ACTN    H1 7580   4.174   2.957   1.378
  711ACTN    H2 7581   4.174   2.859   1.231
  711ACTN    H3 7582   4.239   3.024   1.223
  712ACTN    H6 7583   2.827   0.236   2.986
  712ACTN    C3 7584   2.869   0.140   3.014
  712ACTN    H4 7585   2.975   0.153   3.036
  712ACTN    H5 7586   2.814   0.110   3.103
  712ACTN    C2 7587   2.849   0.042   2.904
  712ACTN    O1 7588   2.892   0.068   2.795
  712ACTN    C1 7589   2.790  -0.092   2.944
  712ACTN    H1 7590   2.700  -0.072   3.001
  712ACTN    H2 7591   2.863  -0.151   3.000
  712ACTN    H3 7592   2.760  -0.149   2.856
  713ACTN    H6 7593   6.333   0.539   3.730
  713ACTN    C3 7594   6.426   0.482   3.727
  713ACTN    H4 7595   6.412   0.400   3.798
  713ACTN    H5 7596   6.423   0.441   3.626
  713ACTN    C2 7597   6.549   0.562   3.761
  713ACTN    O1 7598   6.660   0.522   3.729
  713ACTN    C1 7599   6.520   0.709   3.796
  713ACTN    H1 7600   6.586   0.735   3.879
  713ACTN    H2 7601   6.416   0.732   3.818
  713ACTN    H3 7602   6.563   0.771   3.718
  714ACTN    H6 7603   5.903   4.133   5.734
  714ACTN    C3 7604   5.916   4.125   5.842
  714ACTN    H4 7605   5.932   4.227   5.876
  714ACTN    H5 7606   5.819   4.101   5.885
  714ACTN    C2 7607   6.017   4.018   5.886
  714ACTN    O1 7608   5.986   3.923   5.961
  714ACTN    C1 7609   6.150   4.012   5.821
  714ACTN    H1 7610   6.188   3.911   5.836
  714ACTN    H2 7611   6.215   4.082   5.874
  714ACTN    H3 7612   6.145   4.032   5.714
  715ACTN    H6 7613   0.302   5.947   3.727
  715ACTN    C3 7614   0.383   5.935   3.799
  715ACTN    H4 7615   0.355   5.936   3.904
  715ACTN    H5 7616   0.428   5.837   3.781
  715ACTN    C2 7617   0.492   6.039   3.775
  715ACTN    O1 7618   0.460   6.145   3.712
  715ACTN    C1 7619   0.620   6.023   3.853
  715ACTN    H1 7620   0.618   5.923   3.896
  715ACTN    H2 7621   0.627   6.105   3.925
  715ACTN    H3 7622   0.709   6.018   3.791
  716ACTN    H6 7623   5.989   4.313   5.545
  716ACTN    C3 7624   5.915   4.316   5.465
  716ACTN    H4 7625   5.830   4.254   5.491
  716ACTN    H5 7626   5.869   4.414   5.455
  716ACTN    C2 7627   5.987   4.271   5.349
  716ACTN    O1 7628   5.923   4.241   5.250
  716ACTN    C1 7629   6.129   4.242   5.345
  716ACTN    H1 7630   6.152   4.162   5.414
  716ACTN    H2 7631   6.174   4.326   5.398
  716ACTN    H3 7632   6.172   4.234   5.245
  717ACTN    H6 7633   6.252   6.728   1.033
  717ACTN    C3 7634   6.205   6.631   1.022
  717ACTN    H4 7635   6.207   6.617   0.914
  717ACTN    H5 7636   6.263   6.547   1.060
  717ACTN    C2 7637   6.059   6.626   1.058
  717ACTN    O1 7638   5.983   6.714   1.017
  717ACTN    C1 7639   6.019   6.536   1.171
  717ACTN    H1 7640   5.951   6.586   1.241
  717ACTN    H2 7641   6.107   6.505   1.226
  717ACTN    H3 7642   5.973   6.445   1.133
  718ACTN    H6 7643   0.833   6.565   1.504
  718ACTN    C3 7644   0.830   6.490   1.583
  718ACTN    H4 7645   0.794   6.531   1.677
  718ACTN    H5 7646   0.763   6.408   1.558
  718ACTN    C2 7647   0.970   6.446   1.601
  718ACTN    O1 7648   1.029   6.401   1.510
  718ACTN    C1 7649   1.031   6.450   1.736
  718ACTN    H1 7650   1.120   6.387   1.731
  718ACTN    H2 7651   0.964   6.417   1.815
  718ACTN    H3 7652   1.079   6.543   1.767
  719ACTN    H6 7653   3.421   5.909   5.858
  719ACTN    C3 7654   3.397   5.866   5.955
  719ACTN    H4 7655   3.470   5.790   5.984
  719ACTN    H5 7656   3.432   5.947   6.020
  719ACTN    C2 7657   3.255   5.834   5.970
  719ACTN    O1 7658   3.195   5.823   5.867
  719ACTN    C1 7659   3.191   5.832   6.102
  719ACTN    H1 7660   3.092   5.796   6.078
  719ACTN    H2 7661   3.185   5.928   6.153
  719ACTN    H3 7662   3.240   5.751   6.156
  720ACTN    H6 7663   4.764   2.317   0.832
  720ACTN    C3 7664   4.703   2.406   0.818
  720ACTN    H4 7665   4.663   2.441   0.913
  720ACTN    H5 7666   4.779   2.475   0.783
  720ACTN    C2 7667   4.596   2.392   0.713
  720ACTN    O1 7668   4.613   2.470   0.617
  720ACTN    C1 7669   4.517   2.267   0.709
  720ACTN    H1 7670   4.573   2.186   0.662
  720ACTN    H2 7671   4.430   2.297   0.650
  720ACTN    H3 7672   4.484   2.247   0.811
  721ACTN    H6 7673   7.331   6.774   4.146
  721ACTN    C3 7674   7.276   6.745   4.236
  721ACTN    H4 7675   7.224   6.650   4.225
  721ACTN    H5 7676   7.337   6.726   4.324
  721ACTN    C2 7677   7.173   6.854   4.280
  721ACTN    O1 7678   7.134   6.930   4.193
  721ACTN    C1 7679   7.114   6.864   4.418
  721ACTN    H1 7680   7.097   6.761   4.450
  721ACTN    H2 7681   7.020   6.918   4.412
  721ACTN    H3 7682   7.182   6.923   4.481
  722ACTN    H6 7683   7.144   1.968   6.496
  722ACTN    C3 7684   7.048   1.940   6.540
  722ACTN    H4 7685   6.976   2.018   6.517
  722ACTN    H5 7686   7.059   1.934   6.648
  722ACTN    C2 7687   7.008   1.808   6.483
  722ACTN    O1 7688   6.892   1.794   6.448
  722ACTN    C1 7689   7.116   1.703   6.482
  722ACTN    H1 7690   7.157   1.700   6.583
  722ACTN    H2 7691   7.190   1.738   6.410
  722ACTN    H3 7692   7.077   1.604   6.456
  723ACTN    H6 7693   1.014   7.296   5.039
  723ACTN    C3 7694   0.958   7.379   4.995
  723ACTN    H4 7695   0.905   7.435   5.071
  723ACTN    H5 7696   1.028   7.449   4.949
  723ACTN    C2 7697   0.847   7.335   4.907
  723ACTN    O1 7698   0.781   7.420   4.847
  723ACTN    C1 7699   0.816   7.190   4.900
  723ACTN    H1 7700   0.862   7.148   4.810
  723ACTN    H2 7701   0.710   7.165   4.906
  723ACTN    H3 7702   0.861   7.146   4.988
  724ACTN    H6 7703   0.438   6.576   2.103
  724ACTN    C3 7704   0.513   6.584   2.181
  724ACTN    H4 7705   0.464   6.631   2.266
  724ACTN    H5 7706   0.543   6.483   2.211
  724ACTN    C2 7707   0.620   6.680   2.140
  724ACTN    O1 7708   0.614   6.796   2.173
  724ACTN    C1 7709   0.709   6.641   2.027
  724ACTN    H1 7710   0.774   6.723   1.998
  724ACTN    H2 7711   0.655   6.614   1.936
  724ACTN    H3 7712   0.768   6.550   2.043
  725ACTN    H6 7713   0.774   1.618   5.229
  725ACTN    C3 7714   0.809   1.697   5.163
  725ACTN    H4 7715   0.856   1.787   5.202
  725ACTN    H5 7716   0.886   1.654   5.099
  725ACTN    C2 7717   0.701   1.735   5.070
  725ACTN    O1 7718   0.593   1.674   5.081
  725ACTN    C1 7719   0.736   1.820   4.955
  725ACTN    H1 7720   0.834   1.864   4.969
  725ACTN    H2 7721   0.659   1.896   4.940
  725ACTN    H3 7722   0.733   1.762   4.863
  726ACTN    H6 7723   2.378   1.150   4.339
  726ACTN    C3 7724   2.465   1.178   4.400
  726ACTN    H4 7725   2.433   1.255   4.470
  726ACTN    H5 7726   2.488   1.087   4.455
  726ACTN    C2 7727   2.576   1.220   4.311
  726ACTN    O1 7728   2.624   1.137   4.238
  726ACTN    C1 7729   2.623   1.366   4.317
  726ACTN    H1 7730   2.591   1.408   4.412
  726ACTN    H2 7731   2.585   1.426   4.235
  726ACTN    H3 7732   2.732   1.366   4.309
  727ACTN    H6 7733   1.294   3.316   3.012
  727ACTN    C3 7734   1.246   3.218   3.005
  727ACTN    H4 7735   1.231   3.183   3.107
  727ACTN    H5 7736   1.143   3.231   2.969
  727ACTN    C2 7737   1.333   3.119   2.931
  727ACTN    O1 7738   1.315   2.998   2.934
  727ACTN    C1 7739   1.449   3.172   2.862
  727ACTN    H1 7740   1.527   3.189   2.936
  727ACTN    H2 7741   1.411   3.267   2.823
  727ACTN    H3 7742   1.493   3.107   2.786
  728ACTN    H6 7743   1.995  -0.064   4.880
  728ACTN    C3 7744   2.013  -0.000   4.966
  728ACTN    H4 7745   2.033  -0.073   5.046
  728ACTN    H5 7746   2.104   0.055   4.945
  728ACTN    C2 7747   1.895   0.090   4.974
  728ACTN    O1 7748   1.784   0.044   4.959
  728ACTN    C1 7749   1.917   0.236   5.000
  728ACTN    H1 7750   1.995   0.263   5.072
  728ACTN    H2 7751   1.825   0.270   5.049
  728ACTN    H3 7752   1.917   0.291   4.906
  729ACTN    H6 7753   2.716   6.789   6.748
  729ACTN    C3 7754   2.818   6.821   6.767
  729ACTN    H4 7755   2.815   6.930   6.770
  729ACTN    H5 7756   2.860   6.797   6.865
  729ACTN    C2 7757   2.910   6.773   6.666
  729ACTN    O1 7758   2.962   6.847   6.579
  729ACTN    C1 7759   2.920   6.626   6.637
  729ACTN    H1 7760   2.816   6.598   6.620
  729ACTN    H2 7761   2.954   6.578   6.728
  729ACTN    H3 7762   2.996   6.602   6.563
  730ACTN    H6 7763   6.510   4.060   2.900
  730ACTN    C3 7764   6.605   4.099   2.866
  730ACTN    H4 7765   6.661   4.127   2.956
  730ACTN    H5 7766   6.670   4.030   2.812
  730ACTN    C2 7767   6.589   4.228   2.788
  730ACTN    O1 7768   6.664   4.327   2.799
  730ACTN    C1 7769   6.480   4.246   2.687
  730ACTN    H1 7770   6.397   4.294   2.739
  730ACTN    H2 7771   6.441   4.157   2.639
  730ACTN    H3 7772   6.515   4.310   2.606
  731ACTN    H6 7773   0.851   5.694   3.336
  731ACTN    C3 7774   0.941   5.744   3.301
  731ACTN    H4 7775   1.024   5.723   3.368
  731ACTN    H5 7776   0.966   5.701   3.204
  731ACTN    C2 7777   0.918   5.891   3.288
  731ACTN    O1 7778   0.909   5.944   3.177
  731ACTN    C1 7779   0.870   5.965   3.408
  731ACTN    H1 7780   0.765   5.948   3.433
  731ACTN    H2 7781   0.888   6.072   3.403
  731ACTN    H3 7782   0.928   5.930   3.493
  732ACTN    H6 7783   0.522   6.382   5.406
  732ACTN    C3 7784   0.606   6.345   5.348
  732ACTN    H4 7785   0.655   6.276   5.417
  732ACTN    H5 7786   0.576   6.281   5.265
  732ACTN    C2 7787   0.707   6.451   5.322
  732ACTN    O1 7788   0.826   6.429   5.298
  732ACTN    C1 7789   0.667   6.588   5.300
  732ACTN    H1 7790   0.609   6.626   5.384
  732ACTN    H2 7791   0.615   6.591   5.205
  732ACTN    H3 7792   0.758   6.647   5.288
  733ACTN    H6 7793   3.207   6.633   2.924
  733ACTN    C3 7794   3.256   6.717   2.974
  733ACTN    H4 7795   3.358   6.726   2.937
  733ACTN    H5 7796   3.204   6.802   2.928
  733ACTN    C2 7797   3.242   6.712   3.122
  733ACTN    O1 7798   3.136   6.656   3.161
  733ACTN    C1 7799   3.351   6.728   3.215
  733ACTN    H1 7800   3.326   6.764   3.315
  733ACTN    H2 7801   3.418   6.805   3.177
  733ACTN    H3 7802   3.394   6.628   3.217
  734ACTN    H6 7803   7.109   1.353   4.747
  734ACTN    C3 7804   7.201   1.342   4.805
  734ACTN    H4 7805   7.240   1.437   4.841
  734ACTN    H5 7806   7.187   1.288   4.899
  734ACTN    C2 7807   7.308   1.288   4.715
  734ACTN    O1 7808   7.268   1.214   4.628
  734ACTN    C1 7809   7.451   1.315   4.723
  734ACTN    H1 7810   7.492   1.305   4.623
  734ACTN    H2 7811   7.504   1.254   4.796
  734ACTN    H3 7812   7.457   1.417   4.760
  735ACTN    H6 7813   7.160   4.840   1.665
  735ACTN    C3 7814   7.161   4.813   1.559
  735ACTN    H4 7815   7.102   4.721   1.559
  735ACTN    H5 7816   7.104   4.885   1.500
  735ACTN    C2 7817   7.300   4.790   1.518
  735ACTN    O1 7818   7.324   4.782   1.399
  735ACTN    C1 7819   7.406   4.759   1.616
  735ACTN    H1 7820   7.406   4.652   1.639
  735ACTN    H2 7821   7.409   4.820   1.706
  735ACTN    H3 7822   7.501   4.784   1.568
  736ACTN    H6 7823   0.052   3.642   1.836
  736ACTN    C3 7824   0.055   3.736   1.780
  736ACTN    H4 7825   0.135   3.721   1.707
  736ACTN    H5 7826  -0.041   3.747   1.729
  736ACTN    C2 7827   0.082   3.854   1.862
  736ACTN    O1 7828   0.188   3.915   1.860
  736ACTN    C1 7829  -0.011   3.894   1.968
  736ACTN    H1 7830   0.040   3.929   2.057
  736ACTN    H2 7831  -0.069   3.805   1.995
  736ACTN    H3 7832  -0.081   3.974   1.942
  737ACTN    H6 7833   6.615   6.158   6.882
  737ACTN    C3 7834   6.574   6.122   6.976
  737ACTN    H4 7835   6.498   6.191   7.011
  737ACTN    H5 7836   6.522   6.027   6.961
  737ACTN    C2 7837   6.687   6.116   7.075
  737ACTN    O1 7838   6.772   6.031   7.080
  737ACTN    C1 7839   6.679   6.216   7.183
  737ACTN    H1 7840   6.771   6.205   7.242
  737ACTN    H2 7841   6.598   6.186   7.249
  737ACTN    H3 7842   6.677   6.316   7.141
  738ACTN    H6 7843   2.802   0.031   4.648
  738ACTN    C3 7844   2.910   0.046   4.654
  738ACTN    H4 7845   2.968  -0.042   4.630
  738ACTN    H5 7846   2.940   0.116   4.576
  738ACTN    C2 7847   2.946   0.091   4.793
  738ACTN    O1 7848   2.862   0.131   4.871
  738ACTN    C1 7849   3.094   0.085   4.831
  738ACTN    H1 7850   3.155   0.114   4.745
  738ACTN    H2 7851   3.111  -0.021   4.851
  738ACTN    H3 7852   3.126   0.143   4.918
  739ACTN    H6 7853   7.435   1.851   1.346
  739ACTN    C3 7854   7.335   1.855   1.390
  739ACTN    H4 7855   7.279   1.763   1.374
  739ACTN    H5 7856   7.358   1.863   1.497
  739ACTN    C2 7857   7.264   1.981   1.345
  739ACTN    O1 7858   7.307   2.097   1.350
  739ACTN    C1 7859   7.118   1.961   1.325
  739ACTN    H1 7860   7.086   1.941   1.223
  739ACTN    H2 7861   7.059   2.048   1.355
  739ACTN    H3 7862   7.084   1.874   1.380
  740ACTN    H6 7863   3.686   0.976   5.905
  740ACTN    C3 7864   3.623   0.978   5.816
  740ACTN    H4 7865   3.537   1.038   5.847
  740ACTN    H5 7866   3.677   1.038   5.743
  740ACTN    C2 7867   3.567   0.842   5.780
  740ACTN    O1 7868   3.566   0.761   5.877
  740ACTN    C1 7869   3.454   0.841   5.685
  740ACTN    H1 7870   3.493   0.900   5.602
  740ACTN    H2 7871   3.362   0.894   5.711
  740ACTN    H3 7872   3.436   0.737   5.658
  741ACTN    H6 7873   2.374   6.877   3.248
  741ACTN    C3 7874   2.292   6.804   3.240
  741ACTN    H4 7875   2.229   6.812   3.329
  741ACTN    H5 7876   2.229   6.824   3.154
  741ACTN    C2 7877   2.354   6.672   3.228
  741ACTN    O1 7878   2.277   6.580   3.193
  741ACTN    C1 7879   2.501   6.643   3.245
  741ACTN    H1 7880   2.533   6.669   3.346
  741ACTN    H2 7881   2.558   6.697   3.170
  741ACTN    H3 7882   2.523   6.537   3.232
  742ACTN    H6 7883   2.034   2.115   1.390
  742ACTN    C3 7884   2.098   2.184   1.444
  742ACTN    H4 7885   2.119   2.145   1.544
  742ACTN    H5 7886   2.192   2.207   1.394
  742ACTN    C2 7887   2.025   2.319   1.465
  742ACTN    O1 7888   1.980   2.376   1.367
  742ACTN    C1 7889   2.025   2.367   1.603
  742ACTN    H1 7890   1.925   2.348   1.642
  742ACTN    H2 7891   2.054   2.471   1.616
  742ACTN    H3 7892   2.098   2.311   1.661
  743ACTN    H6 7893   1.200   6.417   2.247
  743ACTN    C3 7894   1.213   6.331   2.180
  743ACTN    H4 7895   1.116   6.290   2.154
  743ACTN    H5 7896   1.267   6.359   2.089
  743ACTN    C2 7897   1.284   6.221   2.254
  743ACTN    O1 7898   1.384   6.247   2.311
  743ACTN    C1 7899   1.221   6.091   2.247
  743ACTN    H1 7900   1.121   6.096   2.292
  743ACTN    H2 7901   1.286   6.015   2.289
  743ACTN    H3 7902   1.212   6.068   2.141
  744ACTN    H6 7903   3.981   5.645   4.401
  744ACTN    C3 7904   3.873   5.651   4.410
  744ACTN    H4 7905   3.828   5.640   4.311
  744ACTN    H5 7906   3.839   5.559   4.456
  744ACTN    C2 7907   3.847   5.778   4.482
  744ACTN    O1 7908   3.909   5.816   4.579
  744ACTN    C1 7909   3.715   5.838   4.460
  744ACTN    H1 7910   3.713   5.941   4.494
  744ACTN    H2 7911   3.651   5.774   4.520
  744ACTN    H3 7912   3.674   5.830   4.359
  745ACTN    H6 7913   5.410   1.588   5.440
  745ACTN    C3 7914   5.353   1.585   5.347
  745ACTN    H4 7915   5.431   1.565   5.273
  745ACTN    H5 7916   5.279   1.506   5.358
  745ACTN    C2 7917   5.287   1.716   5.305
  745ACTN    O1 7918   5.315   1.820   5.363
  745ACTN    C1 7919   5.179   1.720   5.203
  745ACTN    H1 7920   5.085   1.757   5.242
  745ACTN    H2 7921   5.161   1.617   5.172
  745ACTN    H3 7922   5.209   1.778   5.116
  746ACTN    H6 7923   1.181   1.276   6.103
  746ACTN    C3 7924   1.208   1.185   6.156
  746ACTN    H4 7925   1.126   1.154   6.222
  746ACTN    H5 7926   1.212   1.096   6.092
  746ACTN    C2 7927   1.336   1.200   6.229
  746ACTN    O1 7928   1.424   1.121   6.206
  746ACTN    C1 7929   1.354   1.315   6.324
  746ACTN    H1 7930   1.298   1.305   6.417
  746ACTN    H2 7931   1.329   1.408   6.271
  746ACTN    H3 7932   1.459   1.335   6.343
  747ACTN    H6 7933   1.114   1.130   2.202
  747ACTN    C3 7934   1.202   1.118   2.265
  747ACTN    H4 7935   1.190   1.088   2.369
  747ACTN    H5 7936   1.265   1.043   2.216
  747ACTN    C2 7937   1.271   1.251   2.250
  747ACTN    O1 7938   1.225   1.354   2.302
  747ACTN    C1 7939   1.389   1.255   2.151
  747ACTN    H1 7940   1.470   1.301   2.207
  747ACTN    H2 7941   1.361   1.316   2.064
  747ACTN    H3 7942   1.429   1.160   2.117
  748ACTN    H6 7943   6.366   1.965   2.942
  748ACTN    C3 7944   6.442   1.928   3.011
  748ACTN    H4 7945   6.497   2.019   3.037
  748ACTN    H5 7946   6.397   1.883   3.099
  748ACTN    C2 7947   6.527   1.838   2.941
  748ACTN    O1 7948   6.633   1.876   2.895
  748ACTN    C1 7949   6.471   1.701   2.905
  748ACTN    H1 7950   6.447   1.693   2.798
  748ACTN    H2 7951   6.379   1.690   2.963
  748ACTN    H3 7952   6.538   1.619   2.927
  749ACTN    H6 7953   7.113   5.869   3.709
  749ACTN    C3 7954   7.020   5.817   3.729
  749ACTN    H4 7955   6.950   5.832   3.647
  749ACTN    H5 7956   7.041   5.713   3.754
  749ACTN    C2 7957   6.951   5.880   3.848
  749ACTN    O1 7958   6.951   6.003   3.864
  749ACTN    C1 7959   6.911   5.798   3.961
  749ACTN    H1 7960   6.966   5.833   4.049
  749ACTN    H2 7961   6.940   5.695   3.943
  749ACTN    H3 7962   6.804   5.793   3.979
  750ACTN    H6 7963   5.404   1.948   7.211
  750ACTN    C3 7964   5.476   1.951   7.293
  750ACTN    H4 7965   5.516   2.052   7.304
  750ACTN    H5 7966   5.420   1.941   7.386
  750ACTN    C2 7967   5.577   1.846   7.268
  750ACTN    O1 7968   5.646   1.804   7.360
  750ACTN    C1 7969   5.568   1.782   7.138
  750ACTN    H1 7970   5.627   1.690   7.143
  750ACTN    H2 7971   5.610   1.840   7.055
  750ACTN    H3 7972   5.465   1.756   7.116
  751ACTN    H6 7973   2.418   6.945   5.290
  751ACTN    C3 7974   2.345   7.020   5.321
  751ACTN    H4 7975   2.253   6.960   5.315
  751ACTN    H5 7976   2.367   7.057   5.420
  751ACTN    C2 7977   2.359   7.130   5.221
  751ACTN    O1 7978   2.313   7.121   5.110
  751ACTN    C1 7979   2.423   7.263   5.249
  751ACTN    H1 7980   2.426   7.296   5.352
  751ACTN    H2 7981   2.379   7.346   5.194
  751ACTN    H3 7982   2.529   7.262   5.224
  752ACTN    H6 7983   6.871   6.618   2.325
  752ACTN    C3 7984   6.890   6.589   2.428
  752ACTN    H4 7985   6.993   6.611   2.456
  752ACTN    H5 7986   6.828   6.654   2.491
  752ACTN    C2 7987   6.848   6.437   2.442
  752ACTN    O1 7988   6.769   6.387   2.358
  752ACTN    C1 7989   6.924   6.364   2.542
  752ACTN    H1 7990   6.959   6.271   2.497
  752ACTN    H2 7991   6.854   6.354   2.625
  752ACTN    H3 7992   7.005   6.432   2.571
  753ACTN    H6 7993   0.963   0.573   4.941
  753ACTN    C3 7994   0.920   0.657   4.996
  753ACTN    H4 7995   0.957   0.747   4.947
  753ACTN    H5 7996   0.811   0.656   4.990
  753ACTN    C2 7997   0.973   0.663   5.133
  753ACTN    O1 7998   0.905   0.676   5.234
  753ACTN    C1 7999   1.126   0.664   5.141
  753ACTN    H1 8000   1.178   0.592   5.078
  753ACTN    H2 8001   1.168   0.649   5.241
  753ACTN    H3 8002   1.152   0.763   5.106
  754ACTN    H6 8003   2.605   0.916   5.277
  754ACTN    C3 8004   2.661   0.967   5.198
  754ACTN    H4 8005   2.666   0.904   5.110
  754ACTN    H5 8006   2.595   1.050   5.173
  754ACTN    C2 8007   2.798   1.016   5.243
  754ACTN    O1 8008   2.808   1.032   5.365
  754ACTN    C1 8009   2.915   1.033   5.148
  754ACTN    H1 8010   2.867   1.030   5.051
  754ACTN    H2 8011   2.978   0.945   5.166
  754ACTN    H3 8012   2.980   1.117   5.171
  755ACTN    H6 8013   4.703   2.169   2.358
  755ACTN    C3 8014   4.629   2.091   2.342
  755ACTN    H4 8015   4.555   2.136   2.276
  755ACTN    H5 8016   4.672   2.018   2.272
  755ACTN    C2 8017   4.571   2.032   2.462
  755ACTN    O1 8018   4.614   2.063   2.573
  755ACTN    C1 8019   4.513   1.894   2.444
  755ACTN    H1 8020   4.421   1.897   2.385
  755ACTN    H2 8021   4.494   1.847   2.540
  755ACTN    H3 8022   4.587   1.834   2.391
  756ACTN    H6 8023   4.727   4.114   7.145
  756ACTN    C3 8024   4.681   4.212   7.134
  756ACTN    H4 8025   4.595   4.220   7.201
  756ACTN    H5 8026   4.758   4.281   7.168
  756ACTN    C2 8027   4.641   4.236   6.993
  756ACTN    O1 8028   4.726   4.268   6.913
  756ACTN    C1 8029   4.496   4.217   6.949
  756ACTN    H1 8030   4.488   4.177   6.848
  756ACTN    H2 8031   4.444   4.313   6.946
  756ACTN    H3 8032   4.444   4.151   7.019
  757ACTN    H6 8033   0.450   1.034   5.631
  757ACTN    C3 8034   0.540   1.034   5.570
  757ACTN    H4 8035   0.622   0.973   5.606
  757ACTN    H5 8036   0.518   0.983   5.476
  757ACTN    C2 8037   0.594   1.178   5.560
  757ACTN    O1 8038   0.612   1.229   5.448
  757ACTN    C1 8039   0.606   1.260   5.684
  757ACTN    H1 8040   0.597   1.207   5.779
  757ACTN    H2 8041   0.535   1.343   5.690
  757ACTN    H3 8042   0.707   1.301   5.688
  758ACTN    H6 8043   7.167   5.410   1.201
  758ACTN    C3 8044   7.121   5.492   1.145
  758ACTN    H4 8045   7.018   5.494   1.179
  758ACTN    H5 8046   7.171   5.588   1.156
  758ACTN    C2 8047   7.110   5.458   1.002
  758ACTN    O1 8048   7.212   5.455   0.936
  758ACTN    C1 8049   6.970   5.437   0.945
  758ACTN    H1 8050   6.898   5.494   1.004
  758ACTN    H2 8051   6.943   5.333   0.961
  758ACTN    H3 8052   6.955   5.463   0.840
  759ACTN    H6 8053   1.232   7.141   4.969
  759ACTN    C3 8054   1.336   7.110   4.984
  759ACTN    H4 8055   1.353   7.019   4.927
  759ACTN    H5 8056   1.397   7.197   4.959
  759ACTN    C2 8057   1.343   7.088   5.136
  759ACTN    O1 8058   1.401   7.171   5.206
  759ACTN    C1 8059   1.267   6.970   5.197
  759ACTN    H1 8060   1.187   6.937   5.130
  759ACTN    H2 8061   1.233   7.000   5.296
  759ACTN    H3 8062   1.341   6.892   5.213
  760ACTN    H6 8063   0.378   4.614   4.002
  760ACTN    C3 8064   0.398   4.712   4.045
  760ACTN    H4 8065   0.346   4.777   3.976
  760ACTN    H5 8066   0.345   4.713   4.140
  760ACTN    C2 8067   0.541   4.754   4.060
  760ACTN    O1 8068   0.563   4.875   4.073
  760ACTN    C1 8069   0.636   4.641   4.089
  760ACTN    H1 8070   0.617   4.599   4.188
  760ACTN    H2 8071   0.741   4.669   4.099
  760ACTN    H3 8072   0.617   4.557   4.022
  761ACTN    H6 8073   2.864   6.915   3.891
  761ACTN    C3 8074   2.837   6.935   3.995
  761ACTN    H4 8075   2.752   6.875   4.027
  761ACTN    H5 8076   2.929   6.911   4.048
  761ACTN    C2 8077   2.808   7.078   4.016
  761ACTN    O1 8078   2.798   7.131   4.125
  761ACTN    C1 8079   2.810   7.167   3.893
  761ACTN    H1 8080   2.760   7.260   3.918
  761ACTN    H2 8081   2.760   7.128   3.804
  761ACTN    H3 8082   2.908   7.198   3.856
  762ACTN    H6 8083   1.850   6.958   3.127
  762ACTN    C3 8084   1.813   6.968   3.229
  762ACTN    H4 8085   1.887   6.928   3.298
  762ACTN    H5 8086   1.790   7.072   3.252
  762ACTN    C2 8087   1.677   6.891   3.232
  762ACTN    O1 8088   1.659   6.800   3.159
  762ACTN    C1 8089   1.568   6.943   3.312
  762ACTN    H1 8090   1.588   7.048   3.331
  762ACTN    H2 8091   1.554   6.893   3.408
  762ACTN    H3 8092   1.476   6.943   3.254
  763ACTN    H6 8093   4.769   2.531   4.925
  763ACTN    C3 8094   4.865   2.561   4.882
  763ACTN    H4 8095   4.868   2.670   4.875
  763ACTN    H5 8096   4.944   2.532   4.952
  763ACTN    C2 8097   4.900   2.490   4.755
  763ACTN    O1 8098   4.867   2.376   4.734
  763ACTN    C1 8099   4.955   2.573   4.643
  763ACTN    H1 8100   4.969   2.520   4.549
  763ACTN    H2 8101   5.047   2.625   4.672
  763ACTN    H3 8102   4.880   2.650   4.629
  764ACTN    H6 8103   3.682   5.861   0.810
  764ACTN    C3 8104   3.616   5.775   0.797
  764ACTN    H4 8105   3.659   5.725   0.710
  764ACTN    H5 8106   3.619   5.706   0.882
  764ACTN    C2 8107   3.476   5.823   0.767
  764ACTN    O1 8108   3.450   5.938   0.738
  764ACTN    C1 8109   3.373   5.714   0.783
  764ACTN    H1 8110   3.272   5.756   0.785
  764ACTN    H2 8111   3.384   5.664   0.879
  764ACTN    H3 8112   3.371   5.639   0.703
  765ACTN    H6 8113   3.940   4.324   2.891
  765ACTN    C3 8114   3.841   4.281   2.875
  765ACTN    H4 8115   3.854   4.194   2.810
  765ACTN    H5 8116   3.806   4.254   2.975
  765ACTN    C2 8117   3.755   4.388   2.803
  765ACTN    O1 8118   3.805   4.497   2.789
  765ACTN    C1 8119   3.608   4.371   2.785
  765ACTN    H1 8120   3.565   4.430   2.705
  765ACTN    H2 8121   3.550   4.390   2.876
  765ACTN    H3 8122   3.585   4.267   2.760
  766ACTN    H6 8123   7.163   0.125   4.045
  766ACTN    C3 8124   7.257   0.138   3.990
  766ACTN    H4 8125   7.299   0.038   3.979
  766ACTN    H5 8126   7.233   0.168   3.888
  766ACTN    C2 8127   7.337   0.240   4.067
  766ACTN    O1 8128   7.410   0.313   4.002
  766ACTN    C1 8129   7.286   0.292   4.201
  766ACTN    H1 8130   7.189   0.244   4.212
  766ACTN    H2 8131   7.278   0.401   4.206
  766ACTN    H3 8132   7.351   0.252   4.279
  767ACTN    H6 8133   3.418   3.293   2.698
  767ACTN    C3 8134   3.365   3.215   2.753
  767ACTN    H4 8135   3.274   3.193   2.699
  767ACTN    H5 8136   3.427   3.126   2.751
  767ACTN    C2 8137   3.332   3.266   2.891
  767ACTN    O1 8138   3.218   3.282   2.930
  767ACTN    C1 8139   3.449   3.307   2.975
  767ACTN    H1 8140   3.540   3.258   2.941
  767ACTN    H2 8141   3.441   3.296   3.083
  767ACTN    H3 8142   3.458   3.412   2.945
  768ACTN    H6 8143   1.734   1.094   4.457
  768ACTN    C3 8144   1.652   1.023   4.450
  768ACTN    H4 8145   1.552   1.064   4.464
  768ACTN    H5 8146   1.657   0.973   4.353
  768ACTN    C2 8147   1.686   0.933   4.565
  768ACTN    O1 8148   1.678   0.986   4.677
  768ACTN    C1 8149   1.732   0.792   4.555
  768ACTN    H1 8150   1.753   0.770   4.450
  768ACTN    H2 8151   1.653   0.723   4.584
  768ACTN    H3 8152   1.825   0.767   4.605
  769ACTN    H6 8153   4.773   1.784   5.135
  769ACTN    C3 8154   4.714   1.692   5.131
  769ACTN    H4 8155   4.629   1.703   5.197
  769ACTN    H5 8156   4.684   1.678   5.027
  769ACTN    C2 8157   4.804   1.584   5.176
  769ACTN    O1 8158   4.837   1.571   5.297
  769ACTN    C1 8159   4.857   1.477   5.076
  769ACTN    H1 8160   4.790   1.393   5.093
  769ACTN    H2 8161   4.961   1.448   5.085
  769ACTN    H3 8162   4.847   1.513   4.974
  770ACTN    H6 8163   5.193   0.470   0.739
  770ACTN    C3 8164   5.250   0.397   0.682
  770ACTN    H4 8165   5.193   0.361   0.596
  770ACTN    H5 8166   5.348   0.433   0.649
  770ACTN    C2 8167   5.271   0.285   0.781
  770ACTN    O1 8168   5.282   0.305   0.904
  770ACTN    C1 8169   5.252   0.148   0.725
  770ACTN    H1 8170   5.274   0.134   0.619
  770ACTN    H2 8171   5.154   0.102   0.739
  770ACTN    H3 8172   5.319   0.078   0.774
  771ACTN    H6 8173   0.412   1.300   6.735
  771ACTN    C3 8174   0.384   1.237   6.820
  771ACTN    H4 8175   0.462   1.163   6.837
  771ACTN    H5 8176   0.376   1.299   6.909
  771ACTN    C2 8177   0.252   1.164   6.817
  771ACTN    O1 8178   0.243   1.065   6.888
  771ACTN    C1 8179   0.163   1.196   6.700
  771ACTN    H1 8180   0.081   1.123   6.699
  771ACTN    H2 8181   0.224   1.182   6.611
  771ACTN    H3 8182   0.123   1.297   6.692
  772ACTN    H6 8183   2.735   3.379   3.741
  772ACTN    C3 8184   2.836   3.369   3.782
  772ACTN    H4 8185   2.905   3.440   3.738
  772ACTN    H5 8186   2.830   3.388   3.889
  772ACTN    C2 8187   2.864   3.219   3.765
  772ACTN    O1 8188   2.971   3.183   3.715
  772ACTN    C1 8189   2.785   3.135   3.858
  772ACTN    H1 8190   2.737   3.199   3.932
  772ACTN    H2 8191   2.851   3.065   3.910
  772ACTN    H3 8192   2.706   3.077   3.811
  773ACTN    H6 8193   0.482   3.076   1.692
  773ACTN    C3 8194   0.388   3.034   1.657
  773ACTN    H4 8195   0.351   3.094   1.574
  773ACTN    H5 8196   0.404   2.929   1.630
  773ACTN    C2 8197   0.284   3.041   1.760
  773ACTN    O1 8198   0.219   2.945   1.794
  773ACTN    C1 8199   0.270   3.169   1.837
  773ACTN    H1 8200   0.318   3.166   1.935
  773ACTN    H2 8201   0.162   3.181   1.850
  773ACTN    H3 8202   0.313   3.253   1.784
  774ACTN    H6 8203   5.036   2.510   6.419
  774ACTN    C3 8204   5.025   2.610   6.378
  774ACTN    H4 8205   5.076   2.614   6.281
  774ACTN    H5 8206   4.920   2.632   6.363
  774ACTN    C2 8207   5.077   2.716   6.466
  774ACTN    O1 8208   5.069   2.691   6.586
  774ACTN    C1 8209   5.180   2.812   6.416
  774ACTN    H1 8210   5.120   2.882   6.358
  774ACTN    H2 8211   5.260   2.778   6.351
  774ACTN    H3 8212   5.225   2.873   6.494
  775ACTN    H6 8213   1.519   5.962   4.543
  775ACTN    C3 8214   1.552   5.889   4.469
  775ACTN    H4 8215   1.496   5.903   4.376
  775ACTN    H5 8216   1.656   5.915   4.446
  775ACTN    C2 8217   1.531   5.757   4.532
  775ACTN    O1 8218   1.415   5.717   4.532
  775ACTN    C1 8219   1.636   5.667   4.590
  775ACTN    H1 8220   1.587   5.574   4.622
  775ACTN    H2 8221   1.681   5.705   4.682
  775ACTN    H3 8222   1.715   5.650   4.518
  776ACTN    H6 8223   1.929   2.423   4.950
  776ACTN    C3 8224   1.982   2.333   4.920
  776ACTN    H4 8225   2.085   2.326   4.957
  776ACTN    H5 8226   1.996   2.331   4.812
  776ACTN    C2 8227   1.896   2.217   4.964
  776ACTN    O1 8228   1.773   2.213   4.950
  776ACTN    C1 8229   1.965   2.120   5.048
  776ACTN    H1 8230   2.013   2.054   4.976
  776ACTN    H2 8231   1.892   2.059   5.102
  776ACTN    H3 8232   2.033   2.173   5.115
  777ACTN    H6 8233   0.775   4.399   1.235
  777ACTN    C3 8234   0.786   4.479   1.308
  777ACTN    H4 8235   0.889   4.478   1.345
  777ACTN    H5 8236   0.760   4.570   1.255
  777ACTN    C2 8237   0.700   4.454   1.423
  777ACTN    O1 8238   0.725   4.360   1.495
  777ACTN    C1 8239   0.599   4.553   1.462
  777ACTN    H1 8240   0.506   4.497   1.452
  777ACTN    H2 8241   0.603   4.640   1.396
  777ACTN    H3 8242   0.607   4.576   1.568
  778ACTN    H6 8243   0.567   7.526   2.360
  778ACTN    C3 8244   0.626   7.473   2.435
  778ACTN    H4 8245   0.689   7.544   2.488
  778ACTN    H5 8246   0.551   7.434   2.504
  778ACTN    C2 8247   0.690   7.353   2.386
  778ACTN    O1 8248   0.751   7.280   2.460
  778ACTN    C1 8249   0.671   7.320   2.245
  778ACTN    H1 8250   0.597   7.385   2.196
  778ACTN    H2 8251   0.646   7.215   2.237
  778ACTN    H3 8252   0.758   7.334   2.182
  779ACTN    H6 8253   4.401   5.504   0.050
  779ACTN    C3 8254   4.426   5.406   0.092
  779ACTN    H4 8255   4.406   5.400   0.199
  779ACTN    H5 8256   4.361   5.341   0.034
  779ACTN    C2 8257   4.572   5.387   0.069
  779ACTN    O1 8258   4.657   5.432   0.147
  779ACTN    C1 8259   4.608   5.275  -0.023
  779ACTN    H1 8260   4.715   5.279  -0.046
  779ACTN    H2 8261   4.560   5.277  -0.121
  779ACTN    H3 8262   4.596   5.177   0.024
  780ACTN    H6 8263   5.388   5.804   3.656
  780ACTN    C3 8264   5.430   5.820   3.556
  780ACTN    H4 8265   5.395   5.740   3.491
  780ACTN    H5 8266   5.385   5.911   3.517
  780ACTN    C2 8267   5.577   5.835   3.543
  780ACTN    O1 8268   5.648   5.808   3.636
  780ACTN    C1 8269   5.617   5.833   3.403
  780ACTN    H1 8270   5.576   5.742   3.359
  780ACTN    H2 8271   5.723   5.849   3.387
  780ACTN    H3 8272   5.567   5.918   3.355
  781ACTN    H6 8273   1.216   0.182   2.987
  781ACTN    C3 8274   1.243   0.273   3.041
  781ACTN    H4 8275   1.163   0.346   3.039
  781ACTN    H5 8276   1.259   0.240   3.144
  781ACTN    C2 8277   1.371   0.330   2.987
  781ACTN    O1 8278   1.366   0.446   2.936
  781ACTN    C1 8279   1.468   0.223   2.939
  781ACTN    H1 8280   1.506   0.176   3.030
  781ACTN    H2 8281   1.556   0.258   2.886
  781ACTN    H3 8282   1.419   0.144   2.882
  782ACTN    H6 8283   1.744   6.699   6.606
  782ACTN    C3 8284   1.852   6.701   6.598
  782ACTN    H4 8285   1.872   6.808   6.587
  782ACTN    H5 8286   1.901   6.672   6.692
  782ACTN    C2 8287   1.899   6.613   6.485
  782ACTN    O1 8288   1.819   6.569   6.401
  782ACTN    C1 8289   2.034   6.562   6.500
  782ACTN    H1 8290   2.054   6.559   6.607
  782ACTN    H2 8291   2.114   6.619   6.452
  782ACTN    H3 8292   2.035   6.460   6.461
  783ACTN    H6 8293   6.718   6.080   5.560
  783ACTN    C3 8294   6.645   6.003   5.581
  783ACTN    H4 8295   6.661   5.921   5.510
  783ACTN    H5 8296   6.656   5.969   5.684
  783ACTN    C2 8297   6.506   6.058   5.562
  783ACTN    O1 8298   6.439   6.011   5.469
  783ACTN    C1 8299   6.449   6.149   5.668
  783ACTN    H1 8300   6.352   6.192   5.643
  783ACTN    H2 8301   6.515   6.231   5.696
  783ACTN    H3 8302   6.451   6.089   5.759
  784ACTN    H6 8303   1.110   2.723   4.420
  784ACTN    C3 8304   1.204   2.765   4.384
  784ACTN    H4 8305   1.222   2.738   4.280
  784ACTN    H5 8306   1.200   2.874   4.387
  784ACTN    C2 8307   1.321   2.714   4.462
  784ACTN    O1 8308   1.352   2.764   4.567
  784ACTN    C1 8309   1.406   2.599   4.417
  784ACTN    H1 8310   1.411   2.514   4.485
  784ACTN    H2 8311   1.509   2.630   4.401
  784ACTN    H3 8312   1.381   2.564   4.317
  785ACTN    H6 8313   0.000   5.073   4.276
  785ACTN    C3 8314  -0.042   5.013   4.356
  785ACTN    H4 8315   0.001   5.046   4.450
  785ACTN    H5 8316  -0.150   5.025   4.359
  785ACTN    C2 8317   0.005   4.868   4.329
  785ACTN    O1 8318  -0.018   4.787   4.417
  785ACTN    C1 8319   0.090   4.843   4.215
  785ACTN    H1 8320   0.036   4.824   4.122
  785ACTN    H2 8321   0.146   4.750   4.224
  785ACTN    H3 8322   0.166   4.918   4.192
  786ACTN    H6 8323   0.452   3.163   0.979
  786ACTN    C3 8324   0.468   3.124   1.080
  786ACTN    H4 8325   0.465   3.016   1.092
  786ACTN    H5 8326   0.569   3.149   1.113
  786ACTN    C2 8327   0.376   3.188   1.177
  786ACTN    O1 8328   0.314   3.283   1.143
  786ACTN    C1 8329   0.386   3.164   1.327
  786ACTN    H1 8330   0.404   3.058   1.342
  786ACTN    H2 8331   0.289   3.182   1.373
  786ACTN    H3 8332   0.459   3.230   1.374
  787ACTN    H6 8333   3.049   4.487   6.377
  787ACTN    C3 8334   3.037   4.404   6.308
  787ACTN    H4 8335   3.137   4.369   6.283
  787ACTN    H5 8336   2.980   4.326   6.359
  787ACTN    C2 8337   2.981   4.457   6.182
  787ACTN    O1 8338   2.888   4.392   6.129
  787ACTN    C1 8339   3.057   4.565   6.109
  787ACTN    H1 8340   3.108   4.519   6.024
  787ACTN    H2 8341   3.115   4.634   6.170
  787ACTN    H3 8342   2.994   4.639   6.059
  788ACTN    H6 8343   1.093   1.866   4.774
  788ACTN    C3 8344   1.134   1.942   4.708
  788ACTN    H4 8345   1.057   1.992   4.649
  788ACTN    H5 8346   1.174   2.023   4.769
  788ACTN    C2 8347   1.234   1.883   4.617
  788ACTN    O1 8348   1.308   1.959   4.553
  788ACTN    C1 8349   1.263   1.736   4.618
  788ACTN    H1 8350   1.218   1.681   4.701
  788ACTN    H2 8351   1.371   1.721   4.613
  788ACTN    H3 8352   1.222   1.701   4.524
  789ACTN    H6 8353   0.479   1.720   1.203
  789ACTN    C3 8354   0.509   1.807   1.261
  789ACTN    H4 8355   0.502   1.768   1.363
  789ACTN    H5 8356   0.612   1.836   1.239
  789ACTN    C2 8357   0.418   1.930   1.264
  789ACTN    O1 8358   0.299   1.923   1.260
  789ACTN    C1 8359   0.484   2.062   1.241
  789ACTN    H1 8360   0.435   2.126   1.167
  789ACTN    H2 8361   0.578   2.045   1.188
  789ACTN    H3 8362   0.501   2.100   1.342
  790ACTN    H6 8363   3.182   3.479   5.329
  790ACTN    C3 8364   3.115   3.481   5.242
  790ACTN    H4 8365   3.138   3.571   5.185
  790ACTN    H5 8366   3.132   3.395   5.178
  790ACTN    C2 8367   2.972   3.487   5.283
  790ACTN    O1 8368   2.919   3.393   5.343
  790ACTN    C1 8369   2.903   3.608   5.232
  790ACTN    H1 8370   2.807   3.626   5.281
  790ACTN    H2 8371   2.896   3.596   5.124
  790ACTN    H3 8372   2.963   3.696   5.255
  791ACTN    H6 8373   5.204   3.168   1.556
  791ACTN    C3 8374   5.275   3.247   1.529
  791ACTN    H4 8375   5.283   3.321   1.608
  791ACTN    H5 8376   5.237   3.303   1.443
  791ACTN    C2 8377   5.406   3.173   1.514
  791ACTN    O1 8378   5.441   3.139   1.400
  791ACTN    C1 8379   5.502   3.202   1.621
  791ACTN    H1 8380   5.568   3.116   1.622
  791ACTN    H2 8381   5.454   3.199   1.719
  791ACTN    H3 8382   5.559   3.292   1.601
  792ACTN    H6 8383   2.270   0.494   4.985
  792ACTN    C3 8384   2.373   0.474   5.014
  792ACTN    H4 8385   2.432   0.488   4.923
  792ACTN    H5 8386   2.411   0.536   5.096
  792ACTN    C2 8387   2.392   0.332   5.057
  792ACTN    O1 8388   2.321   0.248   4.997
  792ACTN    C1 8389   2.513   0.286   5.126
  792ACTN    H1 8390   2.557   0.360   5.192
  792ACTN    H2 8391   2.581   0.265   5.044
  792ACTN    H3 8392   2.485   0.189   5.167
  793ACTN    H6 8393   0.942   3.418   4.683
  793ACTN    C3 8394   0.918   3.317   4.714
  793ACTN    H4 8395   0.938   3.245   4.635
  793ACTN    H5 8396   0.997   3.288   4.784
  793ACTN    C2 8397   0.788   3.311   4.781
  793ACTN    O1 8398   0.781   3.369   4.886
  793ACTN    C1 8399   0.685   3.219   4.726
  793ACTN    H1 8400   0.699   3.121   4.770
  793ACTN    H2 8401   0.696   3.213   4.617
  793ACTN    H3 8402   0.586   3.259   4.750
  794ACTN    H6 8403   1.333   6.335   1.836
  794ACTN    C3 8404   1.351   6.267   1.753
  794ACTN    H4 8405   1.347   6.323   1.660
  794ACTN    H5 8406   1.455   6.233   1.758
  794ACTN    C2 8407   1.251   6.162   1.751
  794ACTN    O1 8408   1.197   6.130   1.859
  794ACTN    C1 8409   1.221   6.085   1.620
  794ACTN    H1 8410   1.297   6.119   1.550
  794ACTN    H2 8411   1.126   6.103   1.571
  794ACTN    H3 8412   1.237   5.978   1.638
  795ACTN    H6 8413   0.719   7.008   3.119
  795ACTN    C3 8414   0.679   7.052   3.210
  795ACTN    H4 8415   0.573   7.031   3.223
  795ACTN    H5 8416   0.734   7.008   3.293
  795ACTN    C2 8417   0.700   7.200   3.200
  795ACTN    O1 8418   0.809   7.246   3.237
  795ACTN    C1 8419   0.622   7.280   3.111
  795ACTN    H1 8420   0.700   7.323   3.048
  795ACTN    H2 8421   0.572   7.362   3.163
  795ACTN    H3 8422   0.554   7.233   3.040
  796ACTN    H6 8423   3.985   4.375   1.932
  796ACTN    C3 8424   3.938   4.466   1.969
  796ACTN    H4 8425   3.850   4.436   2.025
  796ACTN    H5 8426   4.003   4.513   2.043
  796ACTN    C2 8427   3.916   4.552   1.853
  796ACTN    O1 8428   3.880   4.668   1.870
  796ACTN    C1 8429   3.889   4.483   1.724
  796ACTN    H1 8430   3.783   4.458   1.723
  796ACTN    H2 8431   3.957   4.398   1.721
  796ACTN    H3 8432   3.916   4.553   1.644
  797ACTN    H6 8433   1.523   2.115   2.584
  797ACTN    C3 8434   1.592   2.113   2.499
  797ACTN    H4 8435   1.569   2.202   2.440
  797ACTN    H5 8436   1.692   2.115   2.541
  797ACTN    C2 8437   1.574   1.993   2.415
  797ACTN    O1 8438   1.517   1.898   2.458
  797ACTN    C1 8439   1.670   1.977   2.298
  797ACTN    H1 8440   1.725   2.067   2.270
  797ACTN    H2 8441   1.613   1.949   2.209
  797ACTN    H3 8442   1.735   1.895   2.327
  798ACTN    H6 8443   3.097   4.132   6.642
  798ACTN    C3 8444   3.000   4.106   6.684
  798ACTN    H4 8445   2.998   3.997   6.692
  798ACTN    H5 8446   2.971   4.148   6.781
  798ACTN    C2 8447   2.895   4.136   6.580
  798ACTN    O1 8448   2.903   4.083   6.469
  798ACTN    C1 8449   2.793   4.237   6.625
  798ACTN    H1 8450   2.811   4.331   6.572
  798ACTN    H2 8451   2.795   4.254   6.733
  798ACTN    H3 8452   2.696   4.195   6.598
  799ACTN    H6 8453   4.903   3.125   6.987
  799ACTN    C3 8454   4.806   3.119   6.938
  799ACTN    H4 8455   4.813   3.107   6.830
  799ACTN    H5 8456   4.751   3.032   6.976
  799ACTN    C2 8457   4.740   3.252   6.964
  799ACTN    O1 8458   4.695   3.324   6.873
  799ACTN    C1 8459   4.706   3.301   7.101
  799ACTN    H1 8460   4.600   3.319   7.116
  799ACTN    H2 8461   4.760   3.392   7.127
  799ACTN    H3 8462   4.732   3.231   7.180
  800ACTN    H6 8463   6.037   1.251   3.007
  800ACTN    C3 8464   6.049   1.189   3.096
  800ACTN    H4 8465   5.950   1.163   3.134
  800ACTN    H5 8466   6.076   1.258   3.176
  800ACTN    C2 8467   6.146   1.078   3.064
  800ACTN    O1 8468   6.256   1.101   3.022
  800ACTN    C1 8469   6.100   0.934   3.081
  800ACTN    H1 8470   6.058   0.912   3.179
  800ACTN    H2 8471   6.180   0.863   3.057
  800ACTN    H3 8472   6.028   0.910   3.003
  801ACTN    H6 8473   5.001   1.604   0.644
  801ACTN    C3 8474   5.032   1.705   0.670
  801ACTN    H4 8475   4.937   1.759   0.668
  801ACTN    H5 8476   5.080   1.709   0.768
  801ACTN    C2 8477   5.126   1.753   0.565
  801ACTN    O1 8478   5.240   1.783   0.590
  801ACTN    C1 8479   5.087   1.733   0.422
  801ACTN    H1 8480   5.073   1.626   0.404
  801ACTN    H2 8481   5.169   1.776   0.365
  801ACTN    H3 8482   4.995   1.788   0.402
  802ACTN    H6 8483   7.087   6.728   6.332
  802ACTN    C3 8484   7.014   6.649   6.354
  802ACTN    H4 8485   7.061   6.567   6.408
  802ACTN    H5 8486   6.934   6.696   6.410
  802ACTN    C2 8487   6.952   6.604   6.223
  802ACTN    O1 8488   7.003   6.652   6.124
  802ACTN    C1 8489   6.835   6.516   6.217
  802ACTN    H1 8490   6.857   6.425   6.272
  802ACTN    H2 8491   6.803   6.507   6.113
  802ACTN    H3 8492   6.750   6.566   6.264
  803ACTN    H6 8493   4.891   2.572   0.096
  803ACTN    C3 8494   4.916   2.674   0.127
  803ACTN    H4 8495   5.023   2.673   0.146
  803ACTN    H5 8496   4.888   2.746   0.050
  803ACTN    C2 8497   4.854   2.706   0.258
  803ACTN    O1 8498   4.804   2.815   0.286
  803ACTN    C1 8499   4.865   2.604   0.371
  803ACTN    H1 8500   4.818   2.508   0.350
  803ACTN    H2 8501   4.819   2.635   0.464
  803ACTN    H3 8502   4.970   2.578   0.385
  804ACTN    H6 8503   0.243   1.099   4.612
  804ACTN    C3 8504   0.247   1.009   4.550
  804ACTN    H4 8505   0.144   0.986   4.524
  804ACTN    H5 8506   0.284   0.930   4.616
  804ACTN    C2 8507   0.333   1.035   4.436
  804ACTN    O1 8508   0.347   1.152   4.409
  804ACTN    C1 8509   0.386   0.922   4.360
  804ACTN    H1 8510   0.459   0.959   4.288
  804ACTN    H2 8511   0.303   0.876   4.307
  804ACTN    H3 8512   0.440   0.853   4.424
  805ACTN    H6 8513   6.795   3.032   2.351
  805ACTN    C3 8514   6.794   2.958   2.431
  805ACTN    H4 8515   6.814   2.862   2.383
  805ACTN    H5 8516   6.876   2.972   2.501
  805ACTN    C2 8517   6.665   2.952   2.506
  805ACTN    O1 8518   6.603   3.057   2.516
  805ACTN    C1 8519   6.624   2.823   2.562
  805ACTN    H1 8520   6.517   2.802   2.567
  805ACTN    H2 8521   6.653   2.822   2.667
  805ACTN    H3 8522   6.670   2.730   2.530
  806ACTN    H6 8523   6.186   3.892   1.074
  806ACTN    C3 8524   6.196   3.997   1.100
  806ACTN    H4 8525   6.303   4.015   1.113
  806ACTN    H5 8526   6.169   4.043   1.005
  806ACTN    C2 8527   6.097   4.034   1.203
  806ACTN    O1 8528   6.001   4.107   1.175
  806ACTN    C1 8529   6.113   3.965   1.342
  806ACTN    H1 8530   6.052   4.018   1.415
  806ACTN    H2 8531   6.213   3.973   1.384
  806ACTN    H3 8532   6.086   3.860   1.339
  807ACTN    H6 8533   6.393   4.341   3.131
  807ACTN    C3 8534   6.420   4.275   3.214
  807ACTN    H4 8535   6.354   4.299   3.298
  807ACTN    H5 8536   6.415   4.170   3.187
  807ACTN    C2 8537   6.564   4.305   3.266
  807ACTN    O1 8538   6.602   4.287   3.379
  807ACTN    C1 8539   6.648   4.391   3.183
  807ACTN    H1 8540   6.584   4.459   3.126
  807ACTN    H2 8541   6.707   4.331   3.114
  807ACTN    H3 8542   6.720   4.449   3.240
  808ACTN    H6 8543   6.362   1.755   7.030
  808ACTN    C3 8544   6.338   1.730   6.926
  808ACTN    H4 8545   6.431   1.716   6.871
  808ACTN    H5 8546   6.285   1.634   6.927
  808ACTN    C2 8547   6.245   1.827   6.851
  808ACTN    O1 8548   6.285   1.873   6.745
  808ACTN    C1 8549   6.103   1.855   6.889
  808ACTN    H1 8550   6.083   1.961   6.875
  808ACTN    H2 8551   6.085   1.823   6.992
  808ACTN    H3 8552   6.031   1.805   6.824
  809ACTN    H6 8553   3.940   4.033   6.192
  809ACTN    C3 8554   3.980   3.941   6.149
  809ACTN    H4 8555   3.928   3.864   6.205
  809ACTN    H5 8556   3.949   3.928   6.045
  809ACTN    C2 8557   4.132   3.956   6.164
  809ACTN    O1 8558   4.204   3.944   6.065
  809ACTN    C1 8559   4.188   3.990   6.295
  809ACTN    H1 8560   4.238   4.087   6.287
  809ACTN    H2 8561   4.252   3.909   6.331
  809ACTN    H3 8562   4.104   4.002   6.363
  810ACTN    H6 8563   1.195   5.393   3.342
  810ACTN    C3 8564   1.286   5.334   3.343
  810ACTN    H4 8565   1.278   5.261   3.424
  810ACTN    H5 8566   1.282   5.295   3.242
  810ACTN    C2 8567   1.396   5.430   3.368
  810ACTN    O1 8568   1.382   5.548   3.334
  810ACTN    C1 8569   1.530   5.368   3.386
  810ACTN    H1 8570   1.515   5.261   3.372
  810ACTN    H2 8571   1.559   5.399   3.486
  810ACTN    H3 8572   1.607   5.397   3.315
  811ACTN    H6 8573   3.415   0.972   4.185
  811ACTN    C3 8574   3.517   0.999   4.159
  811ACTN    H4 8575   3.559   0.928   4.087
  811ACTN    H5 8576   3.512   1.099   4.116
  811ACTN    C2 8577   3.613   1.007   4.273
  811ACTN    O1 8578   3.587   1.014   4.394
  811ACTN    C1 8579   3.757   1.025   4.245
  811ACTN    H1 8580   3.785   1.127   4.272
  811ACTN    H2 8581   3.774   1.021   4.138
  811ACTN    H3 8582   3.817   0.949   4.294
  812ACTN    H6 8583   1.924   5.438   0.907
  812ACTN    C3 8584   2.002   5.514   0.902
  812ACTN    H4 8585   2.061   5.486   0.815
  812ACTN    H5 8586   1.948   5.604   0.876
  812ACTN    C2 8587   2.087   5.535   1.028
  812ACTN    O1 8588   2.032   5.550   1.135
  812ACTN    C1 8589   2.232   5.498   1.024
  812ACTN    H1 8590   2.251   5.418   1.096
  812ACTN    H2 8591   2.295   5.578   1.063
  812ACTN    H3 8592   2.272   5.465   0.929
  813ACTN    H6 8593   5.178   1.542   6.645
  813ACTN    C3 8594   5.192   1.645   6.613
  813ACTN    H4 8595   5.248   1.642   6.520
  813ACTN    H5 8596   5.095   1.678   6.578
  813ACTN    C2 8597   5.265   1.729   6.710
  813ACTN    O1 8598   5.286   1.688   6.822
  813ACTN    C1 8599   5.280   1.868   6.677
  813ACTN    H1 8600   5.186   1.916   6.706
  813ACTN    H2 8601   5.295   1.876   6.570
  813ACTN    H3 8602   5.358   1.925   6.728
  814ACTN    H6 8603   2.946   0.673   6.949
  814ACTN    C3 8604   3.033   0.708   6.893
  814ACTN    H4 8605   3.002   0.785   6.822
  814ACTN    H5 8606   3.102   0.747   6.968
  814ACTN    C2 8607   3.107   0.608   6.818
  814ACTN    O1 8608   3.224   0.581   6.844
  814ACTN    C1 8609   3.040   0.530   6.714
  814ACTN    H1 8610   2.940   0.561   6.687
  814ACTN    H2 8611   3.040   0.426   6.747
  814ACTN    H3 8612   3.104   0.537   6.626
  815ACTN    H6 8613   7.157   3.879   1.659
  815ACTN    C3 8614   7.185   3.921   1.562
  815ACTN    H4 8615   7.218   3.837   1.502
  815ACTN    H5 8616   7.101   3.961   1.505
  815ACTN    C2 8617   7.304   4.010   1.584
  815ACTN    O1 8618   7.292   4.103   1.665
  815ACTN    C1 8619   7.434   3.992   1.520
  815ACTN    H1 8620   7.514   4.052   1.563
  815ACTN    H2 8621   7.424   4.024   1.416
  815ACTN    H3 8622   7.463   3.887   1.530
  816ACTN    H6 8623   5.359   1.729   6.063
  816ACTN    C3 8624   5.295   1.648   6.027
  816ACTN    H4 8625   5.216   1.616   6.095
  816ACTN    H5 8626   5.243   1.690   5.941
  816ACTN    C2 8627   5.379   1.536   5.987
  816ACTN    O1 8628   5.410   1.459   6.075
  816ACTN    C1 8629   5.395   1.507   5.841
  816ACTN    H1 8630   5.476   1.435   5.832
  816ACTN    H2 8631   5.418   1.593   5.778
  816ACTN    H3 8632   5.304   1.459   5.805
  817ACTN    H6 8633   3.820   2.811   0.990
  817ACTN    C3 8634   3.841   2.826   0.884
  817ACTN    H4 8635   3.775   2.911   0.865
  817ACTN    H5 8636   3.804   2.749   0.817
  817ACTN    C2 8637   3.983   2.857   0.854
  817ACTN    O1 8638   4.004   2.923   0.752
  817ACTN    C1 8639   4.081   2.852   0.967
  817ACTN    H1 8640   4.044   2.919   1.044
  817ACTN    H2 8641   4.178   2.885   0.931
  817ACTN    H3 8642   4.097   2.756   1.018
  818ACTN    H6 8643   6.723   3.324   0.614
  818ACTN    C3 8644   6.759   3.253   0.540
  818ACTN    H4 8645   6.736   3.280   0.437
  818ACTN    H5 8646   6.868   3.258   0.548
  818ACTN    C2 8647   6.675   3.131   0.563
  818ACTN    O1 8648   6.575   3.127   0.636
  818ACTN    C1 8649   6.691   3.007   0.475
  818ACTN    H1 8650   6.768   3.024   0.399
  818ACTN    H2 8651   6.602   2.972   0.423
  818ACTN    H3 8652   6.728   2.922   0.533
  819ACTN    H6 8653   3.468   1.607   3.457
  819ACTN    C3 8654   3.377   1.661   3.431
  819ACTN    H4 8655   3.346   1.716   3.519
  819ACTN    H5 8656   3.398   1.727   3.346
  819ACTN    C2 8657   3.268   1.562   3.398
  819ACTN    O1 8658   3.259   1.464   3.464
  819ACTN    C1 8659   3.166   1.591   3.302
  819ACTN    H1 8660   3.162   1.516   3.223
  819ACTN    H2 8661   3.184   1.688   3.256
  819ACTN    H3 8662   3.070   1.589   3.355
  820ACTN    H6 8663   3.645   4.115   1.676
  820ACTN    C3 8664   3.717   4.188   1.638
  820ACTN    H4 8665   3.664   4.283   1.641
  820ACTN    H5 8666   3.802   4.193   1.706
  820ACTN    C2 8667   3.749   4.154   1.497
  820ACTN    O1 8668   3.779   4.245   1.417
  820ACTN    C1 8669   3.789   4.013   1.468
  820ACTN    H1 8670   3.874   4.011   1.400
  820ACTN    H2 8671   3.702   3.964   1.423
  820ACTN    H3 8672   3.822   3.970   1.563
  821ACTN    H6 8673   2.223   0.455   2.527
  821ACTN    C3 8674   2.185   0.462   2.425
  821ACTN    H4 8675   2.095   0.401   2.420
  821ACTN    H5 8676   2.146   0.564   2.416
  821ACTN    C2 8677   2.288   0.440   2.324
  821ACTN    O1 8678   2.297   0.338   2.264
  821ACTN    C1 8679   2.411   0.528   2.331
  821ACTN    H1 8680   2.431   0.579   2.237
  821ACTN    H2 8681   2.495   0.462   2.354
  821ACTN    H3 8682   2.402   0.605   2.408
  822ACTN    H6 8683   6.948   2.469   6.558
  822ACTN    C3 8684   6.943   2.436   6.662
  822ACTN    H4 8685   6.939   2.523   6.728
  822ACTN    H5 8686   6.848   2.384   6.666
  822ACTN    C2 8687   7.051   2.342   6.699
  822ACTN    O1 8688   7.031   2.270   6.795
  822ACTN    C1 8689   7.185   2.349   6.631
  822ACTN    H1 8690   7.215   2.252   6.593
  822ACTN    H2 8691   7.257   2.373   6.710
  822ACTN    H3 8692   7.192   2.411   6.542
  823ACTN    H6 8693   4.891   2.143   7.198
  823ACTN    C3 8694   4.983   2.154   7.140
  823ACTN    H4 8695   5.044   2.064   7.151
  823ACTN    H5 8696   4.965   2.160   7.033
  823ACTN    C2 8697   5.052   2.280   7.183
  823ACTN    O1 8698   5.171   2.287   7.200
  823ACTN    C1 8699   4.976   2.400   7.228
  823ACTN    H1 8700   4.992   2.468   7.144
  823ACTN    H2 8701   5.011   2.440   7.323
  823ACTN    H3 8702   4.871   2.378   7.249
  824ACTN    H6 8703   4.417   1.867   6.365
  824ACTN    C3 8704   4.363   1.961   6.378
  824ACTN    H4 8705   4.261   1.932   6.404
  824ACTN    H5 8706   4.408   2.023   6.455
  824ACTN    C2 8707   4.347   2.044   6.249
  824ACTN    O1 8708   4.349   2.166   6.247
  824ACTN    C1 8709   4.340   1.973   6.114
  824ACTN    H1 8710   4.236   1.976   6.081
  824ACTN    H2 8711   4.375   1.870   6.118
  824ACTN    H3 8712   4.401   2.019   6.036
  825ACTN    H6 8713   7.262   1.299   6.593
  825ACTN    C3 8714   7.153   1.299   6.581
  825ACTN    H4 8715   7.103   1.233   6.652
  825ACTN    H5 8716   7.121   1.402   6.596
  825ACTN    C2 8717   7.112   1.257   6.446
  825ACTN    O1 8718   7.076   1.341   6.368
  825ACTN    C1 8719   7.139   1.116   6.389
  825ACTN    H1 8720   7.206   1.072   6.461
  825ACTN    H2 8721   7.188   1.117   6.291
  825ACTN    H3 8722   7.050   1.053   6.387
  826ACTN    H6 8723   4.735   2.451   2.393
  826ACTN    C3 8724   4.742   2.401   2.489
  826ACTN    H4 8725   4.741   2.477   2.567
  826ACTN    H5 8726   4.667   2.326   2.516
  826ACTN    C2 8727   4.883   2.339   2.505
  826ACTN    O1 8728   4.936   2.350   2.612
  826ACTN    C1 8729   4.963   2.295   2.386
  826ACTN    H1 8730   4.895   2.299   2.301
  826ACTN    H2 8731   5.002   2.195   2.400
  826ACTN    H3 8732   5.044   2.367   2.371
  827ACTN    H6 8733   3.322   0.526   5.799
  827ACTN    C3 8734   3.228   0.582   5.797
  827ACTN    H4 8735   3.248   0.686   5.820
  827ACTN    H5 8736   3.184   0.592   5.698
  827ACTN    C2 8737   3.124   0.536   5.890
  827ACTN    O1 8738   3.094   0.417   5.895
  827ACTN    C1 8739   3.080   0.633   5.994
  827ACTN    H1 8740   2.999   0.589   6.052
  827ACTN    H2 8741   3.039   0.725   5.951
  827ACTN    H3 8742   3.163   0.670   6.054
  828ACTN    H6 8743   3.064   2.946   3.206
  828ACTN    C3 8744   3.030   2.963   3.104
  828ACTN    H4 8745   2.944   3.028   3.089
  828ACTN    H5 8746   3.104   3.017   3.045
  828ACTN    C2 8747   3.012   2.837   3.017
  828ACTN    O1 8748   2.979   2.730   3.069
  828ACTN    C1 8749   3.021   2.843   2.866
  828ACTN    H1 8750   2.979   2.758   2.811
  828ACTN    H2 8751   3.125   2.851   2.835
  828ACTN    H3 8752   2.973   2.933   2.830
  829ACTN    H6 8753   2.721   6.368   1.055
  829ACTN    C3 8754   2.676   6.454   1.104
  829ACTN    H4 8755   2.740   6.542   1.103
  829ACTN    H5 8756   2.590   6.480   1.042
  829ACTN    C2 8757   2.641   6.431   1.247
  829ACTN    O1 8758   2.561   6.346   1.280
  829ACTN    C1 8759   2.713   6.504   1.354
  829ACTN    H1 8760   2.818   6.481   1.339
  829ACTN    H2 8761   2.688   6.489   1.459
  829ACTN    H3 8762   2.700   6.612   1.340
  830ACTN    H6 8763   5.975   3.665   4.856
  830ACTN    C3 8764   6.000   3.706   4.758
  830ACTN    H4 8765   6.040   3.623   4.699
  830ACTN    H5 8766   5.912   3.742   4.704
  830ACTN    C2 8767   6.104   3.817   4.770
  830ACTN    O1 8768   6.157   3.858   4.670
  830ACTN    C1 8769   6.178   3.848   4.896
  830ACTN    H1 8770   6.287   3.857   4.892
  830ACTN    H2 8771   6.149   3.768   4.964
  830ACTN    H3 8772   6.138   3.940   4.938
  831ACTN    H6 8773   5.392   7.025   5.505
  831ACTN    C3 8774   5.495   7.028   5.539
  831ACTN    H4 8775   5.492   6.990   5.641
  831ACTN    H5 8776   5.544   6.958   5.471
  831ACTN    C2 8777   5.539   7.174   5.532
  831ACTN    O1 8778   5.524   7.248   5.622
  831ACTN    C1 8779   5.626   7.213   5.424
  831ACTN    H1 8780   5.601   7.310   5.382
  831ACTN    H2 8781   5.621   7.144   5.339
  831ACTN    H3 8782   5.727   7.203   5.463
  832ACTN    H6 8783   1.779   5.685   1.865
  832ACTN    C3 8784   1.690   5.659   1.806
  832ACTN    H4 8785   1.708   5.693   1.704
  832ACTN    H5 8786   1.683   5.550   1.807
  832ACTN    C2 8787   1.557   5.704   1.859
  832ACTN    O1 8788   1.488   5.641   1.942
  832ACTN    C1 8789   1.510   5.841   1.805
  832ACTN    H1 8790   1.402   5.852   1.796
  832ACTN    H2 8791   1.552   5.878   1.711
  832ACTN    H3 8792   1.535   5.915   1.881
  833ACTN    H6 8793   7.346   6.529   4.962
  833ACTN    C3 8794   7.300   6.464   4.888
  833ACTN    H4 8795   7.373   6.385   4.871
  833ACTN    H5 8796   7.210   6.415   4.923
  833ACTN    C2 8797   7.276   6.539   4.763
  833ACTN    O1 8798   7.332   6.501   4.655
  833ACTN    C1 8799   7.178   6.648   4.770
  833ACTN    H1 8800   7.128   6.640   4.866
  833ACTN    H2 8801   7.098   6.639   4.696
  833ACTN    H3 8802   7.224   6.747   4.768
  834ACTN    H6 8803   5.614   6.954   4.566
  834ACTN    C3 8804   5.708   6.983   4.613
  834ACTN    H4 8805   5.766   6.899   4.652
  834ACTN    H5 8806   5.764   7.037   4.537
  834ACTN    C2 8807   5.686   7.073   4.728
  834ACTN    O1 8808   5.696   7.038   4.847
  834ACTN    C1 8809   5.646   7.218   4.697
  834ACTN    H1 8810   5.727   7.286   4.722
  834ACTN    H2 8811   5.569   7.245   4.769
  834ACTN    H3 8812   5.620   7.230   4.592
  835ACTN    H6 8813   3.147   2.180   3.572
  835ACTN    C3 8814   3.109   2.158   3.472
  835ACTN    H4 8815   3.040   2.232   3.432
  835ACTN    H5 8816   3.196   2.142   3.408
  835ACTN    C2 8817   3.039   2.026   3.475
  835ACTN    O1 8818   2.964   1.996   3.568
  835ACTN    C1 8819   3.059   1.937   3.362
  835ACTN    H1 8820   3.164   1.919   3.341
  835ACTN    H2 8821   3.014   1.980   3.273
  835ACTN    H3 8822   3.010   1.841   3.380
  836ACTN    H6 8823   7.023   4.347   3.134
  836ACTN    C3 8824   7.115   4.297   3.165
  836ACTN    H4 8825   7.194   4.371   3.153
  836ACTN    H5 8826   7.104   4.281   3.272
  836ACTN    C2 8827   7.146   4.167   3.099
  836ACTN    O1 8828   7.246   4.109   3.132
  836ACTN    C1 8829   7.073   4.124   2.976
  836ACTN    H1 8830   7.131   4.152   2.888
  836ACTN    H2 8831   6.974   4.168   2.970
  836ACTN    H3 8832   7.065   4.016   2.969
  837ACTN    H6 8833   7.375   3.455   4.010
  837ACTN    C3 8834   7.268   3.438   4.019
  837ACTN    H4 8835   7.225   3.376   3.940
  837ACTN    H5 8836   7.250   3.385   4.112
  837ACTN    C2 8837   7.205   3.571   4.030
  837ACTN    O1 8838   7.179   3.614   4.140
  837ACTN    C1 8839   7.229   3.668   3.923
  837ACTN    H1 8840   7.334   3.700   3.923
  837ACTN    H2 8841   7.172   3.759   3.944
  837ACTN    H3 8842   7.202   3.627   3.826
  838ACTN    H6 8843   2.839   5.503   1.842
  838ACTN    C3 8844   2.737   5.540   1.855
  838ACTN    H4 8845   2.734   5.573   1.959
  838ACTN    H5 8846   2.728   5.617   1.779
  838ACTN    C2 8847   2.660   5.420   1.822
  838ACTN    O1 8848   2.585   5.365   1.904
  838ACTN    C1 8849   2.677   5.368   1.677
  838ACTN    H1 8850   2.585   5.381   1.621
  838ACTN    H2 8851   2.700   5.262   1.680
  838ACTN    H3 8852   2.755   5.411   1.614
  839ACTN    H6 8853   1.659   1.782   4.820
  839ACTN    C3 8854   1.767   1.792   4.825
  839ACTN    H4 8855   1.775   1.866   4.905
  839ACTN    H5 8856   1.816   1.698   4.849
  839ACTN    C2 8857   1.825   1.861   4.710
  839ACTN    O1 8858   1.927   1.921   4.724
  839ACTN    C1 8859   1.745   1.890   4.585
  839ACTN    H1 8860   1.655   1.831   4.596
  839ACTN    H2 8861   1.794   1.857   4.494
  839ACTN    H3 8862   1.726   1.997   4.572
  840ACTN    H6 8863   4.460   6.602   1.692
  840ACTN    C3 8864   4.396   6.513   1.692
  840ACTN    H4 8865   4.302   6.539   1.644
  840ACTN    H5 8866   4.447   6.434   1.637
  840ACTN    C2 8867   4.372   6.460   1.831
  840ACTN    O1 8868   4.466   6.459   1.909
  840ACTN    C1 8869   4.228   6.423   1.876
  840ACTN    H1 8870   4.178   6.516   1.904
  840ACTN    H2 8871   4.216   6.358   1.962
  840ACTN    H3 8872   4.168   6.383   1.794
  841ACTN    H6 8873   2.331   3.867   7.433
  841ACTN    C3 8874   2.279   3.813   7.354
  841ACTN    H4 8875   2.303   3.706   7.356
  841ACTN    H5 8876   2.174   3.811   7.383
  841ACTN    C2 8877   2.317   3.869   7.216
  841ACTN    O1 8878   2.296   3.796   7.122
  841ACTN    C1 8879   2.385   4.000   7.186
  841ACTN    H1 8880   2.467   3.985   7.116
  841ACTN    H2 8881   2.432   4.032   7.279
  841ACTN    H3 8882   2.314   4.072   7.146
  842ACTN    H6 8883   0.359   2.155   4.382
  842ACTN    C3 8884   0.292   2.079   4.342
  842ACTN    H4 8885   0.231   2.134   4.271
  842ACTN    H5 8886   0.351   2.007   4.283
  842ACTN    C2 8887   0.208   1.999   4.434
  842ACTN    O1 8888   0.246   1.892   4.484
  842ACTN    C1 8889   0.066   2.043   4.449
  842ACTN    H1 8890   0.025   2.066   4.350
  842ACTN    H2 8891   0.061   2.136   4.504
  842ACTN    H3 8892   0.011   1.965   4.501
  843ACTN    H6 8893   1.923   6.026   4.134
  843ACTN    C3 8894   1.911   6.130   4.165
  843ACTN    H4 8895   2.014   6.162   4.183
  843ACTN    H5 8896   1.864   6.191   4.088
  843ACTN    C2 8897   1.821   6.131   4.284
  843ACTN    O1 8898   1.717   6.079   4.266
  843ACTN    C1 8899   1.837   6.229   4.398
  843ACTN    H1 8900   1.813   6.329   4.363
  843ACTN    H2 8901   1.944   6.231   4.419
  843ACTN    H3 8902   1.786   6.204   4.491
  844ACTN    H6 8903   2.480   2.345   6.466
  844ACTN    C3 8904   2.421   2.396   6.389
  844ACTN    H4 8905   2.339   2.442   6.443
  844ACTN    H5 8906   2.487   2.475   6.355
  844ACTN    C2 8907   2.384   2.299   6.285
  844ACTN    O1 8908   2.445   2.306   6.180
  844ACTN    C1 8909   2.277   2.198   6.306
  844ACTN    H1 8910   2.310   2.094   6.304
  844ACTN    H2 8911   2.194   2.204   6.235
  844ACTN    H3 8912   2.228   2.207   6.403
  845ACTN    H6 8913   0.141   4.337   0.812
  845ACTN    C3 8914   0.067   4.324   0.891
  845ACTN    H4 8915  -0.018   4.260   0.867
  845ACTN    H5 8916   0.114   4.276   0.977
  845ACTN    C2 8917   0.024   4.458   0.940
  845ACTN    O1 8918   0.068   4.505   1.044
  845ACTN    C1 8919  -0.084   4.529   0.871
  845ACTN    H1 8920  -0.049   4.571   0.776
  845ACTN    H2 8921  -0.123   4.610   0.932
  845ACTN    H3 8922  -0.163   4.456   0.858
  846ACTN    H6 8923   1.768   6.977   4.308
  846ACTN    C3 8924   1.843   6.899   4.304
  846ACTN    H4 8925   1.882   6.889   4.203
  846ACTN    H5 8926   1.929   6.927   4.366
  846ACTN    C2 8927   1.803   6.766   4.360
  846ACTN    O1 8928   1.689   6.725   4.359
  846ACTN    C1 8929   1.913   6.668   4.404
  846ACTN    H1 8930   1.981   6.712   4.477
  846ACTN    H2 8931   1.978   6.648   4.318
  846ACTN    H3 8932   1.886   6.575   4.454
  847ACTN    H6 8933   3.563   4.525   1.573
  847ACTN    C3 8934   3.585   4.628   1.603
  847ACTN    H4 8935   3.547   4.650   1.703
  847ACTN    H5 8936   3.693   4.631   1.600
  847ACTN    C2 8937   3.537   4.739   1.511
  847ACTN    O1 8938   3.445   4.706   1.433
  847ACTN    C1 8939   3.597   4.880   1.524
  847ACTN    H1 8940   3.576   4.925   1.427
  847ACTN    H2 8941   3.706   4.878   1.532
  847ACTN    H3 8942   3.555   4.925   1.613
  848ACTN    H6 8943   6.547   3.084   1.980
  848ACTN    C3 8944   6.647   3.054   2.011
  848ACTN    H4 8945   6.673   3.089   2.111
  848ACTN    H5 8946   6.640   2.945   2.010
  848ACTN    C2 8947   6.752   3.105   1.923
  848ACTN    O1 8948   6.781   3.224   1.916
  848ACTN    C1 8949   6.824   3.010   1.828
  848ACTN    H1 8950   6.767   2.995   1.737
  848ACTN    H2 8951   6.835   2.912   1.873
  848ACTN    H3 8952   6.925   3.046   1.805
  849ACTN    H6 8953   6.753   5.873   4.959
  849ACTN    C3 8954   6.845   5.896   4.905
  849ACTN    H4 8955   6.898   5.807   4.871
  849ACTN    H5 8956   6.900   5.953   4.980
  849ACTN    C2 8957   6.803   5.976   4.781
  849ACTN    O1 8958   6.731   6.074   4.789
  849ACTN    C1 8959   6.852   5.909   4.653
  849ACTN    H1 8960   6.808   5.956   4.565
  849ACTN    H2 8961   6.828   5.803   4.656
  849ACTN    H3 8962   6.960   5.912   4.642
  850ACTN    H6 8963   4.180   6.317   2.521
  850ACTN    C3 8964   4.079   6.307   2.482
  850ACTN    H4 8965   4.043   6.408   2.463
  850ACTN    H5 8966   4.077   6.240   2.397
  850ACTN    C2 8967   3.983   6.255   2.589
  850ACTN    O1 8968   4.017   6.258   2.707
  850ACTN    C1 8969   3.852   6.210   2.548
  850ACTN    H1 8970   3.777   6.281   2.583
  850ACTN    H2 8971   3.827   6.110   2.582
  850ACTN    H3 8972   3.853   6.220   2.440
  851ACTN    H6 8973   7.324   6.260   2.594
  851ACTN    C3 8974   7.368   6.186   2.661
  851ACTN    H4 8975   7.408   6.104   2.602
  851ACTN    H5 8976   7.449   6.233   2.716
  851ACTN    C2 8977   7.267   6.137   2.759
  851ACTN    O1 8978   7.274   6.031   2.820
  851ACTN    C1 8979   7.149   6.222   2.782
  851ACTN    H1 8980   7.079   6.189   2.858
  851ACTN    H2 8981   7.092   6.235   2.690
  851ACTN    H3 8982   7.176   6.325   2.806
  852ACTN    H6 8983   6.623   5.773   2.341
  852ACTN    C3 8984   6.544   5.843   2.366
  852ACTN    H4 8985   6.547   5.860   2.474
  852ACTN    H5 8986   6.548   5.941   2.318
  852ACTN    C2 8987   6.404   5.801   2.330
  852ACTN    O1 8988   6.349   5.716   2.404
  852ACTN    C1 8989   6.334   5.876   2.220
  852ACTN    H1 8990   6.335   5.982   2.246
  852ACTN    H2 8991   6.231   5.841   2.217
  852ACTN    H3 8992   6.379   5.859   2.122
  853ACTN    H6 8993   0.243   4.955   3.007
  853ACTN    C3 8994   0.325   4.925   2.942
  853ACTN    H4 8995   0.345   4.822   2.972
  853ACTN    H5 8996   0.296   4.921   2.837
  853ACTN    C2 8997   0.446   5.005   2.967
  853ACTN    O1 8998   0.434   5.117   3.017
  853ACTN    C1 8999   0.569   4.966   2.891
  853ACTN    H1 9000   0.651   5.029   2.925
  853ACTN    H2 9001   0.564   4.981   2.783
  853ACTN    H3 9002   0.608   4.866   2.909
  854ACTN    H6 9003   0.192   4.160   2.503
  854ACTN    C3 9004   0.181   4.112   2.600
  854ACTN    H4 9005   0.147   4.014   2.569
  854ACTN    H5 9006   0.278   4.117   2.650
  854ACTN    C2 9007   0.075   4.167   2.685
  854ACTN    O1 9008  -0.026   4.194   2.629
  854ACTN    C1 9009   0.087   4.187   2.828
  854ACTN    H1 9010   0.050   4.099   2.881
  854ACTN    H2 9011   0.034   4.276   2.860
  854ACTN    H3 9012   0.192   4.198   2.854
  855ACTN    H6 9013   3.930   1.194   4.581
  855ACTN    C3 9014   3.873   1.102   4.598
  855ACTN    H4 9015   3.769   1.117   4.625
  855ACTN    H5 9016   3.890   1.043   4.508
  855ACTN    C2 9017   3.918   1.039   4.726
  855ACTN    O1 9018   3.853   0.956   4.791
  855ACTN    C1 9019   4.051   1.082   4.783
  855ACTN    H1 9020   4.143   1.051   4.735
  855ACTN    H2 9021   4.062   1.047   4.886
  855ACTN    H3 9022   4.062   1.190   4.791
  856ACTN    H6 9023   2.036   6.042   6.413
  856ACTN    C3 9024   1.991   5.991   6.328
  856ACTN    H4 9025   2.075   5.971   6.261
  856ACTN    H5 9026   1.946   5.897   6.359
  856ACTN    C2 9027   1.884   6.070   6.257
  856ACTN    O1 9028   1.839   6.031   6.147
  856ACTN    C1 9029   1.887   6.215   6.286
  856ACTN    H1 9030   1.924   6.269   6.199
  856ACTN    H2 9031   1.948   6.240   6.373
  856ACTN    H3 9032   1.788   6.249   6.315
  857ACTN    H6 9033   2.883   6.225   6.521
  857ACTN    C3 9034   2.834   6.299   6.584
  857ACTN    H4 9035   2.881   6.308   6.682
  857ACTN    H5 9036   2.854   6.398   6.543
  857ACTN    C2 9037   2.691   6.275   6.589
  857ACTN    O1 9038   2.650   6.160   6.568
  857ACTN    C1 9039   2.607   6.385   6.645
  857ACTN    H1 9040   2.533   6.419   6.573
  857ACTN    H2 9041   2.670   6.469   6.672
  857ACTN    H3 9042   2.556   6.352   6.736
  858ACTN    H6 9043   0.439   3.163   0.578
  858ACTN    C3 9044   0.400   3.140   0.479
  858ACTN    H4 9045   0.399   3.232   0.420
  858ACTN    H5 9046   0.469   3.071   0.429
  858ACTN    C2 9047   0.264   3.079   0.482
  858ACTN    O1 9048   0.163   3.147   0.469
  858ACTN    C1 9049   0.244   2.928   0.465
  858ACTN    H1 9050   0.289   2.877   0.550
  858ACTN    H2 9051   0.291   2.890   0.375
  858ACTN    H3 9052   0.138   2.901   0.473
  859ACTN    H6 9053   6.986   1.389   5.369
  859ACTN    C3 9054   6.979   1.453   5.281
  859ACTN    H4 9055   6.883   1.503   5.286
  859ACTN    H5 9056   7.054   1.532   5.290
  859ACTN    C2 9057   7.014   1.378   5.153
  859ACTN    O1 9058   7.084   1.280   5.162
  859ACTN    C1 9059   6.906   1.396   5.048
  859ACTN    H1 9060   6.958   1.364   4.958
  859ACTN    H2 9061   6.882   1.502   5.037
  859ACTN    H3 9062   6.821   1.333   5.072
  860ACTN    H6 9063   6.166   5.709   5.317
  860ACTN    C3 9064   6.253   5.719   5.382
  860ACTN    H4 9065   6.334   5.659   5.341
  860ACTN    H5 9066   6.279   5.824   5.370
  860ACTN    C2 9067   6.221   5.686   5.526
  860ACTN    O1 9068   6.196   5.568   5.557
  860ACTN    C1 9069   6.220   5.787   5.637
  860ACTN    H1 9070   6.245   5.892   5.622
  860ACTN    H2 9071   6.286   5.754   5.717
  860ACTN    H3 9072   6.118   5.787   5.674
  861ACTN    H6 9073   6.656   5.502   2.434
  861ACTN    C3 9074   6.580   5.470   2.505
  861ACTN    H4 9075   6.532   5.557   2.552
  861ACTN    H5 9076   6.500   5.410   2.461
  861ACTN    C2 9077   6.667   5.395   2.603
  861ACTN    O1 9078   6.763   5.450   2.659
  861ACTN    C1 9079   6.632   5.258   2.645
  861ACTN    H1 9080   6.698   5.183   2.602
  861ACTN    H2 9081   6.533   5.228   2.611
  861ACTN    H3 9082   6.630   5.251   2.754
  862ACTN    H6 9083   2.155   1.341   2.506
  862ACTN    C3 9084   2.253   1.293   2.502
  862ACTN    H4 9085   2.277   1.257   2.602
  862ACTN    H5 9086   2.247   1.200   2.446
  862ACTN    C2 9087   2.359   1.385   2.457
  862ACTN    O1 9088   2.468   1.339   2.448
  862ACTN    C1 9089   2.324   1.524   2.414
  862ACTN    H1 9090   2.297   1.520   2.308
  862ACTN    H2 9091   2.417   1.580   2.410
  862ACTN    H3 9092   2.247   1.572   2.474
  863ACTN    H6 9093   1.986   5.021   2.826
  863ACTN    C3 9094   2.078   4.988   2.779
  863ACTN    H4 9095   2.161   4.971   2.847
  863ACTN    H5 9096   2.060   4.890   2.736
  863ACTN    C2 9097   2.115   5.088   2.669
  863ACTN    O1 9098   2.158   5.196   2.705
  863ACTN    C1 9099   2.111   5.046   2.527
  863ACTN    H1 9100   2.209   5.010   2.498
  863ACTN    H2 9101   2.090   5.127   2.456
  863ACTN    H3 9102   2.038   4.966   2.516
  864ACTN    H6 9103   4.073   2.054   6.732
  864ACTN    C3 9104   4.038   2.145   6.682
  864ACTN    H4 9105   3.991   2.125   6.586
  864ACTN    H5 9106   3.975   2.187   6.760
  864ACTN    C2 9107   4.157   2.238   6.667
  864ACTN    O1 9108   4.231   2.214   6.572
  864ACTN    C1 9109   4.178   2.363   6.747
  864ACTN    H1 9110   4.147   2.350   6.851
  864ACTN    H2 9111   4.128   2.448   6.700
  864ACTN    H3 9112   4.284   2.389   6.751
  865ACTN    H6 9113   0.032   5.087   2.424
  865ACTN    C3 9114   0.086   5.147   2.498
  865ACTN    H4 9115   0.185   5.172   2.463
  865ACTN    H5 9116   0.030   5.237   2.523
  865ACTN    C2 9117   0.091   5.072   2.628
  865ACTN    O1 9118   0.120   4.953   2.624
  865ACTN    C1 9119   0.060   5.144   2.752
  865ACTN    H1 9120  -0.002   5.082   2.817
  865ACTN    H2 9121   0.014   5.238   2.724
  865ACTN    H3 9122   0.151   5.166   2.808
  866ACTN    H6 9123   6.625   6.402   4.613
  866ACTN    C3 9124   6.654   6.477   4.687
  866ACTN    H4 9125   6.597   6.569   4.673
  866ACTN    H5 9126   6.636   6.441   4.788
  866ACTN    C2 9127   6.795   6.520   4.695
  866ACTN    O1 9128   6.840   6.597   4.609
  866ACTN    C1 9129   6.882   6.496   4.807
  866ACTN    H1 9130   6.930   6.589   4.840
  866ACTN    H2 9131   6.968   6.437   4.776
  866ACTN    H3 9132   6.835   6.443   4.890
  867ACTN    H6 9133   3.131   1.077   3.066
  867ACTN    C3 9134   3.027   1.049   3.049
  867ACTN    H4 9135   3.027   0.945   3.082
  867ACTN    H5 9136   2.965   1.109   3.115
  867ACTN    C2 9137   2.973   1.060   2.909
  867ACTN    O1 9138   2.958   1.166   2.849
  867ACTN    C1 9139   2.966   0.939   2.829
  867ACTN    H1 9140   2.995   0.955   2.725
  867ACTN    H2 9141   2.861   0.909   2.823
  867ACTN    H3 9142   3.027   0.860   2.873
  868ACTN    H6 9143   5.468   1.283   6.531
  868ACTN    C3 9144   5.558   1.334   6.497
  868ACTN    H4 9145   5.651   1.311   6.549
  868ACTN    H5 9146   5.573   1.301   6.394
  868ACTN    C2 9147   5.554   1.490   6.505
  868ACTN    O1 9148   5.518   1.531   6.617
  868ACTN    C1 9149   5.576   1.584   6.388
  868ACTN    H1 9150   5.545   1.681   6.427
  868ACTN    H2 9151   5.509   1.558   6.305
  868ACTN    H3 9152   5.677   1.595   6.349
  869ACTN    H6 9153   3.970   2.785   1.269
  869ACTN    C3 9154   3.928   2.830   1.359
  869ACTN    H4 9155   3.846   2.767   1.393
  869ACTN    H5 9156   4.003   2.827   1.438
  869ACTN    C2 9157   3.885   2.972   1.338
  869ACTN    O1 9158   3.899   3.059   1.427
  869ACTN    C1 9159   3.805   3.007   1.214
  869ACTN    H1 9160   3.710   3.056   1.235
  869ACTN    H2 9161   3.779   2.921   1.152
  869ACTN    H3 9162   3.858   3.079   1.151
  870ACTN    H6 9163   1.179   0.051   6.380
  870ACTN    C3 9164   1.092   0.081   6.438
  870ACTN    H4 9165   1.061  -0.003   6.501
  870ACTN    H5 9166   1.123   0.163   6.503
  870ACTN    C2 9167   0.977   0.109   6.350
  870ACTN    O1 9168   0.872   0.137   6.402
  870ACTN    C1 9169   0.995   0.118   6.204
  870ACTN    H1 9170   0.901   0.133   6.152
  870ACTN    H2 9171   1.024   0.021   6.164
  870ACTN    H3 9172   1.072   0.190   6.173
  871ACTN    H6 9173   2.375   2.319   4.221
  871ACTN    C3 9174   2.287   2.257   4.206
  871ACTN    H4 9175   2.319   2.162   4.162
  871ACTN    H5 9176   2.226   2.239   4.294
  871ACTN    C2 9177   2.187   2.323   4.115
  871ACTN    O1 9178   2.162   2.265   4.010
  871ACTN    C1 9179   2.108   2.448   4.148
  871ACTN    H1 9180   2.143   2.500   4.237
  871ACTN    H2 9181   2.007   2.417   4.172
  871ACTN    H3 9182   2.104   2.518   4.065
  872ACTN    H6 9183   5.883   3.985   5.562
  872ACTN    C3 9184   5.859   3.967   5.458
  872ACTN    H4 9185   5.803   3.874   5.458
  872ACTN    H5 9186   5.792   4.044   5.418
  872ACTN    C2 9187   5.976   3.952   5.364
  872ACTN    O1 9188   6.085   3.931   5.416
  872ACTN    C1 9189   5.945   3.914   5.219
  872ACTN    H1 9190   5.966   4.004   5.161
  872ACTN    H2 9191   5.838   3.898   5.207
  872ACTN    H3 9192   6.001   3.827   5.185
  873ACTN    H6 9193   7.196   2.362   2.321
  873ACTN    C3 9194   7.149   2.423   2.397
  873ACTN    H4 9195   7.055   2.377   2.427
  873ACTN    H5 9196   7.208   2.421   2.489
  873ACTN    C2 9197   7.124   2.561   2.345
  873ACTN    O1 9198   7.033   2.621   2.411
  873ACTN    C1 9199   7.149   2.603   2.200
  873ACTN    H1 9200   7.182   2.707   2.190
  873ACTN    H2 9201   7.051   2.597   2.153
  873ACTN    H3 9202   7.219   2.543   2.141
  874ACTN    H6 9203   1.201   1.370   4.437
  874ACTN    C3 9204   1.148   1.355   4.343
  874ACTN    H4 9205   1.139   1.248   4.328
  874ACTN    H5 9206   1.053   1.408   4.353
  874ACTN    C2 9207   1.209   1.420   4.227
  874ACTN    O1 9208   1.239   1.541   4.228
  874ACTN    C1 9209   1.247   1.332   4.111
  874ACTN    H1 9210   1.221   1.385   4.019
  874ACTN    H2 9211   1.187   1.241   4.112
  874ACTN    H3 9212   1.352   1.307   4.096
  875ACTN    H6 9213   2.219   1.756   5.726
  875ACTN    C3 9214   2.190   1.777   5.623
  875ACTN    H4 9215   2.128   1.866   5.635
  875ACTN    H5 9216   2.279   1.800   5.564
  875ACTN    C2 9217   2.122   1.663   5.559
  875ACTN    O1 9218   2.068   1.680   5.452
  875ACTN    C1 9219   2.111   1.532   5.613
  875ACTN    H1 9220   2.166   1.530   5.707
  875ACTN    H2 9221   2.141   1.452   5.545
  875ACTN    H3 9222   2.005   1.513   5.633
  876ACTN    H6 9223   0.902   2.644   3.237
  876ACTN    C3 9224   0.807   2.694   3.254
  876ACTN    H4 9225   0.827   2.792   3.298
  876ACTN    H5 9226   0.753   2.719   3.163
  876ACTN    C2 9227   0.730   2.622   3.357
  876ACTN    O1 9228   0.789   2.603   3.467
  876ACTN    C1 9229   0.577   2.603   3.334
  876ACTN    H1 9230   0.561   2.546   3.243
  876ACTN    H2 9231   0.527   2.700   3.333
  876ACTN    H3 9232   0.533   2.543   3.414
  877ACTN    H6 9233   0.020   1.507   4.221
  877ACTN    C3 9234   0.059   1.490   4.322
  877ACTN    H4 9235  -0.008   1.539   4.393
  877ACTN    H5 9236   0.063   1.383   4.343
  877ACTN    C2 9237   0.191   1.566   4.340
  877ACTN    O1 9238   0.216   1.646   4.249
  877ACTN    C1 9239   0.306   1.522   4.424
  877ACTN    H1 9240   0.404   1.540   4.380
  877ACTN    H2 9241   0.297   1.414   4.435
  877ACTN    H3 9242   0.303   1.568   4.523
  878ACTN    H6 9243   1.945   7.275   3.759
  878ACTN    C3 9244   1.948   7.199   3.836
  878ACTN    H4 9245   1.882   7.118   3.805
  878ACTN    H5 9246   2.050   7.163   3.851
  878ACTN    C2 9247   1.902   7.242   3.971
  878ACTN    O1 9248   1.811   7.327   3.978
  878ACTN    C1 9249   1.936   7.157   4.090
  878ACTN    H1 9250   2.044   7.151   4.101
  878ACTN    H2 9251   1.897   7.057   4.071
  878ACTN    H3 9252   1.896   7.197   4.183
  879ACTN    H6 9253   7.122   7.095   3.159
  879ACTN    C3 9254   7.140   7.202   3.160
  879ACTN    H4 9255   7.047   7.248   3.194
  879ACTN    H5 9256   7.203   7.223   3.246
  879ACTN    C2 9257   7.191   7.270   3.039
  879ACTN    O1 9258   7.140   7.376   3.002
  879ACTN    C1 9259   7.337   7.236   3.000
  879ACTN    H1 9260   7.389   7.332   2.993
  879ACTN    H2 9261   7.344   7.191   2.901
  879ACTN    H3 9262   7.389   7.173   3.071
  880ACTN    H6 9263   4.891   1.715   1.892
  880ACTN    C3 9264   4.883   1.753   1.790
  880ACTN    H4 9265   4.794   1.708   1.748
  880ACTN    H5 9266   4.877   1.862   1.793
  880ACTN    C2 9267   5.000   1.706   1.721
  880ACTN    O1 9268   5.072   1.787   1.664
  880ACTN    C1 9269   5.042   1.559   1.724
  880ACTN    H1 9270   4.952   1.498   1.715
  880ACTN    H2 9271   5.071   1.537   1.827
  880ACTN    H3 9272   5.118   1.523   1.655
  881ACTN    H6 9273   3.476   0.587   5.460
  881ACTN    C3 9274   3.502   0.487   5.426
  881ACTN    H4 9275   3.465   0.494   5.323
  881ACTN    H5 9276   3.609   0.470   5.425
  881ACTN    C2 9277   3.423   0.393   5.505
  881ACTN    O1 9278   3.300   0.382   5.493
  881ACTN    C1 9279   3.498   0.297   5.599
  881ACTN    H1 9280   3.603   0.325   5.605
  881ACTN    H2 9281   3.499   0.199   5.552
  881ACTN    H3 9282   3.452   0.291   5.697
  882ACTN    H6 9283   2.584   1.916   2.769
  882ACTN    C3 9284   2.545   1.951   2.865
  882ACTN    H4 9285   2.625   1.976   2.935
  882ACTN    H5 9286   2.491   2.045   2.853
  882ACTN    C2 9287   2.465   1.845   2.930
  882ACTN    O1 9288   2.475   1.734   2.884
  882ACTN    C1 9289   2.398   1.881   3.062
  882ACTN    H1 9290   2.403   1.987   3.085
  882ACTN    H2 9291   2.434   1.820   3.145
  882ACTN    H3 9292   2.296   1.854   3.037
  883ACTN    H6 9293   1.432   5.739   3.622
  883ACTN    C3 9294   1.390   5.830   3.664
  883ACTN    H4 9295   1.308   5.808   3.733
  883ACTN    H5 9296   1.475   5.875   3.714
  883ACTN    C2 9297   1.344   5.931   3.561
  883ACTN    O1 9298   1.421   6.021   3.525
  883ACTN    C1 9299   1.209   5.895   3.505
  883ACTN    H1 9300   1.230   5.809   3.440
  883ACTN    H2 9301   1.165   5.969   3.438
  883ACTN    H3 9302   1.149   5.858   3.589
  884ACTN    H6 9303   0.214   4.723  -0.041
  884ACTN    C3 9304   0.217   4.719   0.068
  884ACTN    H4 9305   0.111   4.718   0.094
  884ACTN    H5 9306   0.248   4.618   0.095
  884ACTN    C2 9307   0.309   4.823   0.125
  884ACTN    O1 9308   0.274   4.879   0.223
  884ACTN    C1 9309   0.450   4.807   0.085
  884ACTN    H1 9310   0.476   4.888   0.017
  884ACTN    H2 9311   0.460   4.717   0.026
  884ACTN    H3 9312   0.509   4.799   0.176
  885ACTN    H6 9313   1.885   3.153   5.267
  885ACTN    C3 9314   1.949   3.234   5.301
  885ACTN    H4 9315   1.917   3.271   5.399
  885ACTN    H5 9316   1.931   3.315   5.231
  885ACTN    C2 9317   2.092   3.184   5.309
  885ACTN    O1 9318   2.162   3.193   5.210
  885ACTN    C1 9319   2.128   3.087   5.417
  885ACTN    H1 9320   2.213   3.022   5.393
  885ACTN    H2 9321   2.041   3.023   5.430
  885ACTN    H3 9322   2.161   3.136   5.509
  886ACTN    H6 9323   3.244   4.403   6.678
  886ACTN    C3 9324   3.312   4.334   6.728
  886ACTN    H4 9325   3.312   4.249   6.659
  886ACTN    H5 9326   3.410   4.381   6.731
  886ACTN    C2 9327   3.277   4.300   6.868
  886ACTN    O1 9328   3.353   4.227   6.923
  886ACTN    C1 9329   3.169   4.375   6.940
  886ACTN    H1 9330   3.131   4.462   6.886
  886ACTN    H2 9331   3.197   4.405   7.041
  886ACTN    H3 9332   3.080   4.312   6.944
  887ACTN    H6 9333   3.368   0.861   5.193
  887ACTN    C3 9334   3.334   0.875   5.296
  887ACTN    H4 9335   3.402   0.820   5.361
  887ACTN    H5 9336   3.337   0.982   5.317
  887ACTN    C2 9337   3.183   0.834   5.301
  887ACTN    O1 9338   3.132   0.757   5.220
  887ACTN    C1 9339   3.125   0.860   5.439
  887ACTN    H1 9340   3.157   0.955   5.482
  887ACTN    H2 9341   3.142   0.779   5.510
  887ACTN    H3 9342   3.016   0.861   5.429
  888ACTN    H6 9343   1.179   7.145   0.104
  888ACTN    C3 9344   1.117   7.072   0.155
  888ACTN    H4 9345   1.036   7.029   0.096
  888ACTN    H5 9346   1.186   6.989   0.170
  888ACTN    C2 9347   1.077   7.105   0.295
  888ACTN    O1 9348   0.963   7.096   0.336
  888ACTN    C1 9349   1.183   7.162   0.382
  888ACTN    H1 9350   1.146   7.234   0.454
  888ACTN    H2 9351   1.257   7.216   0.323
  888ACTN    H3 9352   1.232   7.082   0.438
  889ACTN    H6 9353   0.239   0.636   2.331
  889ACTN    C3 9354   0.295   0.717   2.378
  889ACTN    H4 9355   0.306   0.682   2.481
  889ACTN    H5 9356   0.397   0.715   2.341
  889ACTN    C2 9357   0.239   0.856   2.354
  889ACTN    O1 9358   0.160   0.909   2.434
  889ACTN    C1 9359   0.237   0.899   2.216
  889ACTN    H1 9360   0.301   0.985   2.199
  889ACTN    H2 9361   0.140   0.935   2.183
  889ACTN    H3 9362   0.277   0.818   2.155
  890ACTN    H6 9363   3.044   6.724   3.425
  890ACTN    C3 9364   2.977   6.650   3.469
  890ACTN    H4 9365   2.960   6.575   3.391
  890ACTN    H5 9366   3.025   6.598   3.552
  890ACTN    C2 9367   2.856   6.716   3.516
  890ACTN    O1 9368   2.743   6.684   3.476
  890ACTN    C1 9369   2.873   6.842   3.595
  890ACTN    H1 9370   2.971   6.829   3.642
  890ACTN    H2 9371   2.804   6.861   3.678
  890ACTN    H3 9372   2.865   6.930   3.532
  891ACTN    H6 9373   4.979   0.541   5.485
  891ACTN    C3 9374   5.042   0.521   5.571
  891ACTN    H4 9375   5.005   0.590   5.648
  891ACTN    H5 9376   5.017   0.420   5.602
  891ACTN    C2 9377   5.185   0.514   5.559
  891ACTN    O1 9378   5.229   0.495   5.445
  891ACTN    C1 9379   5.279   0.523   5.678
  891ACTN    H1 9380   5.229   0.515   5.774
  891ACTN    H2 9381   5.336   0.616   5.675
  891ACTN    H3 9382   5.343   0.435   5.687
  892ACTN    H6 9383   3.862   5.974   1.461
  892ACTN    C3 9384   3.952   5.925   1.500
  892ACTN    H4 9385   4.029   5.987   1.454
  892ACTN    H5 9386   3.953   5.928   1.608
  892ACTN    C2 9387   3.968   5.785   1.453
  892ACTN    O1 9388   4.007   5.691   1.523
  892ACTN    C1 9389   3.931   5.756   1.315
  892ACTN    H1 9390   3.854   5.678   1.320
  892ACTN    H2 9391   4.028   5.734   1.271
  892ACTN    H3 9392   3.894   5.844   1.263
  893ACTN    H6 9393   2.371   6.275   2.984
  893ACTN    C3 9394   2.453   6.219   3.029
  893ACTN    H4 9395   2.543   6.281   3.022
  893ACTN    H5 9396   2.427   6.191   3.131
  893ACTN    C2 9397   2.484   6.105   2.940
  893ACTN    O1 9398   2.578   6.030   2.966
  893ACTN    C1 9399   2.414   6.069   2.818
  893ACTN    H1 9400   2.363   6.156   2.777
  893ACTN    H2 9401   2.348   5.986   2.844
  893ACTN    H3 9402   2.484   6.034   2.743
  894ACTN    H6 9403   6.932   0.194   3.785
  894ACTN    C3 9404   6.973   0.182   3.685
  894ACTN    H4 9405   6.908   0.221   3.607
  894ACTN    H5 9406   7.067   0.238   3.684
  894ACTN    C2 9407   6.986   0.042   3.648
  894ACTN    O1 9408   6.891  -0.036   3.660
  894ACTN    C1 9409   7.121   0.005   3.579
  894ACTN    H1 9410   7.110  -0.051   3.486
  894ACTN    H2 9411   7.194  -0.035   3.649
  894ACTN    H3 9412   7.156   0.101   3.541
  895ACTN    H6 9413   6.477   2.892   5.768
  895ACTN    C3 9414   6.471   2.833   5.677
  895ACTN    H4 9415   6.461   2.726   5.698
  895ACTN    H5 9416   6.380   2.860   5.622
  895ACTN    C2 9417   6.596   2.868   5.598
  895ACTN    O1 9418   6.602   2.893   5.474
  895ACTN    C1 9419   6.716   2.827   5.668
  895ACTN    H1 9420   6.757   2.918   5.713
  895ACTN    H2 9421   6.795   2.787   5.604
  895ACTN    H3 9422   6.699   2.760   5.753
  896ACTN    H6 9423   6.024   1.406   5.572
  896ACTN    C3 9424   6.112   1.343   5.581
  896ACTN    H4 9425   6.204   1.399   5.563
  896ACTN    H5 9426   6.104   1.272   5.498
  896ACTN    C2 9427   6.129   1.271   5.713
  896ACTN    O1 9428   6.051   1.291   5.808
  896ACTN    C1 9429   6.252   1.183   5.730
  896ACTN    H1 9430   6.299   1.198   5.827
  896ACTN    H2 9431   6.327   1.213   5.656
  896ACTN    H3 9432   6.225   1.080   5.711
  897ACTN    H6 9433   1.507   0.829   4.962
  897ACTN    C3 9434   1.441   0.751   4.999
  897ACTN    H4 9435   1.338   0.788   5.008
  897ACTN    H5 9436   1.459   0.669   4.929
  897ACTN    C2 9437   1.490   0.706   5.139
  897ACTN    O1 9438   1.481   0.779   5.237
  897ACTN    C1 9439   1.492   0.555   5.159
  897ACTN    H1 9440   1.389   0.521   5.143
  897ACTN    H2 9441   1.536   0.533   5.256
  897ACTN    H3 9442   1.551   0.511   5.079
  898ACTN    H6 9443   1.171   5.189   6.092
  898ACTN    C3 9444   1.214   5.152   6.185
  898ACTN    H4 9445   1.136   5.154   6.262
  898ACTN    H5 9446   1.240   5.047   6.172
  898ACTN    C2 9447   1.331   5.241   6.212
  898ACTN    O1 9448   1.351   5.266   6.325
  898ACTN    C1 9449   1.424   5.262   6.098
  898ACTN    H1 9450   1.371   5.299   6.010
  898ACTN    H2 9451   1.466   5.167   6.064
  898ACTN    H3 9452   1.499   5.337   6.123
  899ACTN    H6 9453   4.859   0.207   1.101
  899ACTN    C3 9454   4.962   0.241   1.087
  899ACTN    H4 9455   5.017   0.251   1.181
  899ACTN    H5 9456   5.018   0.173   1.024
  899ACTN    C2 9457   4.946   0.372   1.027
  899ACTN    O1 9458   4.918   0.366   0.907
  899ACTN    C1 9459   5.010   0.492   1.085
  899ACTN    H1 9460   4.995   0.574   1.015
  899ACTN    H2 9461   5.118   0.477   1.092
  899ACTN    H3 9462   4.965   0.510   1.183
  900ACTN    H6 9463   4.127   5.938   6.685
  900ACTN    C3 9464   4.162   6.039   6.706
  900ACTN    H4 9465   4.205   6.025   6.805
  900ACTN    H5 9466   4.243   6.060   6.636
  900ACTN    C2 9467   4.061   6.146   6.700
  900ACTN    O1 9468   4.004   6.158   6.592
  900ACTN    C1 9469   4.038   6.253   6.804
  900ACTN    H1 9470   3.934   6.270   6.832
  900ACTN    H2 9471   4.081   6.347   6.770
  900ACTN    H3 9472   4.084   6.216   6.896
  901ACTN    H6 9473   1.379   6.614   4.274
  901ACTN    C3 9474   1.301   6.637   4.201
  901ACTN    H4 9475   1.343   6.632   4.101
  901ACTN    H5 9476   1.267   6.739   4.219
  901ACTN    C2 9477   1.196   6.537   4.214
  901ACTN    O1 9478   1.195   6.478   4.320
  901ACTN    C1 9479   1.096   6.516   4.101
  901ACTN    H1 9480   1.053   6.416   4.101
  901ACTN    H2 9481   1.145   6.521   4.004
  901ACTN    H3 9482   1.015   6.588   4.104
  902ACTN    H6 9483   1.884   1.484   3.303
  902ACTN    C3 9484   1.873   1.592   3.297
  902ACTN    H4 9485   1.894   1.624   3.399
  902ACTN    H5 9486   1.949   1.623   3.225
  902ACTN    C2 9487   1.740   1.633   3.251
  902ACTN    O1 9488   1.704   1.748   3.270
  902ACTN    C1 9489   1.683   1.548   3.150
  902ACTN    H1 9490   1.675   1.449   3.194
  902ACTN    H2 9491   1.754   1.527   3.069
  902ACTN    H3 9492   1.589   1.583   3.108
  903ACTN    H6 9493   6.745   3.498   3.679
  903ACTN    C3 9494   6.647   3.543   3.695
  903ACTN    H4 9495   6.618   3.596   3.603
  903ACTN    H5 9496   6.651   3.615   3.776
  903ACTN    C2 9497   6.541   3.437   3.723
  903ACTN    O1 9498   6.425   3.450   3.705
  903ACTN    C1 9499   6.585   3.294   3.762
  903ACTN    H1 9500   6.567   3.228   3.677
  903ACTN    H2 9501   6.522   3.266   3.847
  903ACTN    H3 9502   6.691   3.294   3.786
  904ACTN    H6 9503   2.106   0.173   6.106
  904ACTN    C3 9504   2.092   0.217   6.007
  904ACTN    H4 9505   2.187   0.233   5.957
  904ACTN    H5 9506   2.019   0.155   5.954
  904ACTN    C2 9507   2.024   0.345   6.017
  904ACTN    O1 9508   2.088   0.448   6.013
  904ACTN    C1 9509   1.885   0.354   6.064
  904ACTN    H1 9510   1.894   0.369   6.172
  904ACTN    H2 9511   1.825   0.263   6.052
  904ACTN    H3 9512   1.834   0.442   6.025
  905ACTN    H6 9513   6.746   4.981   6.234
  905ACTN    C3 9514   6.852   4.954   6.233
  905ACTN    H4 9515   6.864   4.859   6.181
  905ACTN    H5 9516   6.897   5.037   6.177
  905ACTN    C2 9517   6.908   4.944   6.376
  905ACTN    O1 9518   6.855   4.995   6.475
  905ACTN    C1 9519   7.040   4.870   6.385
  905ACTN    H1 9520   7.041   4.833   6.487
  905ACTN    H2 9521   7.123   4.940   6.370
  905ACTN    H3 9522   7.053   4.787   6.315
  906ACTN    H6 9523   3.970   0.378   4.853
  906ACTN    C3 9524   3.942   0.471   4.806
  906ACTN    H4 9525   3.899   0.545   4.874
  906ACTN    H5 9526   4.035   0.516   4.773
  906ACTN    C2 9527   3.842   0.457   4.692
  906ACTN    O1 9528   3.833   0.344   4.645
  906ACTN    C1 9529   3.739   0.569   4.678
  906ACTN    H1 9530   3.639   0.531   4.699
  906ACTN    H2 9531   3.746   0.610   4.577
  906ACTN    H3 9532   3.754   0.649   4.750
  907ACTN    H6 9533   3.656   7.064   5.441
  907ACTN    C3 9534   3.600   6.978   5.405
  907ACTN    H4 9535   3.670   6.916   5.347
  907ACTN    H5 9536   3.561   6.922   5.490
  907ACTN    C2 9537   3.478   7.019   5.325
  907ACTN    O1 9538   3.461   6.985   5.211
  907ACTN    C1 9539   3.384   7.113   5.397
  907ACTN    H1 9540   3.368   7.067   5.495
  907ACTN    H2 9541   3.294   7.109   5.336
  907ACTN    H3 9542   3.436   7.209   5.407
  908ACTN    H6 9543   1.695   4.889   6.431
  908ACTN    C3 9544   1.747   4.794   6.434
  908ACTN    H4 9545   1.843   4.807   6.485
  908ACTN    H5 9546   1.691   4.729   6.502
  908ACTN    C2 9547   1.768   4.730   6.297
  908ACTN    O1 9548   1.857   4.777   6.223
  908ACTN    C1 9549   1.684   4.615   6.256
  908ACTN    H1 9550   1.651   4.628   6.153
  908ACTN    H2 9551   1.597   4.599   6.319
  908ACTN    H3 9552   1.745   4.524   6.254
  909ACTN    H6 9553   4.065   3.410   7.383
  909ACTN    C3 9554   4.107   3.452   7.291
  909ACTN    H4 9555   4.214   3.461   7.306
  909ACTN    H5 9556   4.103   3.375   7.214
  909ACTN    C2 9557   4.032   3.579   7.247
  909ACTN    O1 9558   3.922   3.614   7.290
  909ACTN    C1 9559   4.092   3.657   7.136
  909ACTN    H1 9560   4.110   3.758   7.173
  909ACTN    H2 9561   4.033   3.662   7.045
  909ACTN    H3 9562   4.192   3.619   7.116
  910ACTN    H6 9563   0.566   5.251   2.791
  910ACTN    C3 9564   0.578   5.358   2.774
  910ACTN    H4 9565   0.577   5.412   2.869
  910ACTN    H5 9566   0.675   5.380   2.728
  910ACTN    C2 9567   0.477   5.403   2.685
  910ACTN    O1 9568   0.479   5.520   2.645
  910ACTN    C1 9569   0.381   5.304   2.624
  910ACTN    H1 9570   0.275   5.318   2.647
  910ACTN    H2 9571   0.412   5.206   2.662
  910ACTN    H3 9572   0.404   5.307   2.517
  911ACTN    H6 9573   6.560   5.748   6.940
  911ACTN    C3 9574   6.557   5.761   7.048
  911ACTN    H4 9575   6.659   5.733   7.075
  911ACTN    H5 9576   6.535   5.865   7.073
  911ACTN    C2 9577   6.449   5.668   7.108
  911ACTN    O1 9578   6.431   5.676   7.230
  911ACTN    C1 9579   6.359   5.591   7.018
  911ACTN    H1 9580   6.340   5.645   6.925
  911ACTN    H2 9581   6.266   5.570   7.072
  911ACTN    H3 9582   6.411   5.499   6.995
  912ACTN    H6 9583   6.532   5.729   4.791
  912ACTN    C3 9584   6.457   5.702   4.865
  912ACTN    H4 9585   6.364   5.721   4.813
  912ACTN    H5 9586   6.453   5.595   4.888
  912ACTN    C2 9587   6.445   5.778   4.992
  912ACTN    O1 9588   6.467   5.719   5.094
  912ACTN    C1 9589   6.455   5.931   4.998
  912ACTN    H1 9590   6.367   5.974   5.045
  912ACTN    H2 9591   6.480   5.968   4.899
  912ACTN    H3 9592   6.535   5.954   5.069
  913ACTN    H6 9593   1.192   3.484   1.595
  913ACTN    C3 9594   1.199   3.376   1.603
  913ACTN    H4 9595   1.287   3.344   1.547
  913ACTN    H5 9596   1.212   3.355   1.709
  913ACTN    C2 9597   1.073   3.305   1.560
  913ACTN    O1 9598   1.079   3.252   1.447
  913ACTN    C1 9599   0.938   3.331   1.630
  913ACTN    H1 9600   0.882   3.403   1.570
  913ACTN    H2 9601   0.953   3.373   1.729
  913ACTN    H3 9602   0.889   3.234   1.641
  914ACTN    H6 9603   5.174   1.114   5.686
  914ACTN    C3 9604   5.240   1.164   5.616
  914ACTN    H4 9605   5.284   1.251   5.664
  914ACTN    H5 9606   5.175   1.207   5.539
  914ACTN    C2 9607   5.339   1.066   5.562
  914ACTN    O1 9608   5.408   1.093   5.463
  914ACTN    C1 9609   5.358   0.937   5.634
  914ACTN    H1 9610   5.269   0.876   5.643
  914ACTN    H2 9611   5.393   0.947   5.737
  914ACTN    H3 9612   5.433   0.876   5.583
  915ACTN    H6 9613   2.240   1.909   2.190
  915ACTN    C3 9614   2.324   1.860   2.239
  915ACTN    H4 9615   2.327   1.757   2.206
  915ACTN    H5 9616   2.412   1.902   2.190
  915ACTN    C2 9617   2.323   1.875   2.393
  915ACTN    O1 9618   2.224   1.861   2.462
  915ACTN    C1 9619   2.450   1.873   2.466
  915ACTN    H1 9620   2.457   1.781   2.524
  915ACTN    H2 9621   2.462   1.959   2.532
  915ACTN    H3 9622   2.533   1.880   2.395
  916ACTN    H6 9623   0.542   5.891   1.854
  916ACTN    C3 9624   0.500   5.854   1.948
  916ACTN    H4 9625   0.469   5.937   2.012
  916ACTN    H5 9626   0.405   5.807   1.924
  916ACTN    C2 9627   0.579   5.762   2.023
  916ACTN    O1 9628   0.605   5.785   2.139
  916ACTN    C1 9629   0.584   5.624   1.969
  916ACTN    H1 9630   0.661   5.566   2.019
  916ACTN    H2 9631   0.618   5.638   1.866
  916ACTN    H3 9632   0.488   5.572   1.969
  917ACTN    H6 9633   3.078   1.260   5.398
  917ACTN    C3 9634   3.134   1.327   5.333
  917ACTN    H4 9635   3.207   1.262   5.285
  917ACTN    H5 9636   3.074   1.366   5.251
  917ACTN    C2 9637   3.204   1.431   5.417
  917ACTN    O1 9638   3.139   1.503   5.491
  917ACTN    C1 9639   3.344   1.455   5.402
  917ACTN    H1 9640   3.385   1.386   5.328
  917ACTN    H2 9641   3.398   1.432   5.494
  917ACTN    H3 9642   3.367   1.558   5.377
  918ACTN    H6 9643   0.501   5.072   5.913
  918ACTN    C3 9644   0.566   5.047   5.997
  918ACTN    H4 9645   0.581   4.939   5.995
  918ACTN    H5 9646   0.659   5.102   5.979
  918ACTN    C2 9647   0.505   5.088   6.121
  918ACTN    O1 9648   0.502   5.206   6.147
  918ACTN    C1 9649   0.447   4.990   6.216
  918ACTN    H1 9650   0.341   5.009   6.233
  918ACTN    H2 9651   0.493   4.994   6.315
  918ACTN    H3 9652   0.461   4.889   6.177
  919ACTN    H6 9653   3.301   3.827   4.378
  919ACTN    C3 9654   3.384   3.821   4.307
  919ACTN    H4 9655   3.416   3.925   4.294
  919ACTN    H5 9656   3.467   3.771   4.356
  919ACTN    C2 9657   3.357   3.765   4.181
  919ACTN    O1 9658   3.383   3.646   4.152
  919ACTN    C1 9659   3.320   3.857   4.059
  919ACTN    H1 9660   3.276   3.952   4.092
  919ACTN    H2 9661   3.255   3.809   3.985
  919ACTN    H3 9662   3.415   3.876   4.009
  920ACTN    H6 9663   0.779   0.441   6.302
  920ACTN    C3 9664   0.677   0.412   6.277
  920ACTN    H4 9665   0.665   0.416   6.169
  920ACTN    H5 9666   0.664   0.305   6.289
  920ACTN    C2 9667   0.573   0.487   6.357
  920ACTN    O1 9668   0.606   0.587   6.419
  920ACTN    C1 9669   0.430   0.457   6.336
  920ACTN    H1 9670   0.370   0.545   6.314
  920ACTN    H2 9671   0.390   0.409   6.425
  920ACTN    H3 9672   0.415   0.389   6.252
  921ACTN    H6 9673   1.722   1.100   3.873
  921ACTN    C3 9674   1.744   1.202   3.906
  921ACTN    H4 9675   1.840   1.231   3.862
  921ACTN    H5 9676   1.667   1.265   3.862
  921ACTN    C2 9677   1.746   1.205   4.056
  921ACTN    O1 9678   1.852   1.183   4.115
  921ACTN    C1 9679   1.629   1.251   4.128
  921ACTN    H1 9680   1.644   1.317   4.213
  921ACTN    H2 9681   1.570   1.169   4.167
  921ACTN    H3 9682   1.568   1.308   4.057
  922ACTN    H6 9683   2.606   0.693   7.064
  922ACTN    C3 9684   2.530   0.721   7.136
  922ACTN    H4 9685   2.430   0.695   7.101
  922ACTN    H5 9686   2.553   0.665   7.226
  922ACTN    C2 9687   2.539   0.863   7.173
  922ACTN    O1 9688   2.438   0.934   7.174
  922ACTN    C1 9689   2.662   0.910   7.238
  922ACTN    H1 9690   2.747   0.863   7.188
  922ACTN    H2 9691   2.665   0.865   7.338
  922ACTN    H3 9692   2.673   1.018   7.245
  923ACTN    H6 9693   7.018   1.031   0.696
  923ACTN    C3 9694   7.028   1.022   0.588
  923ACTN    H4 9695   6.978   0.930   0.557
  923ACTN    H5 9696   6.976   1.103   0.536
  923ACTN    C2 9697   7.167   1.019   0.540
  923ACTN    O1 9698   7.255   0.967   0.606
  923ACTN    C1 9699   7.214   1.086   0.419
  923ACTN    H1 9700   7.144   1.106   0.338
  923ACTN    H2 9701   7.291   1.022   0.375
  923ACTN    H3 9702   7.250   1.185   0.448
  924ACTN    H6 9703   5.401   6.749   0.885
  924ACTN    C3 9704   5.475   6.743   0.805
  924ACTN    H4 9705   5.527   6.837   0.789
  924ACTN    H5 9706   5.549   6.670   0.838
  924ACTN    C2 9707   5.400   6.693   0.689
  924ACTN    O1 9708   5.459   6.674   0.584
  924ACTN    C1 9709   5.256   6.726   0.692
  924ACTN    H1 9710   5.213   6.787   0.772
  924ACTN    H2 9711   5.204   6.631   0.683
  924ACTN    H3 9712   5.228   6.781   0.603
  925ACTN    H6 9713   0.534   0.979   6.805
  925ACTN    C3 9714   0.522   0.876   6.773
  925ACTN    H4 9715   0.463   0.872   6.682
  925ACTN    H5 9716   0.620   0.832   6.755
  925ACTN    C2 9717   0.464   0.783   6.879
  925ACTN    O1 9718   0.523   0.770   6.987
  925ACTN    C1 9719   0.323   0.724   6.863
  925ACTN    H1 9720   0.258   0.788   6.803
  925ACTN    H2 9721   0.276   0.720   6.961
  925ACTN    H3 9722   0.325   0.623   6.820
  926ACTN    H6 9723   0.840   6.816   6.366
  926ACTN    C3 9724   0.813   6.894   6.437
  926ACTN    H4 9725   0.708   6.924   6.429
  926ACTN    H5 9726   0.835   6.852   6.535
  926ACTN    C2 9727   0.889   7.027   6.426
  926ACTN    O1 9728   0.838   7.117   6.358
  926ACTN    C1 9729   0.994   7.053   6.524
  926ACTN    H1 9730   0.962   7.047   6.628
  926ACTN    H2 9731   1.046   7.148   6.512
  926ACTN    H3 9732   1.053   6.962   6.508
  927ACTN    H6 9733   3.672   5.543   1.042
  927ACTN    C3 9734   3.712   5.472   0.970
  927ACTN    H4 9735   3.719   5.384   1.033
  927ACTN    H5 9736   3.641   5.461   0.887
  927ACTN    C2 9737   3.847   5.518   0.927
  927ACTN    O1 9738   3.880   5.635   0.921
  927ACTN    C1 9739   3.942   5.400   0.886
  927ACTN    H1 9740   3.957   5.428   0.782
  927ACTN    H2 9741   3.892   5.303   0.884
  927ACTN    H3 9742   4.032   5.398   0.947
  928ACTN    H6 9743   0.255   4.499   4.424
  928ACTN    C3 9744   0.270   4.524   4.319
  928ACTN    H4 9745   0.288   4.631   4.316
  928ACTN    H5 9746   0.361   4.471   4.289
  928ACTN    C2 9747   0.153   4.475   4.236
  928ACTN    O1 9748   0.161   4.463   4.112
  928ACTN    C1 9749   0.031   4.434   4.312
  928ACTN    H1 9750  -0.058   4.420   4.251
  928ACTN    H2 9751   0.001   4.510   4.385
  928ACTN    H3 9752   0.061   4.342   4.361
  929ACTN    H6 9753   1.096   1.589   5.273
  929ACTN    C3 9754   1.160   1.502   5.261
  929ACTN    H4 9755   1.115   1.406   5.285
  929ACTN    H5 9756   1.198   1.508   5.159
  929ACTN    C2 9757   1.274   1.514   5.352
  929ACTN    O1 9758   1.379   1.547   5.305
  929ACTN    C1 9759   1.244   1.522   5.494
  929ACTN    H1 9760   1.169   1.596   5.522
  929ACTN    H2 9761   1.330   1.516   5.560
  929ACTN    H3 9762   1.196   1.427   5.518
  930ACTN    H6 9763   0.387   4.484   4.880
  930ACTN    C3 9764   0.430   4.507   4.978
  930ACTN    H4 9765   0.382   4.448   5.055
  930ACTN    H5 9766   0.537   4.489   4.969
  930ACTN    C2 9767   0.422   4.653   5.006
  930ACTN    O1 9768   0.380   4.686   5.116
  930ACTN    C1 9769   0.466   4.774   4.922
  930ACTN    H1 9770   0.385   4.838   4.887
  930ACTN    H2 9771   0.528   4.746   4.837
  930ACTN    H3 9772   0.527   4.835   4.989
  931ACTN    H6 9773   1.300   2.016   5.031
  931ACTN    C3 9774   1.223   1.949   5.068
  931ACTN    H4 9775   1.227   1.953   5.177
  931ACTN    H5 9776   1.126   1.997   5.050
  931ACTN    C2 9777   1.237   1.816   5.015
  931ACTN    O1 9778   1.141   1.745   4.983
  931ACTN    C1 9779   1.362   1.745   5.008
  931ACTN    H1 9780   1.352   1.659   5.075
  931ACTN    H2 9781   1.449   1.799   5.047
  931ACTN    H3 9782   1.364   1.698   4.910
  932ACTN    H6 9783   3.051   3.403   3.219
  932ACTN    C3 9784   3.130   3.477   3.234
  932ACTN    H4 9785   3.184   3.487   3.140
  932ACTN    H5 9786   3.081   3.569   3.267
  932ACTN    C2 9787   3.224   3.426   3.334
  932ACTN    O1 9788   3.343   3.460   3.336
  932ACTN    C1 9789   3.172   3.329   3.434
  932ACTN    H1 9790   3.246   3.312   3.511
  932ACTN    H2 9791   3.151   3.230   3.394
  932ACTN    H3 9792   3.078   3.370   3.472
  933ACTN    H6 9793   6.081   1.020   4.485
  933ACTN    C3 9794   6.152   1.047   4.564
  933ACTN    H4 9795   6.220   1.116   4.513
  933ACTN    H5 9796   6.100   1.101   4.642
  933ACTN    C2 9797   6.226   0.922   4.604
  933ACTN    O1 9798   6.199   0.808   4.553
  933ACTN    C1 9799   6.314   0.938   4.723
  933ACTN    H1 9800   6.366   1.034   4.729
  933ACTN    H2 9801   6.386   0.857   4.729
  933ACTN    H3 9802   6.252   0.929   4.812
  934ACTN    H6 9803   6.948   6.426   0.504
  934ACTN    C3 9804   6.894   6.457   0.415
  934ACTN    H4 9805   6.810   6.392   0.391
  934ACTN    H5 9806   6.852   6.558   0.412
  934ACTN    C2 9807   6.993   6.450   0.301
  934ACTN    O1 9808   7.112   6.430   0.320
  934ACTN    C1 9809   6.945   6.483   0.164
  934ACTN    H1 9810   6.948   6.396   0.098
  934ACTN    H2 9811   7.015   6.556   0.124
  934ACTN    H3 9812   6.847   6.529   0.150
  935ACTN    H6 9813   6.200   5.293   5.243
  935ACTN    C3 9814   6.270   5.370   5.277
  935ACTN    H4 9815   6.249   5.463   5.225
  935ACTN    H5 9816   6.260   5.391   5.384
  935ACTN    C2 9817   6.404   5.318   5.250
  935ACTN    O1 9818   6.445   5.227   5.318
  935ACTN    C1 9819   6.462   5.327   5.115
  935ACTN    H1 9820   6.393   5.293   5.037
  935ACTN    H2 9821   6.557   5.274   5.105
  935ACTN    H3 9822   6.460   5.434   5.096
  936ACTN    H6 9823   6.358   3.968   5.473
  936ACTN    C3 9824   6.457   4.006   5.444
  936ACTN    H4 9825   6.445   4.113   5.425
  936ACTN    H5 9826   6.523   3.994   5.530
  936ACTN    C2 9827   6.511   3.929   5.333
  936ACTN    O1 9828   6.541   3.815   5.337
  936ACTN    C1 9829   6.481   3.988   5.201
  936ACTN    H1 9830   6.574   4.010   5.148
  936ACTN    H2 9831   6.439   4.088   5.206
  936ACTN    H3 9832   6.410   3.927   5.145
  937ACTN    H6 9833   1.548   4.409   6.475
  937ACTN    C3 9834   1.489   4.457   6.553
  937ACTN    H4 9835   1.521   4.428   6.653
  937ACTN    H5 9836   1.500   4.564   6.541
  937ACTN    C2 9837   1.345   4.422   6.523
  937ACTN    O1 9838   1.307   4.412   6.410
  937ACTN    C1 9839   1.250   4.403   6.637
  937ACTN    H1 9840   1.249   4.301   6.676
  937ACTN    H2 9841   1.150   4.431   6.605
  937ACTN    H3 9842   1.282   4.468   6.718
  938ACTN    H6 9843   0.109   3.068   2.561
  938ACTN    C3 9844   0.112   3.172   2.527
  938ACTN    H4 9845   0.050   3.239   2.586
  938ACTN    H5 9846   0.217   3.200   2.538
  938ACTN    C2 9847   0.082   3.186   2.382
  938ACTN    O1 9848  -0.031   3.217   2.341
  938ACTN    C1 9849   0.189   3.155   2.280
  938ACTN    H1 9850   0.153   3.094   2.198
  938ACTN    H2 9851   0.271   3.111   2.338
  938ACTN    H3 9852   0.216   3.250   2.236
  939ACTN    H6 9853   2.963   1.465   3.518
  939ACTN    C3 9854   2.950   1.373   3.461
  939ACTN    H4 9855   2.849   1.362   3.423
  939ACTN    H5 9856   3.008   1.385   3.370
  939ACTN    C2 9857   2.996   1.245   3.526
  939ACTN    O1 9858   3.054   1.155   3.461
  939ACTN    C1 9859   2.949   1.210   3.664
  939ACTN    H1 9860   2.949   1.300   3.726
  939ACTN    H2 9861   2.999   1.124   3.706
  939ACTN    H3 9862   2.845   1.177   3.659
  940ACTN    H6 9863   5.227   6.271   0.591
  940ACTN    C3 9864   5.286   6.358   0.620
  940ACTN    H4 9865   5.389   6.347   0.587
  940ACTN    H5 9866   5.239   6.446   0.577
  940ACTN    C2 9867   5.270   6.353   0.774
  940ACTN    O1 9868   5.328   6.438   0.840
  940ACTN    C1 9869   5.204   6.240   0.841
  940ACTN    H1 9870   5.141   6.284   0.919
  940ACTN    H2 9871   5.272   6.168   0.886
  940ACTN    H3 9872   5.132   6.191   0.775
  941ACTN    H6 9873   4.911   2.249   6.085
  941ACTN    C3 9874   4.901   2.354   6.060
  941ACTN    H4 9875   4.892   2.363   5.951
  941ACTN    H5 9876   4.996   2.400   6.087
  941ACTN    C2 9877   4.788   2.426   6.127
  941ACTN    O1 9878   4.758   2.540   6.097
  941ACTN    C1 9879   4.699   2.349   6.225
  941ACTN    H1 9880   4.679   2.412   6.312
  941ACTN    H2 9881   4.747   2.256   6.256
  941ACTN    H3 9882   4.608   2.328   6.170
  942ACTN    H6 9883   1.807   6.834   2.872
  942ACTN    C3 9884   1.807   6.743   2.811
  942ACTN    H4 9885   1.703   6.725   2.784
  942ACTN    H5 9886   1.874   6.748   2.725
  942ACTN    C2 9887   1.852   6.634   2.901
  942ACTN    O1 9888   1.792   6.528   2.896
  942ACTN    C1 9889   1.983   6.645   2.970
  942ACTN    H1 9890   2.041   6.734   2.947
  942ACTN    H2 9891   2.042   6.559   2.940
  942ACTN    H3 9892   1.966   6.646   3.078
  943ACTN    H6 9893   0.829   2.394   5.092
  943ACTN    C3 9894   0.760   2.310   5.101
  943ACTN    H4 9895   0.732   2.298   5.206
  943ACTN    H5 9896   0.668   2.338   5.050
  943ACTN    C2 9897   0.827   2.186   5.034
  943ACTN    O1 9898   0.871   2.100   5.110
  943ACTN    C1 9899   0.857   2.193   4.888
  943ACTN    H1 9900   0.779   2.255   4.843
  943ACTN    H2 9901   0.841   2.094   4.844
  943ACTN    H3 9902   0.948   2.239   4.852
  944ACTN    H6 9903   3.222   3.682   3.101
  944ACTN    C3 9904   3.214   3.780   3.054
  944ACTN    H4 9905   3.259   3.770   2.956
  944ACTN    H5 9906   3.108   3.801   3.035
  944ACTN    C2 9907   3.286   3.879   3.142
  944ACTN    O1 9908   3.254   3.995   3.135
  944ACTN    C1 9909   3.383   3.837   3.252
  944ACTN    H1 9910   3.342   3.856   3.351
  944ACTN    H2 9911   3.480   3.884   3.238
  944ACTN    H3 9912   3.401   3.730   3.248
  945ACTN    H6 9913   4.059   2.481   2.056
  945ACTN    C3 9914   4.080   2.480   2.163
  945ACTN    H4 9915   4.027   2.563   2.208
  945ACTN    H5 9916   4.029   2.394   2.207
  945ACTN    C2 9917   4.227   2.490   2.182
  945ACTN    O1 9918   4.282   2.562   2.103
  945ACTN    C1 9919   4.286   2.446   2.313
  945ACTN    H1 9920   4.206   2.415   2.379
  945ACTN    H2 9921   4.353   2.508   2.372
  945ACTN    H3 9922   4.343   2.354   2.298
  946ACTN    H6 9923   6.162   6.037   6.981
  946ACTN    C3 9924   6.217   5.956   7.029
  946ACTN    H4 9925   6.249   6.000   7.123
  946ACTN    H5 9926   6.305   5.931   6.968
  946ACTN    C2 9927   6.121   5.845   7.062
  946ACTN    O1 9928   6.092   5.758   6.980
  946ACTN    C1 9929   6.042   5.853   7.190
  946ACTN    H1 9930   5.948   5.799   7.185
  946ACTN    H2 9931   6.023   5.956   7.221
  946ACTN    H3 9932   6.095   5.801   7.269
  947ACTN    H6 9933   0.216   4.729   6.454
  947ACTN    C3 9934   0.173   4.696   6.549
  947ACTN    H4 9935   0.073   4.736   6.563
  947ACTN    H5 9936   0.182   4.588   6.553
  947ACTN    C2 9937   0.250   4.762   6.666
  947ACTN    O1 9938   0.177   4.793   6.757
  947ACTN    C1 9939   0.400   4.752   6.672
  947ACTN    H1 9940   0.439   4.707   6.581
  947ACTN    H2 9941   0.424   4.694   6.761
  947ACTN    H3 9942   0.444   4.851   6.688
  948ACTN    H6 9943   0.385   2.166   2.280
  948ACTN    C3 9944   0.468   2.235   2.290
  948ACTN    H4 9945   0.457   2.305   2.373
  948ACTN    H5 9946   0.561   2.183   2.314
  948ACTN    C2 9947   0.478   2.306   2.158
  948ACTN    O1 9948   0.541   2.259   2.065
  948ACTN    C1 9949   0.394   2.424   2.133
  948ACTN    H1 9950   0.425   2.498   2.206
  948ACTN    H2 9951   0.286   2.407   2.144
  948ACTN    H3 9952   0.411   2.462   2.033
  949ACTN    H6 9953   1.797  -0.066   1.340
  949ACTN    C3 9954   1.875   0.010   1.329
  949ACTN    H4 9955   1.948   0.002   1.411
  949ACTN    H5 9956   1.926  -0.011   1.235
  949ACTN    C2 9957   1.808   0.142   1.326
  949ACTN    O1 9958   1.807   0.217   1.231
  949ACTN    C1 9959   1.765   0.186   1.453
  949ACTN    H1 9960   1.701   0.105   1.486
  949ACTN    H2 9961   1.701   0.274   1.441
  949ACTN    H3 9962   1.849   0.217   1.515
  950ACTN    H6 9963   1.989   3.775   5.173
  950ACTN    C3 9964   1.928   3.811   5.256
  950ACTN    H4 9965   1.997   3.853   5.329
  950ACTN    H5 9966   1.872   3.896   5.217
  950ACTN    C2 9967   1.837   3.716   5.323
  950ACTN    O1 9968   1.881   3.629   5.399
  950ACTN    C1 9969   1.692   3.746   5.325
  950ACTN    H1 9970   1.633   3.667   5.372
  950ACTN    H2 9971   1.658   3.767   5.223
  950ACTN    H3 9972   1.670   3.841   5.375
  951ACTN    H6 9973   0.659   2.717   2.240
  951ACTN    C3 9974   0.578   2.788   2.258
  951ACTN    H4 9975   0.524   2.765   2.349
  951ACTN    H5 9976   0.620   2.886   2.282
  951ACTN    C2 9977   0.494   2.805   2.129
  951ACTN    O1 9978   0.379   2.831   2.141
  951ACTN    C1 9979   0.564   2.821   1.994
  951ACTN    H1 9980   0.493   2.860   1.922
  951ACTN    H2 9981   0.596   2.722   1.959
  951ACTN    H3 9982   0.648   2.888   2.010
  952ACTN    H6 9983   0.138   6.328   1.539
  952ACTN    C3 9984   0.074   6.257   1.487
  952ACTN    H4 9985   0.079   6.163   1.543
  952ACTN    H5 9986  -0.027   6.299   1.497
  952ACTN    C2 9987   0.093   6.243   1.340
  952ACTN    O1 9988   0.203   6.266   1.287
  952ACTN    C1 9989  -0.007   6.170   1.264
  952ACTN    H1 9990  -0.082   6.109   1.314
  952ACTN    H2 9991   0.049   6.094   1.208
  952ACTN    H3 9992  -0.053   6.232   1.187
  953ACTN    H6 9993   5.726   6.218   0.261
  953ACTN    C3 9994   5.783   6.311   0.260
  953ACTN    H4 9995   5.745   6.381   0.186
  953ACTN    H5 9996   5.762   6.374   0.346
  953ACTN    C2 9997   5.925   6.283   0.237
  953ACTN    O1 9998   6.005   6.372   0.217
  953ACTN    C1 9999   5.978   6.144   0.228
  953ACTN    H110000   5.939   6.082   0.147
  953ACTN    H210001   5.951   6.099   0.324
  953ACTN    H310002   6.085   6.143   0.212
  954ACTN    H610003   6.883   6.582   2.896
  954ACTN    C310004   6.988   6.591   2.922
  954ACTN    H410005   7.013   6.508   2.988
  954ACTN    H510006   7.052   6.587   2.834
  954ACTN    C210007   7.008   6.719   2.990
  954ACTN    O110008   7.044   6.727   3.108
  954ACTN    C110009   6.987   6.848   2.913
  954ACTN    H110010   7.071   6.915   2.926
  954ACTN    H210011   6.903   6.903   2.955
  954ACTN    H310012   6.971   6.822   2.808
  955ACTN    H610013   6.781   3.774   2.027
  955ACTN    C310014   6.886   3.800   2.009
  955ACTN    H410015   6.896   3.831   1.905
  955ACTN    H510016   6.903   3.887   2.072
  955ACTN    C210017   6.976   3.683   2.046
  955ACTN    O110018   7.085   3.703   2.104
  955ACTN    C110019   6.937   3.538   2.024
  955ACTN    H110020   6.917   3.514   1.919
  955ACTN    H210021   6.850   3.523   2.088
  955ACTN    H310022   7.017   3.474   2.059
  956ACTN    H610023   3.409   4.407   1.045
  956ACTN    C310024   3.430   4.508   1.010
  956ACTN    H410025   3.446   4.501   0.902
  956ACTN    H510026   3.345   4.574   1.027
  956ACTN    C210027   3.558   4.553   1.068
  956ACTN    O110028   3.632   4.627   1.004
  956ACTN    C110029   3.606   4.506   1.203
  956ACTN    H110030   3.626   4.399   1.205
  956ACTN    H210031   3.516   4.512   1.265
  956ACTN    H310032   3.688   4.565   1.245
  957ACTN    H610033   5.158   5.968   4.858
  957ACTN    C310034   5.195   6.040   4.930
  957ACTN    H410035   5.298   6.006   4.938
  957ACTN    H510036   5.145   6.026   5.026
  957ACTN    C210037   5.177   6.187   4.891
  957ACTN    O110038   5.174   6.209   4.772
  957ACTN    C110039   5.130   6.287   4.995
  957ACTN    H110040   5.074   6.244   5.078
  957ACTN    H210041   5.079   6.368   4.942
  957ACTN    H310042   5.219   6.330   5.040
  958ACTN    H610043   2.084   0.229   5.669
  958ACTN    C310044   2.121   0.305   5.600
  958ACTN    H410045   2.076   0.400   5.631
  958ACTN    H510046   2.229   0.310   5.609
  958ACTN    C210047   2.081   0.278   5.457
  958ACTN    O110048   1.967   0.266   5.422
  958ACTN    C110049   2.186   0.255   5.353
  958ACTN    H110050   2.149   0.288   5.256
  958ACTN    H210051   2.194   0.146   5.347
  958ACTN    H310052   2.286   0.297   5.365
  959ACTN    H610053   2.179   1.678   4.738
  959ACTN    C310054   2.109   1.598   4.759
  959ACTN    H410055   2.171   1.527   4.814
  959ACTN    H510056   2.030   1.633   4.825
  959ACTN    C210057   2.046   1.554   4.626
  959ACTN    O110058   1.984   1.630   4.550
  959ACTN    C110059   2.071   1.414   4.589
  959ACTN    H110060   2.169   1.411   4.541
  959ACTN    H210061   1.993   1.373   4.525
  959ACTN    H310062   2.074   1.352   4.679
  960ACTN    H610063   6.493   1.185   4.239
  960ACTN    C310064   6.435   1.194   4.147
  960ACTN    H410065   6.474   1.119   4.079
  960ACTN    H510066   6.445   1.293   4.103
  960ACTN    C210067   6.292   1.173   4.176
  960ACTN    O110068   6.251   1.068   4.213
  960ACTN    C110069   6.195   1.278   4.152
  960ACTN    H110070   6.160   1.267   4.049
  960ACTN    H210071   6.240   1.376   4.162
  960ACTN    H310072   6.110   1.259   4.218
  961ACTN    H610073   2.344   6.321   4.224
  961ACTN    C310074   2.253   6.372   4.193
  961ACTN    H410075   2.215   6.331   4.100
  961ACTN    H510076   2.177   6.343   4.265
  961ACTN    C210077   2.278   6.526   4.193
  961ACTN    O110078   2.266   6.579   4.298
  961ACTN    C110079   2.274   6.606   4.064
  961ACTN    H110080   2.192   6.678   4.064
  961ACTN    H210081   2.266   6.535   3.981
  961ACTN    H310082   2.363   6.668   4.054
  962ACTN    H610083   0.893   7.412   4.014
  962ACTN    C310084   0.793   7.389   4.051
  962ACTN    H410085   0.763   7.436   4.145
  962ACTN    H510086   0.720   7.433   3.984
  962ACTN    C210087   0.779   7.243   4.066
  962ACTN    O110088   0.722   7.174   3.988
  962ACTN    C110089   0.851   7.170   4.170
  962ACTN    H110090   0.814   7.069   4.190
  962ACTN    H210091   0.848   7.226   4.264
  962ACTN    H310092   0.956   7.158   4.145
  963ACTN    H610093   3.213   5.774   0.179
  963ACTN    C310094   3.129   5.784   0.247
  963ACTN    H410095   3.098   5.889   0.249
  963ACTN    H510096   3.046   5.724   0.211
  963ACTN    C210097   3.155   5.737   0.384
  963ACTN    O110098   3.265   5.679   0.412
  963ACTN    C110099   3.047   5.751   0.494
  963ACTN    H110100   2.964   5.682   0.479
  963ACTN    H210101   3.007   5.849   0.469
  963ACTN    H310102   3.084   5.743   0.596
  964ACTN    H610103   6.134   5.662   5.115
  964ACTN    C310104   6.065   5.647   5.032
  964ACTN    H410105   5.968   5.689   5.060
  964ACTN    H510106   6.098   5.705   4.945
  964ACTN    C210107   6.065   5.502   4.989
  964ACTN    O110108   6.169   5.461   4.938
  964ACTN    C110109   5.946   5.419   5.004
  964ACTN    H110110   5.965   5.356   5.091
  964ACTN    H210111   5.937   5.358   4.914
  964ACTN    H310112   5.853   5.476   5.000
  965ACTN    H610113   7.171   0.405   4.395
  965ACTN    C310114   7.134   0.348   4.481
  965ACTN    H410115   7.075   0.266   4.440
  965ACTN    H510116   7.212   0.312   4.548
  965ACTN    C210117   7.043   0.427   4.556
  965ACTN    O110118   7.016   0.545   4.526
  965ACTN    C110119   6.975   0.361   4.671
  965ACTN    H110120   7.049   0.333   4.745
  965ACTN    H210121   6.936   0.269   4.627
  965ACTN    H310122   6.892   0.414   4.718
  966ACTN    H610123   0.648   1.911   5.520
  966ACTN    C310124   0.720   1.831   5.502
  966ACTN    H410125   0.737   1.828   5.394
  966ACTN    H510126   0.808   1.865   5.557
  966ACTN    C210127   0.670   1.699   5.558
  966ACTN    O110128   0.565   1.686   5.617
  966ACTN    C110129   0.773   1.591   5.575
  966ACTN    H110130   0.727   1.503   5.531
  966ACTN    H210131   0.793   1.573   5.681
  966ACTN    H310132   0.871   1.600   5.529
  967ACTN    H610133   2.257   6.380   2.630
  967ACTN    C310134   2.158   6.354   2.668
  967ACTN    H410135   2.138   6.254   2.630
  967ACTN    H510136   2.161   6.357   2.777
  967ACTN    C210137   2.046   6.446   2.641
  967ACTN    O110138   2.086   6.565   2.645
  967ACTN    C110139   1.917   6.401   2.583
  967ACTN    H110140   1.838   6.386   2.656
  967ACTN    H210141   1.938   6.307   2.532
  967ACTN    H310142   1.879   6.469   2.506
  968ACTN    H610143   1.285   6.448   3.836
  968ACTN    C310144   1.279   6.469   3.729
  968ACTN    H410145   1.325   6.382   3.684
  968ACTN    H510146   1.174   6.463   3.700
  968ACTN    C210147   1.355   6.596   3.698
  968ACTN    O110148   1.329   6.690   3.778
  968ACTN    C110149   1.425   6.606   3.565
  968ACTN    H110150   1.379   6.679   3.498
  968ACTN    H210151   1.427   6.503   3.530
  968ACTN    H310152   1.527   6.634   3.589
  969ACTN    H610153   2.794   6.154   3.926
  969ACTN    C310154   2.859   6.110   4.002
  969ACTN    H410155   2.918   6.032   3.952
  969ACTN    H510156   2.928   6.186   4.039
  969ACTN    C210157   2.784   6.061   4.117
  969ACTN    O110158   2.708   5.966   4.098
  969ACTN    C110159   2.791   6.123   4.252
  969ACTN    H110160   2.726   6.069   4.320
  969ACTN    H210161   2.780   6.230   4.266
  969ACTN    H310162   2.892   6.097   4.283
  970ACTN    H610163   2.031   2.352   3.346
  970ACTN    C310164   1.980   2.441   3.382
  970ACTN    H410165   1.942   2.482   3.288
  970ACTN    H510166   1.895   2.399   3.435
  970ACTN    C210167   2.060   2.535   3.466
  970ACTN    O110168   2.001   2.628   3.515
  970ACTN    C110169   2.194   2.489   3.514
  970ACTN    H110170   2.254   2.577   3.538
  970ACTN    H210171   2.249   2.419   3.451
  970ACTN    H310172   2.174   2.433   3.606
  971ACTN    H610173   4.174   5.651   5.757
  971ACTN    C310174   4.214   5.752   5.763
  971ACTN    H410175   4.165   5.801   5.678
  971ACTN    H510176   4.183   5.801   5.855
  971ACTN    C210177   4.361   5.755   5.751
  971ACTN    O110178   4.410   5.725   5.643
  971ACTN    C110179   4.438   5.843   5.849
  971ACTN    H110180   4.435   5.950   5.829
  971ACTN    H210181   4.541   5.811   5.836
  971ACTN    H310182   4.399   5.824   5.949
  972ACTN    H610183   5.930   5.006   2.827
  972ACTN    C310184   5.877   5.079   2.888
  972ACTN    H410185   5.770   5.080   2.872
  972ACTN    H510186   5.888   5.048   2.992
  972ACTN    C210187   5.938   5.215   2.861
  972ACTN    O110188   6.029   5.253   2.933
  972ACTN    C110189   5.898   5.294   2.748
  972ACTN    H110190   5.953   5.389   2.741
  972ACTN    H210191   5.795   5.327   2.759
  972ACTN    H310192   5.908   5.230   2.661
  973ACTN    H610193   0.876   4.300   0.059
  973ACTN    C310194   0.904   4.324   0.162
  973ACTN    H410195   0.996   4.381   0.172
  973ACTN    H510196   0.822   4.367   0.219
  973ACTN    C210197   0.927   4.187   0.221
  973ACTN    O110198   0.985   4.174   0.326
  973ACTN    C110199   0.862   4.065   0.160
  973ACTN    H110200   0.777   4.031   0.219
  973ACTN    H210201   0.932   3.982   0.152
  973ACTN    H310202   0.834   4.076   0.055
  974ACTN    H610203   1.135   6.419   5.038
  974ACTN    C310204   1.229   6.444   4.989
  974ACTN    H410205   1.300   6.363   5.006
  974ACTN    H510206   1.216   6.457   4.881
  974ACTN    C210207   1.284   6.567   5.039
  974ACTN    O110208   1.223   6.672   5.006
  974ACTN    C110209   1.391   6.557   5.137
  974ACTN    H110210   1.371   6.499   5.227
  974ACTN    H210211   1.422   6.656   5.170
  974ACTN    H310212   1.476   6.513   5.084
  975ACTN    H610213   5.166   6.704   0.136
  975ACTN    C310214   5.265   6.661   0.152
  975ACTN    H410215   5.255   6.607   0.246
  975ACTN    H510216   5.270   6.587   0.072
  975ACTN    C210217   5.377   6.754   0.158
  975ACTN    O110218   5.478   6.725   0.096
  975ACTN    C110219   5.381   6.858   0.260
  975ACTN    H110220   5.305   6.833   0.334
  975ACTN    H210221   5.360   6.954   0.213
  975ACTN    H310222   5.483   6.862   0.297
  976ACTN    H610223   6.166   4.223   4.374
  976ACTN    C310224   6.199   4.251   4.474
  976ACTN    H410225   6.118   4.303   4.525
  976ACTN    H510226   6.230   4.162   4.530
  976ACTN    C210227   6.311   4.349   4.463
  976ACTN    O110228   6.413   4.326   4.392
  976ACTN    C110229   6.275   4.483   4.515
  976ACTN    H110230   6.262   4.480   4.623
  976ACTN    H210231   6.182   4.509   4.464
  976ACTN    H310232   6.350   4.556   4.483
  977ACTN    H610233   3.513   2.707   1.685
  977ACTN    C310234   3.587   2.630   1.706
  977ACTN    H410235   3.584   2.603   1.812
  977ACTN    H510236   3.556   2.540   1.653
  977ACTN    C210237   3.725   2.677   1.679
  977ACTN    O110238   3.804   2.599   1.630
  977ACTN    C110239   3.747   2.825   1.643
  977ACTN    H110240   3.713   2.896   1.718
  977ACTN    H210241   3.678   2.855   1.564
  977ACTN    H310242   3.849   2.854   1.617
  978ACTN    H610243   1.048   7.167   1.221
  978ACTN    C310244   0.961   7.138   1.163
  978ACTN    H410245   0.954   7.184   1.064
  978ACTN    H510246   0.970   7.031   1.142
  978ACTN    C210247   0.841   7.158   1.248
  978ACTN    O110248   0.828   7.270   1.296
  978ACTN    C110249   0.730   7.055   1.274
  978ACTN    H110250   0.682   7.076   1.370
  978ACTN    H210251   0.778   6.959   1.291
  978ACTN    H310252   0.665   7.059   1.187
  979ACTN    H610253   4.283   6.229   7.892
  979ACTN    C310254   4.302   6.149   7.820
  979ACTN    H410255   4.303   6.052   7.870
  979ACTN    H510256   4.214   6.139   7.756
  979ACTN    C210257   4.430   6.176   7.746
  979ACTN    O110258   4.534   6.147   7.802
  979ACTN    C110259   4.424   6.264   7.627
  979ACTN    H110260   4.432   6.213   7.531
  979ACTN    H210261   4.514   6.325   7.618
  979ACTN    H310262   4.339   6.332   7.631
  980ACTN    H610263   6.836   5.813   7.650
  980ACTN    C310264   6.901   5.894   7.679
  980ACTN    H410265   6.870   5.925   7.779
  980ACTN    H510266   7.002   5.853   7.678
  980ACTN    C210267   6.880   6.003   7.579
  980ACTN    O110268   6.768   6.043   7.545
  980ACTN    C110269   7.003   6.085   7.544
  980ACTN    H110270   7.087   6.015   7.541
  980ACTN    H210271   7.018   6.165   7.616
  980ACTN    H310272   6.979   6.133   7.449
  981ACTN    H610273   7.013   5.431   8.924
  981ACTN    C310274   7.112   5.412   8.881
  981ACTN    H410275   7.142   5.487   8.809
  981ACTN    H510276   7.177   5.410   8.969
  981ACTN    C210277   7.114   5.278   8.811
  981ACTN    O110278   7.021   5.238   8.744
  981ACTN    C110279   7.240   5.196   8.831
  981ACTN    H110280   7.305   5.241   8.906
  981ACTN    H210281   7.296   5.184   8.738
  981ACTN    H310282   7.215   5.095   8.862
  982ACTN    H610283   0.572   4.732   8.147
  982ACTN    C310284   0.536   4.720   8.045
  982ACTN    H410285   0.566   4.620   8.014
  982ACTN    H510286   0.429   4.730   8.031
  982ACTN    C210287   0.612   4.810   7.952
  982ACTN    O110288   0.730   4.837   7.975
  982ACTN    C110289   0.536   4.867   7.842
  982ACTN    H110290   0.436   4.825   7.834
  982ACTN    H210291   0.586   4.840   7.749
  982ACTN    H310292   0.523   4.976   7.845
  983ACTN    H610293   5.496   5.253   8.498
  983ACTN    C310294   5.463   5.351   8.464
  983ACTN    H410295   5.427   5.403   8.553
  983ACTN    H510296   5.550   5.410   8.434
  983ACTN    C210297   5.368   5.344   8.356
  983ACTN    O110298   5.382   5.419   8.262
  983ACTN    C110299   5.272   5.232   8.349
  983ACTN    H110300   5.263   5.178   8.443
  983ACTN    H210301   5.303   5.174   8.262
  983ACTN    H310302   5.174   5.275   8.328
  984ACTN    H610303   1.837   0.576   8.604
  984ACTN    C310304   1.738   0.542   8.635
  984ACTN    H410305   1.674   0.570   8.551
  984ACTN    H510306   1.731   0.436   8.655
  984ACTN    C210307   1.691   0.611   8.759
  984ACTN    O110308   1.746   0.718   8.787
  984ACTN    C110309   1.580   0.554   8.847
  984ACTN    H110310   1.599   0.545   8.954
  984ACTN    H210311   1.555   0.454   8.811
  984ACTN    H310312   1.490   0.611   8.824
  985ACTN    H610313   0.745   0.855   8.420
  985ACTN    C310314   0.842   0.881   8.462
  985ACTN    H410315   0.870   0.816   8.545
  985ACTN    H510316   0.914   0.880   8.381
  985ACTN    C210317   0.830   1.024   8.507
  985ACTN    O110318   0.905   1.109   8.461
  985ACTN    C110319   0.732   1.059   8.609
  985ACTN    H110320   0.705   0.968   8.661
  985ACTN    H210321   0.639   1.110   8.584
  985ACTN    H310322   0.777   1.107   8.696
  986ACTN    H610323   3.677   4.422   8.143
  986ACTN    C310324   3.775   4.375   8.146
  986ACTN    H410325   3.793   4.323   8.052
  986ACTN    H510326   3.850   4.455   8.149
  986ACTN    C210327   3.802   4.275   8.259
  986ACTN    O110328   3.756   4.164   8.239
  986ACTN    C110329   3.846   4.317   8.397
  986ACTN    H110330   3.851   4.426   8.407
  986ACTN    H210331   3.944   4.274   8.418
  986ACTN    H310332   3.778   4.270   8.467
  987ACTN    H610333   4.453   1.970   8.123
  987ACTN    C310334   4.417   1.918   8.211
  987ACTN    H410335   4.324   1.870   8.183
  987ACTN    H510336   4.494   1.848   8.244
  987ACTN    C210337   4.387   2.026   8.309
  987ACTN    O110338   4.473   2.057   8.395
  987ACTN    C110339   4.260   2.097   8.318
  987ACTN    H110340   4.263   2.202   8.290
  987ACTN    H210341   4.222   2.096   8.421
  987ACTN    H310342   4.181   2.042   8.267
  988ACTN    H610343   5.408   6.211   8.493
  988ACTN    C310344   5.499   6.249   8.445
  988ACTN    H410345   5.577   6.175   8.461
  988ACTN    H510346   5.482   6.254   8.338
  988ACTN    C210347   5.545   6.383   8.494
  988ACTN    O110348   5.483   6.451   8.574
  988ACTN    C110349   5.688   6.421   8.467
  988ACTN    H110350   5.752   6.372   8.540
  988ACTN    H210351   5.717   6.526   8.478
  988ACTN    H310352   5.713   6.390   8.365
  989ACTN    H610353   6.467   5.367   8.164
  989ACTN    C310354   6.518   5.291   8.104
  989ACTN    H410355   6.614   5.264   8.146
  989ACTN    H510356   6.457   5.200   8.101
  989ACTN    C210357   6.537   5.348   7.967
  989ACTN    O110358   6.631   5.425   7.948
  989ACTN    C110359   6.415   5.360   7.875
  989ACTN    H110360   6.433   5.306   7.781
  989ACTN    H210361   6.390   5.464   7.860
  989ACTN    H310362   6.327   5.314   7.920
  990ACTN    H610363   0.202   6.299   8.095
  990ACTN    C310364   0.287   6.233   8.081
  990ACTN    H410365   0.367   6.261   8.150
  990ACTN    H510366   0.336   6.239   7.984
  990ACTN    C210367   0.246   6.090   8.107
  990ACTN    O110368   0.250   6.047   8.223
  990ACTN    C110369   0.160   6.026   8.005
  990ACTN    H110370   0.060   6.066   7.987
  990ACTN    H210371   0.154   5.921   8.034
  990ACTN    H310372   0.213   6.031   7.910
  991ACTN    H610373   4.239   5.248   8.153
  991ACTN    C310374   4.302   5.333   8.128
  991ACTN    H410375   4.284   5.359   8.023
  991ACTN    H510376   4.273   5.418   8.190
  991ACTN    C210377   4.450   5.329   8.152
  991ACTN    O110378   4.500   5.219   8.188
  991ACTN    C110379   4.536   5.448   8.143
  991ACTN    H110380   4.479   5.528   8.095
  991ACTN    H210381   4.624   5.423   8.084
  991ACTN    H310382   4.569   5.482   8.241
  992ACTN    H610383   0.645   0.225   7.810
  992ACTN    C310384   0.681   0.180   7.718
  992ACTN    H410385   0.637   0.082   7.698
  992ACTN    H510386   0.651   0.254   7.644
  992ACTN    C210387   0.826   0.166   7.707
  992ACTN    O110388   0.902   0.211   7.627
  992ACTN    C110389   0.888   0.082   7.817
  992ACTN    H110390   0.917  -0.015   7.777
  992ACTN    H210391   0.820   0.080   7.902
  992ACTN    H310392   0.981   0.129   7.847
  993ACTN    H610393   2.791   0.972   7.856
  993ACTN    C310394   2.714   0.959   7.779
  993ACTN    H410395   2.768   0.928   7.689
  993ACTN    H510396   2.662   1.053   7.766
  993ACTN    C210397   2.611   0.856   7.817
  993ACTN    O110398   2.514   0.839   7.743
  993ACTN    C110399   2.628   0.782   7.948
  993ACTN    H110400   2.729   0.742   7.946
  993ACTN    H210401   2.559   0.698   7.961
  993ACTN    H310402   2.617   0.856   8.028
  994ACTN    H610403   2.264   2.393   8.203
  994ACTN    C310404   2.202   2.404   8.292
  994ACTN    H410405   2.268   2.399   8.378
  994ACTN    H510406   2.151   2.500   8.301
  994ACTN    C210407   2.102   2.292   8.292
  994ACTN    O110408   2.138   2.177   8.326
  994ACTN    C110409   1.956   2.320   8.275
  994ACTN    H110410   1.924   2.384   8.357
  994ACTN    H210411   1.901   2.226   8.266
  994ACTN    H310412   1.932   2.371   8.181
  995ACTN    H610413   6.095   2.594   8.228
  995ACTN    C310414   6.077   2.698   8.202
  995ACTN    H410415   6.047   2.704   8.097
  995ACTN    H510416   6.000   2.743   8.265
  995ACTN    C210417   6.201   2.792   8.216
  995ACTN    O110418   6.256   2.842   8.119
  995ACTN    C110419   6.253   2.805   8.358
  995ACTN    H110420   6.206   2.730   8.421
  995ACTN    H210421   6.222   2.904   8.394
  995ACTN    H310422   6.361   2.806   8.367
  996ACTN    H610423   4.029   1.190   8.835
  996ACTN    C310424   3.939   1.232   8.790
  996ACTN    H410425   3.955   1.236   8.682
  996ACTN    H510426   3.861   1.158   8.809
  996ACTN    C210427   3.907   1.363   8.848
  996ACTN    O110428   3.806   1.373   8.918
  996ACTN    C110429   3.994   1.484   8.812
  996ACTN    H110430   3.947   1.523   8.722
  996ACTN    H210431   4.099   1.460   8.792
  996ACTN    H310432   3.982   1.565   8.885
  997ACTN    H610433   3.618   4.119   8.488
  997ACTN    C310434   3.528   4.075   8.446
  997ACTN    H410435   3.500   4.139   8.363
  997ACTN    H510436   3.454   4.083   8.525
  997ACTN    C210437   3.553   3.930   8.406
  997ACTN    O110438   3.665   3.878   8.424
  997ACTN    C110439   3.444   3.848   8.348
  997ACTN    H110440   3.401   3.904   8.264
  997ACTN    H210441   3.368   3.825   8.423
  997ACTN    H310442   3.478   3.754   8.306
  998ACTN    H610443   4.111   4.858   7.599
  998ACTN    C310444   4.023   4.794   7.592
  998ACTN    H410445   3.962   4.818   7.680
  998ACTN    H510446   3.967   4.819   7.502
  998ACTN    C210447   4.053   4.648   7.592
  998ACTN    O110448   4.142   4.603   7.521
  998ACTN    C110449   3.983   4.552   7.681
  998ACTN    H110450   4.003   4.446   7.669
  998ACTN    H210451   3.877   4.572   7.666
  998ACTN    H310452   4.000   4.574   7.786
  999ACTN    H610453   4.558   2.229   8.793
  999ACTN    C310454   4.664   2.210   8.774
  999ACTN    H410455   4.694   2.124   8.834
  999ACTN    H510456   4.660   2.187   8.668
  999ACTN    C210457   4.737   2.339   8.801
  999ACTN    O110458   4.818   2.368   8.718
  999ACTN    C110459   4.681   2.453   8.878
  999ACTN    H110460   4.648   2.412   8.973
  999ACTN    H210461   4.592   2.497   8.832
  999ACTN    H310462   4.752   2.531   8.905
 1000ACTN    H610463   3.488   6.078   7.558
 1000ACTN    C310464   3.404   6.130   7.512
 1000ACTN    H410465   3.410   6.137   7.403
 1000ACTN    H510466   3.313   6.077   7.540
 1000ACTN    C210467   3.393   6.268   7.561
 1000ACTN    O110468   3.493   6.334   7.584
 1000ACTN    C110469   3.259   6.325   7.574
 1000ACTN    H110470   3.250   6.432   7.595
 1000ACTN    H210471   3.209   6.284   7.662
 1000ACTN    H310472   3.196   6.298   7.490
 1001ACTN    H610473   6.621   4.932   8.203
 1001ACTN    C310474   6.713   4.875   8.207
 1001ACTN    H410475   6.694   4.803   8.287
 1001ACTN    H510476   6.724   4.809   8.121
 1001ACTN    C210477   6.838   4.953   8.232
 1001ACTN    O110478   6.932   4.895   8.293
 1001ACTN    C110479   6.842   5.096   8.179
 1001ACTN    H110480   6.938   5.105   8.129
 1001ACTN    H210481   6.828   5.176   8.251
 1001ACTN    H310482   6.755   5.105   8.113
 1002ACTN    H610483   5.023   2.568   8.062
 1002ACTN    C310484   5.084   2.479   8.082
 1002ACTN    H410485   5.154   2.502   8.163
 1002ACTN    H510486   5.000   2.414   8.107
 1002ACTN    C210487   5.164   2.435   7.963
 1002ACTN    O110488   5.111   2.386   7.863
 1002ACTN    C110489   5.308   2.421   7.983
 1002ACTN    H110490   5.333   2.315   7.981
 1002ACTN    H210491   5.335   2.465   8.079
 1002ACTN    H310492   5.366   2.471   7.905
 1003ACTN    H610493   4.930   5.481   7.678
 1003ACTN    C310494   5.012   5.411   7.661
 1003ACTN    H410495   5.111   5.456   7.658
 1003ACTN    H510496   5.018   5.348   7.750
 1003ACTN    C210497   4.984   5.343   7.527
 1003ACTN    O110498   5.003   5.397   7.417
 1003ACTN    C110499   4.943   5.199   7.523
 1003ACTN    H110500   5.031   5.138   7.542
 1003ACTN    H210501   4.900   5.165   7.429
 1003ACTN    H310502   4.865   5.180   7.597
 1004ACTN    H610503   6.893   2.786   8.308
 1004ACTN    C310504   6.882   2.693   8.251
 1004ACTN    H410505   6.846   2.621   8.325
 1004ACTN    H510506   6.983   2.662   8.224
 1004ACTN    C210507   6.799   2.726   8.135
 1004ACTN    O110508   6.840   2.698   8.021
 1004ACTN    C110509   6.679   2.811   8.160
 1004ACTN    H110510   6.609   2.818   8.077
 1004ACTN    H210511   6.710   2.909   8.197
 1004ACTN    H310512   6.624   2.770   8.244
 1005ACTN    H610513   1.496   6.302   8.053
 1005ACTN    C310514   1.558   6.263   7.972
 1005ACTN    H410515   1.557   6.340   7.896
 1005ACTN    H510516   1.661   6.244   8.004
 1005ACTN    C210517   1.493   6.135   7.923
 1005ACTN    O110518   1.550   6.028   7.914
 1005ACTN    C110519   1.347   6.137   7.933
 1005ACTN    H110520   1.306   6.064   7.863
 1005ACTN    H210521   1.294   6.226   7.897
 1005ACTN    H310522   1.317   6.119   8.037
 1006ACTN    H610523   2.159   5.534   8.814
 1006ACTN    C310524   2.057   5.516   8.848
 1006ACTN    H410525   2.035   5.424   8.794
 1006ACTN    H510526   2.062   5.496   8.955
 1006ACTN    C210527   1.957   5.627   8.821
 1006ACTN    O110528   1.839   5.595   8.814
 1006ACTN    C110529   1.987   5.768   8.867
 1006ACTN    H110530   1.910   5.798   8.938
 1006ACTN    H210531   1.991   5.833   8.780
 1006ACTN    H310532   2.079   5.780   8.925
 1007ACTN    H610533   4.684   4.973   7.721
 1007ACTN    C310534   4.600   5.025   7.674
 1007ACTN    H410535   4.622   5.051   7.571
 1007ACTN    H510536   4.511   4.962   7.663
 1007ACTN    C210537   4.555   5.144   7.753
 1007ACTN    O110538   4.647   5.212   7.796
 1007ACTN    C110539   4.410   5.178   7.753
 1007ACTN    H110540   4.361   5.088   7.792
 1007ACTN    H210541   4.365   5.197   7.656
 1007ACTN    H310542   4.401   5.259   7.826
 1008ACTN    H610543   4.182   2.478   8.777
 1008ACTN    C310544   4.085   2.511   8.740
 1008ACTN    H410545   3.997   2.464   8.783
 1008ACTN    H510546   4.078   2.614   8.774
 1008ACTN    C210547   4.092   2.515   8.594
 1008ACTN    O110548   4.159   2.600   8.543
 1008ACTN    C110549   4.065   2.390   8.518
 1008ACTN    H110550   4.010   2.320   8.581
 1008ACTN    H210551   4.155   2.338   8.484
 1008ACTN    H310552   4.007   2.409   8.428
 1009ACTN    H610553   4.452   2.907   7.619
 1009ACTN    C310554   4.431   2.821   7.556
 1009ACTN    H410555   4.323   2.818   7.540
 1009ACTN    H510556   4.460   2.851   7.455
 1009ACTN    C210557   4.484   2.692   7.595
 1009ACTN    O110558   4.515   2.608   7.513
 1009ACTN    C110559   4.532   2.668   7.738
 1009ACTN    H110560   4.565   2.565   7.745
 1009ACTN    H210561   4.452   2.682   7.811
 1009ACTN    H310562   4.608   2.741   7.767
 1010ACTN    H610563   1.700   7.283   8.032
 1010ACTN    C310564   1.599   7.243   8.023
 1010ACTN    H410565   1.592   7.205   7.921
 1010ACTN    H510566   1.586   7.164   8.097
 1010ACTN    C210567   1.501   7.348   8.049
 1010ACTN    O110568   1.543   7.461   8.060
 1010ACTN    C110569   1.359   7.316   8.010
 1010ACTN    H110570   1.347   7.325   7.902
 1010ACTN    H210571   1.280   7.374   8.059
 1010ACTN    H310572   1.350   7.209   8.024
 1011ACTN    H610573   0.569   6.404   8.138
 1011ACTN    C310574   0.613   6.496   8.099
 1011ACTN    H410575   0.548   6.583   8.093
 1011ACTN    H510576   0.702   6.513   8.159
 1011ACTN    C210577   0.638   6.482   7.951
 1011ACTN    O110578   0.743   6.438   7.905
 1011ACTN    C110579   0.546   6.536   7.856
 1011ACTN    H110580   0.521   6.640   7.877
 1011ACTN    H210581   0.461   6.471   7.877
 1011ACTN    H310582   0.573   6.523   7.752
 1012ACTN    H610583   4.040   4.937   8.108
 1012ACTN    C310584   4.040   5.010   8.189
 1012ACTN    H410585   4.141   5.043   8.215
 1012ACTN    H510586   3.996   5.102   8.150
 1012ACTN    C210587   3.959   4.953   8.303
 1012ACTN    O110588   4.006   4.952   8.413
 1012ACTN    C110589   3.836   4.891   8.284
 1012ACTN    H110590   3.804   4.899   8.180
 1012ACTN    H210591   3.758   4.939   8.343
 1012ACTN    H310592   3.841   4.784   8.308
 1013ACTN    H610593   0.791   4.977   8.478
 1013ACTN    C310594   0.833   4.999   8.380
 1013ACTN    H410595   0.819   4.907   8.323
 1013ACTN    H510596   0.941   5.004   8.398
 1013ACTN    C210597   0.785   5.125   8.315
 1013ACTN    O110598   0.715   5.205   8.379
 1013ACTN    C110599   0.804   5.147   8.168
 1013ACTN    H110600   0.907   5.169   8.141
 1013ACTN    H210601   0.745   5.235   8.143
 1013ACTN    H310602   0.772   5.061   8.109
 1014ACTN    H610603   2.512   0.292   8.259
 1014ACTN    C310604   2.422   0.252   8.212
 1014ACTN    H410605   2.346   0.273   8.287
 1014ACTN    H510606   2.432   0.146   8.193
 1014ACTN    C210607   2.376   0.343   8.107
 1014ACTN    O110608   2.455   0.427   8.061
 1014ACTN    C110609   2.236   0.339   8.048
 1014ACTN    H110610   2.156   0.337   8.123
 1014ACTN    H210611   2.226   0.250   7.987
 1014ACTN    H310612   2.220   0.427   7.986
 1015ACTN    H610613   1.385   1.168   7.564
 1015ACTN    C310614   1.284   1.125   7.568
 1015ACTN    H410615   1.259   1.080   7.472
 1015ACTN    H510616   1.223   1.214   7.585
 1015ACTN    C210617   1.275   1.021   7.672
 1015ACTN    O110618   1.377   0.971   7.718
 1015ACTN    C110619   1.139   0.989   7.717
 1015ACTN    H110620   1.126   1.047   7.808
 1015ACTN    H210621   1.121   0.884   7.740
 1015ACTN    H310622   1.062   1.021   7.646
 1016ACTN    H610623   6.978   3.459   8.213
 1016ACTN    C310624   7.021   3.519   8.133
 1016ACTN    H410625   7.046   3.448   8.053
 1016ACTN    H510626   6.939   3.580   8.095
 1016ACTN    C210627   7.128   3.607   8.178
 1016ACTN    O110628   7.196   3.564   8.274
 1016ACTN    C110629   7.152   3.737   8.117
 1016ACTN    H110630   7.186   3.814   8.186
 1016ACTN    H210631   7.061   3.783   8.078
 1016ACTN    H310632   7.226   3.732   8.038
 1017ACTN    H610633   2.040   5.946   8.311
 1017ACTN    C310634   1.931   5.951   8.303
 1017ACTN    H410635   1.903   6.010   8.216
 1017ACTN    H510636   1.895   5.849   8.287
 1017ACTN    C210637   1.883   6.012   8.428
 1017ACTN    O110638   1.823   6.119   8.419
 1017ACTN    C110639   1.904   5.945   8.555
 1017ACTN    H110640   1.974   5.861   8.543
 1017ACTN    H210641   1.810   5.906   8.594
 1017ACTN    H310642   1.944   6.014   8.629
 1018ACTN    H610643   4.707   5.831   8.690
 1018ACTN    C310644   4.754   5.762   8.620
 1018ACTN    H410645   4.820   5.692   8.672
 1018ACTN    H510646   4.679   5.704   8.566
 1018ACTN    C210647   4.843   5.838   8.521
 1018ACTN    O110648   4.873   5.789   8.411
 1018ACTN    C110649   4.925   5.944   8.584
 1018ACTN    H110650   4.969   6.006   8.506
 1018ACTN    H210651   5.011   5.902   8.636
 1018ACTN    H310652   4.870   6.005   8.655
 1019ACTN    H610653   5.940   6.923   8.163
 1019ACTN    C310654   5.836   6.935   8.194
 1019ACTN    H410655   5.787   6.982   8.108
 1019ACTN    H510656   5.800   6.832   8.198
 1019ACTN    C210657   5.824   7.005   8.325
 1019ACTN    O110658   5.884   7.104   8.351
 1019ACTN    C110659   5.721   6.963   8.418
 1019ACTN    H110660   5.727   7.012   8.515
 1019ACTN    H210661   5.719   6.855   8.435
 1019ACTN    H310662   5.623   6.985   8.378
 1020ACTN    H610663   4.839   4.337   8.833
 1020ACTN    C310664   4.808   4.296   8.737
 1020ACTN    H410665   4.708   4.330   8.710
 1020ACTN    H510666   4.878   4.344   8.668
 1020ACTN    C210667   4.818   4.149   8.753
 1020ACTN    O110668   4.855   4.079   8.656
 1020ACTN    C110669   4.737   4.087   8.867
 1020ACTN    H110670   4.662   4.163   8.891
 1020ACTN    H210671   4.798   4.063   8.953
 1020ACTN    H310672   4.697   3.992   8.832
 1021ACTN    H610673   1.543   7.165   8.935
 1021ACTN    C310674   1.512   7.098   8.855
 1021ACTN    H410675   1.608   7.056   8.824
 1021ACTN    H510676   1.451   7.017   8.894
 1021ACTN    C210677   1.452   7.166   8.737
 1021ACTN    O110678   1.499   7.264   8.696
 1021ACTN    C110679   1.313   7.125   8.695
 1021ACTN    H110680   1.323   7.075   8.599
 1021ACTN    H210681   1.250   7.213   8.684
 1021ACTN    H310682   1.263   7.052   8.758
 1022ACTN    H610683   7.106   4.851   7.514
 1022ACTN    C310684   6.997   4.853   7.507
 1022ACTN    H410685   6.973   4.781   7.429
 1022ACTN    H510686   6.962   4.814   7.603
 1022ACTN    C210687   6.930   4.978   7.473
 1022ACTN    O110688   6.810   4.990   7.485
 1022ACTN    C110689   7.018   5.097   7.431
 1022ACTN    H110690   7.007   5.105   7.323
 1022ACTN    H210691   7.120   5.078   7.463
 1022ACTN    H310692   6.988   5.187   7.485
 1023ACTN    H610693   4.553   5.729   7.427
 1023ACTN    C310694   4.506   5.801   7.493
 1023ACTN    H410695   4.491   5.761   7.593
 1023ACTN    H510696   4.579   5.881   7.497
 1023ACTN    C210697   4.372   5.837   7.436
 1023ACTN    O110698   4.358   5.858   7.314
 1023ACTN    C110699   4.255   5.831   7.533
 1023ACTN    H110700   4.184   5.755   7.501
 1023ACTN    H210701   4.216   5.932   7.538
 1023ACTN    H310702   4.293   5.819   7.634
 1024ACTN    H610703   6.364   3.375   8.056
 1024ACTN    C310704   6.388   3.437   8.142
 1024ACTN    H410705   6.427   3.364   8.213
 1024ACTN    H510706   6.294   3.474   8.183
 1024ACTN    C210707   6.480   3.545   8.113
 1024ACTN    O110708   6.453   3.647   8.055
 1024ACTN    C110709   6.619   3.539   8.159
 1024ACTN    H110710   6.650   3.608   8.237
 1024ACTN    H210711   6.686   3.559   8.075
 1024ACTN    H310712   6.639   3.436   8.192
 1025ACTN    H610713   3.621   2.093   7.595
 1025ACTN    C310714   3.676   2.017   7.650
 1025ACTN    H410715   3.777   2.052   7.671
 1025ACTN    H510716   3.619   2.001   7.742
 1025ACTN    C210717   3.684   1.888   7.573
 1025ACTN    O110718   3.733   1.794   7.627
 1025ACTN    C110719   3.630   1.884   7.433
 1025ACTN    H110720   3.626   1.782   7.395
 1025ACTN    H210721   3.699   1.933   7.365
 1025ACTN    H310722   3.536   1.939   7.438
 1026ACTN    H610723   3.474   1.260   9.049
 1026ACTN    C310724   3.416   1.202   8.977
 1026ACTN    H410725   3.423   1.099   9.011
 1026ACTN    H510726   3.315   1.242   8.987
 1026ACTN    C210727   3.461   1.220   8.836
 1026ACTN    O110728   3.383   1.252   8.747
 1026ACTN    C110729   3.594   1.167   8.800
 1026ACTN    H110730   3.627   1.224   8.713
 1026ACTN    H210731   3.596   1.058   8.790
 1026ACTN    H310732   3.660   1.187   8.884
 1027ACTN    H610733   4.468   2.122   7.805
 1027ACTN    C310734   4.543   2.151   7.732
 1027ACTN    H410735   4.486   2.134   7.640
 1027ACTN    H510736   4.569   2.257   7.738
 1027ACTN    C210737   4.666   2.060   7.752
 1027ACTN    O110738   4.664   1.939   7.736
 1027ACTN    C110739   4.798   2.122   7.775
 1027ACTN    H110740   4.876   2.070   7.719
 1027ACTN    H210741   4.827   2.117   7.881
 1027ACTN    H310742   4.795   2.228   7.749
 1028ACTN    H610743   4.643   6.363   8.897
 1028ACTN    C310744   4.732   6.407   8.851
 1028ACTN    H410745   4.729   6.511   8.882
 1028ACTN    H510746   4.823   6.365   8.896
 1028ACTN    C210747   4.731   6.393   8.702
 1028ACTN    O110748   4.629   6.422   8.638
 1028ACTN    C110749   4.856   6.378   8.628
 1028ACTN    H110750   4.938   6.348   8.693
 1028ACTN    H210751   4.878   6.477   8.588
 1028ACTN    H310752   4.844   6.312   8.542
 1029ACTN    H610753   6.929   3.800   7.587
 1029ACTN    C310754   7.032   3.787   7.555
 1029ACTN    H410755   7.046   3.694   7.502
 1029ACTN    H510756   7.060   3.866   7.486
 1029ACTN    C210757   7.116   3.774   7.682
 1029ACTN    O110758   7.096   3.704   7.777
 1029ACTN    C110759   7.225   3.875   7.699
 1029ACTN    H110760   7.259   3.873   7.803
 1029ACTN    H210761   7.199   3.978   7.675
 1029ACTN    H310762   7.315   3.848   7.643
 1030ACTN    H610763   3.156   3.967   8.816
 1030ACTN    C310764   3.261   3.967   8.789
 1030ACTN    H410765   3.282   4.049   8.720
 1030ACTN    H510766   3.327   3.982   8.874
 1030ACTN    C210767   3.302   3.831   8.727
 1030ACTN    O110768   3.417   3.797   8.702
 1030ACTN    C110769   3.201   3.724   8.717
 1030ACTN    H110770   3.110   3.770   8.677
 1030ACTN    H210771   3.187   3.674   8.813
 1030ACTN    H310772   3.230   3.644   8.648
 1031ACTN    H610773   3.747   6.660   8.778
 1031ACTN    C310774   3.834   6.606   8.740
 1031ACTN    H410775   3.846   6.508   8.785
 1031ACTN    H510776   3.825   6.598   8.632
 1031ACTN    C210777   3.958   6.685   8.762
 1031ACTN    O110778   3.970   6.793   8.709
 1031ACTN    C110779   4.066   6.630   8.853
 1031ACTN    H110780   4.143   6.702   8.884
 1031ACTN    H210781   4.108   6.538   8.813
 1031ACTN    H310782   4.016   6.606   8.946
 1032ACTN    H610783   6.106   7.061   8.230
 1032ACTN    C310784   6.205   7.016   8.228
 1032ACTN    H410785   6.193   6.910   8.249
 1032ACTN    H510786   6.227   7.011   8.122
 1032ACTN    C210787   6.307   7.083   8.313
 1032ACTN    O110788   6.383   7.159   8.254
 1032ACTN    C110789   6.292   7.084   8.464
 1032ACTN    H110790   6.372   7.145   8.506
 1032ACTN    H210791   6.293   6.985   8.510
 1032ACTN    H310792   6.196   7.131   8.486
 1033ACTN    H610793   6.191   1.352   8.343
 1033ACTN    C310794   6.142   1.449   8.333
 1033ACTN    H410795   6.115   1.470   8.229
 1033ACTN    H510796   6.047   1.436   8.386
 1033ACTN    C210797   6.219   1.546   8.403
 1033ACTN    O110798   6.339   1.539   8.437
 1033ACTN    C110799   6.151   1.683   8.407
 1033ACTN    H110800   6.212   1.765   8.369
 1033ACTN    H210801   6.118   1.706   8.509
 1033ACTN    H310802   6.061   1.677   8.346
 1034ACTN    H610803   2.433   0.204   7.737
 1034ACTN    C310804   2.353   0.266   7.698
 1034ACTN    H410805   2.297   0.201   7.631
 1034ACTN    H510806   2.281   0.295   7.775
 1034ACTN    C210807   2.400   0.382   7.625
 1034ACTN    O110808   2.434   0.382   7.509
 1034ACTN    C110809   2.409   0.514   7.705
 1034ACTN    H110810   2.377   0.495   7.807
 1034ACTN    H210811   2.353   0.595   7.660
 1034ACTN    H310812   2.512   0.545   7.721
 1035ACTN    H610813   1.268   0.178   7.840
 1035ACTN    C310814   1.287   0.285   7.848
 1035ACTN    H410815   1.211   0.332   7.910
 1035ACTN    H510816   1.384   0.302   7.893
 1035ACTN    C210817   1.293   0.350   7.714
 1035ACTN    O110818   1.347   0.292   7.622
 1035ACTN    C110819   1.242   0.493   7.686
 1035ACTN    H110820   1.221   0.520   7.583
 1035ACTN    H210821   1.319   0.560   7.725
 1035ACTN    H310822   1.158   0.516   7.752
 1036ACTN    H610823   0.650   5.740   8.129
 1036ACTN    C310824   0.682   5.824   8.067
 1036ACTN    H410825   0.747   5.885   8.129
 1036ACTN    H510826   0.739   5.789   7.981
 1036ACTN    C210827   0.579   5.917   8.012
 1036ACTN    O110828   0.490   5.866   7.941
 1036ACTN    C110829   0.589   6.063   8.044
 1036ACTN    H110830   0.516   6.119   7.985
 1036ACTN    H210831   0.685   6.109   8.021
 1036ACTN    H310832   0.570   6.080   8.150
 1037ACTN    H610833   6.203   1.793   7.653
 1037ACTN    C310834   6.253   1.713   7.598
 1037ACTN    H410835   6.270   1.747   7.495
 1037ACTN    H510836   6.345   1.705   7.655
 1037ACTN    C210837   6.190   1.579   7.596
 1037ACTN    O110838   6.236   1.494   7.524
 1037ACTN    C110839   6.086   1.550   7.697
 1037ACTN    H110840   6.011   1.628   7.712
 1037ACTN    H210841   6.129   1.523   7.793
 1037ACTN    H310842   6.032   1.459   7.670
 1038ACTN    H610843   5.556   6.259   7.454
 1038ACTN    C310844   5.448   6.271   7.454
 1038ACTN    H410845   5.435   6.375   7.423
 1038ACTN    H510846   5.418   6.196   7.381
 1038ACTN    C210847   5.406   6.267   7.599
 1038ACTN    O110848   5.487   6.238   7.684
 1038ACTN    C110849   5.261   6.288   7.636
 1038ACTN    H110850   5.249   6.387   7.680
 1038ACTN    H210851   5.242   6.219   7.719
 1038ACTN    H310852   5.201   6.272   7.547
 1039ACTN    H610853   5.282   5.306   7.710
 1039ACTN    C310854   5.369   5.371   7.714
 1039ACTN    H410855   5.454   5.306   7.697
 1039ACTN    H510856   5.369   5.452   7.642
 1039ACTN    C210857   5.366   5.432   7.845
 1039ACTN    O110858   5.267   5.482   7.893
 1039ACTN    C110859   5.490   5.415   7.925
 1039ACTN    H110860   5.505   5.494   7.998
 1039ACTN    H210861   5.585   5.403   7.873
 1039ACTN    H310862   5.483   5.323   7.982
 1040ACTN    H610863   7.211   5.509   7.717
 1040ACTN    C310864   7.155   5.599   7.690
 1040ACTN    H410865   7.141   5.600   7.582
 1040ACTN    H510866   7.056   5.601   7.735
 1040ACTN    C210867   7.245   5.713   7.732
 1040ACTN    O110868   7.236   5.750   7.846
 1040ACTN    C110869   7.318   5.796   7.634
 1040ACTN    H110870   7.247   5.843   7.567
 1040ACTN    H210871   7.396   5.742   7.581
 1040ACTN    H310872   7.376   5.876   7.679
 1041ACTN    H610873   1.541   5.479   8.299
 1041ACTN    C310874   1.497   5.575   8.324
 1041ACTN    H410875   1.422   5.601   8.249
 1041ACTN    H510876   1.454   5.552   8.421
 1041ACTN    C210877   1.611   5.673   8.346
 1041ACTN    O110878   1.620   5.777   8.280
 1041ACTN    C110879   1.704   5.652   8.469
 1041ACTN    H110880   1.729   5.549   8.494
 1041ACTN    H210881   1.656   5.707   8.551
 1041ACTN    H310882   1.801   5.696   8.449
 1042ACTN    H610883   2.977   0.668   7.826
 1042ACTN    C310884   3.013   0.767   7.852
 1042ACTN    H410885   3.121   0.756   7.837
 1042ACTN    H510886   2.973   0.845   7.787
 1042ACTN    C210887   3.008   0.793   7.997
 1042ACTN    O110888   2.957   0.722   8.081
 1042ACTN    C110889   3.062   0.926   8.037
 1042ACTN    H110890   2.986   0.979   8.094
 1042ACTN    H210891   3.085   0.997   7.957
 1042ACTN    H310892   3.154   0.906   8.092
 1043ACTN    H610893   3.389   7.104   7.567
 1043ACTN    C310894   3.361   7.023   7.634
 1043ACTN    H410895   3.454   6.995   7.682
 1043ACTN    H510896   3.299   7.055   7.718
 1043ACTN    C210897   3.312   6.902   7.566
 1043ACTN    O110898   3.224   6.899   7.483
 1043ACTN    C110899   3.360   6.769   7.603
 1043ACTN    H110900   3.469   6.767   7.595
 1043ACTN    H210901   3.323   6.682   7.547
 1043ACTN    H310902   3.344   6.744   7.707
 1044ACTN    H610903   7.119   6.406   8.095
 1044ACTN    C310904   7.165   6.493   8.047
 1044ACTN    H410905   7.143   6.495   7.941
 1044ACTN    H510906   7.113   6.578   8.090
 1044ACTN    C210907   7.311   6.502   8.085
 1044ACTN    O110908   7.394   6.476   7.997
 1044ACTN    C110909   7.352   6.491   8.229
 1044ACTN    H110910   7.268   6.446   8.282
 1044ACTN    H210911   7.367   6.592   8.267
 1044ACTN    H310912   7.439   6.427   8.240
 1045ACTN    H610913   4.298   3.819   8.498
 1045ACTN    C310914   4.221   3.890   8.466
 1045ACTN    H410915   4.222   3.881   8.358
 1045ACTN    H510916   4.122   3.858   8.496
 1045ACTN    C210917   4.247   4.028   8.520
 1045ACTN    O110918   4.344   4.097   8.505
 1045ACTN    C110919   4.136   4.084   8.594
 1045ACTN    H110920   4.145   4.075   8.702
 1045ACTN    H210921   4.043   4.032   8.574
 1045ACTN    H310922   4.126   4.189   8.566
 1046ACTN    H610923   5.269   3.245   8.560
 1046ACTN    C310924   5.176   3.188   8.552
 1046ACTN    H410925   5.196   3.084   8.580
 1046ACTN    H510926   5.103   3.236   8.617
 1046ACTN    C210927   5.140   3.190   8.407
 1046ACTN    O110928   5.040   3.256   8.380
 1046ACTN    C110929   5.236   3.142   8.304
 1046ACTN    H110930   5.310   3.220   8.289
 1046ACTN    H210931   5.182   3.134   8.209
 1046ACTN    H310932   5.285   3.049   8.332
 1047ACTN    H610933   1.115   6.752   8.647
 1047ACTN    C310934   1.214   6.770   8.689
 1047ACTN    H410935   1.259   6.852   8.632
 1047ACTN    H510936   1.206   6.813   8.789
 1047ACTN    C210937   1.301   6.651   8.691
 1047ACTN    O110938   1.381   6.637   8.785
 1047ACTN    C110939   1.332   6.566   8.572
 1047ACTN    H110940   1.247   6.517   8.524
 1047ACTN    H210941   1.390   6.481   8.608
 1047ACTN    H310942   1.391   6.617   8.496
 1048ACTN    H610943   0.945   6.798   7.800
 1048ACTN    C310944   0.917   6.717   7.733
 1048ACTN    H410945   1.009   6.675   7.693
 1048ACTN    H510946   0.861   6.645   7.792
 1048ACTN    C210947   0.836   6.789   7.635
 1048ACTN    O110948   0.874   6.798   7.518
 1048ACTN    C110949   0.704   6.852   7.680
 1048ACTN    H110950   0.626   6.809   7.618
 1048ACTN    H210951   0.703   6.961   7.668
 1048ACTN    H310952   0.681   6.837   7.785
 1049ACTN    H610953   1.056   0.591   8.454
 1049ACTN    C310954   1.046   0.502   8.391
 1049ACTN    H410955   1.018   0.419   8.456
 1049ACTN    H510956   0.962   0.527   8.326
 1049ACTN    C210957   1.162   0.457   8.315
 1049ACTN    O110958   1.270   0.439   8.367
 1049ACTN    C110959   1.149   0.439   8.169
 1049ACTN    H110960   1.242   0.440   8.114
 1049ACTN    H210961   1.088   0.520   8.129
 1049ACTN    H310962   1.099   0.346   8.139
 1050ACTN    H610963   6.673   1.310   8.570
 1050ACTN    C310964   6.680   1.210   8.529
 1050ACTN    H410965   6.780   1.166   8.537
 1050ACTN    H510966   6.608   1.142   8.575
 1050ACTN    C210967   6.641   1.221   8.387
 1050ACTN    O110968   6.524   1.243   8.355
 1050ACTN    C110969   6.731   1.145   8.293
 1050ACTN    H110970   6.681   1.140   8.196
 1050ACTN    H210971   6.757   1.044   8.326
 1050ACTN    H310972   6.821   1.206   8.280
 1051ACTN    H610973   1.678   5.102   7.570
 1051ACTN    C310974   1.665   5.078   7.464
 1051ACTN    H410975   1.717   4.985   7.442
 1051ACTN    H510976   1.558   5.059   7.461
 1051ACTN    C210977   1.722   5.186   7.376
 1051ACTN    O110978   1.837   5.179   7.333
 1051ACTN    C110979   1.634   5.299   7.333
 1051ACTN    H110980   1.571   5.329   7.416
 1051ACTN    H210981   1.572   5.275   7.247
 1051ACTN    H310982   1.702   5.378   7.299
 1052ACTN    H610983   6.969   1.537   7.915
 1052ACTN    C310984   6.992   1.643   7.912
 1052ACTN    H410985   7.022   1.675   8.012
 1052ACTN    H510986   7.071   1.651   7.837
 1052ACTN    C210987   6.872   1.716   7.850
 1052ACTN    O110988   6.852   1.714   7.727
 1052ACTN    C110989   6.771   1.786   7.941
 1052ACTN    H110990   6.675   1.813   7.896
 1052ACTN    H210991   6.820   1.873   7.984
 1052ACTN    H310992   6.772   1.714   8.023
 1053ACTN    H610993   7.174   5.193   8.492
 1053ACTN    C310994   7.162   5.109   8.425
 1053ACTN    H410995   7.085   5.042   8.464
 1053ACTN    H510996   7.135   5.152   8.328
 1053ACTN    C210997   7.294   5.034   8.426
 1053ACTN    O110998   7.378   5.100   8.375
 1053ACTN    C110999   7.305   4.883   8.426
 1053ACTN    H111000   7.273   4.838   8.520
 1053ACTN    H211001   7.409   4.854   8.408
 1053ACTN    H311002   7.242   4.840   8.348
 1054ACTN    H611003   7.167   0.265   8.572
 1054ACTN    C311004   7.096   0.334   8.526
 1054ACTN    H411005   7.130   0.432   8.559
 1054ACTN    H511006   7.100   0.324   8.417
 1054ACTN    C211007   6.954   0.307   8.571
 1054ACTN    O111008   6.862   0.386   8.550
 1054ACTN    C111009   6.934   0.193   8.657
 1054ACTN    H111010   6.954   0.093   8.617
 1054ACTN    H211011   6.831   0.192   8.691
 1054ACTN    H311012   6.998   0.200   8.744
 1055ACTN    H611013   2.999   0.463   8.065
 1055ACTN    C311014   2.931   0.401   8.122
 1055ACTN    H411015   2.974   0.318   8.178
 1055ACTN    H511016   2.889   0.470   8.195
 1055ACTN    C211017   2.828   0.349   8.030
 1055ACTN    O111018   2.766   0.246   8.062
 1055ACTN    C111019   2.793   0.422   7.901
 1055ACTN    H111020   2.785   0.345   7.824
 1055ACTN    H211021   2.876   0.487   7.874
 1055ACTN    H311022   2.701   0.478   7.921
 1056ACTN    H611023   1.092   5.373   8.413
 1056ACTN    C311024   1.122   5.310   8.496
 1056ACTN    H411025   1.228   5.322   8.522
 1056ACTN    H511026   1.112   5.207   8.460
 1056ACTN    C211027   1.034   5.337   8.620
 1056ACTN    O111028   1.070   5.298   8.730
 1056ACTN    C111029   0.919   5.429   8.624
 1056ACTN    H111030   0.872   5.435   8.526
 1056ACTN    H211031   0.959   5.525   8.655
 1056ACTN    H311032   0.838   5.398   8.690
 1057ACTN    H611033   4.400   1.289   7.460
 1057ACTN    C311034   4.368   1.371   7.524
 1057ACTN    H411035   4.424   1.371   7.618
 1057ACTN    H511036   4.389   1.465   7.472
 1057ACTN    C211037   4.222   1.362   7.557
 1057ACTN    O111038   4.151   1.439   7.503
 1057ACTN    C111039   4.161   1.248   7.638
 1057ACTN    H111040   4.088   1.277   7.714
 1057ACTN    H211041   4.243   1.187   7.676
 1057ACTN    H311042   4.120   1.171   7.572
 1058ACTN    H611043   4.671   1.830   8.470
 1058ACTN    C311044   4.713   1.874   8.559
 1058ACTN    H411045   4.819   1.899   8.552
 1058ACTN    H511046   4.656   1.967   8.570
 1058ACTN    C211047   4.681   1.783   8.677
 1058ACTN    O111048   4.597   1.695   8.667
 1058ACTN    C111049   4.744   1.810   8.808
 1058ACTN    H111050   4.850   1.785   8.798
 1058ACTN    H211051   4.707   1.758   8.897
 1058ACTN    H311052   4.751   1.917   8.826
 1059ACTN    H611053   0.327   5.137   8.568
 1059ACTN    C311054   0.336   5.211   8.489
 1059ACTN    H411055   0.436   5.204   8.446
 1059ACTN    H511056   0.266   5.175   8.414
 1059ACTN    C211057   0.301   5.349   8.539
 1059ACTN    O111058   0.376   5.400   8.626
 1059ACTN    C111059   0.185   5.421   8.475
 1059ACTN    H111060   0.096   5.374   8.517
 1059ACTN    H211061   0.192   5.410   8.367
 1059ACTN    H311062   0.191   5.525   8.507
 1060ACTN    H611063   5.607   0.066   7.667
 1060ACTN    C311064   5.638   0.142   7.739
 1060ACTN    H411065   5.557   0.215   7.727
 1060ACTN    H511066   5.642   0.104   7.841
 1060ACTN    C211067   5.765   0.198   7.693
 1060ACTN    O111068   5.797   0.310   7.729
 1060ACTN    C111069   5.832   0.136   7.573
 1060ACTN    H111070   5.922   0.194   7.550
 1060ACTN    H211071   5.765   0.144   7.487
 1060ACTN    H311072   5.843   0.029   7.587
 1061ACTN    H611073   4.338   7.054   7.658
 1061ACTN    C311074   4.299   7.129   7.727
 1061ACTN    H411075   4.315   7.091   7.828
 1061ACTN    H511076   4.356   7.219   7.705
 1061ACTN    C211077   4.154   7.137   7.706
 1061ACTN    O111078   4.110   7.249   7.681
 1061ACTN    C111079   4.065   7.032   7.767
 1061ACTN    H111080   3.974   7.005   7.714
 1061ACTN    H211081   4.049   7.067   7.869
 1061ACTN    H311082   4.122   6.940   7.780
 1062ACTN    H611083   4.814   3.498   8.037
 1062ACTN    C311084   4.711   3.463   8.044
 1062ACTN    H411085   4.641   3.544   8.066
 1062ACTN    H511086   4.683   3.421   7.948
 1062ACTN    C211087   4.709   3.351   8.145
 1062ACTN    O111088   4.778   3.246   8.134
 1062ACTN    C111089   4.607   3.360   8.250
 1062ACTN    H111090   4.509   3.334   8.210
 1062ACTN    H211091   4.601   3.457   8.297
 1062ACTN    H311092   4.636   3.279   8.317
 1063ACTN    H611093   1.208   1.456   8.552
 1063ACTN    C311094   1.168   1.368   8.601
 1063ACTN    H411095   1.125   1.403   8.696
 1063ACTN    H511096   1.085   1.333   8.540
 1063ACTN    C211097   1.255   1.252   8.619
 1063ACTN    O111098   1.382   1.265   8.624
 1063ACTN    C111099   1.196   1.124   8.665
 1063ACTN    H111100   1.153   1.148   8.762
 1063ACTN    H211101   1.275   1.050   8.675
 1063ACTN    H311102   1.116   1.092   8.597
 1064ACTN    H611103   5.325   3.411   7.573
 1064ACTN    C311104   5.244   3.445   7.638
 1064ACTN    H411105   5.262   3.551   7.658
 1064ACTN    H511106   5.154   3.431   7.580
 1064ACTN    C211107   5.218   3.372   7.763
 1064ACTN    O111108   5.132   3.410   7.839
 1064ACTN    C111109   5.305   3.251   7.790
 1064ACTN    H111110   5.266   3.162   7.740
 1064ACTN    H211111   5.312   3.231   7.897
 1064ACTN    H311112   5.403   3.273   7.748
 1065ACTN    H611113   4.648   4.531   7.866
 1065ACTN    C311114   4.623   4.580   7.772
 1065ACTN    H411115   4.651   4.685   7.777
 1065ACTN    H511116   4.672   4.541   7.683
 1065ACTN    C211117   4.476   4.585   7.739
 1065ACTN    O111118   4.411   4.681   7.782
 1065ACTN    C111119   4.422   4.458   7.687
 1065ACTN    H111120   4.501   4.387   7.663
 1065ACTN    H211121   4.361   4.464   7.596
 1065ACTN    H311122   4.359   4.408   7.760
 1066ACTN    H611123   5.402   5.853   8.342
 1066ACTN    C311124   5.421   5.769   8.408
 1066ACTN    H411125   5.357   5.686   8.379
 1066ACTN    H511126   5.525   5.738   8.401
 1066ACTN    C211127   5.370   5.808   8.542
 1066ACTN    O111128   5.389   5.926   8.581
 1066ACTN    C111129   5.341   5.701   8.640
 1066ACTN    H111130   5.258   5.731   8.705
 1066ACTN    H211131   5.430   5.671   8.696
 1066ACTN    H311132   5.309   5.607   8.595
 1067ACTN    H611133   4.158   1.929   7.707
 1067ACTN    C311134   4.091   2.012   7.731
 1067ACTN    H411135   4.140   2.107   7.710
 1067ACTN    H511136   3.999   2.001   7.674
 1067ACTN    C211137   4.058   2.021   7.875
 1067ACTN    O111138   3.943   2.031   7.908
 1067ACTN    C111139   4.170   2.010   7.976
 1067ACTN    H111140   4.182   2.098   8.041
 1067ACTN    H211141   4.267   1.998   7.929
 1067ACTN    H311142   4.157   1.921   8.038
 1068ACTN    H611143   7.450   4.123   8.461
 1068ACTN    C311144   7.421   4.020   8.444
 1068ACTN    H411145   7.502   3.958   8.484
 1068ACTN    H511146   7.411   4.006   8.336
 1068ACTN    C211147   7.295   3.977   8.505
 1068ACTN    O111148   7.208   4.058   8.536
 1068ACTN    C111149   7.265   3.837   8.507
 1068ACTN    H111150   7.294   3.793   8.412
 1068ACTN    H211151   7.159   3.820   8.523
 1068ACTN    H311152   7.319   3.785   8.585
 1069ACTN    H611153   4.426   5.728   8.756
 1069ACTN    C311154   4.408   5.647   8.685
 1069ACTN    H411155   4.505   5.607   8.656
 1069ACTN    H511156   4.355   5.566   8.735
 1069ACTN    C211157   4.329   5.690   8.567
 1069ACTN    O111158   4.306   5.806   8.549
 1069ACTN    C111159   4.304   5.585   8.468
 1069ACTN    H111160   4.355   5.609   8.375
 1069ACTN    H211161   4.197   5.590   8.446
 1069ACTN    H311162   4.320   5.486   8.512
 1070ACTN    H611163   4.131   6.091   9.049
 1070ACTN    C311164   4.215   6.136   8.997
 1070ACTN    H411165   4.253   6.217   9.059
 1070ACTN    H511166   4.291   6.059   8.998
 1070ACTN    C211167   4.195   6.176   8.859
 1070ACTN    O111168   4.093   6.236   8.837
 1070ACTN    C111169   4.295   6.159   8.749
 1070ACTN    H111170   4.238   6.111   8.669
 1070ACTN    H211171   4.376   6.094   8.781
 1070ACTN    H311172   4.340   6.247   8.703
 1071ACTN    H611173   6.093   3.135   7.940
 1071ACTN    C311174   6.037   3.144   8.033
 1071ACTN    H411175   6.104   3.153   8.118
 1071ACTN    H511176   5.977   3.235   8.024
 1071ACTN    C211177   5.950   3.034   8.043
 1071ACTN    O111178   5.931   2.956   7.949
 1071ACTN    C111179   5.875   3.018   8.174
 1071ACTN    H111180   5.953   2.986   8.243
 1071ACTN    H211181   5.788   2.953   8.164
 1071ACTN    H311182   5.832   3.110   8.212
 1072ACTN    H611183   5.521   2.291   8.433
 1072ACTN    C311184   5.433   2.245   8.387
 1072ACTN    H411185   5.412   2.302   8.297
 1072ACTN    H511186   5.467   2.143   8.368
 1072ACTN    C211187   5.307   2.263   8.473
 1072ACTN    O111188   5.241   2.165   8.506
 1072ACTN    C111189   5.260   2.399   8.523
 1072ACTN    H111190   5.289   2.485   8.464
 1072ACTN    H211191   5.310   2.417   8.619
 1072ACTN    H311192   5.153   2.406   8.545
 1073ACTN    H611193   4.084   5.314   7.380
 1073ACTN    C311194   4.039   5.413   7.373
 1073ACTN    H411195   4.096   5.487   7.431
 1073ACTN    H511196   4.049   5.448   7.270
 1073ACTN    C211197   3.898   5.404   7.413
 1073ACTN    O111198   3.822   5.350   7.334
 1073ACTN    C111199   3.845   5.460   7.544
 1073ACTN    H111200   3.914   5.542   7.565
 1073ACTN    H211201   3.854   5.384   7.621
 1073ACTN    H311202   3.745   5.502   7.540
 1074ACTN    H611203   4.379   4.833   7.268
 1074ACTN    C311204   4.297   4.834   7.340
 1074ACTN    H411205   4.211   4.788   7.291
 1074ACTN    H511206   4.319   4.777   7.431
 1074ACTN    C211207   4.265   4.972   7.368
 1074ACTN    O111208   4.264   5.014   7.482
 1074ACTN    C111209   4.252   5.062   7.249
 1074ACTN    H111210   4.268   5.002   7.159
 1074ACTN    H211211   4.319   5.147   7.241
 1074ACTN    H311212   4.151   5.101   7.241
 1075ACTN    H611213   6.774   3.730   8.794
 1075ACTN    C311214   6.874   3.704   8.761
 1075ACTN    H411215   6.941   3.788   8.777
 1075ACTN    H511216   6.874   3.674   8.657
 1075ACTN    C211217   6.926   3.592   8.846
 1075ACTN    O111218   6.872   3.567   8.954
 1075ACTN    C111219   7.063   3.542   8.819
 1075ACTN    H111220   7.110   3.607   8.745
 1075ACTN    H211221   7.057   3.441   8.778
 1075ACTN    H311222   7.110   3.532   8.917
 1076ACTN    H611223   1.002   6.799   8.057
 1076ACTN    C311224   0.956   6.707   8.095
 1076ACTN    H411225   0.849   6.726   8.095
 1076ACTN    H511226   0.986   6.624   8.031
 1076ACTN    C211227   0.994   6.688   8.237
 1076ACTN    O111228   0.951   6.591   8.293
 1076ACTN    C111229   1.076   6.793   8.300
 1076ACTN    H111230   1.016   6.884   8.299
 1076ACTN    H211231   1.170   6.814   8.249
 1076ACTN    H311232   1.104   6.770   8.403
 1077ACTN    H611233   5.998   7.327   8.622
 1077ACTN    C311234   5.974   7.253   8.698
 1077ACTN    H411235   5.905   7.302   8.767
 1077ACTN    H511236   5.922   7.167   8.656
 1077ACTN    C211237   6.107   7.234   8.768
 1077ACTN    O111238   6.198   7.318   8.758
 1077ACTN    C111239   6.151   7.101   8.816
 1077ACTN    H111240   6.065   7.034   8.822
 1077ACTN    H211241   6.187   7.104   8.919
 1077ACTN    H311242   6.235   7.053   8.766
 1078ACTN    H611243   5.904   6.716   8.042
 1078ACTN    C311244   5.936   6.639   7.973
 1078ACTN    H411245   5.864   6.557   7.961
 1078ACTN    H511246   5.959   6.693   7.882
 1078ACTN    C211247   6.067   6.593   8.027
 1078ACTN    O111248   6.172   6.652   8.024
 1078ACTN    C111249   6.057   6.451   8.076
 1078ACTN    H111250   5.973   6.450   8.146
 1078ACTN    H211251   6.148   6.437   8.135
 1078ACTN    H311252   6.044   6.370   8.005
 1079ACTN    H611253   0.693   1.871   7.359
 1079ACTN    C311254   0.633   1.818   7.433
 1079ACTN    H411255   0.557   1.756   7.386
 1079ACTN    H511256   0.702   1.758   7.493
 1079ACTN    C211257   0.564   1.921   7.505
 1079ACTN    O111258   0.443   1.938   7.486
 1079ACTN    C111259   0.650   2.027   7.574
 1079ACTN    H111260   0.611   2.116   7.524
 1079ACTN    H211261   0.755   2.012   7.549
 1079ACTN    H311262   0.636   2.027   7.682
 1080ACTN    H611263   6.686   6.162   8.877
 1080ACTN    C311264   6.666   6.149   8.771
 1080ACTN    H411265   6.577   6.209   8.756
 1080ACTN    H511266   6.743   6.196   8.709
 1080ACTN    C211267   6.641   6.007   8.728
 1080ACTN    O111268   6.651   5.912   8.807
 1080ACTN    C111269   6.623   5.971   8.584
 1080ACTN    H111270   6.713   5.920   8.550
 1080ACTN    H211271   6.599   6.059   8.525
 1080ACTN    H311272   6.533   5.908   8.577
 1081ACTN    H611273   4.668   6.233   8.458
 1081ACTN    C311274   4.648   6.140   8.405
 1081ACTN    H411275   4.619   6.055   8.467
 1081ACTN    H511276   4.563   6.155   8.338
 1081ACTN    C211277   4.766   6.106   8.322
 1081ACTN    O111278   4.864   6.183   8.317
 1081ACTN    C111279   4.736   5.999   8.221
 1081ACTN    H111280   4.665   6.051   8.157
 1081ACTN    H211281   4.696   5.908   8.267
 1081ACTN    H311282   4.827   5.964   8.171
 1082ACTN    H611283   5.513   5.832   7.410
 1082ACTN    C311284   5.586   5.868   7.483
 1082ACTN    H411285   5.682   5.846   7.435
 1082ACTN    H511286   5.570   5.975   7.495
 1082ACTN    C211287   5.568   5.785   7.605
 1082ACTN    O111288   5.580   5.664   7.592
 1082ACTN    C111289   5.573   5.857   7.739
 1082ACTN    H111290   5.488   5.925   7.734
 1082ACTN    H211291   5.667   5.911   7.744
 1082ACTN    H311292   5.555   5.781   7.815
 1083ACTN    H611293   6.947   5.805   8.276
 1083ACTN    C311294   7.028   5.828   8.345
 1083ACTN    H411295   6.992   5.806   8.445
 1083ACTN    H511296   7.100   5.750   8.318
 1083ACTN    C211297   7.088   5.971   8.334
 1083ACTN    O111298   7.021   6.065   8.377
 1083ACTN    C111299   7.228   5.994   8.303
 1083ACTN    H111300   7.237   5.998   8.194
 1083ACTN    H211301   7.295   5.920   8.345
 1083ACTN    H311302   7.266   6.089   8.340
 1084ACTN    H611303   3.264   0.988   7.282
 1084ACTN    C311304   3.157   1.010   7.287
 1084ACTN    H411305   3.136   1.100   7.229
 1084ACTN    H511306   3.109   0.929   7.232
 1084ACTN    C211307   3.104   1.028   7.428
 1084ACTN    O111308   3.001   0.972   7.463
 1084ACTN    C111309   3.183   1.100   7.534
 1084ACTN    H111310   3.131   1.192   7.560
 1084ACTN    H211311   3.285   1.124   7.504
 1084ACTN    H311312   3.185   1.041   7.626
 1085ACTN    H611313   5.045   1.908   8.308
 1085ACTN    C311314   4.990   1.963   8.232
 1085ACTN    H411315   4.928   1.887   8.186
 1085ACTN    H511316   4.926   2.038   8.278
 1085ACTN    C211317   5.092   2.026   8.146
 1085ACTN    O111318   5.057   2.091   8.049
 1085ACTN    C111319   5.227   2.047   8.199
 1085ACTN    H111320   5.273   1.968   8.259
 1085ACTN    H211321   5.218   2.132   8.268
 1085ACTN    H311322   5.303   2.063   8.123
 1086ACTN    H611323   6.681   6.029   8.173
 1086ACTN    C311324   6.635   6.127   8.186
 1086ACTN    H411325   6.536   6.110   8.230
 1086ACTN    H511326   6.700   6.177   8.257
 1086ACTN    C211327   6.629   6.188   8.046
 1086ACTN    O111328   6.601   6.307   8.020
 1086ACTN    C111329   6.676   6.095   7.933
 1086ACTN    H111330   6.749   6.023   7.970
 1086ACTN    H211331   6.711   6.154   7.849
 1086ACTN    H311332   6.599   6.029   7.894
 1087ACTN    H611333   4.505   4.492   8.138
 1087ACTN    C311334   4.528   4.569   8.212
 1087ACTN    H411335   4.579   4.511   8.289
 1087ACTN    H511336   4.599   4.639   8.169
 1087ACTN    C211337   4.410   4.635   8.264
 1087ACTN    O111338   4.325   4.577   8.333
 1087ACTN    C111339   4.399   4.786   8.241
 1087ACTN    H111340   4.334   4.799   8.155
 1087ACTN    H211341   4.497   4.830   8.227
 1087ACTN    H311342   4.360   4.850   8.321
 1088ACTN    H611343   3.820   2.235   7.564
 1088ACTN    C311344   3.798   2.341   7.576
 1088ACTN    H411345   3.693   2.362   7.596
 1088ACTN    H511346   3.858   2.381   7.658
 1088ACTN    C211347   3.847   2.418   7.448
 1088ACTN    O111348   3.905   2.350   7.364
 1088ACTN    C111349   3.823   2.569   7.436
 1088ACTN    H111350   3.916   2.622   7.456
 1088ACTN    H211351   3.741   2.600   7.501
 1088ACTN    H311352   3.791   2.576   7.332
 1089ACTN    H611353  -0.040   2.042   8.278
 1089ACTN    C311354   0.018   1.972   8.338
 1089ACTN    H411355   0.120   2.012   8.339
 1089ACTN    H511356  -0.009   1.982   8.443
 1089ACTN    C211357   0.009   1.832   8.290
 1089ACTN    O111358   0.101   1.772   8.246
 1089ACTN    C111359  -0.113   1.748   8.311
 1089ACTN    H111360  -0.100   1.670   8.387
 1089ACTN    H211361  -0.144   1.701   8.218
 1089ACTN    H311362  -0.202   1.808   8.331
 1090ACTN    H611363   6.018   6.000   8.011
 1090ACTN    C311364   5.920   5.997   8.058
 1090ACTN    H411365   5.839   6.034   7.997
 1090ACTN    H511366   5.901   5.894   8.088
 1090ACTN    C211367   5.915   6.085   8.185
 1090ACTN    O111368   5.843   6.180   8.190
 1090ACTN    C111369   6.028   6.073   8.284
 1090ACTN    H111370   5.987   6.003   8.357
 1090ACTN    H211371   6.042   6.168   8.336
 1090ACTN    H311372   6.118   6.028   8.242
 1091ACTN    H611373   2.011   6.204   8.109
 1091ACTN    C311374   2.007   6.311   8.128
 1091ACTN    H411375   1.905   6.348   8.142
 1091ACTN    H511376   2.073   6.338   8.210
 1091ACTN    C211377   2.041   6.369   7.994
 1091ACTN    O111378   1.982   6.335   7.890
 1091ACTN    C111379   2.166   6.450   7.986
 1091ACTN    H111380   2.255   6.388   7.984
 1091ACTN    H211381   2.166   6.515   8.074
 1091ACTN    H311382   2.164   6.512   7.897
 1092ACTN    H611383   6.966   0.925   7.383
 1092ACTN    C311384   7.004   0.945   7.483
 1092ACTN    H411385   7.045   0.853   7.524
 1092ACTN    H511386   7.083   1.020   7.476
 1092ACTN    C211387   6.883   0.990   7.567
 1092ACTN    O111388   6.850   0.932   7.670
 1092ACTN    C111389   6.812   1.108   7.515
 1092ACTN    H111390   6.709   1.118   7.548
 1092ACTN    H211391   6.803   1.111   7.406
 1092ACTN    H311392   6.865   1.195   7.554
 1093ACTN    H611393   0.575   0.841   7.893
 1093ACTN    C311394   0.592   0.748   7.837
 1093ACTN    H411395   0.621   0.681   7.919
 1093ACTN    H511396   0.493   0.714   7.808
 1093ACTN    C211397   0.670   0.769   7.713
 1093ACTN    O111398   0.707   0.881   7.686
 1093ACTN    C111399   0.734   0.655   7.645
 1093ACTN    H111400   0.819   0.633   7.709
 1093ACTN    H211401   0.755   0.688   7.543
 1093ACTN    H311402   0.674   0.565   7.656
 1094ACTN    H611403   0.521   6.513   8.344
 1094ACTN    C311404   0.495   6.465   8.439
 1094ACTN    H411405   0.463   6.541   8.511
 1094ACTN    H511406   0.413   6.394   8.426
 1094ACTN    C211407   0.609   6.371   8.476
 1094ACTN    O111408   0.648   6.289   8.396
 1094ACTN    C111409   0.691   6.404   8.592
 1094ACTN    H111410   0.764   6.325   8.610
 1094ACTN    H211411   0.635   6.423   8.684
 1094ACTN    H311412   0.740   6.499   8.568
 1095ACTN    H611413   1.589   5.671   8.812
 1095ACTN    C311414   1.489   5.672   8.768
 1095ACTN    H411415   1.486   5.623   8.671
 1095ACTN    H511416   1.428   5.610   8.833
 1095ACTN    C211417   1.437   5.811   8.762
 1095ACTN    O111418   1.510   5.914   8.774
 1095ACTN    C111419   1.307   5.833   8.698
 1095ACTN    H111420   1.318   5.915   8.627
 1095ACTN    H211421   1.231   5.865   8.769
 1095ACTN    H311422   1.273   5.743   8.646
 1096ACTN    H611423   0.418   7.032   7.427
 1096ACTN    C311424   0.336   7.104   7.425
 1096ACTN    H411425   0.326   7.144   7.527
 1096ACTN    H511426   0.352   7.182   7.351
 1096ACTN    C211427   0.207   7.035   7.384
 1096ACTN    O111428   0.188   6.991   7.271
 1096ACTN    C111429   0.093   7.036   7.479
 1096ACTN    H111430   0.002   7.057   7.423
 1096ACTN    H211431   0.108   7.101   7.565
 1096ACTN    H311432   0.076   6.935   7.516
 1097ACTN    H611433   5.073   5.773   7.607
 1097ACTN    C311434   5.113   5.759   7.707
 1097ACTN    H411435   5.027   5.729   7.767
 1097ACTN    H511436   5.180   5.674   7.698
 1097ACTN    C211437   5.184   5.880   7.763
 1097ACTN    O111438   5.239   5.950   7.680
 1097ACTN    C111439   5.232   5.872   7.907
 1097ACTN    H111440   5.157   5.807   7.954
 1097ACTN    H211441   5.237   5.974   7.945
 1097ACTN    H311442   5.334   5.834   7.913
 1098ACTN    H611443   4.567   2.853   8.616
 1098ACTN    C311444   4.478   2.900   8.575
 1098ACTN    H411445   4.507   3.005   8.575
 1098ACTN    H511446   4.448   2.868   8.475
 1098ACTN    C211447   4.359   2.871   8.664
 1098ACTN    O111448   4.375   2.817   8.771
 1098ACTN    C111449   4.228   2.936   8.645
 1098ACTN    H111450   4.174   2.957   8.737
 1098ACTN    H211451   4.174   2.859   8.590
 1098ACTN    H311452   4.239   3.024   8.582
 1099ACTN    H611453   6.252   6.728   8.392
 1099ACTN    C311454   6.205   6.631   8.381
 1099ACTN    H411455   6.207   6.617   8.273
 1099ACTN    H511456   6.263   6.547   8.419
 1099ACTN    C211457   6.059   6.626   8.417
 1099ACTN    O111458   5.983   6.714   8.376
 1099ACTN    C111459   6.019   6.536   8.530
 1099ACTN    H111460   5.951   6.586   8.600
 1099ACTN    H211461   6.107   6.505   8.585
 1099ACTN    H311462   5.973   6.445   8.492
 1100ACTN    H611463   4.764   2.317   8.191
 1100ACTN    C311464   4.703   2.406   8.177
 1100ACTN    H411465   4.663   2.441   8.272
 1100ACTN    H511466   4.779   2.475   8.142
 1100ACTN    C211467   4.596   2.392   8.072
 1100ACTN    O111468   4.613   2.470   7.976
 1100ACTN    C111469   4.517   2.267   8.068
 1100ACTN    H111470   4.573   2.186   8.021
 1100ACTN    H211471   4.430   2.297   8.009
 1100ACTN    H311472   4.484   2.247   8.170
 1101ACTN    H611473   7.435   1.851   8.705
 1101ACTN    C311474   7.335   1.855   8.749
 1101ACTN    H411475   7.279   1.763   8.733
 1101ACTN    H511476   7.358   1.863   8.856
 1101ACTN    C211477   7.264   1.981   8.704
 1101ACTN    O111478   7.307   2.097   8.709
 1101ACTN    C111479   7.118   1.961   8.684
 1101ACTN    H111480   7.086   1.941   8.582
 1101ACTN    H211481   7.059   2.048   8.714
 1101ACTN    H311482   7.084   1.874   8.739
 1102ACTN    H611483   7.167   5.410   8.560
 1102ACTN    C311484   7.121   5.492   8.504
 1102ACTN    H411485   7.018   5.494   8.538
 1102ACTN    H511486   7.171   5.588   8.515
 1102ACTN    C211487   7.110   5.458   8.361
 1102ACTN    O111488   7.212   5.455   8.295
 1102ACTN    C111489   6.970   5.437   8.304
 1102ACTN    H111490   6.898   5.494   8.363
 1102ACTN    H211491   6.943   5.333   8.320
 1102ACTN    H311492   6.955   5.463   8.199
 1103ACTN    H611493   3.682   5.861   8.169
 1103ACTN    C311494   3.616   5.775   8.156
 1103ACTN    H411495   3.659   5.725   8.069
 1103ACTN    H511496   3.619   5.706   8.241
 1103ACTN    C211497   3.476   5.823   8.126
 1103ACTN    O111498   3.450   5.938   8.097
 1103ACTN    C111499   3.373   5.714   8.142
 1103ACTN    H111500   3.272   5.756   8.144
 1103ACTN    H211501   3.384   5.664   8.238
 1103ACTN    H311502   3.371   5.639   8.062
 1104ACTN    H611503   5.193   0.470   8.098
 1104ACTN    C311504   5.250   0.397   8.041
 1104ACTN    H411505   5.193   0.361   7.955
 1104ACTN    H511506   5.348   0.433   8.008
 1104ACTN    C211507   5.271   0.285   8.140
 1104ACTN    O111508   5.282   0.305   8.263
 1104ACTN    C111509   5.252   0.148   8.084
 1104ACTN    H111510   5.274   0.134   7.978
 1104ACTN    H211511   5.154   0.102   8.098
 1104ACTN    H311512   5.319   0.078   8.133
 1105ACTN    H611513   0.775   4.399   8.594
 1105ACTN    C311514   0.786   4.479   8.667
 1105ACTN    H411515   0.889   4.478   8.704
 1105ACTN    H511516   0.760   4.570   8.614
 1105ACTN    C211517   0.700   4.454   8.782
 1105ACTN    O111518   0.725   4.360   8.854
 1105ACTN    C111519   0.599   4.553   8.821
 1105ACTN    H111520   0.506   4.497   8.811
 1105ACTN    H211521   0.603   4.640   8.755
 1105ACTN    H311522   0.607   4.576   8.927
 1106ACTN    H611523   4.401   5.504   7.409
 1106ACTN    C311524   4.426   5.406   7.451
 1106ACTN    H411525   4.406   5.400   7.558
 1106ACTN    H511526   4.361   5.341   7.393
 1106ACTN    C211527   4.572   5.387   7.428
 1106ACTN    O111528   4.657   5.432   7.506
 1106ACTN    C111529   4.608   5.275   7.336
 1106ACTN    H111530   4.715   5.279   7.313
 1106ACTN    H211531   4.560   5.277   7.238
 1106ACTN    H311532   4.596   5.177   7.383
 1107ACTN    H611533   0.452   3.163   8.338
 1107ACTN    C311534   0.468   3.124   8.439
 1107ACTN    H411535   0.465   3.016   8.451
 1107ACTN    H511536   0.569   3.149   8.472
 1107ACTN    C211537   0.376   3.188   8.536
 1107ACTN    O111538   0.314   3.283   8.502
 1107ACTN    C111539   0.386   3.164   8.686
 1107ACTN    H111540   0.404   3.058   8.701
 1107ACTN    H211541   0.289   3.182   8.732
 1107ACTN    H311542   0.459   3.230   8.733
 1108ACTN    H611543   0.479   1.720   8.562
 1108ACTN    C311544   0.509   1.807   8.620
 1108ACTN    H411545   0.502   1.768   8.722
 1108ACTN    H511546   0.612   1.836   8.598
 1108ACTN    C211547   0.418   1.930   8.623
 1108ACTN    O111548   0.299   1.923   8.619
 1108ACTN    C111549   0.484   2.062   8.600
 1108ACTN    H111550   0.435   2.126   8.526
 1108ACTN    H211551   0.578   2.045   8.547
 1108ACTN    H311552   0.501   2.100   8.701
 1109ACTN    H611553   5.001   1.604   8.003
 1109ACTN    C311554   5.032   1.705   8.029
 1109ACTN    H411555   4.937   1.759   8.027
 1109ACTN    H511556   5.080   1.709   8.127
 1109ACTN    C211557   5.126   1.753   7.924
 1109ACTN    O111558   5.240   1.783   7.949
 1109ACTN    C111559   5.087   1.733   7.781
 1109ACTN    H111560   5.073   1.626   7.763
 1109ACTN    H211561   5.169   1.776   7.724
 1109ACTN    H311562   4.995   1.788   7.761
 1110ACTN    H611563   4.891   2.572   7.455
 1110ACTN    C311564   4.916   2.674   7.486
 1110ACTN    H411565   5.023   2.673   7.505
 1110ACTN    H511566   4.888   2.746   7.409
 1110ACTN    C211567   4.854   2.706   7.617
 1110ACTN    O111568   4.804   2.815   7.645
 1110ACTN    C111569   4.865   2.604   7.730
 1110ACTN    H111570   4.818   2.508   7.709
 1110ACTN    H211571   4.819   2.635   7.823
 1110ACTN    H311572   4.970   2.578   7.744
 1111ACTN    H611573   6.186   3.892   8.433
 1111ACTN    C311574   6.196   3.997   8.459
 1111ACTN    H411575   6.303   4.015   8.472
 1111ACTN    H511576   6.169   4.043   8.364
 1111ACTN    C211577   6.097   4.034   8.562
 1111ACTN    O111578   6.001   4.107   8.534
 1111ACTN    C111579   6.113   3.965   8.701
 1111ACTN    H111580   6.052   4.018   8.774
 1111ACTN    H211581   6.213   3.973   8.743
 1111ACTN    H311582   6.086   3.860   8.698
 1112ACTN    H611583   1.924   5.438   8.266
 1112ACTN    C311584   2.002   5.514   8.261
 1112ACTN    H411585   2.061   5.486   8.174
 1112ACTN    H511586   1.948   5.604   8.235
 1112ACTN    C211587   2.087   5.535   8.387
 1112ACTN    O111588   2.032   5.550   8.494
 1112ACTN    C111589   2.232   5.498   8.383
 1112ACTN    H111590   2.251   5.418   8.455
 1112ACTN    H211591   2.295   5.578   8.422
 1112ACTN    H311592   2.272   5.465   8.288
 1113ACTN    H611593   3.820   2.811   8.349
 1113ACTN    C311594   3.841   2.826   8.243
 1113ACTN    H411595   3.775   2.911   8.224
 1113ACTN    H511596   3.804   2.749   8.176
 1113ACTN    C211597   3.983   2.857   8.213
 1113ACTN    O111598   4.004   2.923   8.111
 1113ACTN    C111599   4.081   2.852   8.326
 1113ACTN    H111600   4.044   2.919   8.403
 1113ACTN    H211601   4.178   2.885   8.290
 1113ACTN    H311602   4.097   2.756   8.377
 1114ACTN    H611603   6.723   3.324   7.973
 1114ACTN    C311604   6.759   3.253   7.899
 1114ACTN    H411605   6.736   3.280   7.796
 1114ACTN    H511606   6.868   3.258   7.907
 1114ACTN    C211607   6.675   3.131   7.922
 1114ACTN    O111608   6.575   3.127   7.995
 1114ACTN    C111609   6.691   3.007   7.834
 1114ACTN    H111610   6.768   3.024   7.758
 1114ACTN    H211611   6.602   2.972   7.782
 1114ACTN    H311612   6.728   2.922   7.892
 1115ACTN    H611613   2.721   6.368   8.414
 1115ACTN    C311614   2.676   6.454   8.463
 1115ACTN    H411615   2.740   6.542   8.462
 1115ACTN    H511616   2.590   6.480   8.401
 1115ACTN    C211617   2.641   6.431   8.606
 1115ACTN    O111618   2.561   6.346   8.639
 1115ACTN    C111619   2.713   6.504   8.713
 1115ACTN    H111620   2.818   6.481   8.698
 1115ACTN    H211621   2.688   6.489   8.818
 1115ACTN    H311622   2.700   6.612   8.699
 1116ACTN    H611623   0.141   4.337   8.171
 1116ACTN    C311624   0.067   4.324   8.250
 1116ACTN    H411625  -0.018   4.260   8.226
 1116ACTN    H511626   0.114   4.276   8.336
 1116ACTN    C211627   0.024   4.458   8.299
 1116ACTN    O111628   0.068   4.505   8.403
 1116ACTN    C111629  -0.084   4.529   8.230
 1116ACTN    H111630  -0.049   4.571   8.135
 1116ACTN    H211631  -0.123   4.610   8.291
 1116ACTN    H311632  -0.163   4.456   8.217
 1117ACTN    H611633   3.563   4.525   8.932
 1117ACTN    C311634   3.585   4.628   8.962
 1117ACTN    H411635   3.547   4.650   9.062
 1117ACTN    H511636   3.693   4.631   8.959
 1117ACTN    C211637   3.537   4.739   8.870
 1117ACTN    O111638   3.445   4.706   8.792
 1117ACTN    C111639   3.597   4.880   8.883
 1117ACTN    H111640   3.576   4.925   8.786
 1117ACTN    H211641   3.706   4.878   8.891
 1117ACTN    H311642   3.555   4.925   8.972
 1118ACTN    H611643   0.439   3.163   7.937
 1118ACTN    C311644   0.400   3.140   7.838
 1118ACTN    H411645   0.399   3.232   7.779
 1118ACTN    H511646   0.469   3.071   7.788
 1118ACTN    C211647   0.264   3.079   7.841
 1118ACTN    O111648   0.163   3.147   7.828
 1118ACTN    C111649   0.244   2.928   7.824
 1118ACTN    H111650   0.289   2.877   7.909
 1118ACTN    H211651   0.291   2.890   7.734
 1118ACTN    H311652   0.138   2.901   7.832
 1119ACTN    H611653   3.970   2.785   8.628
 1119ACTN    C311654   3.928   2.830   8.718
 1119ACTN    H411655   3.846   2.767   8.752
 1119ACTN    H511656   4.003   2.827   8.797
 1119ACTN    C211657   3.885   2.972   8.697
 1119ACTN    O111658   3.899   3.059   8.786
 1119ACTN    C111659   3.805   3.007   8.573
 1119ACTN    H111660   3.710   3.056   8.594
 1119ACTN    H211661   3.779   2.921   8.511
 1119ACTN    H311662   3.858   3.079   8.510
 1120ACTN    H611663   0.214   4.723   7.318
 1120ACTN    C311664   0.217   4.719   7.427
 1120ACTN    H411665   0.111   4.718   7.453
 1120ACTN    H511666   0.248   4.618   7.454
 1120ACTN    C211667   0.309   4.823   7.484
 1120ACTN    O111668   0.274   4.879   7.582
 1120ACTN    C111669   0.450   4.807   7.444
 1120ACTN    H111670   0.476   4.888   7.376
 1120ACTN    H211671   0.460   4.717   7.385
 1120ACTN    H311672   0.509   4.799   7.535
 1121ACTN    H611673   1.179   7.145   7.463
 1121ACTN    C311674   1.117   7.072   7.514
 1121ACTN    H411675   1.036   7.029   7.455
 1121ACTN    H511676   1.186   6.989   7.529
 1121ACTN    C211677   1.077   7.105   7.654
 1121ACTN    O111678   0.963   7.096   7.695
 1121ACTN    C111679   1.183   7.162   7.741
 1121ACTN    H111680   1.146   7.234   7.813
 1121ACTN    H211681   1.257   7.216   7.682
 1121ACTN    H311682   1.232   7.082   7.797
 1122ACTN    H611683   4.859   0.207   8.460
 1122ACTN    C311684   4.962   0.241   8.446
 1122ACTN    H411685   5.017   0.251   8.540
 1122ACTN    H511686   5.018   0.173   8.383
 1122ACTN    C211687   4.946   0.372   8.386
 1122ACTN    O111688   4.918   0.366   8.266
 1122ACTN    C111689   5.010   0.492   8.444
 1122ACTN    H111690   4.995   0.574   8.374
 1122ACTN    H211691   5.118   0.477   8.451
 1122ACTN    H311692   4.965   0.510   8.542
 1123ACTN    H611693   7.018   1.031   8.055
 1123ACTN    C311694   7.028   1.022   7.947
 1123ACTN    H411695   6.978   0.930   7.916
 1123ACTN    H511696   6.976   1.103   7.895
 1123ACTN    C211697   7.167   1.019   7.899
 1123ACTN    O111698   7.255   0.967   7.965
 1123ACTN    C111699   7.214   1.086   7.778
 1123ACTN    H111700   7.144   1.106   7.697
 1123ACTN    H211701   7.291   1.022   7.734
 1123ACTN    H311702   7.250   1.185   7.807
 1124ACTN    H611703   5.401   6.749   8.244
 1124ACTN    C311704   5.475   6.743   8.164
 1124ACTN    H411705   5.527   6.837   8.148
 1124ACTN    H511706   5.549   6.670   8.197
 1124ACTN    C211707   5.400   6.693   8.048
 1124ACTN    O111708   5.459   6.674   7.943
 1124ACTN    C111709   5.256   6.726   8.051
 1124ACTN    H111710   5.213   6.787   8.131
 1124ACTN    H211711   5.204   6.631   8.042
 1124ACTN    H311712   5.228   6.781   7.962
 1125ACTN    H611713   3.672   5.543   8.401
 1125ACTN    C311714   3.712   5.472   8.329
 1125ACTN    H411715   3.719   5.384   8.392
 1125ACTN    H511716   3.641   5.461   8.246
 1125ACTN    C211717   3.847   5.518   8.286
 1125ACTN    O111718   3.880   5.635   8.280
 1125ACTN    C111719   3.942   5.400   8.245
 1125ACTN    H111720   3.957   5.428   8.141
 1125ACTN    H211721   3.892   5.303   8.243
 1125ACTN    H311722   4.032   5.398   8.306
 1126ACTN    H611723   6.948   6.426   7.863
 1126ACTN    C311724   6.894   6.457   7.774
 1126ACTN    H411725   6.810   6.392   7.750
 1126ACTN    H511726   6.852   6.558   7.771
 1126ACTN    C211727   6.993   6.450   7.660
 1126ACTN    O111728   7.112   6.430   7.679
 1126ACTN    C111729   6.945   6.483   7.523
 1126ACTN    H111730   6.948   6.396   7.457
 1126ACTN    H211731   7.015   6.556   7.483
 1126ACTN    H311732   6.847   6.529   7.509
 1127ACTN    H611733   5.227   6.271   7.950
 1127ACTN    C311734   5.286   6.358   7.979
 1127ACTN    H411735   5.389   6.347   7.946
 1127ACTN    H511736   5.239   6.446   7.936
 1127ACTN    C211737   5.270   6.353   8.133
 1127ACTN    O111738   5.328   6.438   8.199
 1127ACTN    C111739   5.204   6.240   8.200
 1127ACTN    H111740   5.141   6.284   8.278
 1127ACTN    H211741   5.272   6.168   8.245
 1127ACTN    H311742   5.132   6.191   8.134
 1128ACTN    H611743   1.797  -0.066   8.699
 1128ACTN    C311744   1.875   0.010   8.688
 1128ACTN    H411745   1.948   0.002   8.770
 1128ACTN    H511746   1.926  -0.011   8.594
 1128ACTN    C211747   1.808   0.142   8.685
 1128ACTN    O111748   1.807   0.217   8.590
 1128ACTN    C111749   1.765   0.186   8.812
 1128ACTN    H111750   1.701   0.105   8.845
 1128ACTN    H211751   1.701   0.274   8.800
 1128ACTN    H311752   1.849   0.217   8.874
 1129ACTN    H611753   0.138   6.328   8.898
 1129ACTN    C311754   0.074   6.257   8.846
 1129ACTN    H411755   0.079   6.163   8.902
 1129ACTN    H511756  -0.027   6.299   8.856
 1129ACTN    C211757   0.093   6.243   8.699
 1129ACTN    O111758   0.203   6.266   8.646
 1129ACTN    C111759  -0.007   6.170   8.623
 1129ACTN    H111760  -0.082   6.109   8.673
 1129ACTN    H211761   0.049   6.094   8.567
 1129ACTN    H311762  -0.053   6.232   8.546
 1130ACTN    H611763   5.726   6.218   7.620
 1130ACTN    C311764   5.783   6.311   7.619
 1130ACTN    H411765   5.745   6.381   7.545
 1130ACTN    H511766   5.762   6.374   7.705
 1130ACTN    C211767   5.925   6.283   7.596
 1130ACTN    O111768   6.005   6.372   7.576
 1130ACTN    C111769   5.978   6.144   7.587
 1130ACTN    H111770   5.939   6.082   7.506
 1130ACTN    H211771   5.951   6.099   7.683
 1130ACTN    H311772   6.085   6.143   7.571
 1131ACTN    H611773   3.409   4.407   8.404
 1131ACTN    C311774   3.430   4.508   8.369
 1131ACTN    H411775   3.446   4.501   8.261
 1131ACTN    H511776   3.345   4.574   8.386
 1131ACTN    C211777   3.558   4.553   8.427
 1131ACTN    O111778   3.632   4.627   8.363
 1131ACTN    C111779   3.606   4.506   8.562
 1131ACTN    H111780   3.626   4.399   8.564
 1131ACTN    H211781   3.516   4.512   8.624
 1131ACTN    H311782   3.688   4.565   8.604
 1132ACTN    H611783   3.213   5.774   7.538
 1132ACTN    C311784   3.129   5.784   7.606
 1132ACTN    H411785   3.098   5.889   7.608
 1132ACTN    H511786   3.046   5.724   7.570
 1132ACTN    C211787   3.155   5.737   7.743
 1132ACTN    O111788   3.265   5.679   7.771
 1132ACTN    C111789   3.047   5.751   7.853
 1132ACTN    H111790   2.964   5.682   7.838
 1132ACTN    H211791   3.007   5.849   7.828
 1132ACTN    H311792   3.084   5.743   7.955
 1133ACTN    H611793   0.876   4.300   7.418
 1133ACTN    C311794   0.904   4.324   7.521
 1133ACTN    H411795   0.996   4.381   7.531
 1133ACTN    H511796   0.822   4.367   7.578
 1133ACTN    C211797   0.927   4.187   7.580
 1133ACTN    O111798   0.985   4.174   7.685
 1133ACTN    C111799   0.862   4.065   7.519
 1133ACTN    H111800   0.777   4.031   7.578
 1133ACTN    H211801   0.932   3.982   7.511
 1133ACTN    H311802   0.834   4.076   7.414
 1134ACTN    H611803   5.166   6.704   7.495
 1134ACTN    C311804   5.265   6.661   7.511
 1134ACTN    H411805   5.255   6.607   7.605
 1134ACTN    H511806   5.270   6.587   7.431
 1134ACTN    C211807   5.377   6.754   7.517
 1134ACTN    O111808   5.478   6.725   7.455
 1134ACTN    C111809   5.381   6.858   7.619
 1134ACTN    H111810   5.305   6.833   7.693
 1134ACTN    H211811   5.360   6.954   7.572
 1134ACTN    H311812   5.483   6.862   7.656
 1135ACTN    H611813   1.048   7.167   8.580
 1135ACTN    C311814   0.961   7.138   8.522
 1135ACTN    H411815   0.954   7.184   8.423
 1135ACTN    H511816   0.970   7.031   8.501
 1135ACTN    C211817   0.841   7.158   8.607
 1135ACTN    O111818   0.828   7.270   8.655
 1135ACTN    C111819   0.730   7.055   8.633
 1135ACTN    H111820   0.682   7.076   8.729
 1135ACTN    H211821   0.778   6.959   8.650
 1135ACTN    H311822   0.665   7.059   8.546
 1136ACTN    H611823   2.556   8.018   4.628
 1136ACTN    C311824   2.658   8.053   4.617
 1136ACTN    H411825   2.709   8.006   4.701
 1136ACTN    H511826   2.689   8.005   4.524
 1136ACTN    C211827   2.669   8.203   4.607
 1136ACTN    O111828   2.611   8.265   4.696
 1136ACTN    C111829   2.727   8.253   4.480
 1136ACTN    H111830   2.821   8.199   4.465
 1136ACTN    H211831   2.756   8.358   4.485
 1136ACTN    H311832   2.659   8.242   4.395
 1137ACTN    H611833   1.123   8.453   5.832
 1137ACTN    C311834   1.122   8.471   5.724
 1137ACTN    H411835   1.131   8.579   5.713
 1137ACTN    H511836   1.217   8.434   5.685
 1137ACTN    C211837   0.994   8.429   5.664
 1137ACTN    O111838   0.886   8.464   5.716
 1137ACTN    C111839   0.988   8.365   5.531
 1137ACTN    H111840   1.059   8.413   5.464
 1137ACTN    H211841   0.887   8.372   5.492
 1137ACTN    H311842   1.008   8.258   5.539
 1138ACTN    H611843   5.694   8.576   6.129
 1138ACTN    C311844   5.744   8.661   6.082
 1138ACTN    H411845   5.788   8.624   5.990
 1138ACTN    H511846   5.663   8.732   6.068
 1138ACTN    C211847   5.857   8.722   6.158
 1138ACTN    O111848   5.897   8.841   6.132
 1138ACTN    C111849   5.898   8.657   6.276
 1138ACTN    H111850   5.841   8.567   6.301
 1138ACTN    H211851   5.908   8.717   6.366
 1138ACTN    H311852   5.997   8.614   6.259
 1139ACTN    H611853   1.837   7.935   1.245
 1139ACTN    C311854   1.738   7.901   1.276
 1139ACTN    H411855   1.674   7.929   1.192
 1139ACTN    H511856   1.731   7.795   1.296
 1139ACTN    C211857   1.691   7.970   1.400
 1139ACTN    O111858   1.746   8.077   1.428
 1139ACTN    C111859   1.580   7.913   1.488
 1139ACTN    H111860   1.599   7.904   1.595
 1139ACTN    H211861   1.555   7.813   1.452
 1139ACTN    H311862   1.490   7.970   1.465
 1140ACTN    H611863   0.745   8.214   1.061
 1140ACTN    C311864   0.842   8.240   1.103
 1140ACTN    H411865   0.870   8.175   1.186
 1140ACTN    H511866   0.914   8.239   1.022
 1140ACTN    C211867   0.830   8.383   1.148
 1140ACTN    O111868   0.905   8.468   1.102
 1140ACTN    C111869   0.732   8.418   1.250
 1140ACTN    H111870   0.705   8.327   1.302
 1140ACTN    H211871   0.639   8.469   1.225
 1140ACTN    H311872   0.777   8.466   1.337
 1141ACTN    H611873   6.434   7.612   3.448
 1141ACTN    C311874   6.444   7.685   3.367
 1141ACTN    H411875   6.419   7.643   3.270
 1141ACTN    H511876   6.369   7.759   3.394
 1141ACTN    C211877   6.581   7.743   3.369
 1141ACTN    O111878   6.676   7.673   3.346
 1141ACTN    C111879   6.608   7.887   3.382
 1141ACTN    H111880   6.630   7.920   3.280
 1141ACTN    H211881   6.684   7.896   3.460
 1141ACTN    H311882   6.518   7.942   3.410
 1142ACTN    H611883   3.817   8.752   6.471
 1142ACTN    C311884   3.759   8.674   6.423
 1142ACTN    H411885   3.659   8.670   6.465
 1142ACTN    H511886   3.765   8.702   6.318
 1142ACTN    C211887   3.834   8.548   6.451
 1142ACTN    O111888   3.781   8.440   6.445
 1142ACTN    C111889   3.976   8.547   6.487
 1142ACTN    H111890   4.039   8.498   6.413
 1142ACTN    H211891   3.982   8.505   6.588
 1142ACTN    H311892   4.017   8.648   6.487
 1143ACTN    H611893   1.213   8.230   4.841
 1143ACTN    C311894   1.186   8.325   4.794
 1143ACTN    H411895   1.082   8.323   4.762
 1143ACTN    H511896   1.194   8.397   4.875
 1143ACTN    C211897   1.276   8.345   4.674
 1143ACTN    O111898   1.310   8.251   4.602
 1143ACTN    C111899   1.328   8.483   4.664
 1143ACTN    H111900   1.291   8.532   4.574
 1143ACTN    H211901   1.436   8.496   4.673
 1143ACTN    H311902   1.298   8.540   4.753
 1144ACTN    H611903   4.480   7.822   5.565
 1144ACTN    C311904   4.448   7.747   5.492
 1144ACTN    H411905   4.409   7.799   5.404
 1144ACTN    H511906   4.529   7.684   5.456
 1144ACTN    C211907   4.344   7.662   5.543
 1144ACTN    O111908   4.286   7.585   5.461
 1144ACTN    C111909   4.344   7.616   5.687
 1144ACTN    H111910   4.258   7.553   5.713
 1144ACTN    H211911   4.354   7.699   5.757
 1144ACTN    H311912   4.427   7.547   5.702
 1145ACTN    H611913   0.777   8.289   5.096
 1145ACTN    C311914   0.844   8.351   5.037
 1145ACTN    H411915   0.946   8.319   5.059
 1145ACTN    H511916   0.821   8.334   4.932
 1145ACTN    C211917   0.817   8.497   5.077
 1145ACTN    O111918   0.909   8.570   5.105
 1145ACTN    C111919   0.674   8.542   5.048
 1145ACTN    H111920   0.603   8.523   5.128
 1145ACTN    H211921   0.641   8.484   4.962
 1145ACTN    H311922   0.673   8.648   5.021
 1146ACTN    H611923   7.562   7.988   6.467
 1146ACTN    C311924   7.468   8.020   6.421
 1146ACTN    H411925   7.483   8.112   6.364
 1146ACTN    H511926   7.435   7.946   6.348
 1146ACTN    C211927   7.358   8.035   6.523
 1146ACTN    O111928   7.337   8.147   6.574
 1146ACTN    C111929   7.260   7.920   6.567
 1146ACTN    H111930   7.292   7.873   6.660
 1146ACTN    H211931   7.257   7.843   6.490
 1146ACTN    H311932   7.158   7.955   6.582
 1147ACTN    H611933   4.565   7.865   4.975
 1147ACTN    C311934   4.614   7.948   4.925
 1147ACTN    H411935   4.544   8.015   4.876
 1147ACTN    H511936   4.665   8.012   4.997
 1147ACTN    C211937   4.726   7.896   4.838
 1147ACTN    O111938   4.803   7.809   4.880
 1147ACTN    C111939   4.736   7.943   4.695
 1147ACTN    H111940   4.698   8.045   4.681
 1147ACTN    H211941   4.672   7.875   4.639
 1147ACTN    H311942   4.838   7.935   4.655
 1148ACTN    H611943   0.645   7.584   0.451
 1148ACTN    C311944   0.681   7.539   0.359
 1148ACTN    H411945   0.637   7.441   0.339
 1148ACTN    H511946   0.651   7.613   0.285
 1148ACTN    C211947   0.826   7.525   0.348
 1148ACTN    O111948   0.902   7.570   0.268
 1148ACTN    C111949   0.888   7.441   0.458
 1148ACTN    H111950   0.917   7.344   0.418
 1148ACTN    H211951   0.820   7.439   0.543
 1148ACTN    H311952   0.981   7.488   0.488
 1149ACTN    H611953   1.119   7.894   5.555
 1149ACTN    C311954   1.040   7.839   5.606
 1149ACTN    H411955   1.042   7.737   5.565
 1149ACTN    H511956   1.066   7.848   5.711
 1149ACTN    C211957   0.913   7.908   5.580
 1149ACTN    O111958   0.879   8.015   5.624
 1149ACTN    C111959   0.809   7.820   5.515
 1149ACTN    H111960   0.838   7.805   5.411
 1149ACTN    H211961   0.707   7.856   5.505
 1149ACTN    H311962   0.800   7.721   5.558
 1150ACTN    H611963   5.814   8.618   4.612
 1150ACTN    C311964   5.850   8.716   4.642
 1150ACTN    H411965   5.822   8.749   4.742
 1150ACTN    H511966   5.807   8.787   4.571
 1150ACTN    C211967   6.000   8.729   4.628
 1150ACTN    O111968   6.070   8.721   4.730
 1150ACTN    C111969   6.044   8.738   4.479
 1150ACTN    H111970   6.032   8.842   4.448
 1150ACTN    H211971   5.969   8.679   4.428
 1150ACTN    H311972   6.146   8.700   4.467
 1151ACTN    H611973   6.975   8.632   3.571
 1151ACTN    C311974   6.890   8.694   3.546
 1151ACTN    H411975   6.825   8.696   3.633
 1151ACTN    H511976   6.928   8.796   3.536
 1151ACTN    C211977   6.812   8.662   3.420
 1151ACTN    O111978   6.856   8.564   3.358
 1151ACTN    C111979   6.692   8.737   3.379
 1151ACTN    H111980   6.705   8.841   3.409
 1151ACTN    H211981   6.599   8.699   3.423
 1151ACTN    H311982   6.680   8.748   3.271
 1152ACTN    H611983   2.791   8.331   0.497
 1152ACTN    C311984   2.714   8.318   0.420
 1152ACTN    H411985   2.768   8.287   0.330
 1152ACTN    H511986   2.662   8.412   0.407
 1152ACTN    C211987   2.611   8.215   0.458
 1152ACTN    O111988   2.514   8.198   0.384
 1152ACTN    C111989   2.628   8.141   0.589
 1152ACTN    H111990   2.729   8.101   0.587
 1152ACTN    H211991   2.559   8.057   0.602
 1152ACTN    H311992   2.617   8.215   0.669
 1153ACTN    H611993   1.527   8.685   5.319
 1153ACTN    C311994   1.541   8.577   5.315
 1153ACTN    H411995   1.609   8.546   5.394
 1153ACTN    H511996   1.592   8.563   5.220
 1153ACTN    C211997   1.403   8.513   5.327
 1153ACTN    O111998   1.342   8.524   5.435
 1153ACTN    C111999   1.340   8.436   5.211
 1153ACTN    H112000   1.247   8.484   5.180
 1153ACTN    H212001   1.315   8.335   5.242
 1153ACTN    H312002   1.413   8.428   5.130
 1154ACTN    H612003   4.029   8.549   1.476
 1154ACTN    C312004   3.939   8.591   1.431
 1154ACTN    H412005   3.955   8.595   1.323
 1154ACTN    H512006   3.861   8.517   1.450
 1154ACTN    C212007   3.907   8.722   1.489
 1154ACTN    O112008   3.806   8.732   1.559
 1154ACTN    C112009   3.994   8.843   1.453
 1154ACTN    H112010   3.947   8.882   1.363
 1154ACTN    H212011   4.099   8.819   1.433
 1154ACTN    H312012   3.982   8.924   1.526
 1155ACTN    H612013   6.598   7.765   6.706
 1155ACTN    C312014   6.625   7.732   6.806
 1155ACTN    H412015   6.718   7.677   6.794
 1155ACTN    H512016   6.653   7.822   6.862
 1155ACTN    C212017   6.521   7.651   6.876
 1155ACTN    O112018   6.403   7.660   6.837
 1155ACTN    C112019   6.555   7.575   7.001
 1155ACTN    H112020   6.464   7.560   7.060
 1155ACTN    H212021   6.616   7.638   7.066
 1155ACTN    H312022   6.610   7.483   6.982
 1156ACTN    H612023   6.544   7.244   4.518
 1156ACTN    C312024   6.647   7.249   4.555
 1156ACTN    H412025   6.655   7.184   4.642
 1156ACTN    H512026   6.722   7.215   4.484
 1156ACTN    C212027   6.667   7.394   4.589
 1156ACTN    O112028   6.622   7.478   4.511
 1156ACTN    C112029   6.710   7.450   4.719
 1156ACTN    H112030   6.640   7.524   4.759
 1156ACTN    H212031   6.806   7.495   4.695
 1156ACTN    H312032   6.722   7.373   4.795
 1157ACTN    H612033   1.221   8.207   7.200
 1157ACTN    C312034   1.154   8.122   7.207
 1157ACTN    H412035   1.071   8.164   7.151
 1157ACTN    H512036   1.202   8.043   7.150
 1157ACTN    C212037   1.127   8.088   7.346
 1157ACTN    O112038   1.224   8.075   7.417
 1157ACTN    C112039   0.996   8.063   7.393
 1157ACTN    H112040   0.953   8.141   7.455
 1157ACTN    H212041   1.012   7.972   7.450
 1157ACTN    H312042   0.929   8.034   7.312
 1158ACTN    H612043   5.974   7.969   5.959
 1158ACTN    C312044   6.039   7.889   5.925
 1158ACTN    H412045   6.135   7.933   5.898
 1158ACTN    H512046   6.062   7.820   6.006
 1158ACTN    C212047   5.976   7.825   5.806
 1158ACTN    O112048   5.974   7.885   5.697
 1158ACTN    C112049   5.936   7.684   5.818
 1158ACTN    H112050   6.019   7.615   5.812
 1158ACTN    H212051   5.863   7.650   5.745
 1158ACTN    H312052   5.892   7.670   5.917
 1159ACTN    H612053   3.433   7.486   3.554
 1159ACTN    C312054   3.400   7.391   3.594
 1159ACTN    H412055   3.373   7.329   3.508
 1159ACTN    H512056   3.477   7.342   3.654
 1159ACTN    C212057   3.285   7.399   3.688
 1159ACTN    O112058   3.180   7.342   3.657
 1159ACTN    C112059   3.305   7.494   3.797
 1159ACTN    H112060   3.333   7.443   3.889
 1159ACTN    H212061   3.215   7.549   3.820
 1159ACTN    H312062   3.378   7.569   3.767
 1160ACTN    H612063   6.872   8.521   5.345
 1160ACTN    C312064   6.799   8.442   5.364
 1160ACTN    H412065   6.793   8.374   5.279
 1160ACTN    H512066   6.846   8.386   5.445
 1160ACTN    C212067   6.662   8.493   5.410
 1160ACTN    O112068   6.658   8.580   5.496
 1160ACTN    C112069   6.548   8.470   5.319
 1160ACTN    H112070   6.477   8.552   5.322
 1160ACTN    H212071   6.492   8.378   5.336
 1160ACTN    H312072   6.582   8.464   5.215
 1161ACTN    H612073   4.987   7.588   4.464
 1161ACTN    C312074   4.933   7.581   4.558
 1161ACTN    H412075   4.872   7.669   4.577
 1161ACTN    H512076   4.863   7.499   4.547
 1161ACTN    C212077   5.029   7.572   4.667
 1161ACTN    O112078   5.132   7.641   4.668
 1161ACTN    C112079   4.999   7.494   4.786
 1161ACTN    H112080   5.077   7.499   4.862
 1161ACTN    H212081   4.973   7.394   4.753
 1161ACTN    H312082   4.909   7.540   4.828
 1162ACTN    H612083   2.292   8.322   4.803
 1162ACTN    C312084   2.289   8.431   4.794
 1162ACTN    H412085   2.377   8.468   4.846
 1162ACTN    H512086   2.303   8.451   4.688
 1162ACTN    C212087   2.162   8.497   4.838
 1162ACTN    O112088   2.156   8.606   4.886
 1162ACTN    C112089   2.038   8.414   4.807
 1162ACTN    H112090   2.002   8.367   4.898
 1162ACTN    H212091   2.063   8.332   4.740
 1162ACTN    H312092   1.961   8.475   4.759
 1163ACTN    H612093   5.562   8.849   2.557
 1163ACTN    C312094   5.504   8.836   2.466
 1163ACTN    H412095   5.567   8.864   2.381
 1163ACTN    H512096   5.487   8.728   2.459
 1163ACTN    C212097   5.385   8.929   2.469
 1163ACTN    O112098   5.269   8.894   2.506
 1163ACTN    C112099   5.402   9.067   2.409
 1163ACTN    H112100   5.423   9.062   2.302
 1163ACTN    H212101   5.481   9.131   2.449
 1163ACTN    H312102   5.310   9.125   2.412
 1164ACTN    H612103   0.425   8.229   6.312
 1164ACTN    C312104   0.524   8.260   6.344
 1164ACTN    H412105   0.541   8.204   6.436
 1164ACTN    H512106   0.600   8.244   6.267
 1164ACTN    C212107   0.509   8.402   6.391
 1164ACTN    O112108   0.572   8.453   6.486
 1164ACTN    C112109   0.406   8.492   6.328
 1164ACTN    H112110   0.448   8.587   6.296
 1164ACTN    H212111   0.327   8.518   6.399
 1164ACTN    H312112   0.356   8.441   6.246
 1165ACTN    H612113   5.758   7.572   1.678
 1165ACTN    C312114   5.785   7.637   1.761
 1165ACTN    H412115   5.894   7.630   1.760
 1165ACTN    H512116   5.754   7.740   1.741
 1165ACTN    C212117   5.733   7.567   1.877
 1165ACTN    O112118   5.776   7.603   1.987
 1165ACTN    C112119   5.661   7.440   1.862
 1165ACTN    H112120   5.596   7.425   1.949
 1165ACTN    H212121   5.733   7.359   1.854
 1165ACTN    H312122   5.602   7.435   1.770
 1166ACTN    H612123   6.041   8.262   4.185
 1166ACTN    C312124   5.936   8.292   4.174
 1166ACTN    H412125   5.942   8.387   4.122
 1166ACTN    H512126   5.880   8.218   4.116
 1166ACTN    C212127   5.862   8.308   4.302
 1166ACTN    O112128   5.817   8.417   4.339
 1166ACTN    C112129   5.873   8.192   4.396
 1166ACTN    H112130   5.915   8.224   4.492
 1166ACTN    H212131   5.930   8.102   4.371
 1166ACTN    H312132   5.773   8.153   4.411
 1167ACTN    H612133   1.706   7.289   2.091
 1167ACTN    C312134   1.678   7.288   2.196
 1167ACTN    H412135   1.597   7.215   2.191
 1167ACTN    H512136   1.759   7.255   2.261
 1167ACTN    C212137   1.616   7.409   2.260
 1167ACTN    O112138   1.497   7.418   2.297
 1167ACTN    C112139   1.700   7.528   2.283
 1167ACTN    H112140   1.722   7.553   2.387
 1167ACTN    H212141   1.660   7.619   2.239
 1167ACTN    H312142   1.797   7.520   2.233
 1168ACTN    H612143   0.989   7.906   2.881
 1168ACTN    C312144   1.041   7.835   2.817
 1168ACTN    H412145   1.047   7.738   2.867
 1168ACTN    H512146   1.142   7.872   2.803
 1168ACTN    C212147   0.979   7.820   2.679
 1168ACTN    O112148   0.929   7.712   2.654
 1168ACTN    C112149   0.978   7.930   2.580
 1168ACTN    H112150   0.987   7.888   2.480
 1168ACTN    H212151   1.057   7.998   2.611
 1168ACTN    H312152   0.882   7.981   2.589
 1169ACTN    H612153   1.527   7.691   1.888
 1169ACTN    C312154   1.531   7.599   1.947
 1169ACTN    H412155   1.620   7.620   2.006
 1169ACTN    H512156   1.439   7.582   2.003
 1169ACTN    C212157   1.563   7.487   1.848
 1169ACTN    O112158   1.671   7.483   1.789
 1169ACTN    C112159   1.452   7.382   1.867
 1169ACTN    H112160   1.468   7.333   1.963
 1169ACTN    H212161   1.451   7.311   1.784
 1169ACTN    H312162   1.354   7.429   1.873
 1170ACTN    H612163   4.908   7.848   3.289
 1170ACTN    C312164   4.885   7.936   3.348
 1170ACTN    H412165   4.837   8.014   3.289
 1170ACTN    H512166   4.820   7.916   3.433
 1170ACTN    C212167   5.018   7.990   3.404
 1170ACTN    O112168   5.021   8.058   3.511
 1170ACTN    C112169   5.136   7.986   3.319
 1170ACTN    H112170   5.223   7.975   3.384
 1170ACTN    H212171   5.136   8.076   3.258
 1170ACTN    H312172   5.132   7.898   3.254
 1171ACTN    H612173   0.328   8.020   4.404
 1171ACTN    C312174   0.335   7.968   4.499
 1171ACTN    H412175   0.389   7.880   4.464
 1171ACTN    H512176   0.397   8.035   4.560
 1171ACTN    C212177   0.203   7.921   4.554
 1171ACTN    O112178   0.180   7.910   4.674
 1171ACTN    C112179   0.088   7.894   4.463
 1171ACTN    H112180   0.121   7.917   4.362
 1171ACTN    H212181   0.004   7.959   4.488
 1171ACTN    H312182   0.043   7.795   4.475
 1172ACTN    H612183   0.030   8.551   6.108
 1172ACTN    C312184   0.011   8.657   6.122
 1172ACTN    H412185   0.009   8.711   6.027
 1172ACTN    H512186  -0.095   8.659   6.150
 1172ACTN    C212187   0.101   8.737   6.209
 1172ACTN    O112188   0.218   8.740   6.176
 1172ACTN    C112189   0.053   8.791   6.343
 1172ACTN    H112190   0.107   8.881   6.375
 1172ACTN    H212191   0.066   8.709   6.414
 1172ACTN    H312192  -0.054   8.810   6.341
 1173ACTN    H612193   1.580   7.744   4.533
 1173ACTN    C312194   1.486   7.695   4.559
 1173ACTN    H412195   1.458   7.643   4.468
 1173ACTN    H512196   1.497   7.625   4.642
 1173ACTN    C212197   1.390   7.808   4.586
 1173ACTN    O112198   1.315   7.855   4.500
 1173ACTN    C112199   1.406   7.876   4.718
 1173ACTN    H112200   1.433   7.801   4.793
 1173ACTN    H212201   1.315   7.920   4.758
 1173ACTN    H312202   1.481   7.955   4.710
 1174ACTN    H612203   5.055   7.750   4.967
 1174ACTN    C312204   5.153   7.761   5.013
 1174ACTN    H412205   5.166   7.689   5.093
 1174ACTN    H512206   5.230   7.748   4.937
 1174ACTN    C212207   5.164   7.890   5.078
 1174ACTN    O112208   5.275   7.949   5.082
 1174ACTN    C112209   5.050   7.937   5.153
 1174ACTN    H112210   4.965   7.874   5.126
 1174ACTN    H212211   5.022   8.036   5.119
 1174ACTN    H312212   5.066   7.952   5.260
 1175ACTN    H612213   4.350   7.456   4.318
 1175ACTN    C312214   4.401   7.543   4.358
 1175ACTN    H412215   4.490   7.580   4.306
 1175ACTN    H512216   4.331   7.627   4.355
 1175ACTN    C212217   4.448   7.513   4.499
 1175ACTN    O112218   4.423   7.401   4.540
 1175ACTN    C112219   4.535   7.610   4.573
 1175ACTN    H112220   4.633   7.566   4.589
 1175ACTN    H212221   4.499   7.640   4.672
 1175ACTN    H312222   4.548   7.699   4.511
 1176ACTN    H612223   4.405   8.036   4.659
 1176ACTN    C312224   4.328   7.960   4.644
 1176ACTN    H412225   4.357   7.884   4.572
 1176ACTN    H512226   4.320   7.914   4.743
 1176ACTN    C212227   4.201   8.008   4.587
 1176ACTN    O112228   4.134   7.939   4.513
 1176ACTN    C112229   4.151   8.126   4.656
 1176ACTN    H112230   4.208   8.213   4.626
 1176ACTN    H212231   4.155   8.108   4.764
 1176ACTN    H312232   4.051   8.158   4.630
 1177ACTN    H612233   2.602   7.638   4.667
 1177ACTN    C312234   2.553   7.735   4.657
 1177ACTN    H412235   2.594   7.796   4.737
 1177ACTN    H512236   2.582   7.780   4.561
 1177ACTN    C212237   2.403   7.727   4.666
 1177ACTN    O112238   2.344   7.832   4.681
 1177ACTN    C112239   2.332   7.597   4.650
 1177ACTN    H112240   2.379   7.551   4.564
 1177ACTN    H212241   2.233   7.620   4.612
 1177ACTN    H312242   2.335   7.532   4.737
 1178ACTN    H612243   3.123   8.308   4.202
 1178ACTN    C312244   3.036   8.327   4.265
 1178ACTN    H412245   2.954   8.351   4.196
 1178ACTN    H512246   3.012   8.240   4.326
 1178ACTN    C212247   3.053   8.444   4.353
 1178ACTN    O112248   2.967   8.483   4.428
 1178ACTN    C112249   3.195   8.491   4.365
 1178ACTN    H112250   3.193   8.600   4.362
 1178ACTN    H212251   3.256   8.466   4.278
 1178ACTN    H312252   3.247   8.457   4.455
 1179ACTN    H612253   5.076   8.793   2.082
 1179ACTN    C312254   5.181   8.811   2.106
 1179ACTN    H412255   5.227   8.881   2.037
 1179ACTN    H512256   5.176   8.848   2.209
 1179ACTN    C212257   5.259   8.681   2.106
 1179ACTN    O112258   5.352   8.673   2.185
 1179ACTN    C112259   5.222   8.559   2.026
 1179ACTN    H112260   5.222   8.590   1.922
 1179ACTN    H212261   5.124   8.527   2.059
 1179ACTN    H312262   5.294   8.478   2.042
 1180ACTN    H612263   0.767   8.017   4.360
 1180ACTN    C312264   0.716   8.104   4.318
 1180ACTN    H412265   0.656   8.151   4.396
 1180ACTN    H512266   0.798   8.171   4.293
 1180ACTN    C212267   0.620   8.063   4.213
 1180ACTN    O112268   0.549   7.960   4.224
 1180ACTN    C112269   0.618   8.136   4.087
 1180ACTN    H112270   0.682   8.224   4.087
 1180ACTN    H212271   0.513   8.159   4.069
 1180ACTN    H312272   0.655   8.068   4.010
 1181ACTN    H612273   5.339   8.202   4.600
 1181ACTN    C312274   5.336   8.252   4.503
 1181ACTN    H412275   5.255   8.205   4.448
 1181ACTN    H512276   5.333   8.361   4.502
 1181ACTN    C212277   5.468   8.223   4.439
 1181ACTN    O112278   5.563   8.219   4.520
 1181ACTN    C112279   5.497   8.241   4.292
 1181ACTN    H112280   5.587   8.185   4.266
 1181ACTN    H212281   5.501   8.345   4.258
 1181ACTN    H312282   5.418   8.194   4.233
 1182ACTN    H612283   5.597   7.821   5.364
 1182ACTN    C312284   5.653   7.831   5.271
 1182ACTN    H412285   5.647   7.935   5.242
 1182ACTN    H512286   5.761   7.824   5.287
 1182ACTN    C212287   5.616   7.733   5.169
 1182ACTN    O112288   5.695   7.715   5.078
 1182ACTN    C112289   5.474   7.687   5.152
 1182ACTN    H112290   5.435   7.644   5.245
 1182ACTN    H212291   5.476   7.619   5.067
 1182ACTN    H312292   5.407   7.770   5.133
 1183ACTN    H612293   2.512   7.651   0.900
 1183ACTN    C312294   2.422   7.611   0.853
 1183ACTN    H412295   2.346   7.632   0.928
 1183ACTN    H512296   2.432   7.505   0.834
 1183ACTN    C212297   2.376   7.702   0.748
 1183ACTN    O112298   2.455   7.786   0.702
 1183ACTN    C112299   2.236   7.698   0.689
 1183ACTN    H112300   2.156   7.696   0.764
 1183ACTN    H212301   2.226   7.609   0.628
 1183ACTN    H312302   2.220   7.786   0.627
 1184ACTN    H612303   0.587   7.446   2.796
 1184ACTN    C312304   0.538   7.543   2.804
 1184ACTN    H412305   0.503   7.577   2.707
 1184ACTN    H512306   0.450   7.530   2.868
 1184ACTN    C212307   0.620   7.647   2.869
 1184ACTN    O112308   0.575   7.766   2.864
 1184ACTN    C112309   0.751   7.605   2.927
 1184ACTN    H112310   0.741   7.537   3.011
 1184ACTN    H212311   0.806   7.691   2.965
 1184ACTN    H312312   0.820   7.566   2.852
 1185ACTN    H612313   3.540   7.551   2.530
 1185ACTN    C312314   3.496   7.527   2.627
 1185ACTN    H412315   3.561   7.546   2.712
 1185ACTN    H512316   3.407   7.588   2.646
 1185ACTN    C212317   3.452   7.385   2.637
 1185ACTN    O112318   3.336   7.351   2.614
 1185ACTN    C112319   3.547   7.272   2.671
 1185ACTN    H112320   3.520   7.230   2.768
 1185ACTN    H212321   3.648   7.307   2.692
 1185ACTN    H312322   3.562   7.195   2.596
 1186ACTN    H612323   1.385   8.527   0.205
 1186ACTN    C312324   1.284   8.484   0.209
 1186ACTN    H412325   1.259   8.439   0.113
 1186ACTN    H512326   1.223   8.573   0.226
 1186ACTN    C212327   1.275   8.380   0.313
 1186ACTN    O112328   1.377   8.330   0.359
 1186ACTN    C112329   1.139   8.348   0.358
 1186ACTN    H112330   1.126   8.406   0.449
 1186ACTN    H212331   1.121   8.243   0.381
 1186ACTN    H312332   1.062   8.380   0.287
 1187ACTN    H612333   6.393   8.715   3.869
 1187ACTN    C312334   6.373   8.647   3.786
 1187ACTN    H412335   6.265   8.638   3.774
 1187ACTN    H512336   6.412   8.688   3.692
 1187ACTN    C212337   6.430   8.514   3.828
 1187ACTN    O112338   6.552   8.513   3.839
 1187ACTN    C112339   6.354   8.389   3.848
 1187ACTN    H112340   6.329   8.355   3.747
 1187ACTN    H212341   6.269   8.401   3.915
 1187ACTN    H312342   6.422   8.316   3.891
 1188ACTN    H612343   6.705   7.355   5.473
 1188ACTN    C312344   6.630   7.401   5.409
 1188ACTN    H412345   6.560   7.326   5.372
 1188ACTN    H512346   6.583   7.476   5.472
 1188ACTN    C212347   6.682   7.473   5.293
 1188ACTN    O112348   6.801   7.506   5.290
 1188ACTN    C112349   6.594   7.489   5.164
 1188ACTN    H112350   6.556   7.591   5.162
 1188ACTN    H212351   6.519   7.411   5.149
 1188ACTN    H312352   6.665   7.475   5.082
 1189ACTN    H612353   1.636   8.248   4.031
 1189ACTN    C312354   1.722   8.192   3.992
 1189ACTN    H412355   1.796   8.271   3.977
 1189ACTN    H512356   1.686   8.148   3.899
 1189ACTN    C212357   1.769   8.107   4.091
 1189ACTN    O112358   1.698   8.107   4.194
 1189ACTN    C112359   1.894   8.035   4.074
 1189ACTN    H112360   1.873   7.928   4.077
 1189ACTN    H212361   1.968   8.059   4.151
 1189ACTN    H312362   1.934   8.052   3.974
 1190ACTN    H612363   1.859   8.936   2.444
 1190ACTN    C312364   1.950   8.892   2.486
 1190ACTN    H412365   1.987   8.820   2.413
 1190ACTN    H512366   2.022   8.972   2.500
 1190ACTN    C212367   1.901   8.811   2.603
 1190ACTN    O112368   1.978   8.798   2.698
 1190ACTN    C112369   1.787   8.708   2.587
 1190ACTN    H112370   1.694   8.764   2.591
 1190ACTN    H212371   1.802   8.622   2.653
 1190ACTN    H312372   1.793   8.671   2.485
 1191ACTN    H612373   2.924   7.967   5.582
 1191ACTN    C312374   2.823   7.985   5.618
 1191ACTN    H412375   2.769   8.049   5.548
 1191ACTN    H512376   2.763   7.893   5.616
 1191ACTN    C212377   2.807   8.055   5.754
 1191ACTN    O112378   2.879   8.156   5.778
 1191ACTN    C112379   2.733   7.988   5.868
 1191ACTN    H112380   2.719   8.056   5.952
 1191ACTN    H212381   2.769   7.888   5.891
 1191ACTN    H312382   2.630   7.977   5.835
 1192ACTN    H612383   2.370   7.541   4.014
 1192ACTN    C312384   2.344   7.496   3.918
 1192ACTN    H412385   2.425   7.520   3.848
 1192ACTN    H512386   2.339   7.389   3.938
 1192ACTN    C212387   2.209   7.538   3.857
 1192ACTN    O112388   2.107   7.506   3.909
 1192ACTN    C112389   2.208   7.596   3.718
 1192ACTN    H112390   2.111   7.631   3.681
 1192ACTN    H212391   2.250   7.527   3.644
 1192ACTN    H312392   2.270   7.685   3.723
 1193ACTN    H612393   3.474   8.619   1.690
 1193ACTN    C312394   3.416   8.561   1.618
 1193ACTN    H412395   3.423   8.458   1.652
 1193ACTN    H512396   3.315   8.601   1.628
 1193ACTN    C212397   3.461   8.579   1.477
 1193ACTN    O112398   3.383   8.611   1.388
 1193ACTN    C112399   3.594   8.526   1.441
 1193ACTN    H112400   3.627   8.583   1.354
 1193ACTN    H212401   3.596   8.417   1.431
 1193ACTN    H312402   3.660   8.546   1.525
 1194ACTN    H612403   6.303   8.826   6.656
 1194ACTN    C312404   6.210   8.801   6.707
 1194ACTN    H412405   6.239   8.724   6.778
 1194ACTN    H512406   6.165   8.888   6.754
 1194ACTN    C212407   6.128   8.738   6.605
 1194ACTN    O112408   6.009   8.775   6.593
 1194ACTN    C112409   6.186   8.634   6.517
 1194ACTN    H112410   6.119   8.548   6.521
 1194ACTN    H212411   6.283   8.597   6.551
 1194ACTN    H312412   6.189   8.670   6.414
 1195ACTN    H612413   1.845   8.439   6.289
 1195ACTN    C312414   1.810   8.542   6.279
 1195ACTN    H412415   1.864   8.587   6.196
 1195ACTN    H512416   1.707   8.525   6.250
 1195ACTN    C212417   1.812   8.622   6.405
 1195ACTN    O112418   1.812   8.743   6.400
 1195ACTN    C112419   1.767   8.560   6.532
 1195ACTN    H112420   1.775   8.451   6.522
 1195ACTN    H212421   1.661   8.578   6.553
 1195ACTN    H312422   1.826   8.589   6.619
 1196ACTN    H612423   2.329   8.468   2.857
 1196ACTN    C312424   2.392   8.387   2.893
 1196ACTN    H412425   2.398   8.388   3.002
 1196ACTN    H512426   2.337   8.296   2.869
 1196ACTN    C212427   2.538   8.403   2.832
 1196ACTN    O112428   2.568   8.326   2.744
 1196ACTN    C112429   2.646   8.502   2.877
 1196ACTN    H112430   2.707   8.460   2.957
 1196ACTN    H212431   2.596   8.593   2.912
 1196ACTN    H312432   2.716   8.525   2.797
 1197ACTN    H612433   1.973   7.755   2.628
 1197ACTN    C312434   1.931   7.803   2.717
 1197ACTN    H412435   1.827   7.772   2.717
 1197ACTN    H512436   1.975   7.766   2.809
 1197ACTN    C212437   1.948   7.951   2.714
 1197ACTN    O112438   1.942   8.013   2.609
 1197ACTN    C112439   1.995   8.028   2.830
 1197ACTN    H112440   2.084   8.081   2.797
 1197ACTN    H212441   2.024   7.964   2.914
 1197ACTN    H312442   1.917   8.102   2.847
 1198ACTN    H612443   3.201   8.688   5.880
 1198ACTN    C312444   3.103   8.666   5.838
 1198ACTN    H412445   3.024   8.709   5.900
 1198ACTN    H512446   3.096   8.709   5.737
 1198ACTN    C212447   3.109   8.515   5.823
 1198ACTN    O112448   3.105   8.469   5.709
 1198ACTN    C112449   3.152   8.432   5.943
 1198ACTN    H112450   3.249   8.472   5.973
 1198ACTN    H212451   3.154   8.327   5.914
 1198ACTN    H312452   3.080   8.447   6.024
 1199ACTN    H612453   1.420   8.542   5.891
 1199ACTN    C312454   1.465   8.582   5.800
 1199ACTN    H412455   1.423   8.539   5.709
 1199ACTN    H512456   1.456   8.690   5.811
 1199ACTN    C212457   1.612   8.551   5.803
 1199ACTN    O112458   1.650   8.488   5.900
 1199ACTN    C112459   1.709   8.613   5.699
 1199ACTN    H112460   1.725   8.535   5.625
 1199ACTN    H212461   1.798   8.630   5.759
 1199ACTN    H312462   1.672   8.702   5.648
 1200ACTN    H612463   1.124   8.801   4.851
 1200ACTN    C312464   1.030   8.746   4.854
 1200ACTN    H412465   1.046   8.638   4.852
 1200ACTN    H512466   0.970   8.772   4.941
 1200ACTN    C212467   0.958   8.803   4.732
 1200ACTN    O112468   0.958   8.745   4.624
 1200ACTN    C112469   0.881   8.929   4.755
 1200ACTN    H112470   0.816   8.947   4.669
 1200ACTN    H212471   0.945   9.016   4.770
 1200ACTN    H312472   0.817   8.914   4.842
 1201ACTN    H612473   6.383   8.835   4.855
 1201ACTN    C312474   6.448   8.748   4.845
 1201ACTN    H412475   6.404   8.688   4.766
 1201ACTN    H512476   6.550   8.769   4.813
 1201ACTN    C212477   6.454   8.659   4.961
 1201ACTN    O112478   6.543   8.678   5.041
 1201ACTN    C112479   6.330   8.575   4.995
 1201ACTN    H112480   6.302   8.599   5.098
 1201ACTN    H212481   6.339   8.469   4.970
 1201ACTN    H312482   6.243   8.614   4.942
 1202ACTN    H612483   3.200   7.866   4.405
 1202ACTN    C312484   3.105   7.919   4.412
 1202ACTN    H412485   3.123   8.022   4.381
 1202ACTN    H512486   3.036   7.877   4.339
 1202ACTN    C212487   3.064   7.906   4.557
 1202ACTN    O112488   3.040   8.001   4.628
 1202ACTN    C112489   3.042   7.766   4.606
 1202ACTN    H112490   2.964   7.708   4.556
 1202ACTN    H212491   3.016   7.785   4.710
 1202ACTN    H312492   3.138   7.713   4.606
 1203ACTN    H612493   2.087   7.494   4.172
 1203ACTN    C312494   2.177   7.463   4.226
 1203ACTN    H412495   2.135   7.413   4.314
 1203ACTN    H512496   2.241   7.403   4.162
 1203ACTN    C212497   2.236   7.598   4.266
 1203ACTN    O112498   2.157   7.682   4.310
 1203ACTN    C112499   2.387   7.622   4.264
 1203ACTN    H112500   2.441   7.528   4.248
 1203ACTN    H212501   2.409   7.671   4.359
 1203ACTN    H312502   2.411   7.689   4.181
 1204ACTN    H612503   2.230   8.809   3.515
 1204ACTN    C312504   2.131   8.854   3.505
 1204ACTN    H412505   2.149   8.962   3.501
 1204ACTN    H512506   2.082   8.819   3.414
 1204ACTN    C212507   2.052   8.816   3.622
 1204ACTN    O112508   1.945   8.870   3.640
 1204ACTN    C112509   2.087   8.702   3.711
 1204ACTN    H112510   2.028   8.619   3.673
 1204ACTN    H212511   2.070   8.716   3.818
 1204ACTN    H312512   2.190   8.668   3.705
 1205ACTN    H612513   2.433   7.563   0.378
 1205ACTN    C312514   2.353   7.625   0.339
 1205ACTN    H412515   2.297   7.560   0.272
 1205ACTN    H512516   2.281   7.654   0.416
 1205ACTN    C212517   2.400   7.741   0.266
 1205ACTN    O112518   2.434   7.741   0.150
 1205ACTN    C112519   2.409   7.873   0.346
 1205ACTN    H112520   2.377   7.854   0.448
 1205ACTN    H212521   2.353   7.954   0.301
 1205ACTN    H312522   2.512   7.904   0.362
 1206ACTN    H612523   4.350   8.918   2.853
 1206ACTN    C312524   4.449   8.877   2.836
 1206ACTN    H412525   4.500   8.932   2.757
 1206ACTN    H512526   4.508   8.894   2.926
 1206ACTN    C212527   4.440   8.730   2.803
 1206ACTN    O112528   4.536   8.677   2.742
 1206ACTN    C112529   4.353   8.641   2.886
 1206ACTN    H112530   4.410   8.560   2.932
 1206ACTN    H212531   4.262   8.614   2.833
 1206ACTN    H312532   4.313   8.709   2.962
 1207ACTN    H612533   1.268   7.537   0.481
 1207ACTN    C312534   1.287   7.644   0.489
 1207ACTN    H412535   1.211   7.691   0.551
 1207ACTN    H512536   1.384   7.661   0.534
 1207ACTN    C212537   1.293   7.709   0.355
 1207ACTN    O112538   1.347   7.651   0.263
 1207ACTN    C112539   1.242   7.852   0.327
 1207ACTN    H112540   1.221   7.879   0.224
 1207ACTN    H212541   1.319   7.919   0.366
 1207ACTN    H312542   1.158   7.875   0.393
 1208ACTN    H612543   5.195   7.568   5.660
 1208ACTN    C312544   5.178   7.487   5.589
 1208ACTN    H412545   5.222   7.397   5.631
 1208ACTN    H512546   5.070   7.478   5.579
 1208ACTN    C212547   5.249   7.516   5.460
 1208ACTN    O112548   5.373   7.517   5.458
 1208ACTN    C112549   5.172   7.523   5.336
 1208ACTN    H112550   5.132   7.427   5.307
 1208ACTN    H212551   5.244   7.551   5.259
 1208ACTN    H312552   5.092   7.597   5.341
 1209ACTN    H612553  -0.052   7.629   3.324
 1209ACTN    C312554   0.046   7.653   3.364
 1209ACTN    H412555   0.102   7.560   3.363
 1209ACTN    H512556   0.106   7.715   3.297
 1209ACTN    C212557   0.028   7.711   3.500
 1209ACTN    O112558  -0.085   7.734   3.541
 1209ACTN    C112559   0.142   7.727   3.596
 1209ACTN    H112560   0.204   7.637   3.591
 1209ACTN    H212561   0.115   7.734   3.702
 1209ACTN    H312562   0.203   7.815   3.575
 1210ACTN    H612563   0.413   7.902   3.899
 1210ACTN    C312564   0.324   7.910   3.962
 1210ACTN    H412565   0.345   7.861   4.057
 1210ACTN    H512566   0.249   7.854   3.905
 1210ACTN    C212567   0.302   8.053   3.987
 1210ACTN    O112568   0.309   8.127   3.887
 1210ACTN    C112569   0.203   8.077   4.095
 1210ACTN    H112570   0.221   8.002   4.172
 1210ACTN    H212571   0.099   8.056   4.071
 1210ACTN    H312572   0.199   8.179   4.131
 1211ACTN    H612573   6.943   7.747   7.409
 1211ACTN    C312574   7.050   7.737   7.386
 1211ACTN    H412575   7.078   7.643   7.338
 1211ACTN    H512576   7.103   7.742   7.481
 1211ACTN    C212577   7.098   7.850   7.299
 1211ACTN    O112578   7.049   7.859   7.186
 1211ACTN    C112579   7.169   7.967   7.369
 1211ACTN    H112580   7.125   8.064   7.344
 1211ACTN    H212581   7.270   7.975   7.328
 1211ACTN    H312582   7.164   7.957   7.477
 1212ACTN    H612583   0.613   8.677   4.078
 1212ACTN    C312584   0.698   8.698   4.144
 1212ACTN    H412585   0.781   8.733   4.082
 1212ACTN    H512586   0.675   8.778   4.214
 1212ACTN    C212587   0.720   8.571   4.218
 1212ACTN    O112588   0.746   8.468   4.152
 1212ACTN    C112589   0.706   8.572   4.371
 1212ACTN    H112590   0.773   8.651   4.406
 1212ACTN    H212591   0.744   8.477   4.410
 1212ACTN    H312592   0.605   8.591   4.406
 1213ACTN    H612593   2.977   8.027   0.467
 1213ACTN    C312594   3.013   8.126   0.493
 1213ACTN    H412595   3.121   8.115   0.478
 1213ACTN    H512596   2.973   8.204   0.428
 1213ACTN    C212597   3.008   8.152   0.638
 1213ACTN    O112598   2.957   8.081   0.722
 1213ACTN    C112599   3.062   8.285   0.678
 1213ACTN    H112600   2.986   8.338   0.735
 1213ACTN    H212601   3.085   8.356   0.598
 1213ACTN    H312602   3.154   8.265   0.733
 1214ACTN    H612603   2.381   8.174   2.528
 1214ACTN    C312604   2.280   8.160   2.567
 1214ACTN    H412605   2.258   8.054   2.576
 1214ACTN    H512606   2.281   8.206   2.666
 1214ACTN    C212607   2.177   8.231   2.479
 1214ACTN    O112608   2.092   8.306   2.523
 1214ACTN    C112609   2.205   8.221   2.329
 1214ACTN    H112610   2.290   8.163   2.294
 1214ACTN    H212611   2.211   8.322   2.287
 1214ACTN    H312612   2.118   8.177   2.280
 1215ACTN    H612613   6.362   7.481   2.890
 1215ACTN    C312614   6.279   7.496   2.821
 1215ACTN    H412615   6.192   7.490   2.887
 1215ACTN    H512616   6.298   7.596   2.782
 1215ACTN    C212617   6.272   7.399   2.709
 1215ACTN    O112618   6.360   7.320   2.674
 1215ACTN    C112619   6.148   7.428   2.626
 1215ACTN    H112620   6.164   7.506   2.552
 1215ACTN    H212621   6.059   7.450   2.684
 1215ACTN    H312622   6.126   7.336   2.572
 1216ACTN    H612623   7.012   7.694   1.535
 1216ACTN    C312624   6.984   7.692   1.640
 1216ACTN    H412625   7.032   7.764   1.706
 1216ACTN    H512626   6.877   7.708   1.650
 1216ACTN    C212627   7.013   7.559   1.691
 1216ACTN    O112628   6.989   7.457   1.621
 1216ACTN    C112629   7.065   7.533   1.830
 1216ACTN    H112630   7.120   7.439   1.831
 1216ACTN    H212631   6.977   7.535   1.894
 1216ACTN    H312632   7.121   7.615   1.875
 1217ACTN    H612633   0.653   8.569   4.755
 1217ACTN    C312634   0.546   8.578   4.734
 1217ACTN    H412635   0.538   8.584   4.625
 1217ACTN    H512636   0.492   8.488   4.762
 1217ACTN    C212637   0.486   8.702   4.801
 1217ACTN    O112638   0.388   8.689   4.875
 1217ACTN    C112639   0.516   8.842   4.750
 1217ACTN    H112640   0.556   8.899   4.834
 1217ACTN    H212641   0.430   8.898   4.714
 1217ACTN    H312642   0.592   8.844   4.672
 1218ACTN    H612643   2.700   7.896   3.985
 1218ACTN    C312644   2.776   7.924   4.058
 1218ACTN    H412645   2.871   7.879   4.029
 1218ACTN    H512646   2.780   8.033   4.061
 1218ACTN    C212647   2.736   7.882   4.193
 1218ACTN    O112648   2.694   7.952   4.283
 1218ACTN    C112649   2.769   7.734   4.225
 1218ACTN    H112650   2.856   7.738   4.292
 1218ACTN    H212651   2.814   7.683   4.140
 1218ACTN    H312652   2.684   7.675   4.262
 1219ACTN    H612653   0.773   8.307   3.845
 1219ACTN    C312654   0.736   8.407   3.825
 1219ACTN    H412655   0.684   8.462   3.903
 1219ACTN    H512656   0.820   8.469   3.791
 1219ACTN    C212657   0.650   8.405   3.705
 1219ACTN    O112658   0.700   8.391   3.597
 1219ACTN    C112659   0.509   8.361   3.729
 1219ACTN    H112660   0.497   8.254   3.712
 1219ACTN    H212661   0.445   8.411   3.656
 1219ACTN    H312662   0.473   8.388   3.829
 1220ACTN    H612663   6.896   8.306   4.802
 1220ACTN    C312664   6.800   8.268   4.838
 1220ACTN    H412665   6.761   8.206   4.758
 1220ACTN    H512666   6.822   8.211   4.928
 1220ACTN    C212667   6.719   8.381   4.873
 1220ACTN    O112668   6.614   8.361   4.919
 1220ACTN    C112669   6.764   8.520   4.828
 1220ACTN    H112670   6.867   8.519   4.793
 1220ACTN    H212671   6.755   8.598   4.904
 1220ACTN    H312672   6.702   8.555   4.746
 1221ACTN    H612673   0.540   8.677   7.302
 1221ACTN    C312674   0.435   8.698   7.320
 1221ACTN    H412675   0.381   8.662   7.232
 1221ACTN    H512676   0.405   8.643   7.409
 1221ACTN    C212677   0.409   8.844   7.339
 1221ACTN    O112678   0.488   8.922   7.285
 1221ACTN    C112679   0.299   8.904   7.423
 1221ACTN    H112680   0.337   8.964   7.506
 1221ACTN    H212681   0.223   8.833   7.458
 1221ACTN    H312682   0.239   8.976   7.369
 1222ACTN    H612683   4.820   8.397   2.445
 1222ACTN    C312684   4.731   8.351   2.402
 1222ACTN    H412685   4.700   8.417   2.322
 1222ACTN    H512686   4.751   8.256   2.351
 1222ACTN    C212687   4.619   8.330   2.499
 1222ACTN    O112688   4.508   8.301   2.458
 1222ACTN    C112689   4.637   8.339   2.644
 1222ACTN    H112690   4.626   8.247   2.702
 1222ACTN    H212691   4.577   8.419   2.686
 1222ACTN    H312692   4.739   8.372   2.664
 1223ACTN    H612693   5.644   8.476   2.153
 1223ACTN    C312694   5.604   8.397   2.217
 1223ACTN    H412695   5.623   8.294   2.187
 1223ACTN    H512696   5.498   8.420   2.213
 1223ACTN    C212697   5.665   8.412   2.347
 1223ACTN    O112698   5.669   8.316   2.430
 1223ACTN    C112699   5.749   8.537   2.363
 1223ACTN    H112700   5.855   8.511   2.363
 1223ACTN    H212701   5.724   8.575   2.461
 1223ACTN    H312702   5.741   8.616   2.288
 1224ACTN    H612703   2.707   7.829   6.120
 1224ACTN    C312704   2.663   7.839   6.219
 1224ACTN    H412705   2.638   7.744   6.267
 1224ACTN    H512706   2.723   7.901   6.285
 1224ACTN    C212707   2.524   7.897   6.188
 1224ACTN    O112708   2.513   8.013   6.149
 1224ACTN    C112709   2.405   7.821   6.237
 1224ACTN    H112710   2.416   7.716   6.213
 1224ACTN    H212711   2.306   7.850   6.201
 1224ACTN    H312712   2.401   7.836   6.345
 1225ACTN    H612713   1.056   7.950   1.095
 1225ACTN    C312714   1.046   7.861   1.032
 1225ACTN    H412715   1.018   7.778   1.097
 1225ACTN    H512716   0.962   7.886   0.967
 1225ACTN    C212717   1.162   7.816   0.956
 1225ACTN    O112718   1.270   7.798   1.008
 1225ACTN    C112719   1.149   7.798   0.810
 1225ACTN    H112720   1.242   7.799   0.755
 1225ACTN    H212721   1.088   7.879   0.770
 1225ACTN    H312722   1.099   7.705   0.780
 1226ACTN    H612723   0.227   7.629   5.270
 1226ACTN    C312724   0.220   7.653   5.164
 1226ACTN    H412725   0.197   7.564   5.107
 1226ACTN    H512726   0.139   7.726   5.154
 1226ACTN    C212727   0.339   7.719   5.101
 1226ACTN    O112728   0.386   7.670   5.000
 1226ACTN    C112729   0.379   7.859   5.148
 1226ACTN    H112730   0.294   7.902   5.201
 1226ACTN    H212731   0.391   7.919   5.058
 1226ACTN    H312732   0.471   7.845   5.205
 1227ACTN    H612733   6.673   8.669   1.211
 1227ACTN    C312734   6.680   8.569   1.170
 1227ACTN    H412735   6.780   8.525   1.178
 1227ACTN    H512736   6.608   8.501   1.216
 1227ACTN    C212737   6.641   8.580   1.028
 1227ACTN    O112738   6.524   8.602   0.996
 1227ACTN    C112739   6.731   8.504   0.934
 1227ACTN    H112740   6.681   8.499   0.837
 1227ACTN    H212741   6.757   8.403   0.967
 1227ACTN    H312742   6.821   8.565   0.921
 1228ACTN    H612743   2.432   7.718   2.742
 1228ACTN    C312744   2.396   7.766   2.834
 1228ACTN    H412745   2.297   7.810   2.818
 1228ACTN    H512746   2.390   7.682   2.903
 1228ACTN    C212747   2.494   7.870   2.885
 1228ACTN    O112748   2.499   7.978   2.830
 1228ACTN    C112749   2.586   7.832   3.000
 1228ACTN    H112750   2.660   7.908   3.026
 1228ACTN    H212751   2.639   7.742   2.972
 1228ACTN    H312752   2.530   7.827   3.094
 1229ACTN    H612753   1.277   7.261   4.761
 1229ACTN    C312754   1.284   7.361   4.719
 1229ACTN    H412755   1.182   7.396   4.727
 1229ACTN    H512756   1.344   7.424   4.785
 1229ACTN    C212757   1.345   7.359   4.580
 1229ACTN    O112758   1.295   7.427   4.493
 1229ACTN    C112759   1.487   7.303   4.563
 1229ACTN    H112760   1.485   7.255   4.465
 1229ACTN    H212761   1.496   7.222   4.635
 1229ACTN    H312762   1.566   7.377   4.577
 1230ACTN    H612763   1.605   7.864   3.225
 1230ACTN    C312764   1.636   7.830   3.324
 1230ACTN    H412765   1.741   7.850   3.345
 1230ACTN    H512766   1.575   7.880   3.399
 1230ACTN    C212767   1.618   7.676   3.322
 1230ACTN    O112768   1.688   7.616   3.241
 1230ACTN    C112769   1.550   7.601   3.433
 1230ACTN    H112770   1.511   7.508   3.392
 1230ACTN    H212771   1.477   7.667   3.478
 1230ACTN    H312772   1.622   7.570   3.509
 1231ACTN    H612773   7.167   7.624   1.213
 1231ACTN    C312774   7.096   7.693   1.167
 1231ACTN    H412775   7.130   7.791   1.200
 1231ACTN    H512776   7.100   7.683   1.058
 1231ACTN    C212777   6.954   7.666   1.212
 1231ACTN    O112778   6.862   7.745   1.191
 1231ACTN    C112779   6.934   7.552   1.298
 1231ACTN    H112780   6.954   7.452   1.258
 1231ACTN    H212781   6.831   7.551   1.332
 1231ACTN    H312782   6.998   7.559   1.385
 1232ACTN    H612783   2.999   7.822   0.706
 1232ACTN    C312784   2.931   7.760   0.763
 1232ACTN    H412785   2.974   7.677   0.819
 1232ACTN    H512786   2.889   7.829   0.836
 1232ACTN    C212787   2.828   7.708   0.671
 1232ACTN    O112788   2.766   7.605   0.703
 1232ACTN    C112789   2.793   7.781   0.542
 1232ACTN    H112790   2.785   7.704   0.465
 1232ACTN    H212791   2.876   7.846   0.515
 1232ACTN    H312792   2.701   7.837   0.562
 1233ACTN    H612793   4.400   8.648   0.101
 1233ACTN    C312794   4.368   8.730   0.165
 1233ACTN    H412795   4.424   8.730   0.259
 1233ACTN    H512796   4.389   8.824   0.113
 1233ACTN    C212797   4.222   8.721   0.198
 1233ACTN    O112798   4.151   8.798   0.144
 1233ACTN    C112799   4.161   8.607   0.279
 1233ACTN    H112800   4.088   8.636   0.355
 1233ACTN    H212801   4.243   8.546   0.317
 1233ACTN    H312802   4.120   8.530   0.213
 1234ACTN    H612803   7.117   8.140   7.133
 1234ACTN    C312804   7.218   8.177   7.116
 1234ACTN    H412805   7.217   8.271   7.061
 1234ACTN    H512806   7.254   8.185   7.218
 1234ACTN    C212807   7.295   8.073   7.040
 1234ACTN    O112808   7.396   8.029   7.092
 1234ACTN    C112809   7.243   7.995   6.928
 1234ACTN    H112810   7.241   8.065   6.844
 1234ACTN    H212811   7.142   7.958   6.945
 1234ACTN    H312812   7.309   7.912   6.902
 1235ACTN    H612813   1.168   7.777   3.885
 1235ACTN    C312814   1.252   7.736   3.941
 1235ACTN    H412815   1.249   7.776   4.042
 1235ACTN    H512816   1.249   7.627   3.948
 1235ACTN    C212817   1.386   7.782   3.883
 1235ACTN    O112818   1.422   7.702   3.801
 1235ACTN    C112819   1.444   7.922   3.890
 1235ACTN    H112820   1.460   7.965   3.790
 1235ACTN    H212821   1.539   7.924   3.944
 1235ACTN    H312822   1.378   7.990   3.944
 1236ACTN    H612823   3.069   8.474   2.435
 1236ACTN    C312824   2.988   8.401   2.424
 1236ACTN    H412825   2.936   8.410   2.519
 1236ACTN    H512826   3.033   8.302   2.424
 1236ACTN    C212827   2.900   8.424   2.307
 1236ACTN    O112828   2.787   8.371   2.302
 1236ACTN    C112829   2.936   8.525   2.204
 1236ACTN    H112830   2.935   8.628   2.240
 1236ACTN    H212831   2.868   8.505   2.122
 1236ACTN    H312832   3.032   8.493   2.165
 1237ACTN    H612833   4.607   7.886   4.038
 1237ACTN    C312834   4.509   7.927   4.013
 1237ACTN    H412835   4.474   7.861   3.934
 1237ACTN    H512836   4.449   7.928   4.104
 1237ACTN    C212837   4.521   8.065   3.947
 1237ACTN    O112838   4.613   8.092   3.870
 1237ACTN    C112839   4.411   8.165   3.971
 1237ACTN    H112840   4.450   8.265   3.948
 1237ACTN    H212841   4.380   8.150   4.074
 1237ACTN    H312842   4.326   8.136   3.910
 1238ACTN    H612843   6.787   8.566   6.048
 1238ACTN    C312844   6.886   8.588   6.087
 1238ACTN    H412845   6.913   8.688   6.053
 1238ACTN    H512846   6.877   8.581   6.196
 1238ACTN    C212847   6.985   8.485   6.039
 1238ACTN    O112848   6.984   8.374   6.085
 1238ACTN    C112849   7.062   8.528   5.916
 1238ACTN    H112850   6.996   8.590   5.855
 1238ACTN    H212851   7.087   8.441   5.856
 1238ACTN    H312852   7.152   8.582   5.944
 1239ACTN    H612853   1.033   7.443   3.519
 1239ACTN    C312854   0.927   7.445   3.546
 1239ACTN    H412855   0.913   7.373   3.627
 1239ACTN    H512856   0.877   7.411   3.456
 1239ACTN    C212857   0.882   7.579   3.587
 1239ACTN    O112858   0.840   7.659   3.503
 1239ACTN    C112859   0.868   7.597   3.732
 1239ACTN    H112860   0.770   7.562   3.764
 1239ACTN    H212861   0.877   7.703   3.752
 1239ACTN    H312862   0.944   7.538   3.784
 1240ACTN    H612863   0.619   8.738   5.923
 1240ACTN    C312864   0.667   8.829   5.958
 1240ACTN    H412865   0.640   8.905   5.885
 1240ACTN    H512866   0.610   8.864   6.045
 1240ACTN    C212867   0.815   8.811   5.983
 1240ACTN    O112868   0.892   8.838   5.893
 1240ACTN    C112869   0.859   8.730   6.095
 1240ACTN    H112870   0.919   8.790   6.164
 1240ACTN    H212871   0.933   8.658   6.059
 1240ACTN    H312872   0.786   8.677   6.155
 1241ACTN    H612873   5.404   7.813   4.520
 1241ACTN    C312874   5.340   7.887   4.474
 1241ACTN    H412875   5.396   7.980   4.465
 1241ACTN    H512876   5.308   7.836   4.383
 1241ACTN    C212877   5.223   7.907   4.563
 1241ACTN    O112878   5.111   7.922   4.511
 1241ACTN    C112879   5.238   7.925   4.713
 1241ACTN    H112880   5.142   7.940   4.763
 1241ACTN    H212881   5.288   8.022   4.720
 1241ACTN    H312882   5.299   7.847   4.759
 1242ACTN    H612883   0.553   9.116   6.313
 1242ACTN    C312884   0.539   9.008   6.303
 1242ACTN    H412885   0.431   8.995   6.294
 1242ACTN    H512886   0.594   8.964   6.220
 1242ACTN    C212887   0.583   8.955   6.430
 1242ACTN    O112888   0.550   9.010   6.531
 1242ACTN    C112889   0.679   8.842   6.426
 1242ACTN    H112890   0.633   8.759   6.372
 1242ACTN    H212891   0.691   8.809   6.529
 1242ACTN    H312892   0.777   8.869   6.387
 1243ACTN    H612893   5.607   7.425   0.308
 1243ACTN    C312894   5.638   7.501   0.380
 1243ACTN    H412895   5.557   7.574   0.368
 1243ACTN    H512896   5.642   7.463   0.482
 1243ACTN    C212897   5.765   7.557   0.334
 1243ACTN    O112898   5.797   7.669   0.370
 1243ACTN    C112899   5.832   7.495   0.214
 1243ACTN    H112900   5.922   7.553   0.191
 1243ACTN    H212901   5.765   7.503   0.128
 1243ACTN    H312902   5.843   7.388   0.228
 1244ACTN    H612903   6.501   7.254   3.693
 1244ACTN    C312904   6.495   7.295   3.794
 1244ACTN    H412905   6.397   7.265   3.831
 1244ACTN    H512906   6.573   7.253   3.858
 1244ACTN    C212907   6.526   7.441   3.784
 1244ACTN    O112908   6.531   7.508   3.888
 1244ACTN    C112909   6.582   7.504   3.657
 1244ACTN    H112910   6.532   7.469   3.567
 1244ACTN    H212911   6.687   7.475   3.656
 1244ACTN    H312912   6.576   7.613   3.658
 1245ACTN    H612913   1.208   8.815   1.193
 1245ACTN    C312914   1.168   8.727   1.242
 1245ACTN    H412915   1.125   8.762   1.337
 1245ACTN    H512916   1.085   8.692   1.181
 1245ACTN    C212917   1.255   8.611   1.260
 1245ACTN    O112918   1.382   8.624   1.265
 1245ACTN    C112919   1.196   8.483   1.306
 1245ACTN    H112920   1.153   8.507   1.403
 1245ACTN    H212921   1.275   8.409   1.316
 1245ACTN    H312922   1.116   8.451   1.238
 1246ACTN    H612923   1.351   7.426   5.031
 1246ACTN    C312924   1.401   7.504   5.088
 1246ACTN    H412925   1.430   7.467   5.187
 1246ACTN    H512926   1.492   7.536   5.037
 1246ACTN    C212927   1.310   7.620   5.096
 1246ACTN    O112928   1.300   7.691   4.999
 1246ACTN    C112929   1.215   7.626   5.212
 1246ACTN    H112930   1.237   7.716   5.270
 1246ACTN    H212931   1.226   7.541   5.280
 1246ACTN    H312932   1.111   7.628   5.178
 1247ACTN    H612933   6.684   7.726   4.283
 1247ACTN    C312934   6.703   7.702   4.179
 1247ACTN    H412935   6.796   7.645   4.177
 1247ACTN    H512936   6.623   7.645   4.132
 1247ACTN    C212937   6.715   7.835   4.099
 1247ACTN    O112938   6.629   7.924   4.107
 1247ACTN    C112939   6.828   7.851   4.023
 1247ACTN    H112940   6.903   7.913   4.071
 1247ACTN    H212941   6.817   7.892   3.922
 1247ACTN    H312942   6.870   7.752   4.007
 1248ACTN    H612943   1.104   7.899   4.194
 1248ACTN    C312944   1.084   7.804   4.244
 1248ACTN    H412945   1.167   7.736   4.224
 1248ACTN    H512946   1.079   7.821   4.352
 1248ACTN    C212947   0.953   7.751   4.200
 1248ACTN    O112948   0.897   7.665   4.265
 1248ACTN    C112949   0.895   7.821   4.084
 1248ACTN    H112950   0.801   7.772   4.059
 1248ACTN    H212951   0.963   7.819   3.999
 1248ACTN    H312952   0.866   7.921   4.116
 1249ACTN    H612953   2.467   8.110   4.051
 1249ACTN    C312954   2.465   8.086   3.944
 1249ACTN    H412955   2.416   8.165   3.887
 1249ACTN    H512956   2.562   8.075   3.895
 1249ACTN    C212957   2.370   7.972   3.935
 1249ACTN    O112958   2.407   7.881   3.862
 1249ACTN    C112959   2.226   7.975   3.958
 1249ACTN    H112960   2.166   7.988   3.868
 1249ACTN    H212961   2.211   8.061   4.023
 1249ACTN    H312962   2.186   7.889   4.013
 1250ACTN    H612963   1.986   7.649   4.516
 1250ACTN    C312964   1.881   7.631   4.540
 1250ACTN    H412965   1.878   7.534   4.590
 1250ACTN    H512966   1.857   7.711   4.610
 1250ACTN    C212967   1.791   7.635   4.417
 1250ACTN    O112968   1.719   7.537   4.387
 1250ACTN    C112969   1.776   7.769   4.345
 1250ACTN    H112970   1.833   7.755   4.253
 1250ACTN    H212971   1.811   7.853   4.405
 1250ACTN    H312972   1.676   7.800   4.315
 1251ACTN    H612973   0.173   7.399   3.985
 1251ACTN    C312974   0.257   7.358   3.928
 1251ACTN    H412975   0.293   7.262   3.965
 1251ACTN    H512976   0.221   7.342   3.827
 1251ACTN    C212977   0.360   7.459   3.942
 1251ACTN    O112978   0.429   7.500   3.848
 1251ACTN    C112979   0.398   7.488   4.080
 1251ACTN    H112980   0.329   7.555   4.131
 1251ACTN    H212981   0.489   7.549   4.082
 1251ACTN    H312982   0.414   7.399   4.141
 1252ACTN    H612983   0.437   7.686   4.510
 1252ACTN    C312984   0.544   7.675   4.498
 1252ACTN    H412985   0.579   7.574   4.480
 1252ACTN    H512986   0.570   7.739   4.414
 1252ACTN    C212987   0.623   7.737   4.612
 1252ACTN    O112988   0.576   7.846   4.650
 1252ACTN    C112989   0.771   7.718   4.624
 1252ACTN    H112990   0.797   7.613   4.639
 1252ACTN    H212991   0.817   7.787   4.695
 1252ACTN    H312992   0.824   7.740   4.531
 1253ACTN    H612993   1.070   8.066   3.310
 1253ACTN    C312994   1.097   8.106   3.212
 1253ACTN    H412995   1.071   8.033   3.135
 1253ACTN    H512996   1.037   8.189   3.177
 1253ACTN    C212997   1.244   8.141   3.202
 1253ACTN    O112998   1.281   8.249   3.156
 1253ACTN    C112999   1.345   8.036   3.246
 1253ACTN    H113000   1.322   7.939   3.203
 1253ACTN    H213001   1.362   8.011   3.351
 1253ACTN    H313002   1.442   8.061   3.203
 1254ACTN    H613003   2.192   8.582   4.002
 1254ACTN    C313004   2.255   8.494   4.011
 1254ACTN    H413005   2.355   8.537   4.001
 1254ACTN    H513006   2.246   8.456   4.113
 1254ACTN    C213007   2.227   8.400   3.901
 1254ACTN    O113008   2.319   8.388   3.817
 1254ACTN    C113009   2.090   8.348   3.882
 1254ACTN    H113010   2.055   8.305   3.976
 1254ACTN    H213011   2.091   8.270   3.807
 1254ACTN    H313012   2.019   8.425   3.850
 1255ACTN    H613013   3.376   8.494   1.990
 1255ACTN    C313014   3.469   8.438   1.986
 1255ACTN    H413015   3.455   8.335   2.018
 1255ACTN    H513016   3.493   8.446   1.880
 1255ACTN    C213017   3.575   8.510   2.068
 1255ACTN    O113018   3.680   8.452   2.081
 1255ACTN    C113019   3.538   8.638   2.145
 1255ACTN    H113020   3.439   8.628   2.190
 1255ACTN    H213021   3.535   8.726   2.082
 1255ACTN    H313022   3.615   8.655   2.221
 1256ACTN    H613023   3.031   7.732   6.474
 1256ACTN    C313024   3.066   7.762   6.375
 1256ACTN    H413025   3.014   7.703   6.300
 1256ACTN    H513026   3.039   7.867   6.363
 1256ACTN    C213027   3.217   7.741   6.366
 1256ACTN    O113028   3.282   7.779   6.463
 1256ACTN    C113029   3.277   7.701   6.240
 1256ACTN    H113030   3.205   7.688   6.159
 1256ACTN    H213031   3.324   7.604   6.258
 1256ACTN    H313032   3.357   7.769   6.210
 1257ACTN    H613033   5.739   9.055   5.562
 1257ACTN    C313034   5.805   8.976   5.598
 1257ACTN    H413035   5.836   8.938   5.500
 1257ACTN    H513036   5.888   9.019   5.653
 1257ACTN    C213037   5.722   8.879   5.673
 1257ACTN    O113038   5.698   8.904   5.791
 1257ACTN    C113039   5.695   8.742   5.618
 1257ACTN    H113040   5.677   8.658   5.686
 1257ACTN    H213041   5.787   8.709   5.570
 1257ACTN    H313042   5.615   8.739   5.544
 1258ACTN    H613043   3.290   8.097   5.001
 1258ACTN    C313044   3.347   8.018   4.954
 1258ACTN    H413045   3.396   8.060   4.867
 1258ACTN    H513046   3.431   8.007   5.023
 1258ACTN    C213047   3.264   7.906   4.909
 1258ACTN    O113048   3.268   7.866   4.792
 1258ACTN    C113049   3.205   7.818   5.014
 1258ACTN    H113050   3.267   7.729   5.024
 1258ACTN    H213051   3.099   7.800   5.001
 1258ACTN    H313052   3.213   7.870   5.109
 1259ACTN    H613053   1.752   8.651   4.831
 1259ACTN    C313054   1.754   8.759   4.844
 1259ACTN    H413055   1.825   8.787   4.922
 1259ACTN    H513056   1.797   8.803   4.754
 1259ACTN    C213057   1.622   8.810   4.880
 1259ACTN    O113058   1.572   8.892   4.803
 1259ACTN    C113059   1.538   8.753   4.992
 1259ACTN    H113060   1.490   8.658   4.969
 1259ACTN    H213061   1.457   8.821   5.017
 1259ACTN    H313062   1.598   8.745   5.083
 1260ACTN    H613063   3.531   8.471   3.755
 1260ACTN    C313064   3.449   8.407   3.723
 1260ACTN    H413065   3.483   8.316   3.675
 1260ACTN    H513066   3.381   8.453   3.651
 1260ACTN    C213067   3.356   8.368   3.839
 1260ACTN    O113068   3.340   8.256   3.877
 1260ACTN    C113069   3.295   8.488   3.894
 1260ACTN    H113070   3.276   8.567   3.821
 1260ACTN    H213071   3.347   8.532   3.979
 1260ACTN    H313072   3.196   8.466   3.934
 1261ACTN    H613073   1.813   7.823   1.630
 1261ACTN    C313074   1.892   7.814   1.705
 1261ACTN    H413075   1.883   7.711   1.738
 1261ACTN    H513076   1.990   7.824   1.659
 1261ACTN    C213077   1.873   7.920   1.808
 1261ACTN    O113078   1.765   7.933   1.863
 1261ACTN    C113079   1.975   8.025   1.816
 1261ACTN    H113080   1.950   8.102   1.889
 1261ACTN    H213081   1.977   8.075   1.719
 1261ACTN    H313082   2.075   7.985   1.829
 1262ACTN    H613083   2.779   7.315   5.830
 1262ACTN    C313084   2.834   7.394   5.778
 1262ACTN    H413085   2.938   7.367   5.797
 1262ACTN    H513086   2.831   7.380   5.670
 1262ACTN    C213087   2.800   7.531   5.818
 1262ACTN    O113088   2.755   7.602   5.732
 1262ACTN    C113089   2.815   7.584   5.960
 1262ACTN    H113090   2.879   7.672   5.953
 1262ACTN    H213091   2.860   7.508   6.025
 1262ACTN    H313092   2.716   7.620   5.987
 1263ACTN    H613093   3.264   8.347  -0.077
 1263ACTN    C313094   3.157   8.369  -0.072
 1263ACTN    H413095   3.136   8.459  -0.130
 1263ACTN    H513096   3.109   8.288  -0.127
 1263ACTN    C213097   3.104   8.387   0.069
 1263ACTN    O113098   3.001   8.331   0.104
 1263ACTN    C113099   3.183   8.459   0.175
 1263ACTN    H113100   3.131   8.551   0.201
 1263ACTN    H213101   3.285   8.483   0.145
 1263ACTN    H313102   3.185   8.400   0.267
 1264ACTN    H613103   2.966   7.919   5.252
 1264ACTN    C313104   2.872   7.865   5.262
 1264ACTN    H413105   2.863   7.773   5.204
 1264ACTN    H513106   2.860   7.841   5.368
 1264ACTN    C213107   2.777   7.966   5.205
 1264ACTN    O113108   2.679   8.003   5.263
 1264ACTN    C113109   2.798   8.000   5.056
 1264ACTN    H113110   2.714   8.047   5.005
 1264ACTN    H213111   2.799   7.902   5.009
 1264ACTN    H313112   2.888   8.058   5.035
 1265ACTN    H613113   4.104   7.725   3.913
 1265ACTN    C313114   4.072   7.639   3.972
 1265ACTN    H413115   3.994   7.663   4.045
 1265ACTN    H513116   4.025   7.575   3.898
 1265ACTN    C213117   4.183   7.569   4.048
 1265ACTN    O113118   4.152   7.493   4.136
 1265ACTN    C113119   4.325   7.595   4.008
 1265ACTN    H113120   4.357   7.680   4.066
 1265ACTN    H213121   4.326   7.634   3.906
 1265ACTN    H313122   4.389   7.507   4.020
 1266ACTN    H613123   2.111   7.947   4.472
 1266ACTN    C313124   2.121   8.054   4.459
 1266ACTN    H413125   2.027   8.108   4.447
 1266ACTN    H513126   2.155   8.087   4.557
 1266ACTN    C213127   2.219   8.088   4.349
 1266ACTN    O113128   2.189   8.177   4.272
 1266ACTN    C113129   2.359   8.036   4.359
 1266ACTN    H113130   2.433   8.116   4.357
 1266ACTN    H213131   2.388   7.963   4.282
 1266ACTN    H313132   2.374   7.980   4.451
 1267ACTN    H613133   5.993   8.250   5.604
 1267ACTN    C313134   5.933   8.293   5.685
 1267ACTN    H413135   5.963   8.242   5.776
 1267ACTN    H513136   5.958   8.398   5.697
 1267ACTN    C213137   5.788   8.265   5.656
 1267ACTN    O113138   5.706   8.357   5.646
 1267ACTN    C113139   5.749   8.122   5.658
 1267ACTN    H113140   5.647   8.099   5.627
 1267ACTN    H213141   5.767   8.074   5.754
 1267ACTN    H313142   5.819   8.071   5.591
 1268ACTN    H613143   1.672   7.844   2.233
 1268ACTN    C313144   1.716   7.910   2.309
 1268ACTN    H413145   1.643   7.989   2.325
 1268ACTN    H513146   1.735   7.846   2.395
 1268ACTN    C213147   1.842   7.973   2.261
 1268ACTN    O113148   1.933   7.908   2.225
 1268ACTN    C113149   1.852   8.127   2.264
 1268ACTN    H113150   1.916   8.144   2.350
 1268ACTN    H213151   1.754   8.174   2.265
 1268ACTN    H313152   1.911   8.167   2.181
 1269ACTN    H613153   0.862   7.765   6.526
 1269ACTN    C313154   0.908   7.800   6.619
 1269ACTN    H413155   0.931   7.716   6.684
 1269ACTN    H513156   1.000   7.852   6.594
 1269ACTN    C213157   0.810   7.890   6.689
 1269ACTN    O113158   0.841   7.999   6.741
 1269ACTN    C113159   0.674   7.828   6.715
 1269ACTN    H113160   0.649   7.831   6.821
 1269ACTN    H213161   0.682   7.723   6.686
 1269ACTN    H313162   0.591   7.869   6.658
 1270ACTN    H613163   0.494   7.523   6.902
 1270ACTN    C313164   0.430   7.483   6.823
 1270ACTN    H413165   0.500   7.460   6.743
 1270ACTN    H513166   0.374   7.394   6.850
 1270ACTN    C213167   0.321   7.578   6.782
 1270ACTN    O113168   0.330   7.640   6.673
 1270ACTN    C113169   0.201   7.584   6.871
 1270ACTN    H113170   0.209   7.653   6.956
 1270ACTN    H213171   0.184   7.486   6.914
 1270ACTN    H313172   0.109   7.619   6.822
 1271ACTN    H613173   6.656   8.870   6.265
 1271ACTN    C313174   6.691   8.843   6.365
 1271ACTN    H413175   6.794   8.813   6.347
 1271ACTN    H513176   6.688   8.935   6.423
 1271ACTN    C213177   6.607   8.743   6.430
 1271ACTN    O113178   6.551   8.762   6.534
 1271ACTN    C113179   6.571   8.622   6.357
 1271ACTN    H113180   6.633   8.608   6.268
 1271ACTN    H213181   6.466   8.629   6.329
 1271ACTN    H313182   6.586   8.531   6.415
 1272ACTN    H613183   0.548   7.976   3.467
 1272ACTN    C313184   0.586   7.968   3.570
 1272ACTN    H413185   0.530   8.040   3.629
 1272ACTN    H513186   0.555   7.867   3.598
 1272ACTN    C213187   0.735   7.981   3.593
 1272ACTN    O113188   0.781   7.972   3.706
 1272ACTN    C113189   0.814   8.034   3.472
 1272ACTN    H113190   0.801   7.968   3.387
 1272ACTN    H213191   0.921   8.037   3.493
 1272ACTN    H313192   0.771   8.131   3.446
 1273ACTN    H613193   1.838   8.005   5.133
 1273ACTN    C313194   1.899   8.058   5.060
 1273ACTN    H413195   1.847   8.154   5.052
 1273ACTN    H513196   1.998   8.073   5.103
 1273ACTN    C213197   1.889   7.989   4.928
 1273ACTN    O113198   1.785   7.937   4.898
 1273ACTN    C113199   2.008   7.984   4.828
 1273ACTN    H113200   1.987   8.056   4.749
 1273ACTN    H213201   2.003   7.887   4.778
 1273ACTN    H313202   2.110   7.992   4.866
 1274ACTN    H613203   6.966   8.284   0.024
 1274ACTN    C313204   7.004   8.304   0.124
 1274ACTN    H413205   7.045   8.212   0.165
 1274ACTN    H513206   7.083   8.379   0.117
 1274ACTN    C213207   6.883   8.349   0.208
 1274ACTN    O113208   6.850   8.291   0.311
 1274ACTN    C113209   6.812   8.467   0.156
 1274ACTN    H113210   6.709   8.477   0.189
 1274ACTN    H213211   6.803   8.470   0.047
 1274ACTN    H313212   6.865   8.554   0.195
 1275ACTN    H613213   5.988   8.002   3.628
 1275ACTN    C313214   5.929   8.082   3.582
 1275ACTN    H413215   5.912   8.059   3.477
 1275ACTN    H513216   5.836   8.094   3.638
 1275ACTN    C213217   6.009   8.207   3.590
 1275ACTN    O113218   6.040   8.275   3.491
 1275ACTN    C113219   6.046   8.253   3.731
 1275ACTN    H113220   6.086   8.168   3.786
 1275ACTN    H213221   5.960   8.292   3.784
 1275ACTN    H313222   6.122   8.331   3.730
 1276ACTN    H613223   0.575   8.200   0.534
 1276ACTN    C313224   0.592   8.107   0.478
 1276ACTN    H413225   0.621   8.040   0.560
 1276ACTN    H513226   0.493   8.073   0.449
 1276ACTN    C213227   0.670   8.128   0.354
 1276ACTN    O113228   0.707   8.240   0.327
 1276ACTN    C113229   0.734   8.014   0.286
 1276ACTN    H113230   0.819   7.992   0.350
 1276ACTN    H213231   0.755   8.047   0.184
 1276ACTN    H313232   0.674   7.924   0.297
 1277ACTN    H613233   3.614   7.302   5.769
 1277ACTN    C313234   3.668   7.389   5.807
 1277ACTN    H413235   3.755   7.406   5.744
 1277ACTN    H513236   3.600   7.474   5.798
 1277ACTN    C213237   3.715   7.378   5.951
 1277ACTN    O113238   3.768   7.470   6.012
 1277ACTN    C113239   3.680   7.255   6.018
 1277ACTN    H113240   3.607   7.202   5.956
 1277ACTN    H213241   3.629   7.270   6.113
 1277ACTN    H313242   3.768   7.192   6.021
 1278ACTN    H613243   0.197   8.157   3.569
 1278ACTN    C313244   0.198   8.230   3.488
 1278ACTN    H413245   0.122   8.301   3.520
 1278ACTN    H513246   0.292   8.284   3.479
 1278ACTN    C213247   0.177   8.141   3.365
 1278ACTN    O113248   0.182   8.021   3.357
 1278ACTN    C113249   0.152   8.203   3.232
 1278ACTN    H113250   0.056   8.168   3.195
 1278ACTN    H213251   0.226   8.174   3.157
 1278ACTN    H313252   0.151   8.312   3.238
 1279ACTN    H613253   4.824   7.216   5.726
 1279ACTN    C313254   4.749   7.225   5.804
 1279ACTN    H413255   4.653   7.205   5.757
 1279ACTN    H513256   4.760   7.164   5.894
 1279ACTN    C213257   4.758   7.371   5.828
 1279ACTN    O113258   4.852   7.440   5.790
 1279ACTN    C113259   4.627   7.436   5.877
 1279ACTN    H113260   4.636   7.457   5.983
 1279ACTN    H213261   4.541   7.369   5.882
 1279ACTN    H313262   4.601   7.525   5.821
 1280ACTN    H613263   6.852   8.210   4.554
 1280ACTN    C313264   6.809   8.211   4.454
 1280ACTN    H413265   6.817   8.311   4.411
 1280ACTN    H513266   6.860   8.137   4.392
 1280ACTN    C213267   6.665   8.164   4.466
 1280ACTN    O113268   6.640   8.058   4.516
 1280ACTN    C113269   6.552   8.260   4.426
 1280ACTN    H113270   6.586   8.361   4.447
 1280ACTN    H213271   6.467   8.241   4.491
 1280ACTN    H313272   6.523   8.242   4.322
 1281ACTN    H613273   0.850   8.045   2.984
 1281ACTN    C313274   0.744   8.068   2.975
 1281ACTN    H413275   0.734   8.177   2.975
 1281ACTN    H513276   0.708   8.031   2.879
 1281ACTN    C213277   0.666   8.009   3.085
 1281ACTN    O113278   0.710   7.910   3.136
 1281ACTN    C113279   0.553   8.088   3.137
 1281ACTN    H113280   0.553   8.083   3.246
 1281ACTN    H213281   0.460   8.042   3.103
 1281ACTN    H313282   0.551   8.192   3.107
 1282ACTN    H613283   5.361   8.740   5.022
 1282ACTN    C313284   5.288   8.752   4.942
 1282ACTN    H413285   5.285   8.658   4.888
 1282ACTN    H513286   5.197   8.772   4.999
 1282ACTN    C213287   5.322   8.863   4.853
 1282ACTN    O113288   5.279   8.975   4.876
 1282ACTN    C113289   5.409   8.853   4.733
 1282ACTN    H113290   5.471   8.942   4.722
 1282ACTN    H213291   5.341   8.844   4.649
 1282ACTN    H313292   5.482   8.771   4.737
 1283ACTN    H613293   4.853   8.391   4.701
 1283ACTN    C313294   4.773   8.378   4.628
 1283ACTN    H413295   4.779   8.473   4.576
 1283ACTN    H513296   4.799   8.301   4.555
 1283ACTN    C213297   4.640   8.334   4.685
 1283ACTN    O113298   4.625   8.290   4.800
 1283ACTN    C113299   4.523   8.332   4.587
 1283ACTN    H113300   4.426   8.323   4.636
 1283ACTN    H213301   4.536   8.247   4.520
 1283ACTN    H313302   4.516   8.419   4.522
 1284ACTN    H613303   0.274   7.812   7.083
 1284ACTN    C313304   0.379   7.827   7.107
 1284ACTN    H413305   0.424   7.862   7.014
 1284ACTN    H513306   0.377   7.919   7.166
 1284ACTN    C213307   0.447   7.712   7.175
 1284ACTN    O113308   0.558   7.721   7.213
 1284ACTN    C113309   0.362   7.600   7.213
 1284ACTN    H113310   0.381   7.513   7.150
 1284ACTN    H213311   0.255   7.620   7.222
 1284ACTN    H313312   0.400   7.565   7.309
 1285ACTN    H613313   2.827   7.595   2.986
 1285ACTN    C313314   2.869   7.499   3.014
 1285ACTN    H413315   2.975   7.512   3.036
 1285ACTN    H513316   2.814   7.469   3.103
 1285ACTN    C213317   2.849   7.401   2.904
 1285ACTN    O113318   2.892   7.427   2.795
 1285ACTN    C113319   2.790   7.267   2.944
 1285ACTN    H113320   2.700   7.287   3.001
 1285ACTN    H213321   2.863   7.208   3.000
 1285ACTN    H313322   2.760   7.210   2.856
 1286ACTN    H613323   6.333   7.898   3.730
 1286ACTN    C313324   6.426   7.841   3.727
 1286ACTN    H413325   6.412   7.759   3.798
 1286ACTN    H513326   6.423   7.800   3.626
 1286ACTN    C213327   6.549   7.921   3.761
 1286ACTN    O113328   6.660   7.881   3.729
 1286ACTN    C113329   6.520   8.068   3.796
 1286ACTN    H113330   6.586   8.094   3.879
 1286ACTN    H213331   6.416   8.091   3.818
 1286ACTN    H313332   6.563   8.130   3.718
 1287ACTN    H613333   2.378   8.509   4.339
 1287ACTN    C313334   2.465   8.537   4.400
 1287ACTN    H413335   2.433   8.614   4.470
 1287ACTN    H513336   2.488   8.446   4.455
 1287ACTN    C213337   2.576   8.579   4.311
 1287ACTN    O113338   2.624   8.496   4.238
 1287ACTN    C113339   2.623   8.725   4.317
 1287ACTN    H113340   2.591   8.767   4.412
 1287ACTN    H213341   2.585   8.785   4.235
 1287ACTN    H313342   2.732   8.725   4.309
 1288ACTN    H613343   1.995   7.295   4.880
 1288ACTN    C313344   2.013   7.359   4.966
 1288ACTN    H413345   2.033   7.286   5.046
 1288ACTN    H513346   2.104   7.414   4.945
 1288ACTN    C213347   1.895   7.449   4.974
 1288ACTN    O113348   1.784   7.403   4.959
 1288ACTN    C113349   1.917   7.595   5.000
 1288ACTN    H113350   1.995   7.622   5.072
 1288ACTN    H213351   1.825   7.629   5.049
 1288ACTN    H313352   1.917   7.650   4.906
 1289ACTN    H613353   7.109   8.712   4.747
 1289ACTN    C313354   7.201   8.701   4.805
 1289ACTN    H413355   7.240   8.796   4.841
 1289ACTN    H513356   7.187   8.647   4.899
 1289ACTN    C213357   7.308   8.647   4.715
 1289ACTN    O113358   7.268   8.573   4.628
 1289ACTN    C113359   7.451   8.674   4.723
 1289ACTN    H113360   7.492   8.664   4.623
 1289ACTN    H213361   7.504   8.613   4.796
 1289ACTN    H313362   7.457   8.776   4.760
 1290ACTN    H613363   2.802   7.390   4.648
 1290ACTN    C313364   2.910   7.405   4.654
 1290ACTN    H413365   2.968   7.317   4.630
 1290ACTN    H513366   2.940   7.475   4.576
 1290ACTN    C213367   2.946   7.450   4.793
 1290ACTN    O113368   2.862   7.490   4.871
 1290ACTN    C113369   3.094   7.444   4.831
 1290ACTN    H113370   3.155   7.473   4.745
 1290ACTN    H213371   3.111   7.338   4.851
 1290ACTN    H313372   3.126   7.502   4.918
 1291ACTN    H613373   3.686   8.335   5.905
 1291ACTN    C313374   3.623   8.337   5.816
 1291ACTN    H413375   3.537   8.397   5.847
 1291ACTN    H513376   3.677   8.397   5.743
 1291ACTN    C213377   3.567   8.201   5.780
 1291ACTN    O113378   3.566   8.120   5.877
 1291ACTN    C113379   3.454   8.200   5.685
 1291ACTN    H113380   3.493   8.259   5.602
 1291ACTN    H213381   3.362   8.253   5.711
 1291ACTN    H313382   3.436   8.096   5.658
 1292ACTN    H613383   1.181   8.635   6.103
 1292ACTN    C313384   1.208   8.544   6.156
 1292ACTN    H413385   1.126   8.513   6.222
 1292ACTN    H513386   1.212   8.455   6.092
 1292ACTN    C213387   1.336   8.559   6.229
 1292ACTN    O113388   1.424   8.480   6.206
 1292ACTN    C113389   1.354   8.674   6.324
 1292ACTN    H113390   1.298   8.664   6.417
 1292ACTN    H213391   1.329   8.767   6.271
 1292ACTN    H313392   1.459   8.694   6.343
 1293ACTN    H613393   1.114   8.489   2.202
 1293ACTN    C313394   1.202   8.477   2.265
 1293ACTN    H413395   1.190   8.447   2.369
 1293ACTN    H513396   1.265   8.402   2.216
 1293ACTN    C213397   1.271   8.610   2.250
 1293ACTN    O113398   1.225   8.713   2.302
 1293ACTN    C113399   1.389   8.614   2.151
 1293ACTN    H113400   1.470   8.660   2.207
 1293ACTN    H213401   1.361   8.675   2.064
 1293ACTN    H313402   1.429   8.519   2.117
 1294ACTN    H613403   0.963   7.932   4.941
 1294ACTN    C313404   0.920   8.016   4.996
 1294ACTN    H413405   0.957   8.106   4.947
 1294ACTN    H513406   0.811   8.015   4.990
 1294ACTN    C213407   0.973   8.022   5.133
 1294ACTN    O113408   0.905   8.035   5.234
 1294ACTN    C113409   1.126   8.023   5.141
 1294ACTN    H113410   1.178   7.951   5.078
 1294ACTN    H213411   1.168   8.008   5.241
 1294ACTN    H313412   1.152   8.122   5.106
 1295ACTN    H613413   2.605   8.275   5.277
 1295ACTN    C313414   2.661   8.326   5.198
 1295ACTN    H413415   2.666   8.263   5.110
 1295ACTN    H513416   2.595   8.409   5.173
 1295ACTN    C213417   2.798   8.375   5.243
 1295ACTN    O113418   2.808   8.391   5.365
 1295ACTN    C113419   2.915   8.392   5.148
 1295ACTN    H113420   2.867   8.389   5.051
 1295ACTN    H213421   2.978   8.304   5.166
 1295ACTN    H313422   2.980   8.476   5.171
 1296ACTN    H613423   7.163   7.484   4.045
 1296ACTN    C313424   7.257   7.497   3.990
 1296ACTN    H413425   7.299   7.397   3.979
 1296ACTN    H513426   7.233   7.527   3.888
 1296ACTN    C213427   7.337   7.599   4.067
 1296ACTN    O113428   7.410   7.672   4.002
 1296ACTN    C113429   7.286   7.651   4.201
 1296ACTN    H113430   7.189   7.603   4.212
 1296ACTN    H213431   7.278   7.760   4.206
 1296ACTN    H313432   7.351   7.611   4.279
 1297ACTN    H613433   1.734   8.453   4.457
 1297ACTN    C313434   1.652   8.382   4.450
 1297ACTN    H413435   1.552   8.423   4.464
 1297ACTN    H513436   1.657   8.332   4.353
 1297ACTN    C213437   1.686   8.292   4.565
 1297ACTN    O113438   1.678   8.345   4.677
 1297ACTN    C113439   1.732   8.151   4.555
 1297ACTN    H113440   1.753   8.129   4.450
 1297ACTN    H213441   1.653   8.082   4.584
 1297ACTN    H313442   1.825   8.126   4.605
 1298ACTN    H613443   5.193   7.829   0.739
 1298ACTN    C313444   5.250   7.756   0.682
 1298ACTN    H413445   5.193   7.720   0.596
 1298ACTN    H513446   5.348   7.792   0.649
 1298ACTN    C213447   5.271   7.644   0.781
 1298ACTN    O113448   5.282   7.664   0.904
 1298ACTN    C113449   5.252   7.507   0.725
 1298ACTN    H113450   5.274   7.493   0.619
 1298ACTN    H213451   5.154   7.461   0.739
 1298ACTN    H313452   5.319   7.437   0.774
 1299ACTN    H613453   0.412   8.659   6.735
 1299ACTN    C313454   0.384   8.596   6.820
 1299ACTN    H413455   0.462   8.522   6.837
 1299ACTN    H513456   0.376   8.658   6.909
 1299ACTN    C213457   0.252   8.523   6.817
 1299ACTN    O113458   0.243   8.424   6.888
 1299ACTN    C113459   0.163   8.555   6.700
 1299ACTN    H113460   0.081   8.482   6.699
 1299ACTN    H213461   0.224   8.541   6.611
 1299ACTN    H313462   0.123   8.656   6.692
 1300ACTN    H613463   1.216   7.541   2.987
 1300ACTN    C313464   1.243   7.632   3.041
 1300ACTN    H413465   1.163   7.705   3.039
 1300ACTN    H513466   1.259   7.599   3.144
 1300ACTN    C213467   1.371   7.689   2.987
 1300ACTN    O113468   1.366   7.805   2.936
 1300ACTN    C113469   1.468   7.582   2.939
 1300ACTN    H113470   1.506   7.535   3.030
 1300ACTN    H213471   1.556   7.617   2.886
 1300ACTN    H313472   1.419   7.503   2.882
 1301ACTN    H613473   2.270   7.853   4.985
 1301ACTN    C313474   2.373   7.833   5.014
 1301ACTN    H413475   2.432   7.847   4.923
 1301ACTN    H513476   2.411   7.895   5.096
 1301ACTN    C213477   2.392   7.691   5.057
 1301ACTN    O113478   2.321   7.607   4.997
 1301ACTN    C113479   2.513   7.645   5.126
 1301ACTN    H113480   2.557   7.719   5.192
 1301ACTN    H213481   2.581   7.624   5.044
 1301ACTN    H313482   2.485   7.548   5.167
 1302ACTN    H613483   6.037   8.610   3.007
 1302ACTN    C313484   6.049   8.548   3.096
 1302ACTN    H413485   5.950   8.522   3.134
 1302ACTN    H513486   6.076   8.617   3.176
 1302ACTN    C213487   6.146   8.437   3.064
 1302ACTN    O113488   6.256   8.460   3.022
 1302ACTN    C113489   6.100   8.293   3.081
 1302ACTN    H113490   6.058   8.271   3.179
 1302ACTN    H213491   6.180   8.222   3.057
 1302ACTN    H313492   6.028   8.269   3.003
 1303ACTN    H613493   0.243   8.458   4.612
 1303ACTN    C313494   0.247   8.368   4.550
 1303ACTN    H413495   0.144   8.345   4.524
 1303ACTN    H513496   0.284   8.289   4.616
 1303ACTN    C213497   0.333   8.394   4.436
 1303ACTN    O113498   0.347   8.511   4.409
 1303ACTN    C113499   0.386   8.281   4.360
 1303ACTN    H113500   0.459   8.318   4.288
 1303ACTN    H213501   0.303   8.235   4.307
 1303ACTN    H313502   0.440   8.212   4.424
 1304ACTN    H613503   3.415   8.331   4.185
 1304ACTN    C313504   3.517   8.358   4.159
 1304ACTN    H413505   3.559   8.287   4.087
 1304ACTN    H513506   3.512   8.458   4.116
 1304ACTN    C213507   3.613   8.366   4.273
 1304ACTN    O113508   3.587   8.373   4.394
 1304ACTN    C113509   3.757   8.384   4.245
 1304ACTN    H113510   3.785   8.486   4.272
 1304ACTN    H213511   3.774   8.380   4.138
 1304ACTN    H313512   3.817   8.308   4.294
 1305ACTN    H613513   2.946   8.032   6.949
 1305ACTN    C313514   3.033   8.067   6.893
 1305ACTN    H413515   3.002   8.144   6.822
 1305ACTN    H513516   3.102   8.106   6.968
 1305ACTN    C213517   3.107   7.967   6.818
 1305ACTN    O113518   3.224   7.940   6.844
 1305ACTN    C113519   3.040   7.889   6.714
 1305ACTN    H113520   2.940   7.920   6.687
 1305ACTN    H213521   3.040   7.785   6.747
 1305ACTN    H313522   3.104   7.896   6.626
 1306ACTN    H613523   2.223   7.814   2.527
 1306ACTN    C313524   2.185   7.821   2.425
 1306ACTN    H413525   2.095   7.760   2.420
 1306ACTN    H513526   2.146   7.923   2.416
 1306ACTN    C213527   2.288   7.799   2.324
 1306ACTN    O113528   2.297   7.697   2.264
 1306ACTN    C113529   2.411   7.887   2.331
 1306ACTN    H113530   2.431   7.938   2.237
 1306ACTN    H213531   2.495   7.821   2.354
 1306ACTN    H313532   2.402   7.964   2.408
 1307ACTN    H613533   7.262   8.658   6.593
 1307ACTN    C313534   7.153   8.658   6.581
 1307ACTN    H413535   7.103   8.592   6.652
 1307ACTN    H513536   7.121   8.761   6.596
 1307ACTN    C213537   7.112   8.616   6.446
 1307ACTN    O113538   7.076   8.700   6.368
 1307ACTN    C113539   7.139   8.475   6.389
 1307ACTN    H113540   7.206   8.431   6.461
 1307ACTN    H213541   7.188   8.476   6.291
 1307ACTN    H313542   7.050   8.412   6.387
 1308ACTN    H613543   3.322   7.885   5.799
 1308ACTN    C313544   3.228   7.941   5.797
 1308ACTN    H413545   3.248   8.045   5.820
 1308ACTN    H513546   3.184   7.951   5.698
 1308ACTN    C213547   3.124   7.895   5.890
 1308ACTN    O113548   3.094   7.776   5.895
 1308ACTN    C113549   3.080   7.992   5.994
 1308ACTN    H113550   2.999   7.948   6.052
 1308ACTN    H213551   3.039   8.084   5.951
 1308ACTN    H313552   3.163   8.029   6.054
 1309ACTN    H613553   6.516   7.785   2.944
 1309ACTN    C313554   6.602   7.780   3.011
 1309ACTN    H413555   6.680   7.835   2.959
 1309ACTN    H513556   6.584   7.836   3.103
 1309ACTN    C213557   6.649   7.642   3.039
 1309ACTN    O113558   6.574   7.545   3.058
 1309ACTN    C113559   6.798   7.630   3.039
 1309ACTN    H113560   6.826   7.657   2.937
 1309ACTN    H213561   6.833   7.527   3.051
 1309ACTN    H313562   6.847   7.691   3.114
 1310ACTN    H613563   3.930   8.553   4.581
 1310ACTN    C313564   3.873   8.461   4.598
 1310ACTN    H413565   3.769   8.476   4.625
 1310ACTN    H513566   3.890   8.402   4.508
 1310ACTN    C213567   3.918   8.398   4.726
 1310ACTN    O113568   3.853   8.315   4.791
 1310ACTN    C113569   4.051   8.441   4.783
 1310ACTN    H113570   4.143   8.410   4.735
 1310ACTN    H213571   4.062   8.406   4.886
 1310ACTN    H313572   4.062   8.549   4.791
 1311ACTN    H613573   6.986   8.748   5.369
 1311ACTN    C313574   6.979   8.812   5.281
 1311ACTN    H413575   6.883   8.862   5.286
 1311ACTN    H513576   7.054   8.891   5.290
 1311ACTN    C213577   7.014   8.737   5.153
 1311ACTN    O113578   7.084   8.639   5.162
 1311ACTN    C113579   6.906   8.755   5.048
 1311ACTN    H113580   6.958   8.723   4.958
 1311ACTN    H213581   6.882   8.861   5.037
 1311ACTN    H313582   6.821   8.692   5.072
 1312ACTN    H613583   2.155   8.700   2.506
 1312ACTN    C313584   2.253   8.652   2.502
 1312ACTN    H413585   2.277   8.616   2.602
 1312ACTN    H513586   2.247   8.559   2.446
 1312ACTN    C213587   2.359   8.744   2.457
 1312ACTN    O113588   2.468   8.698   2.448
 1312ACTN    C113589   2.324   8.883   2.414
 1312ACTN    H113590   2.297   8.879   2.308
 1312ACTN    H213591   2.417   8.939   2.410
 1312ACTN    H313592   2.247   8.931   2.474
 1313ACTN    H613593   3.131   8.436   3.066
 1313ACTN    C313594   3.027   8.408   3.049
 1313ACTN    H413595   3.027   8.304   3.082
 1313ACTN    H513596   2.965   8.468   3.115
 1313ACTN    C213597   2.973   8.419   2.909
 1313ACTN    O113598   2.958   8.525   2.849
 1313ACTN    C113599   2.966   8.298   2.829
 1313ACTN    H113600   2.995   8.314   2.725
 1313ACTN    H213601   2.861   8.268   2.823
 1313ACTN    H313602   3.027   8.219   2.873
 1314ACTN    H613603   5.468   8.642   6.531
 1314ACTN    C313604   5.558   8.693   6.497
 1314ACTN    H413605   5.651   8.670   6.549
 1314ACTN    H513606   5.573   8.660   6.394
 1314ACTN    C213607   5.554   8.849   6.505
 1314ACTN    O113608   5.518   8.890   6.617
 1314ACTN    C113609   5.576   8.943   6.388
 1314ACTN    H113610   5.545   9.040   6.427
 1314ACTN    H213611   5.509   8.917   6.305
 1314ACTN    H313612   5.677   8.954   6.349
 1315ACTN    H613613   1.179   7.410   6.380
 1315ACTN    C313614   1.092   7.440   6.438
 1315ACTN    H413615   1.061   7.356   6.501
 1315ACTN    H513616   1.123   7.522   6.503
 1315ACTN    C213617   0.977   7.468   6.350
 1315ACTN    O113618   0.872   7.496   6.402
 1315ACTN    C113619   0.995   7.477   6.204
 1315ACTN    H113620   0.901   7.492   6.152
 1315ACTN    H213621   1.024   7.380   6.164
 1315ACTN    H313622   1.072   7.549   6.173
 1316ACTN    H613623   1.201   8.729   4.437
 1316ACTN    C313624   1.148   8.714   4.343
 1316ACTN    H413625   1.139   8.607   4.328
 1316ACTN    H513626   1.053   8.767   4.353
 1316ACTN    C213627   1.209   8.779   4.227
 1316ACTN    O113628   1.239   8.900   4.228
 1316ACTN    C113629   1.247   8.691   4.111
 1316ACTN    H113630   1.221   8.744   4.019
 1316ACTN    H213631   1.187   8.600   4.112
 1316ACTN    H313632   1.352   8.666   4.096
 1317ACTN    H613633   0.020   8.866   4.221
 1317ACTN    C313634   0.059   8.849   4.322
 1317ACTN    H413635  -0.008   8.898   4.393
 1317ACTN    H513636   0.063   8.742   4.343
 1317ACTN    C213637   0.191   8.925   4.340
 1317ACTN    O113638   0.216   9.005   4.249
 1317ACTN    C113639   0.306   8.881   4.424
 1317ACTN    H113640   0.404   8.899   4.380
 1317ACTN    H213641   0.297   8.773   4.435
 1317ACTN    H313642   0.303   8.927   4.523
 1318ACTN    H613643   3.476   7.946   5.460
 1318ACTN    C313644   3.502   7.846   5.426
 1318ACTN    H413645   3.465   7.853   5.323
 1318ACTN    H513646   3.609   7.829   5.425
 1318ACTN    C213647   3.423   7.752   5.505
 1318ACTN    O113648   3.300   7.741   5.493
 1318ACTN    C113649   3.498   7.656   5.599
 1318ACTN    H113650   3.603   7.684   5.605
 1318ACTN    H213651   3.499   7.558   5.552
 1318ACTN    H313652   3.452   7.650   5.697
 1319ACTN    H613653   3.368   8.220   5.193
 1319ACTN    C313654   3.334   8.234   5.296
 1319ACTN    H413655   3.402   8.179   5.361
 1319ACTN    H513656   3.337   8.341   5.317
 1319ACTN    C213657   3.183   8.193   5.301
 1319ACTN    O113658   3.132   8.116   5.220
 1319ACTN    C113659   3.125   8.219   5.439
 1319ACTN    H113660   3.157   8.314   5.482
 1319ACTN    H213661   3.142   8.138   5.510
 1319ACTN    H313662   3.016   8.220   5.429
 1320ACTN    H613663   0.239   7.995   2.331
 1320ACTN    C313664   0.295   8.076   2.378
 1320ACTN    H413665   0.306   8.041   2.481
 1320ACTN    H513666   0.397   8.074   2.341
 1320ACTN    C213667   0.239   8.215   2.354
 1320ACTN    O113668   0.160   8.268   2.434
 1320ACTN    C113669   0.237   8.258   2.216
 1320ACTN    H113670   0.301   8.344   2.199
 1320ACTN    H213671   0.140   8.294   2.183
 1320ACTN    H313672   0.277   8.177   2.155
 1321ACTN    H613673   4.979   7.900   5.485
 1321ACTN    C313674   5.042   7.880   5.571
 1321ACTN    H413675   5.005   7.949   5.648
 1321ACTN    H513676   5.017   7.779   5.602
 1321ACTN    C213677   5.185   7.873   5.559
 1321ACTN    O113678   5.229   7.854   5.445
 1321ACTN    C113679   5.279   7.882   5.678
 1321ACTN    H113680   5.229   7.874   5.774
 1321ACTN    H213681   5.336   7.975   5.675
 1321ACTN    H313682   5.343   7.794   5.687
 1322ACTN    H613683   6.932   7.553   3.785
 1322ACTN    C313684   6.973   7.541   3.685
 1322ACTN    H413685   6.908   7.580   3.607
 1322ACTN    H513686   7.067   7.597   3.684
 1322ACTN    C213687   6.986   7.401   3.648
 1322ACTN    O113688   6.891   7.323   3.660
 1322ACTN    C113689   7.121   7.364   3.579
 1322ACTN    H113690   7.110   7.308   3.486
 1322ACTN    H213691   7.194   7.324   3.649
 1322ACTN    H313692   7.156   7.460   3.541
 1323ACTN    H613693   6.024   8.765   5.572
 1323ACTN    C313694   6.112   8.702   5.581
 1323ACTN    H413695   6.204   8.758   5.563
 1323ACTN    H513696   6.104   8.631   5.498
 1323ACTN    C213697   6.129   8.630   5.713
 1323ACTN    O113698   6.051   8.650   5.808
 1323ACTN    C113699   6.252   8.542   5.730
 1323ACTN    H113700   6.299   8.557   5.827
 1323ACTN    H213701   6.327   8.572   5.656
 1323ACTN    H313702   6.225   8.439   5.711
 1324ACTN    H613703   1.507   8.188   4.962
 1324ACTN    C313704   1.441   8.110   4.999
 1324ACTN    H413705   1.338   8.147   5.008
 1324ACTN    H513706   1.459   8.028   4.929
 1324ACTN    C213707   1.490   8.065   5.139
 1324ACTN    O113708   1.481   8.138   5.237
 1324ACTN    C113709   1.492   7.914   5.159
 1324ACTN    H113710   1.389   7.880   5.143
 1324ACTN    H213711   1.536   7.892   5.256
 1324ACTN    H313712   1.551   7.870   5.079
 1325ACTN    H613713   4.859   7.566   1.101
 1325ACTN    C313714   4.962   7.600   1.087
 1325ACTN    H413715   5.017   7.610   1.181
 1325ACTN    H513716   5.018   7.532   1.024
 1325ACTN    C213717   4.946   7.731   1.027
 1325ACTN    O113718   4.918   7.725   0.907
 1325ACTN    C113719   5.010   7.851   1.085
 1325ACTN    H113720   4.995   7.933   1.015
 1325ACTN    H213721   5.118   7.836   1.092
 1325ACTN    H313722   4.965   7.869   1.183
 1326ACTN    H613723   2.106   7.532   6.106
 1326ACTN    C313724   2.092   7.576   6.007
 1326ACTN    H413725   2.187   7.592   5.957
 1326ACTN    H513726   2.019   7.514   5.954
 1326ACTN    C213727   2.024   7.704   6.017
 1326ACTN    O113728   2.088   7.807   6.013
 1326ACTN    C113729   1.885   7.713   6.064
 1326ACTN    H113730   1.894   7.728   6.172
 1326ACTN    H213731   1.825   7.622   6.052
 1326ACTN    H313732   1.834   7.801   6.025
 1327ACTN    H613733   3.970   7.737   4.853
 1327ACTN    C313734   3.942   7.830   4.806
 1327ACTN    H413735   3.899   7.904   4.874
 1327ACTN    H513736   4.035   7.875   4.773
 1327ACTN    C213737   3.842   7.816   4.692
 1327ACTN    O113738   3.833   7.703   4.645
 1327ACTN    C113739   3.739   7.928   4.678
 1327ACTN    H113740   3.639   7.890   4.699
 1327ACTN    H213741   3.746   7.969   4.577
 1327ACTN    H313742   3.754   8.008   4.750
 1328ACTN    H613743   5.174   8.473   5.686
 1328ACTN    C313744   5.240   8.523   5.616
 1328ACTN    H413745   5.284   8.610   5.664
 1328ACTN    H513746   5.175   8.566   5.539
 1328ACTN    C213747   5.339   8.425   5.562
 1328ACTN    O113748   5.408   8.452   5.463
 1328ACTN    C113749   5.358   8.296   5.634
 1328ACTN    H113750   5.269   8.235   5.643
 1328ACTN    H213751   5.393   8.306   5.737
 1328ACTN    H313752   5.433   8.235   5.583
 1329ACTN    H613753   3.078   8.619   5.398
 1329ACTN    C313754   3.134   8.686   5.333
 1329ACTN    H413755   3.207   8.621   5.285
 1329ACTN    H513756   3.074   8.725   5.251
 1329ACTN    C213757   3.204   8.790   5.417
 1329ACTN    O113758   3.139   8.862   5.491
 1329ACTN    C113759   3.344   8.814   5.402
 1329ACTN    H113760   3.385   8.745   5.328
 1329ACTN    H213761   3.398   8.791   5.494
 1329ACTN    H313762   3.367   8.917   5.377
 1330ACTN    H613763   0.779   7.800   6.302
 1330ACTN    C313764   0.677   7.771   6.277
 1330ACTN    H413765   0.665   7.775   6.169
 1330ACTN    H513766   0.664   7.664   6.289
 1330ACTN    C213767   0.573   7.846   6.357
 1330ACTN    O113768   0.606   7.946   6.419
 1330ACTN    C113769   0.430   7.816   6.336
 1330ACTN    H113770   0.370   7.904   6.314
 1330ACTN    H213771   0.390   7.768   6.425
 1330ACTN    H313772   0.415   7.748   6.252
 1331ACTN    H613773   1.722   8.459   3.873
 1331ACTN    C313774   1.744   8.561   3.906
 1331ACTN    H413775   1.840   8.590   3.862
 1331ACTN    H513776   1.667   8.624   3.862
 1331ACTN    C213777   1.746   8.564   4.056
 1331ACTN    O113778   1.852   8.542   4.115
 1331ACTN    C113779   1.629   8.610   4.128
 1331ACTN    H113780   1.644   8.676   4.213
 1331ACTN    H213781   1.570   8.528   4.167
 1331ACTN    H313782   1.568   8.667   4.057
 1332ACTN    H613783   2.606   8.052   7.064
 1332ACTN    C313784   2.530   8.080   7.136
 1332ACTN    H413785   2.430   8.054   7.101
 1332ACTN    H513786   2.553   8.024   7.226
 1332ACTN    C213787   2.539   8.222   7.173
 1332ACTN    O113788   2.438   8.293   7.174
 1332ACTN    C113789   2.662   8.269   7.238
 1332ACTN    H113790   2.747   8.222   7.188
 1332ACTN    H213791   2.665   8.224   7.338
 1332ACTN    H313792   2.673   8.377   7.245
 1333ACTN    H613793   7.018   8.390   0.696
 1333ACTN    C313794   7.028   8.381   0.588
 1333ACTN    H413795   6.978   8.289   0.557
 1333ACTN    H513796   6.976   8.462   0.536
 1333ACTN    C213797   7.167   8.378   0.540
 1333ACTN    O113798   7.255   8.326   0.606
 1333ACTN    C113799   7.214   8.445   0.419
 1333ACTN    H113800   7.144   8.465   0.338
 1333ACTN    H213801   7.291   8.381   0.375
 1333ACTN    H313802   7.250   8.544   0.448
 1334ACTN    H613803   0.534   8.338   6.805
 1334ACTN    C313804   0.522   8.235   6.773
 1334ACTN    H413805   0.463   8.231   6.682
 1334ACTN    H513806   0.620   8.191   6.755
 1334ACTN    C213807   0.464   8.142   6.879
 1334ACTN    O113808   0.523   8.129   6.987
 1334ACTN    C113809   0.323   8.083   6.863
 1334ACTN    H113810   0.258   8.147   6.803
 1334ACTN    H213811   0.276   8.079   6.961
 1334ACTN    H313812   0.325   7.982   6.820
 1335ACTN    H613813   6.081   8.379   4.485
 1335ACTN    C313814   6.152   8.406   4.564
 1335ACTN    H413815   6.220   8.475   4.513
 1335ACTN    H513816   6.100   8.460   4.642
 1335ACTN    C213817   6.226   8.281   4.604
 1335ACTN    O113818   6.199   8.167   4.553
 1335ACTN    C113819   6.314   8.297   4.723
 1335ACTN    H113820   6.366   8.393   4.729
 1335ACTN    H213821   6.386   8.216   4.729
 1335ACTN    H313822   6.252   8.288   4.812
 1336ACTN    H613823   2.963   8.824   3.518
 1336ACTN    C313824   2.950   8.732   3.461
 1336ACTN    H413825   2.849   8.721   3.423
 1336ACTN    H513826   3.008   8.744   3.370
 1336ACTN    C213827   2.996   8.604   3.526
 1336ACTN    O113828   3.054   8.514   3.461
 1336ACTN    C113829   2.949   8.569   3.664
 1336ACTN    H113830   2.949   8.659   3.726
 1336ACTN    H213831   2.999   8.483   3.706
 1336ACTN    H313832   2.845   8.536   3.659
 1337ACTN    H613833   1.797   7.293   1.340
 1337ACTN    C313834   1.875   7.369   1.329
 1337ACTN    H413835   1.948   7.361   1.411
 1337ACTN    H513836   1.926   7.348   1.235
 1337ACTN    C213837   1.808   7.501   1.326
 1337ACTN    O113838   1.807   7.576   1.231
 1337ACTN    C113839   1.765   7.545   1.453
 1337ACTN    H113840   1.701   7.464   1.486
 1337ACTN    H213841   1.701   7.633   1.441
 1337ACTN    H313842   1.849   7.576   1.515
 1338ACTN    H613843   6.509   7.721   2.703
 1338ACTN    C313844   6.564   7.803   2.657
 1338ACTN    H413845   6.640   7.831   2.730
 1338ACTN    H513846   6.513   7.897   2.640
 1338ACTN    C213847   6.625   7.744   2.527
 1338ACTN    O113848   6.689   7.639   2.542
 1338ACTN    C113849   6.577   7.794   2.395
 1338ACTN    H113850   6.665   7.846   2.356
 1338ACTN    H213851   6.496   7.866   2.403
 1338ACTN    H313852   6.563   7.716   2.320
 1339ACTN    H613853   2.084   7.588   5.669
 1339ACTN    C313854   2.121   7.664   5.600
 1339ACTN    H413855   2.076   7.759   5.631
 1339ACTN    H513856   2.229   7.669   5.609
 1339ACTN    C213857   2.081   7.637   5.457
 1339ACTN    O113858   1.967   7.625   5.422
 1339ACTN    C113859   2.186   7.614   5.353
 1339ACTN    H113860   2.149   7.647   5.256
 1339ACTN    H213861   2.194   7.505   5.347
 1339ACTN    H313862   2.286   7.656   5.365
 1340ACTN    H613863   7.171   7.764   4.395
 1340ACTN    C313864   7.134   7.707   4.481
 1340ACTN    H413865   7.075   7.625   4.440
 1340ACTN    H513866   7.212   7.671   4.548
 1340ACTN    C213867   7.043   7.786   4.556
 1340ACTN    O113868   7.016   7.904   4.526
 1340ACTN    C113869   6.975   7.720   4.671
 1340ACTN    H113870   7.049   7.692   4.745
 1340ACTN    H213871   6.936   7.628   4.627
 1340ACTN    H313872   6.892   7.773   4.718
 1341ACTN    H613873   1.837   7.935   8.604
 1341ACTN    C313874   1.738   7.901   8.635
 1341ACTN    H413875   1.674   7.929   8.551
 1341ACTN    H513876   1.731   7.795   8.655
 1341ACTN    C213877   1.691   7.970   8.759
 1341ACTN    O113878   1.746   8.077   8.787
 1341ACTN    C113879   1.580   7.913   8.847
 1341ACTN    H113880   1.599   7.904   8.954
 1341ACTN    H213881   1.555   7.813   8.811
 1341ACTN    H313882   1.490   7.970   8.824
 1342ACTN    H613883   0.745   8.214   8.420
 1342ACTN    C313884   0.842   8.240   8.462
 1342ACTN    H413885   0.870   8.175   8.545
 1342ACTN    H513886   0.914   8.239   8.381
 1342ACTN    C213887   0.830   8.383   8.507
 1342ACTN    O113888   0.905   8.468   8.461
 1342ACTN    C113889   0.732   8.418   8.609
 1342ACTN    H113890   0.705   8.327   8.661
 1342ACTN    H213891   0.639   8.469   8.584
 1342ACTN    H313892   0.777   8.466   8.696
 1343ACTN    H613893   0.645   7.584   7.810
 1343ACTN    C313894   0.681   7.539   7.718
 1343ACTN    H413895   0.637   7.441   7.698
 1343ACTN    H513896   0.651   7.613   7.644
 1343ACTN    C213897   0.826   7.525   7.707
 1343ACTN    O113898   0.902   7.570   7.627
 1343ACTN    C113899   0.888   7.441   7.817
 1343ACTN    H113900   0.917   7.344   7.777
 1343ACTN    H213901   0.820   7.439   7.902
 1343ACTN    H313902   0.981   7.488   7.847
 1344ACTN    H613903   2.791   8.331   7.856
 1344ACTN    C313904   2.714   8.318   7.779
 1344ACTN    H413905   2.768   8.287   7.689
 1344ACTN    H513906   2.662   8.412   7.766
 1344ACTN    C213907   2.611   8.215   7.817
 1344ACTN    O113908   2.514   8.198   7.743
 1344ACTN    C113909   2.628   8.141   7.948
 1344ACTN    H113910   2.729   8.101   7.946
 1344ACTN    H213911   2.559   8.057   7.961
 1344ACTN    H313912   2.617   8.215   8.028
 1345ACTN    H613913   4.029   8.549   8.835
 1345ACTN    C313914   3.939   8.591   8.790
 1345ACTN    H413915   3.955   8.595   8.682
 1345ACTN    H513916   3.861   8.517   8.809
 1345ACTN    C213917   3.907   8.722   8.848
 1345ACTN    O113918   3.806   8.732   8.918
 1345ACTN    C113919   3.994   8.843   8.812
 1345ACTN    H113920   3.947   8.882   8.722
 1345ACTN    H213921   4.099   8.819   8.792
 1345ACTN    H313922   3.982   8.924   8.885
 1346ACTN    H613923   2.512   7.651   8.259
 1346ACTN    C313924   2.422   7.611   8.212
 1346ACTN    H413925   2.346   7.632   8.287
 1346ACTN    H513926   2.432   7.505   8.193
 1346ACTN    C213927   2.376   7.702   8.107
 1346ACTN    O113928   2.455   7.786   8.061
 1346ACTN    C113929   2.236   7.698   8.048
 1346ACTN    H113930   2.156   7.696   8.123
 1346ACTN    H213931   2.226   7.609   7.987
 1346ACTN    H313932   2.220   7.786   7.986
 1347ACTN    H613933   1.385   8.527   7.564
 1347ACTN    C313934   1.284   8.484   7.568
 1347ACTN    H413935   1.259   8.439   7.472
 1347ACTN    H513936   1.223   8.573   7.585
 1347ACTN    C213937   1.275   8.380   7.672
 1347ACTN    O113938   1.377   8.330   7.718
 1347ACTN    C113939   1.139   8.348   7.717
 1347ACTN    H113940   1.126   8.406   7.808
 1347ACTN    H213941   1.121   8.243   7.740
 1347ACTN    H313942   1.062   8.380   7.646
 1348ACTN    H613943   3.474   8.619   9.049
 1348ACTN    C313944   3.416   8.561   8.977
 1348ACTN    H413945   3.423   8.458   9.011
 1348ACTN    H513946   3.315   8.601   8.987
 1348ACTN    C213947   3.461   8.579   8.836
 1348ACTN    O113948   3.383   8.611   8.747
 1348ACTN    C113949   3.594   8.526   8.800
 1348ACTN    H113950   3.627   8.583   8.713
 1348ACTN    H213951   3.596   8.417   8.790
 1348ACTN    H313952   3.660   8.546   8.884
 1349ACTN    H613953   2.433   7.563   7.737
 1349ACTN    C313954   2.353   7.625   7.698
 1349ACTN    H413955   2.297   7.560   7.631
 1349ACTN    H513956   2.281   7.654   7.775
 1349ACTN    C213957   2.400   7.741   7.625
 1349ACTN    O113958   2.434   7.741   7.509
 1349ACTN    C113959   2.409   7.873   7.705
 1349ACTN    H113960   2.377   7.854   7.807
 1349ACTN    H213961   2.353   7.954   7.660
 1349ACTN    H313962   2.512   7.904   7.721
 1350ACTN    H613963   1.268   7.537   7.840
 1350ACTN    C313964   1.287   7.644   7.848
 1350ACTN    H413965   1.211   7.691   7.910
 1350ACTN    H513966   1.384   7.661   7.893
 1350ACTN    C213967   1.293   7.709   7.714
 1350ACTN    O113968   1.347   7.651   7.622
 1350ACTN    C113969   1.242   7.852   7.686
 1350ACTN    H113970   1.221   7.879   7.583
 1350ACTN    H213971   1.319   7.919   7.725
 1350ACTN    H313972   1.158   7.875   7.752
 1351ACTN    H613973   2.977   8.027   7.826
 1351ACTN    C313974   3.013   8.126   7.852
 1351ACTN    H413975   3.121   8.115   7.837
 1351ACTN    H513976   2.973   8.204   7.787
 1351ACTN    C213977   3.008   8.152   7.997
 1351ACTN    O113978   2.957   8.081   8.081
 1351ACTN    C113979   3.062   8.285   8.037
 1351ACTN    H113980   2.986   8.338   8.094
 1351ACTN    H213981   3.085   8.356   7.957
 1351ACTN    H313982   3.154   8.265   8.092
 1352ACTN    H613983   1.056   7.950   8.454
 1352ACTN    C313984   1.046   7.861   8.391
 1352ACTN    H413985   1.018   7.778   8.456
 1352ACTN    H513986   0.962   7.886   8.326
 1352ACTN    C213987   1.162   7.816   8.315
 1352ACTN    O113988   1.270   7.798   8.367
 1352ACTN    C113989   1.149   7.798   8.169
 1352ACTN    H113990   1.242   7.799   8.114
 1352ACTN    H213991   1.088   7.879   8.129
 1352ACTN    H313992   1.099   7.705   8.139
 1353ACTN    H613993   6.673   8.669   8.570
 1353ACTN    C313994   6.680   8.569   8.529
 1353ACTN    H413995   6.780   8.525   8.537
 1353ACTN    H513996   6.608   8.501   8.575
 1353ACTN    C213997   6.641   8.580   8.387
 1353ACTN    O113998   6.524   8.602   8.355
 1353ACTN    C113999   6.731   8.504   8.293
 1353ACTN    H114000   6.681   8.499   8.196
 1353ACTN    H214001   6.757   8.403   8.326
 1353ACTN    H314002   6.821   8.565   8.280
 1354ACTN    H614003   7.167   7.624   8.572
 1354ACTN    C314004   7.096   7.693   8.526
 1354ACTN    H414005   7.130   7.791   8.559
 1354ACTN    H514006   7.100   7.683   8.417
 1354ACTN    C214007   6.954   7.666   8.571
 1354ACTN    O114008   6.862   7.745   8.550
 1354ACTN    C114009   6.934   7.552   8.657
 1354ACTN    H114010   6.954   7.452   8.617
 1354ACTN    H214011   6.831   7.551   8.691
 1354ACTN    H314012   6.998   7.559   8.744
 1355ACTN    H614013   2.999   7.822   8.065
 1355ACTN    C314014   2.931   7.760   8.122
 1355ACTN    H414015   2.974   7.677   8.178
 1355ACTN    H514016   2.889   7.829   8.195
 1355ACTN    C214017   2.828   7.708   8.030
 1355ACTN    O114018   2.766   7.605   8.062
 1355ACTN    C114019   2.793   7.781   7.901
 1355ACTN    H114020   2.785   7.704   7.824
 1355ACTN    H214021   2.876   7.846   7.874
 1355ACTN    H314022   2.701   7.837   7.921
 1356ACTN    H614023   4.400   8.648   7.460
 1356ACTN    C314024   4.368   8.730   7.524
 1356ACTN    H414025   4.424   8.730   7.618
 1356ACTN    H514026   4.389   8.824   7.472
 1356ACTN    C214027   4.222   8.721   7.557
 1356ACTN    O114028   4.151   8.798   7.503
 1356ACTN    C114029   4.161   8.607   7.638
 1356ACTN    H114030   4.088   8.636   7.714
 1356ACTN    H214031   4.243   8.546   7.676
 1356ACTN    H314032   4.120   8.530   7.572
 1357ACTN    H614033   5.607   7.425   7.667
 1357ACTN    C314034   5.638   7.501   7.739
 1357ACTN    H414035   5.557   7.574   7.727
 1357ACTN    H514036   5.642   7.463   7.841
 1357ACTN    C214037   5.765   7.557   7.693
 1357ACTN    O114038   5.797   7.669   7.729
 1357ACTN    C114039   5.832   7.495   7.573
 1357ACTN    H114040   5.922   7.553   7.550
 1357ACTN    H214041   5.765   7.503   7.487
 1357ACTN    H314042   5.843   7.388   7.587
 1358ACTN    H614043   1.208   8.815   8.552
 1358ACTN    C314044   1.168   8.727   8.601
 1358ACTN    H414045   1.125   8.762   8.696
 1358ACTN    H514046   1.085   8.692   8.540
 1358ACTN    C214047   1.255   8.611   8.619
 1358ACTN    O114048   1.382   8.624   8.624
 1358ACTN    C114049   1.196   8.483   8.665
 1358ACTN    H114050   1.153   8.507   8.762
 1358ACTN    H214051   1.275   8.409   8.675
 1358ACTN    H314052   1.116   8.451   8.597
 1359ACTN    H614053   3.264   8.347   7.282
 1359ACTN    C314054   3.157   8.369   7.287
 1359ACTN    H414055   3.136   8.459   7.229
 1359ACTN    H514056   3.109   8.288   7.232
 1359ACTN    C214057   3.104   8.387   7.428
 1359ACTN    O114058   3.001   8.331   7.463
 1359ACTN    C114059   3.183   8.459   7.534
 1359ACTN    H114060   3.131   8.551   7.560
 1359ACTN    H214061   3.285   8.483   7.504
 1359ACTN    H314062   3.185   8.400   7.626
 1360ACTN    H614063   6.966   8.284   7.383
 1360ACTN    C314064   7.004   8.304   7.483
 1360ACTN    H414065   7.045   8.212   7.524
 1360ACTN    H514066   7.083   8.379   7.476
 1360ACTN    C214067   6.883   8.349   7.567
 1360ACTN    O114068   6.850   8.291   7.670
 1360ACTN    C114069   6.812   8.467   7.515
 1360ACTN    H114070   6.709   8.477   7.548
 1360ACTN    H214071   6.803   8.470   7.406
 1360ACTN    H314072   6.865   8.554   7.554
 1361ACTN    H614073   0.575   8.200   7.893
 1361ACTN    C314074   0.592   8.107   7.837
 1361ACTN    H414075   0.621   8.040   7.919
 1361ACTN    H514076   0.493   8.073   7.808
 1361ACTN    C214077   0.670   8.128   7.713
 1361ACTN    O114078   0.707   8.240   7.686
 1361ACTN    C114079   0.734   8.014   7.645
 1361ACTN    H114080   0.819   7.992   7.709
 1361ACTN    H214081   0.755   8.047   7.543
 1361ACTN    H314082   0.674   7.924   7.656
 1362ACTN    H614083   5.193   7.829   8.098
 1362ACTN    C314084   5.250   7.756   8.041
 1362ACTN    H414085   5.193   7.720   7.955
 1362ACTN    H514086   5.348   7.792   8.008
 1362ACTN    C214087   5.271   7.644   8.140
 1362ACTN    O114088   5.282   7.664   8.263
 1362ACTN    C114089   5.252   7.507   8.084
 1362ACTN    H114090   5.274   7.493   7.978
 1362ACTN    H214091   5.154   7.461   8.098
 1362ACTN    H314092   5.319   7.437   8.133
 1363ACTN    H614093   4.859   7.566   8.460
 1363ACTN    C314094   4.962   7.600   8.446
 1363ACTN    H414095   5.017   7.610   8.540
 1363ACTN    H514096   5.018   7.532   8.383
 1363ACTN    C214097   4.946   7.731   8.386
 1363ACTN    O114098   4.918   7.725   8.266
 1363ACTN    C114099   5.010   7.851   8.444
 1363ACTN    H114100   4.995   7.933   8.374
 1363ACTN    H214101   5.118   7.836   8.451
 1363ACTN    H314102   4.965   7.869   8.542
 1364ACTN    H614103   7.018   8.390   8.055
 1364ACTN    C314104   7.028   8.381   7.947
 1364ACTN    H414105   6.978   8.289   7.916
 1364ACTN    H514106   6.976   8.462   7.895
 1364ACTN    C214107   7.167   8.378   7.899
 1364ACTN    O114108   7.255   8.326   7.965
 1364ACTN    C114109   7.214   8.445   7.778
 1364ACTN    H114110   7.144   8.465   7.697
 1364ACTN    H214111   7.291   8.381   7.734
 1364ACTN    H314112   7.250   8.544   7.807
 1365ACTN    H614113   1.797   7.293   8.699
 1365ACTN    C314114   1.875   7.369   8.688
 1365ACTN    H414115   1.948   7.361   8.770
 1365ACTN    H514116   1.926   7.348   8.594
 1365ACTN    C214117   1.808   7.501   8.685
 1365ACTN    O114118   1.807   7.576   8.590
 1365ACTN    C114119   1.765   7.545   8.812
 1365ACTN    H114120   1.701   7.464   8.845
 1365ACTN    H214121   1.701   7.633   8.800
 1365ACTN    H314122   1.849   7.576   8.874
 1366ACTN    H614123   8.482   1.094   5.832
 1366ACTN    C314124   8.481   1.112   5.724
 1366ACTN    H414125   8.490   1.220   5.713
 1366ACTN    H514126   8.576   1.075   5.685
 1366ACTN    C214127   8.353   1.070   5.664
 1366ACTN    O114128   8.245   1.105   5.716
 1366ACTN    C114129   8.347   1.006   5.531
 1366ACTN    H114130   8.418   1.054   5.464
 1366ACTN    H214131   8.246   1.013   5.492
 1366ACTN    H314132   8.367   0.899   5.539
 1367ACTN    H614133   7.931   4.732   0.788
 1367ACTN    C314134   7.895   4.720   0.686
 1367ACTN    H414135   7.925   4.620   0.655
 1367ACTN    H514136   7.788   4.730   0.672
 1367ACTN    C214137   7.971   4.810   0.593
 1367ACTN    O114138   8.089   4.837   0.616
 1367ACTN    C114139   7.895   4.867   0.483
 1367ACTN    H114140   7.795   4.825   0.475
 1367ACTN    H214141   7.945   4.840   0.390
 1367ACTN    H314142   7.882   4.976   0.486
 1368ACTN    H614143   8.104   0.855   1.061
 1368ACTN    C314144   8.201   0.881   1.103
 1368ACTN    H414145   8.229   0.816   1.186
 1368ACTN    H514146   8.273   0.880   1.022
 1368ACTN    C214147   8.189   1.024   1.148
 1368ACTN    O114148   8.264   1.109   1.102
 1368ACTN    C114149   8.091   1.059   1.250
 1368ACTN    H114150   8.064   0.968   1.302
 1368ACTN    H214151   7.998   1.110   1.225
 1368ACTN    H314152   8.136   1.107   1.337
 1369ACTN    H614153   7.818   1.548   5.246
 1369ACTN    C314154   7.738   1.475   5.264
 1369ACTN    H414155   7.685   1.460   5.170
 1369ACTN    H514156   7.779   1.377   5.285
 1369ACTN    C214157   7.644   1.522   5.365
 1369ACTN    O114158   7.583   1.627   5.352
 1369ACTN    C114159   7.601   1.431   5.474
 1369ACTN    H114160   7.495   1.406   5.466
 1369ACTN    H214161   7.605   1.485   5.568
 1369ACTN    H314162   7.661   1.341   5.477
 1370ACTN    H614163   8.572   0.871   4.841
 1370ACTN    C314164   8.545   0.966   4.794
 1370ACTN    H414165   8.441   0.964   4.762
 1370ACTN    H514166   8.553   1.038   4.875
 1370ACTN    C214167   8.635   0.986   4.674
 1370ACTN    O114168   8.669   0.892   4.602
 1370ACTN    C114169   8.687   1.124   4.664
 1370ACTN    H114170   8.650   1.173   4.574
 1370ACTN    H214171   8.795   1.137   4.673
 1370ACTN    H314172   8.657   1.181   4.753
 1371ACTN    H614173   8.136   0.930   5.096
 1371ACTN    C314174   8.203   0.992   5.037
 1371ACTN    H414175   8.305   0.960   5.059
 1371ACTN    H514176   8.180   0.975   4.932
 1371ACTN    C214177   8.176   1.138   5.077
 1371ACTN    O114178   8.268   1.211   5.105
 1371ACTN    C114179   8.033   1.183   5.048
 1371ACTN    H114180   7.962   1.164   5.128
 1371ACTN    H214181   8.000   1.125   4.962
 1371ACTN    H314182   8.032   1.289   5.021
 1372ACTN    H614183   8.296   4.661   2.740
 1372ACTN    C314184   8.271   4.725   2.655
 1372ACTN    H414185   8.266   4.830   2.685
 1372ACTN    H514186   8.345   4.712   2.576
 1372ACTN    C214187   8.144   4.670   2.601
 1372ACTN    O114188   8.107   4.562   2.629
 1372ACTN    C114189   8.071   4.758   2.508
 1372ACTN    H114190   7.975   4.722   2.471
 1372ACTN    H214191   8.129   4.777   2.418
 1372ACTN    H314192   8.050   4.852   2.558
 1373ACTN    H614193   7.561   6.299   0.736
 1373ACTN    C314194   7.646   6.233   0.722
 1373ACTN    H414195   7.726   6.261   0.791
 1373ACTN    H514196   7.695   6.239   0.625
 1373ACTN    C214197   7.605   6.090   0.748
 1373ACTN    O114198   7.609   6.047   0.864
 1373ACTN    C114199   7.519   6.026   0.646
 1373ACTN    H114200   7.419   6.066   0.628
 1373ACTN    H214201   7.513   5.921   0.675
 1373ACTN    H314202   7.572   6.031   0.551
 1374ACTN    H614203   8.338   6.872   2.849
 1374ACTN    C314204   8.327   6.947   2.927
 1374ACTN    H414205   8.340   7.047   2.887
 1374ACTN    H514206   8.229   6.932   2.973
 1374ACTN    C214207   8.416   6.918   3.035
 1374ACTN    O114208   8.522   6.861   3.003
 1374ACTN    C114209   8.366   6.918   3.176
 1374ACTN    H114210   8.445   6.914   3.251
 1374ACTN    H214211   8.312   6.823   3.180
 1374ACTN    H314212   8.298   6.998   3.202
 1375ACTN    H614213   8.004   0.225   0.451
 1375ACTN    C314214   8.040   0.180   0.359
 1375ACTN    H414215   7.996   0.082   0.339
 1375ACTN    H514216   8.010   0.254   0.285
 1375ACTN    C214217   8.185   0.166   0.348
 1375ACTN    O114218   8.261   0.211   0.268
 1375ACTN    C114219   8.247   0.082   0.458
 1375ACTN    H114220   8.276  -0.015   0.418
 1375ACTN    H214221   8.179   0.080   0.543
 1375ACTN    H314222   8.340   0.129   0.488
 1376ACTN    H614223   8.478   0.535   5.555
 1376ACTN    C314224   8.399   0.480   5.606
 1376ACTN    H414225   8.401   0.378   5.565
 1376ACTN    H514226   8.425   0.489   5.711
 1376ACTN    C214227   8.272   0.549   5.580
 1376ACTN    O114228   8.238   0.656   5.624
 1376ACTN    C114229   8.168   0.461   5.515
 1376ACTN    H114230   8.197   0.446   5.411
 1376ACTN    H214231   8.066   0.497   5.505
 1376ACTN    H314232   8.159   0.362   5.558
 1377ACTN    H614233   8.653   5.517   2.994
 1377ACTN    C314234   8.707   5.437   2.944
 1377ACTN    H414235   8.745   5.359   3.010
 1377ACTN    H514236   8.633   5.396   2.875
 1377ACTN    C214237   8.830   5.487   2.873
 1377ACTN    O114238   8.928   5.417   2.848
 1377ACTN    C114239   8.810   5.620   2.804
 1377ACTN    H114240   8.706   5.652   2.799
 1377ACTN    H214241   8.848   5.608   2.702
 1377ACTN    H314242   8.859   5.703   2.854
 1378ACTN    H614243   8.263   7.039   2.081
 1378ACTN    C314244   8.289   6.960   2.011
 1378ACTN    H414245   8.194   6.919   1.975
 1378ACTN    H514246   8.337   7.005   1.923
 1378ACTN    C214247   8.370   6.846   2.063
 1378ACTN    O114248   8.435   6.768   1.991
 1378ACTN    C114249   8.390   6.841   2.209
 1378ACTN    H114250   8.351   6.935   2.248
 1378ACTN    H214251   8.496   6.828   2.231
 1378ACTN    H314252   8.327   6.760   2.245
 1379ACTN    H614253   7.789   2.250   4.900
 1379ACTN    C314254   7.729   2.303   4.827
 1379ACTN    H414255   7.650   2.352   4.883
 1379ACTN    H514256   7.790   2.384   4.787
 1379ACTN    C214257   7.668   2.223   4.724
 1379ACTN    O114258   7.628   2.280   4.623
 1379ACTN    C114259   7.627   2.087   4.763
 1379ACTN    H114260   7.561   2.101   4.849
 1379ACTN    H214261   7.715   2.027   4.785
 1379ACTN    H314262   7.576   2.030   4.686
 1380ACTN    H614263   8.886   1.326   5.319
 1380ACTN    C314264   8.900   1.218   5.315
 1380ACTN    H414265   8.968   1.187   5.394
 1380ACTN    H514266   8.951   1.204   5.220
 1380ACTN    C214267   8.762   1.154   5.327
 1380ACTN    O114268   8.701   1.165   5.435
 1380ACTN    C114269   8.699   1.077   5.211
 1380ACTN    H114270   8.606   1.125   5.180
 1380ACTN    H214271   8.674   0.976   5.242
 1380ACTN    H314272   8.772   1.069   5.130
 1381ACTN    H614273   8.813   6.229   2.777
 1381ACTN    C314274   8.829   6.150   2.705
 1381ACTN    H414275   8.853   6.192   2.607
 1381ACTN    H514276   8.914   6.091   2.738
 1381ACTN    C214277   8.715   6.062   2.709
 1381ACTN    O114278   8.709   5.963   2.637
 1381ACTN    C114279   8.610   6.086   2.813
 1381ACTN    H114280   8.597   5.999   2.877
 1381ACTN    H214281   8.518   6.117   2.764
 1381ACTN    H314282   8.632   6.169   2.881
 1382ACTN    H614283   9.110   7.244   4.681
 1382ACTN    C314284   9.146   7.159   4.622
 1382ACTN    H414285   9.058   7.101   4.594
 1382ACTN    H514286   9.194   7.201   4.533
 1382ACTN    C214287   9.235   7.059   4.689
 1382ACTN    O114288   9.284   6.968   4.628
 1382ACTN    C114289   9.248   7.070   4.839
 1382ACTN    H114290   9.199   6.988   4.890
 1382ACTN    H214291   9.204   7.160   4.882
 1382ACTN    H314292   9.353   7.067   4.866
 1383ACTN    H614293   7.309   6.793   3.096
 1383ACTN    C314294   7.355   6.803   3.194
 1383ACTN    H414295   7.348   6.906   3.230
 1383ACTN    H514296   7.299   6.738   3.261
 1383ACTN    C214297   7.495   6.770   3.174
 1383ACTN    O114298   7.562   6.848   3.111
 1383ACTN    C114299   7.562   6.671   3.257
 1383ACTN    H114300   7.490   6.616   3.318
 1383ACTN    H214301   7.636   6.726   3.315
 1383ACTN    H314302   7.621   6.596   3.204
 1384ACTN    H614303   8.512   6.556   2.382
 1384ACTN    C314304   8.550   6.602   2.474
 1384ACTN    H414305   8.641   6.550   2.505
 1384ACTN    H514306   8.582   6.701   2.442
 1384ACTN    C214307   8.456   6.603   2.588
 1384ACTN    O114308   8.395   6.705   2.606
 1384ACTN    C114309   8.420   6.471   2.655
 1384ACTN    H114310   8.370   6.412   2.577
 1384ACTN    H214311   8.344   6.499   2.728
 1384ACTN    H314312   8.511   6.437   2.703
 1385ACTN    H614313   8.601   5.437   4.368
 1385ACTN    C314314   8.662   5.403   4.284
 1385ACTN    H414315   8.763   5.382   4.319
 1385ACTN    H514316   8.611   5.318   4.239
 1385ACTN    C214317   8.666   5.512   4.188
 1385ACTN    O114318   8.558   5.539   4.127
 1385ACTN    C114319   8.789   5.587   4.171
 1385ACTN    H114320   8.837   5.597   4.269
 1385ACTN    H214321   8.770   5.685   4.126
 1385ACTN    H314322   8.857   5.542   4.099
 1386ACTN    H614323   8.451   2.408   2.125
 1386ACTN    C314324   8.368   2.352   2.167
 1386ACTN    H414325   8.368   2.252   2.125
 1386ACTN    H514326   8.375   2.347   2.276
 1386ACTN    C214327   8.241   2.420   2.124
 1386ACTN    O114328   8.197   2.506   2.199
 1386ACTN    C114329   8.190   2.409   1.980
 1386ACTN    H114330   8.264   2.398   1.900
 1386ACTN    H214331   8.120   2.488   1.952
 1386ACTN    H314332   8.136   2.315   1.973
 1387ACTN    H614333   8.580   0.848   7.200
 1387ACTN    C314334   8.513   0.763   7.207
 1387ACTN    H414335   8.430   0.805   7.151
 1387ACTN    H514336   8.561   0.684   7.150
 1387ACTN    C214337   8.486   0.729   7.346
 1387ACTN    O114338   8.583   0.716   7.417
 1387ACTN    C114339   8.355   0.704   7.393
 1387ACTN    H114340   8.312   0.782   7.455
 1387ACTN    H214341   8.371   0.613   7.450
 1387ACTN    H314342   8.288   0.675   7.312
 1388ACTN    H614343   8.553   6.896   2.658
 1388ACTN    C314344   8.610   6.986   2.637
 1388ACTN    H414345   8.646   7.035   2.728
 1388ACTN    H514346   8.697   6.942   2.588
 1388ACTN    C214347   8.517   7.065   2.544
 1388ACTN    O114348   8.565   7.135   2.454
 1388ACTN    C114349   8.365   7.056   2.565
 1388ACTN    H114350   8.325   6.974   2.624
 1388ACTN    H214351   8.319   7.070   2.467
 1388ACTN    H314352   8.330   7.151   2.606
 1389ACTN    H614353   8.347   7.280   1.945
 1389ACTN    C314354   8.439   7.266   1.888
 1389ACTN    H414355   8.463   7.363   1.844
 1389ACTN    H514356   8.527   7.249   1.951
 1389ACTN    C214357   8.438   7.165   1.780
 1389ACTN    O114358   8.360   7.177   1.689
 1389ACTN    C114359   8.544   7.061   1.764
 1389ACTN    H114360   8.604   7.051   1.854
 1389ACTN    H214361   8.609   7.096   1.684
 1389ACTN    H314362   8.497   6.965   1.740
 1390ACTN    H614363   8.257   1.781   5.772
 1390ACTN    C314364   8.275   1.829   5.868
 1390ACTN    H414365   8.340   1.767   5.931
 1390ACTN    H514366   8.322   1.923   5.839
 1390ACTN    C214367   8.146   1.849   5.938
 1390ACTN    O114368   8.131   1.814   6.055
 1390ACTN    C114369   8.038   1.925   5.868
 1390ACTN    H114370   7.958   1.958   5.935
 1390ACTN    H214371   7.988   1.862   5.794
 1390ACTN    H314372   8.080   2.012   5.818
 1391ACTN    H614373   7.383   5.357   5.407
 1391ACTN    C314374   7.373   5.438   5.335
 1391ACTN    H414375   7.268   5.452   5.306
 1391ACTN    H514376   7.385   5.534   5.384
 1391ACTN    C214377   7.466   5.425   5.212
 1391ACTN    O114378   7.432   5.389   5.101
 1391ACTN    C114379   7.616   5.456   5.231
 1391ACTN    H114380   7.675   5.379   5.181
 1391ACTN    H214381   7.649   5.438   5.334
 1391ACTN    H314382   7.648   5.556   5.202
 1392ACTN    H614383   7.578   6.338   3.422
 1392ACTN    C314384   7.656   6.269   3.455
 1392ACTN    H414385   7.705   6.306   3.545
 1392ACTN    H514386   7.614   6.171   3.478
 1392ACTN    C214387   7.753   6.241   3.345
 1392ACTN    O114388   7.759   6.322   3.251
 1392ACTN    C114389   7.872   6.158   3.373
 1392ACTN    H114390   7.955   6.169   3.303
 1392ACTN    H214391   7.860   6.050   3.383
 1392ACTN    H314392   7.906   6.201   3.467
 1393ACTN    H614393   7.873   2.275   3.875
 1393ACTN    C314394   7.878   2.371   3.925
 1393ACTN    H414395   7.853   2.452   3.856
 1393ACTN    H514396   7.805   2.371   4.006
 1393ACTN    C214397   8.018   2.387   3.965
 1393ACTN    O114398   8.099   2.389   3.877
 1393ACTN    C114399   8.059   2.381   4.110
 1393ACTN    H114400   8.111   2.475   4.130
 1393ACTN    H214401   8.131   2.302   4.135
 1393ACTN    H314402   7.973   2.375   4.176
 1394ACTN    H614403   7.516   5.610   1.438
 1394ACTN    C314404   7.447   5.596   1.521
 1394ACTN    H414405   7.371   5.524   1.489
 1394ACTN    H514406   7.487   5.555   1.613
 1394ACTN    C214407   7.386   5.727   1.557
 1394ACTN    O114408   7.321   5.801   1.485
 1394ACTN    C114409   7.433   5.789   1.684
 1394ACTN    H114410   7.526   5.846   1.678
 1394ACTN    H214411   7.441   5.719   1.767
 1394ACTN    H314412   7.361   5.867   1.709
 1395ACTN    H614413   7.447   2.652   5.672
 1395ACTN    C314414   7.518   2.603   5.738
 1395ACTN    H414415   7.616   2.631   5.698
 1395ACTN    H514416   7.516   2.654   5.834
 1395ACTN    C214417   7.516   2.450   5.721
 1395ACTN    O114418   7.408   2.398   5.686
 1395ACTN    C114419   7.643   2.369   5.739
 1395ACTN    H114420   7.708   2.406   5.660
 1395ACTN    H214421   7.631   2.261   5.730
 1395ACTN    H314422   7.685   2.386   5.838
 1396ACTN    H614423   7.658   3.874   3.827
 1396ACTN    C314424   7.760   3.913   3.826
 1396ACTN    H414425   7.782   3.966   3.919
 1396ACTN    H514426   7.824   3.826   3.814
 1396ACTN    C214427   7.780   3.994   3.694
 1396ACTN    O114428   7.894   4.024   3.652
 1396ACTN    C114429   7.663   4.002   3.597
 1396ACTN    H114430   7.672   4.073   3.515
 1396ACTN    H214431   7.572   4.034   3.648
 1396ACTN    H314432   7.643   3.905   3.551
 1397ACTN    H614433   7.501   7.348   3.543
 1397ACTN    C314434   7.559   7.270   3.494
 1397ACTN    H414435   7.658   7.305   3.521
 1397ACTN    H514436   7.543   7.178   3.551
 1397ACTN    C214437   7.536   7.249   3.346
 1397ACTN    O114438   7.465   7.325   3.279
 1397ACTN    C114439   7.624   7.140   3.289
 1397ACTN    H114440   7.696   7.098   3.359
 1397ACTN    H214441   7.679   7.174   3.201
 1397ACTN    H314442   7.554   7.061   3.261
 1398ACTN    H614443   7.784   0.870   6.312
 1398ACTN    C314444   7.883   0.901   6.344
 1398ACTN    H414445   7.900   0.845   6.436
 1398ACTN    H514446   7.959   0.885   6.267
 1398ACTN    C214447   7.868   1.043   6.391
 1398ACTN    O114448   7.931   1.094   6.486
 1398ACTN    C114449   7.765   1.133   6.328
 1398ACTN    H114450   7.807   1.228   6.296
 1398ACTN    H214451   7.686   1.159   6.399
 1398ACTN    H314452   7.715   1.082   6.246
 1399ACTN    H614453   7.776   7.152   2.282
 1399ACTN    C314454   7.790   7.063   2.343
 1399ACTN    H414455   7.866   6.996   2.301
 1399ACTN    H514456   7.824   7.095   2.442
 1399ACTN    C214457   7.661   6.994   2.343
 1399ACTN    O114458   7.659   6.876   2.372
 1399ACTN    C114459   7.536   7.074   2.363
 1399ACTN    H114460   7.524   7.149   2.285
 1399ACTN    H214461   7.530   7.117   2.464
 1399ACTN    H314462   7.445   7.014   2.354
 1400ACTN    H614463   7.704   1.171   4.147
 1400ACTN    C314464   7.699   1.151   4.040
 1400ACTN    H414465   7.778   1.081   4.011
 1400ACTN    H514466   7.604   1.107   4.011
 1400ACTN    C214467   7.711   1.283   3.963
 1400ACTN    O114468   7.778   1.303   3.864
 1400ACTN    C114469   7.621   1.393   4.007
 1400ACTN    H114470   7.664   1.453   4.087
 1400ACTN    H214471   7.527   1.351   4.041
 1400ACTN    H314472   7.601   1.457   3.920
 1401ACTN    H614473   7.830   4.464   2.793
 1401ACTN    C314474   7.813   4.366   2.750
 1401ACTN    H414475   7.909   4.316   2.731
 1401ACTN    H514476   7.760   4.296   2.814
 1401ACTN    C214477   7.722   4.397   2.631
 1401ACTN    O114478   7.612   4.454   2.651
 1401ACTN    C114479   7.770   4.346   2.499
 1401ACTN    H114480   7.872   4.372   2.472
 1401ACTN    H214481   7.702   4.379   2.421
 1401ACTN    H314482   7.760   4.237   2.503
 1402ACTN    H614483   7.880   2.155   3.655
 1402ACTN    C314484   7.891   2.206   3.559
 1402ACTN    H414485   7.872   2.312   3.569
 1402ACTN    H514486   7.811   2.175   3.492
 1402ACTN    C214487   8.021   2.169   3.493
 1402ACTN    O114488   8.071   2.245   3.410
 1402ACTN    C114489   8.081   2.038   3.531
 1402ACTN    H114490   8.188   2.053   3.548
 1402ACTN    H214491   8.065   1.975   3.443
 1402ACTN    H314492   8.030   1.997   3.617
 1403ACTN    H614493   8.348   0.547   2.881
 1403ACTN    C314494   8.400   0.476   2.817
 1403ACTN    H414495   8.406   0.379   2.867
 1403ACTN    H514496   8.501   0.513   2.803
 1403ACTN    C214497   8.338   0.461   2.679
 1403ACTN    O114498   8.288   0.353   2.654
 1403ACTN    C114499   8.337   0.571   2.580
 1403ACTN    H114500   8.346   0.529   2.480
 1403ACTN    H214501   8.416   0.639   2.611
 1403ACTN    H314502   8.241   0.622   2.589
 1404ACTN    H614503   7.616   1.779   7.132
 1404ACTN    C314504   7.516   1.804   7.096
 1404ACTN    H414505   7.452   1.717   7.109
 1404ACTN    H514506   7.518   1.833   6.991
 1404ACTN    C214507   7.461   1.921   7.169
 1404ACTN    O114508   7.409   2.018   7.113
 1404ACTN    C114509   7.475   1.916   7.322
 1404ACTN    H114510   7.371   1.921   7.356
 1404ACTN    H214511   7.519   2.010   7.355
 1404ACTN    H314512   7.512   1.823   7.366
 1405ACTN    H614513   7.687   0.661   4.404
 1405ACTN    C314514   7.694   0.609   4.499
 1405ACTN    H414515   7.748   0.521   4.464
 1405ACTN    H514516   7.756   0.676   4.560
 1405ACTN    C214517   7.562   0.562   4.554
 1405ACTN    O114518   7.539   0.551   4.674
 1405ACTN    C114519   7.447   0.535   4.463
 1405ACTN    H114520   7.480   0.558   4.362
 1405ACTN    H214521   7.363   0.600   4.488
 1405ACTN    H314522   7.402   0.436   4.475
 1406ACTN    H614523   8.257   5.930   5.386
 1406ACTN    C314524   8.250   6.031   5.347
 1406ACTN    H414525   8.171   6.097   5.384
 1406ACTN    H514526   8.343   6.081   5.372
 1406ACTN    C214527   8.232   6.011   5.197
 1406ACTN    O114528   8.306   6.072   5.126
 1406ACTN    C114529   8.119   5.934   5.137
 1406ACTN    H114530   8.032   5.937   5.203
 1406ACTN    H214531   8.141   5.828   5.126
 1406ACTN    H314532   8.094   5.979   5.042
 1407ACTN    H614533   8.855   6.302   0.694
 1407ACTN    C314534   8.917   6.263   0.613
 1407ACTN    H414535   8.916   6.340   0.537
 1407ACTN    H514536   9.020   6.244   0.645
 1407ACTN    C214537   8.852   6.135   0.564
 1407ACTN    O114538   8.909   6.028   0.555
 1407ACTN    C114539   8.706   6.137   0.574
 1407ACTN    H114540   8.665   6.064   0.504
 1407ACTN    H214541   8.653   6.226   0.538
 1407ACTN    H314542   8.676   6.119   0.678
 1408ACTN    H614543   7.389   1.192   6.108
 1408ACTN    C314544   7.370   1.298   6.122
 1408ACTN    H414545   7.368   1.352   6.027
 1408ACTN    H514546   7.264   1.300   6.150
 1408ACTN    C214547   7.460   1.378   6.209
 1408ACTN    O114548   7.577   1.381   6.176
 1408ACTN    C114549   7.412   1.432   6.343
 1408ACTN    H114550   7.466   1.522   6.375
 1408ACTN    H214551   7.425   1.350   6.414
 1408ACTN    H314552   7.305   1.451   6.341
 1409ACTN    H614553   7.835   3.538   4.957
 1409ACTN    C314554   7.741   3.486   4.976
 1409ACTN    H414555   7.772   3.397   5.029
 1409ACTN    H514556   7.672   3.545   5.036
 1409ACTN    C214557   7.668   3.460   4.849
 1409ACTN    O114558   7.733   3.437   4.747
 1409ACTN    C114559   7.520   3.450   4.858
 1409ACTN    H114560   7.477   3.420   4.953
 1409ACTN    H214561   7.486   3.386   4.776
 1409ACTN    H314562   7.488   3.550   4.831
 1410ACTN    H614563   8.641   4.843   2.235
 1410ACTN    C314564   8.559   4.905   2.198
 1410ACTN    H414565   8.601   4.946   2.107
 1410ACTN    H514566   8.481   4.837   2.162
 1410ACTN    C214567   8.506   5.001   2.306
 1410ACTN    O114568   8.592   5.070   2.357
 1410ACTN    C114569   8.364   4.994   2.354
 1410ACTN    H114570   8.303   4.932   2.288
 1410ACTN    H214571   8.316   5.092   2.364
 1410ACTN    H314572   8.367   4.951   2.454
 1411ACTN    H614573   8.344   5.143   3.444
 1411ACTN    C314574   8.259   5.176   3.385
 1411ACTN    H414575   8.226   5.273   3.423
 1411ACTN    H514576   8.291   5.186   3.281
 1411ACTN    C214577   8.148   5.073   3.386
 1411ACTN    O114578   8.170   4.951   3.368
 1411ACTN    C114579   8.005   5.110   3.405
 1411ACTN    H114580   7.983   5.081   3.508
 1411ACTN    H214581   7.932   5.060   3.342
 1411ACTN    H314582   7.980   5.216   3.402
 1412ACTN    H614583   9.059   7.283   0.673
 1412ACTN    C314584   8.958   7.243   0.664
 1412ACTN    H414585   8.951   7.205   0.562
 1412ACTN    H514586   8.945   7.164   0.738
 1412ACTN    C214587   8.860   7.348   0.690
 1412ACTN    O114588   8.902   7.461   0.701
 1412ACTN    C114589   8.718   7.316   0.651
 1412ACTN    H114590   8.706   7.325   0.543
 1412ACTN    H214591   8.639   7.374   0.700
 1412ACTN    H314592   8.709   7.209   0.665
 1413ACTN    H614593   7.427   6.356   3.257
 1413ACTN    C314594   7.368   6.312   3.178
 1413ACTN    H414595   7.300   6.232   3.207
 1413ACTN    H514596   7.304   6.387   3.130
 1413ACTN    C214597   7.462   6.251   3.071
 1413ACTN    O114598   7.494   6.307   2.966
 1413ACTN    C114599   7.523   6.121   3.106
 1413ACTN    H114600   7.493   6.086   3.205
 1413ACTN    H214601   7.631   6.128   3.105
 1413ACTN    H314602   7.486   6.039   3.044
 1414ACTN    H614603   8.114   5.135   5.784
 1414ACTN    C314604   8.055   5.121   5.693
 1414ACTN    H414605   8.122   5.116   5.607
 1414ACTN    H514606   8.024   5.018   5.706
 1414ACTN    C214607   7.943   5.220   5.679
 1414ACTN    O114608   7.857   5.207   5.595
 1414ACTN    C114609   7.944   5.351   5.761
 1414ACTN    H114610   7.840   5.371   5.786
 1414ACTN    H214611   7.976   5.427   5.690
 1414ACTN    H314612   8.007   5.339   5.849
 1415ACTN    H614613   8.126   0.658   4.360
 1415ACTN    C314614   8.075   0.745   4.318
 1415ACTN    H414615   8.015   0.792   4.396
 1415ACTN    H514616   8.157   0.812   4.293
 1415ACTN    C214617   7.979   0.704   4.213
 1415ACTN    O114618   7.908   0.601   4.224
 1415ACTN    C114619   7.977   0.777   4.087
 1415ACTN    H114620   8.041   0.865   4.087
 1415ACTN    H214621   7.872   0.800   4.069
 1415ACTN    H314622   8.014   0.709   4.010
 1416ACTN    H614623   7.928   6.404   0.779
 1416ACTN    C314624   7.972   6.496   0.740
 1416ACTN    H414625   7.907   6.583   0.734
 1416ACTN    H514626   8.061   6.513   0.800
 1416ACTN    C214627   7.997   6.482   0.592
 1416ACTN    O114628   8.102   6.438   0.546
 1416ACTN    C114629   7.905   6.536   0.497
 1416ACTN    H114630   7.880   6.640   0.518
 1416ACTN    H214631   7.820   6.471   0.518
 1416ACTN    H314632   7.932   6.523   0.393
 1417ACTN    H614633   8.150   4.977   1.119
 1417ACTN    C314634   8.192   4.999   1.021
 1417ACTN    H414635   8.178   4.907   0.964
 1417ACTN    H514636   8.300   5.004   1.039
 1417ACTN    C214637   8.144   5.125   0.956
 1417ACTN    O114638   8.074   5.205   1.020
 1417ACTN    C114639   8.163   5.147   0.809
 1417ACTN    H114640   8.266   5.169   0.782
 1417ACTN    H214641   8.104   5.235   0.784
 1417ACTN    H314642   8.131   5.061   0.750
 1418ACTN    H614643   7.826   7.460   6.448
 1418ACTN    C314644   7.911   7.398   6.420
 1418ACTN    H414645   7.939   7.447   6.327
 1418ACTN    H514646   7.993   7.408   6.491
 1418ACTN    C214647   7.856   7.255   6.407
 1418ACTN    O114648   7.840   7.177   6.503
 1418ACTN    C114649   7.842   7.196   6.276
 1418ACTN    H114650   7.904   7.253   6.207
 1418ACTN    H214651   7.738   7.184   6.246
 1418ACTN    H314652   7.880   7.094   6.271
 1419ACTN    H614653   8.491   5.547   6.184
 1419ACTN    C314654   8.423   5.631   6.200
 1419ACTN    H414655   8.485   5.720   6.187
 1419ACTN    H514656   8.358   5.628   6.113
 1419ACTN    C214657   8.362   5.625   6.336
 1419ACTN    O114658   8.379   5.539   6.420
 1419ACTN    C114659   8.285   5.746   6.377
 1419ACTN    H114660   8.278   5.812   6.291
 1419ACTN    H214661   8.332   5.804   6.456
 1419ACTN    H314662   8.187   5.718   6.415
 1420ACTN    H614663   7.946   0.087   2.796
 1420ACTN    C314664   7.897   0.184   2.804
 1420ACTN    H414665   7.862   0.218   2.707
 1420ACTN    H514666   7.809   0.171   2.868
 1420ACTN    C214667   7.979   0.288   2.869
 1420ACTN    O114668   7.934   0.407   2.864
 1420ACTN    C114669   8.110   0.246   2.927
 1420ACTN    H114670   8.100   0.178   3.011
 1420ACTN    H214671   8.165   0.332   2.965
 1420ACTN    H314672   8.179   0.207   2.852
 1421ACTN    H614673   7.712   6.707   6.159
 1421ACTN    C314674   7.687   6.811   6.137
 1421ACTN    H414675   7.594   6.824   6.082
 1421ACTN    H514676   7.683   6.858   6.236
 1421ACTN    C214677   7.802   6.868   6.054
 1421ACTN    O114678   7.920   6.850   6.077
 1421ACTN    C114679   7.766   6.956   5.937
 1421ACTN    H114680   7.706   6.896   5.868
 1421ACTN    H214681   7.847   7.004   5.883
 1421ACTN    H314682   7.697   7.031   5.975
 1422ACTN    H614683   8.096   2.835   4.421
 1422ACTN    C314684   8.101   2.753   4.492
 1422ACTN    H414685   8.204   2.716   4.486
 1422ACTN    H514686   8.090   2.802   4.589
 1422ACTN    C214687   7.995   2.660   4.462
 1422ACTN    O114688   8.013   2.563   4.390
 1422ACTN    C114689   7.858   2.696   4.493
 1422ACTN    H114690   7.823   2.646   4.583
 1422ACTN    H214691   7.789   2.674   4.411
 1422ACTN    H314692   7.855   2.803   4.516
 1423ACTN    H614693   8.352   5.705   5.707
 1423ACTN    C314694   8.352   5.804   5.661
 1423ACTN    H414695   8.381   5.780   5.559
 1423ACTN    H514696   8.250   5.839   5.650
 1423ACTN    C214697   8.435   5.901   5.731
 1423ACTN    O114698   8.458   6.010   5.688
 1423ACTN    C114699   8.493   5.874   5.868
 1423ACTN    H114700   8.596   5.912   5.874
 1423ACTN    H214701   8.495   5.766   5.874
 1423ACTN    H314702   8.433   5.914   5.950
 1424ACTN    H614703   8.826   1.744   5.549
 1424ACTN    C314704   8.796   1.837   5.598
 1424ACTN    H414705   8.808   1.819   5.705
 1424ACTN    H514706   8.872   1.912   5.575
 1424ACTN    C214707   8.656   1.866   5.569
 1424ACTN    O114708   8.571   1.845   5.652
 1424ACTN    C114709   8.620   1.911   5.434
 1424ACTN    H114710   8.550   1.839   5.392
 1424ACTN    H214711   8.705   1.914   5.366
 1424ACTN    H314712   8.559   2.002   5.426
 1425ACTN    H614713   8.902   7.165   1.576
 1425ACTN    C314714   8.871   7.098   1.496
 1425ACTN    H414715   8.967   7.056   1.465
 1425ACTN    H514716   8.810   7.017   1.535
 1425ACTN    C214717   8.811   7.166   1.378
 1425ACTN    O114718   8.858   7.264   1.337
 1425ACTN    C114719   8.672   7.125   1.336
 1425ACTN    H114720   8.682   7.075   1.240
 1425ACTN    H214721   8.609   7.213   1.325
 1425ACTN    H314722   8.622   7.052   1.399
 1426ACTN    H614723   7.410   6.291   3.949
 1426ACTN    C314724   7.512   6.266   3.917
 1426ACTN    H414725   7.519   6.312   3.818
 1426ACTN    H514726   7.522   6.158   3.912
 1426ACTN    C214727   7.598   6.327   4.017
 1426ACTN    O114728   7.600   6.449   4.024
 1426ACTN    C114729   7.653   6.245   4.127
 1426ACTN    H114730   7.630   6.290   4.224
 1426ACTN    H214731   7.759   6.229   4.106
 1426ACTN    H314732   7.613   6.145   4.118
 1427ACTN    H614733   7.599   2.011   6.474
 1427ACTN    C314734   7.607   1.913   6.521
 1427ACTN    H414735   7.577   1.838   6.447
 1427ACTN    H514736   7.712   1.901   6.548
 1427ACTN    C214737   7.516   1.905   6.634
 1427ACTN    O114738   7.471   1.795   6.664
 1427ACTN    C114739   7.514   2.019   6.731
 1427ACTN    H114740   7.478   2.114   6.691
 1427ACTN    H214741   7.616   2.042   6.763
 1427ACTN    H314742   7.458   1.994   6.821
 1428ACTN    H614743   8.201   2.852   3.555
 1428ACTN    C314744   8.118   2.920   3.577
 1428ACTN    H414745   8.145   3.019   3.538
 1428ACTN    H514746   8.037   2.888   3.512
 1428ACTN    C214747   8.058   2.916   3.718
 1428ACTN    O114748   8.017   3.024   3.756
 1428ACTN    C114749   7.988   2.797   3.765
 1428ACTN    H114750   8.056   2.720   3.799
 1428ACTN    H214751   7.925   2.750   3.689
 1428ACTN    H314752   7.925   2.816   3.852
 1429ACTN    H614753   8.522   2.398   3.908
 1429ACTN    C314754   8.457   2.472   3.956
 1429ACTN    H414755   8.483   2.569   3.915
 1429ACTN    H514756   8.354   2.443   3.934
 1429ACTN    C214757   8.472   2.475   4.105
 1429ACTN    O114758   8.413   2.565   4.163
 1429ACTN    C114759   8.558   2.381   4.177
 1429ACTN    H114760   8.508   2.285   4.167
 1429ACTN    H214761   8.574   2.404   4.283
 1429ACTN    H314762   8.660   2.377   4.139
 1430ACTN    H614763   7.898   6.069   4.379
 1430ACTN    C314764   7.999   6.059   4.340
 1430ACTN    H414765   7.990   6.135   4.263
 1430ACTN    H514766   8.084   6.093   4.399
 1430ACTN    C214767   8.038   5.937   4.270
 1430ACTN    O114768   7.945   5.854   4.260
 1430ACTN    C114769   8.156   5.933   4.183
 1430ACTN    H114770   8.234   5.916   4.257
 1430ACTN    H214771   8.178   6.018   4.119
 1430ACTN    H314772   8.156   5.843   4.121
 1431ACTN    H614773   7.760   5.344   3.551
 1431ACTN    C314774   7.785   5.431   3.490
 1431ACTN    H414775   7.795   5.409   3.384
 1431ACTN    H514776   7.700   5.500   3.488
 1431ACTN    C214777   7.914   5.499   3.537
 1431ACTN    O114778   8.012   5.437   3.576
 1431ACTN    C114779   7.931   5.637   3.493
 1431ACTN    H114780   8.005   5.639   3.413
 1431ACTN    H214781   7.967   5.701   3.574
 1431ACTN    H314782   7.840   5.679   3.451
 1432ACTN    H614783   7.569   5.721   4.435
 1432ACTN    C314784   7.574   5.806   4.504
 1432ACTN    H414785   7.470   5.826   4.529
 1432ACTN    H514786   7.630   5.774   4.592
 1432ACTN    C214787   7.641   5.922   4.428
 1432ACTN    O114788   7.697   6.006   4.503
 1432ACTN    C114789   7.588   5.950   4.290
 1432ACTN    H114790   7.542   6.048   4.300
 1432ACTN    H214791   7.513   5.879   4.254
 1432ACTN    H314792   7.671   5.956   4.221
 1433ACTN    H614793   8.355   4.864   6.500
 1433ACTN    C314794   8.293   4.800   6.437
 1433ACTN    H414795   8.334   4.812   6.337
 1433ACTN    H514796   8.307   4.698   6.474
 1433ACTN    C214797   8.144   4.843   6.442
 1433ACTN    O114798   8.061   4.755   6.458
 1433ACTN    C114799   8.103   4.987   6.438
 1433ACTN    H114800   8.144   5.040   6.524
 1433ACTN    H214801   7.994   4.990   6.449
 1433ACTN    H314802   8.122   5.048   6.350
 1434ACTN    H614803   8.483   1.442   4.851
 1434ACTN    C314804   8.389   1.387   4.854
 1434ACTN    H414805   8.405   1.279   4.852
 1434ACTN    H514806   8.329   1.413   4.941
 1434ACTN    C214807   8.317   1.444   4.732
 1434ACTN    O114808   8.317   1.386   4.624
 1434ACTN    C114809   8.240   1.570   4.755
 1434ACTN    H114810   8.175   1.588   4.669
 1434ACTN    H214811   8.304   1.657   4.770
 1434ACTN    H314812   8.176   1.555   4.842
 1435ACTN    H614813   8.293   3.918   2.754
 1435ACTN    C314814   8.372   3.926   2.830
 1435ACTN    H414815   8.347   4.009   2.897
 1435ACTN    H514816   8.355   3.844   2.900
 1435ACTN    C214817   8.510   3.910   2.774
 1435ACTN    O114818   8.527   3.836   2.680
 1435ACTN    C114819   8.628   3.986   2.831
 1435ACTN    H114820   8.719   3.952   2.781
 1435ACTN    H214821   8.646   3.972   2.937
 1435ACTN    H314822   8.621   4.093   2.812
 1436ACTN    H614823   8.818   5.888   2.177
 1436ACTN    C314824   8.917   5.921   2.210
 1436ACTN    H414825   8.975   5.926   2.118
 1436ACTN    H514826   8.908   6.018   2.257
 1436ACTN    C214827   8.979   5.836   2.314
 1436ACTN    O114828   9.090   5.783   2.296
 1436ACTN    C114829   8.891   5.788   2.425
 1436ACTN    H114830   8.808   5.857   2.437
 1436ACTN    H214831   8.938   5.779   2.523
 1436ACTN    H314832   8.839   5.696   2.398
 1437ACTN    H614833   8.365   5.409   3.680
 1437ACTN    C314834   8.359   5.512   3.644
 1437ACTN    H414835   8.455   5.534   3.597
 1437ACTN    H514836   8.274   5.524   3.578
 1437ACTN    C214837   8.342   5.601   3.761
 1437ACTN    O114838   8.430   5.687   3.776
 1437ACTN    C114839   8.207   5.604   3.826
 1437ACTN    H114840   8.140   5.682   3.791
 1437ACTN    H214841   8.219   5.616   3.934
 1437ACTN    H314842   8.152   5.512   3.806
 1438ACTN    H614843   8.928   6.267   6.792
 1438ACTN    C314844   8.840   6.206   6.772
 1438ACTN    H414845   8.758   6.234   6.839
 1438ACTN    H514846   8.808   6.220   6.669
 1438ACTN    C214847   8.865   6.058   6.799
 1438ACTN    O114848   8.973   6.025   6.853
 1438ACTN    C114849   8.767   5.951   6.759
 1438ACTN    H114850   8.792   5.900   6.666
 1438ACTN    H214851   8.665   5.985   6.736
 1438ACTN    H314852   8.766   5.873   6.834
 1439ACTN    H614853   7.249   6.521   1.715
 1439ACTN    C314854   7.352   6.554   1.700
 1439ACTN    H414855   7.417   6.477   1.741
 1439ACTN    H514856   7.373   6.562   1.593
 1439ACTN    C214857   7.379   6.683   1.758
 1439ACTN    O114858   7.490   6.732   1.735
 1439ACTN    C114859   7.290   6.725   1.864
 1439ACTN    H114860   7.312   6.826   1.900
 1439ACTN    H214861   7.290   6.655   1.948
 1439ACTN    H314862   7.191   6.720   1.820
 1440ACTN    H614863   7.578   6.881   4.005
 1440ACTN    C314864   7.563   6.988   4.016
 1440ACTN    H414865   7.511   7.007   4.111
 1440ACTN    H514866   7.659   7.040   4.018
 1440ACTN    C214867   7.472   7.039   3.910
 1440ACTN    O114868   7.519   7.046   3.797
 1440ACTN    C114869   7.340   7.104   3.942
 1440ACTN    H114870   7.287   7.150   3.859
 1440ACTN    H214871   7.363   7.181   4.015
 1440ACTN    H314872   7.276   7.028   3.988
 1441ACTN    H614873   8.627   0.178   0.481
 1441ACTN    C314874   8.646   0.285   0.489
 1441ACTN    H414875   8.570   0.332   0.551
 1441ACTN    H514876   8.743   0.302   0.534
 1441ACTN    C214877   8.652   0.350   0.355
 1441ACTN    O114878   8.706   0.292   0.263
 1441ACTN    C114879   8.601   0.493   0.327
 1441ACTN    H114880   8.580   0.520   0.224
 1441ACTN    H214881   8.678   0.560   0.366
 1441ACTN    H314882   8.517   0.516   0.393
 1442ACTN    H614883   8.099   5.579   2.926
 1442ACTN    C314884   8.086   5.616   3.027
 1442ACTN    H414885   8.083   5.725   3.025
 1442ACTN    H514886   8.179   5.596   3.080
 1442ACTN    C214887   7.977   5.552   3.113
 1442ACTN    O114888   7.890   5.616   3.160
 1442ACTN    C114889   8.022   5.418   3.169
 1442ACTN    H114890   8.036   5.422   3.277
 1442ACTN    H214891   8.108   5.381   3.112
 1442ACTN    H314892   7.939   5.350   3.147
 1443ACTN    H614893   8.201   6.391   3.155
 1443ACTN    C314894   8.297   6.420   3.198
 1443ACTN    H414895   8.370   6.346   3.167
 1443ACTN    H514896   8.323   6.520   3.164
 1443ACTN    C214897   8.298   6.434   3.346
 1443ACTN    O114898   8.201   6.385   3.407
 1443ACTN    C114899   8.401   6.515   3.415
 1443ACTN    H114900   8.357   6.601   3.464
 1443ACTN    H214901   8.477   6.544   3.342
 1443ACTN    H314902   8.458   6.462   3.491
 1444ACTN    H614903   8.009   5.740   0.770
 1444ACTN    C314904   8.041   5.824   0.708
 1444ACTN    H414905   8.106   5.885   0.770
 1444ACTN    H514906   8.098   5.789   0.622
 1444ACTN    C214907   7.938   5.917   0.653
 1444ACTN    O114908   7.849   5.866   0.582
 1444ACTN    C114909   7.948   6.063   0.685
 1444ACTN    H114910   7.875   6.119   0.626
 1444ACTN    H214911   8.044   6.109   0.662
 1444ACTN    H314912   7.929   6.080   0.791
 1445ACTN    H614913   8.228   2.999   3.270
 1445ACTN    C314914   8.185   3.088   3.225
 1445ACTN    H414915   8.267   3.143   3.179
 1445ACTN    H514916   8.118   3.053   3.147
 1445ACTN    C214917   8.101   3.171   3.313
 1445ACTN    O114918   7.991   3.128   3.348
 1445ACTN    C114919   8.167   3.293   3.377
 1445ACTN    H114920   8.216   3.278   3.474
 1445ACTN    H214921   8.096   3.374   3.391
 1445ACTN    H314922   8.247   3.340   3.320
 1446ACTN    H614923   7.565   2.937   4.678
 1446ACTN    C314924   7.663   2.906   4.712
 1446ACTN    H414925   7.695   2.802   4.712
 1446ACTN    H514926   7.731   2.969   4.655
 1446ACTN    C214927   7.678   2.945   4.863
 1446ACTN    O114928   7.657   3.064   4.893
 1446ACTN    C114929   7.687   2.841   4.973
 1446ACTN    H114930   7.590   2.827   5.020
 1446ACTN    H214931   7.764   2.865   5.046
 1446ACTN    H314932   7.707   2.742   4.933
 1447ACTN    H614933   8.634   5.376   5.557
 1447ACTN    C314934   8.549   5.393   5.491
 1447ACTN    H414935   8.474   5.318   5.515
 1447ACTN    H514936   8.511   5.489   5.524
 1447ACTN    C214937   8.602   5.391   5.347
 1447ACTN    O114938   8.637   5.498   5.296
 1447ACTN    C114939   8.615   5.258   5.295
 1447ACTN    H114940   8.650   5.252   5.192
 1447ACTN    H214941   8.528   5.195   5.309
 1447ACTN    H314942   8.696   5.218   5.357
 1448ACTN    H614943   7.307   0.270   3.324
 1448ACTN    C314944   7.405   0.294   3.364
 1448ACTN    H414945   7.461   0.201   3.363
 1448ACTN    H514946   7.465   0.356   3.297
 1448ACTN    C214947   7.387   0.352   3.500
 1448ACTN    O114948   7.274   0.375   3.541
 1448ACTN    C114949   7.501   0.368   3.596
 1448ACTN    H114950   7.563   0.278   3.591
 1448ACTN    H214951   7.474   0.375   3.702
 1448ACTN    H314952   7.562   0.456   3.575
 1449ACTN    H614953   7.772   0.543   3.899
 1449ACTN    C314954   7.683   0.551   3.962
 1449ACTN    H414955   7.704   0.502   4.057
 1449ACTN    H514956   7.608   0.495   3.905
 1449ACTN    C214957   7.661   0.694   3.987
 1449ACTN    O114958   7.668   0.768   3.887
 1449ACTN    C114959   7.562   0.718   4.095
 1449ACTN    H114960   7.580   0.643   4.172
 1449ACTN    H214961   7.458   0.697   4.071
 1449ACTN    H314962   7.558   0.820   4.131
 1450ACTN    H614963   7.338   4.954   5.191
 1450ACTN    C314964   7.414   4.899   5.246
 1450ACTN    H414965   7.378   4.895   5.349
 1450ACTN    H514966   7.438   4.800   5.209
 1450ACTN    C214967   7.538   4.978   5.227
 1450ACTN    O114968   7.614   5.018   5.316
 1450ACTN    C114969   7.590   5.004   5.089
 1450ACTN    H114970   7.539   5.092   5.049
 1450ACTN    H214971   7.570   4.918   5.026
 1450ACTN    H314972   7.697   5.027   5.084
 1451ACTN    H614973   7.406   1.302   5.643
 1451ACTN    C314974   7.376   1.276   5.744
 1451ACTN    H414975   7.355   1.365   5.804
 1451ACTN    H514976   7.283   1.220   5.733
 1451ACTN    C214977   7.471   1.191   5.821
 1451ACTN    O114978   7.452   1.076   5.847
 1451ACTN    C114979   7.609   1.247   5.847
 1451ACTN    H114980   7.610   1.269   5.954
 1451ACTN    H214981   7.628   1.340   5.794
 1451ACTN    H314982   7.690   1.176   5.833
 1452ACTN    H614983   7.972   1.318   4.078
 1452ACTN    C314984   8.057   1.339   4.144
 1452ACTN    H414985   8.140   1.374   4.082
 1452ACTN    H514986   8.034   1.419   4.214
 1452ACTN    C214987   8.079   1.212   4.218
 1452ACTN    O114988   8.105   1.109   4.152
 1452ACTN    C114989   8.065   1.213   4.371
 1452ACTN    H114990   8.132   1.292   4.406
 1452ACTN    H214991   8.103   1.118   4.410
 1452ACTN    H314992   7.964   1.232   4.406
 1453ACTN    H614993   8.739   6.573   6.101
 1453ACTN    C314994   8.744   6.468   6.073
 1453ACTN    H414995   8.643   6.430   6.058
 1453ACTN    H514996   8.792   6.472   5.976
 1453ACTN    C214997   8.833   6.397   6.170
 1453ACTN    O114998   8.800   6.356   6.277
 1453ACTN    C114999   8.965   6.351   6.124
 1453ACTN    H115000   8.972   6.243   6.133
 1453ACTN    H215001   9.041   6.399   6.185
 1453ACTN    H315002   8.984   6.373   6.019
 1454ACTN    H615003   7.521   4.340   3.334
 1454ACTN    C315004   7.616   4.393   3.333
 1454ACTN    H415005   7.587   4.496   3.353
 1454ACTN    H515006   7.678   4.358   3.416
 1454ACTN    C215007   7.691   4.375   3.210
 1454ACTN    O115008   7.653   4.421   3.107
 1454ACTN    C115009   7.809   4.284   3.214
 1454ACTN    H115010   7.886   4.335   3.272
 1454ACTN    H215011   7.841   4.255   3.114
 1454ACTN    H315012   7.786   4.193   3.270
 1455ACTN    H615013   8.438   4.598   4.653
 1455ACTN    C315014   8.401   4.501   4.687
 1455ACTN    H415015   8.340   4.456   4.609
 1455ACTN    H515016   8.492   4.444   4.706
 1455ACTN    C215017   8.323   4.526   4.811
 1455ACTN    O115018   8.386   4.505   4.915
 1455ACTN    C115019   8.173   4.521   4.823
 1455ACTN    H115020   8.139   4.549   4.922
 1455ACTN    H215021   8.145   4.417   4.806
 1455ACTN    H315022   8.126   4.582   4.746
 1456ACTN    H615023   7.420   1.617   4.855
 1456ACTN    C315024   7.437   1.678   4.943
 1456ACTN    H415025   7.545   1.695   4.949
 1456ACTN    H515026   7.387   1.775   4.937
 1456ACTN    C215027   7.381   1.615   5.068
 1456ACTN    O115028   7.394   1.493   5.080
 1456ACTN    C115029   7.294   1.705   5.153
 1456ACTN    H115030   7.302   1.803   5.107
 1456ACTN    H215031   7.331   1.713   5.255
 1456ACTN    H315032   7.190   1.671   5.154
 1457ACTN    H615033   7.715   6.836   1.890
 1457ACTN    C315034   7.660   6.900   1.960
 1457ACTN    H415035   7.606   6.833   2.026
 1457ACTN    H515036   7.738   6.942   2.024
 1457ACTN    C215037   7.582   7.018   1.911
 1457ACTN    O115038   7.511   7.074   1.994
 1457ACTN    C115039   7.565   7.029   1.766
 1457ACTN    H115040   7.655   6.989   1.719
 1457ACTN    H215041   7.551   7.134   1.744
 1457ACTN    H315042   7.478   6.972   1.734
 1458ACTN    H615043   8.589   4.799   2.608
 1458ACTN    C315044   8.671   4.783   2.677
 1458ACTN    H415045   8.760   4.758   2.619
 1458ACTN    H515046   8.697   4.869   2.739
 1458ACTN    C215047   8.651   4.665   2.774
 1458ACTN    O115048   8.606   4.558   2.733
 1458ACTN    C115049   8.657   4.689   2.917
 1458ACTN    H115050   8.584   4.767   2.937
 1458ACTN    H215051   8.759   4.712   2.947
 1458ACTN    H315052   8.619   4.603   2.971
 1459ACTN    H615053   8.012   1.210   4.755
 1459ACTN    C315054   7.905   1.219   4.734
 1459ACTN    H415055   7.897   1.225   4.625
 1459ACTN    H515056   7.851   1.129   4.762
 1459ACTN    C215057   7.845   1.343   4.801
 1459ACTN    O115058   7.747   1.330   4.875
 1459ACTN    C115059   7.875   1.483   4.750
 1459ACTN    H115060   7.915   1.540   4.834
 1459ACTN    H215061   7.789   1.539   4.714
 1459ACTN    H315062   7.951   1.485   4.672
 1460ACTN    H615063   8.132   0.948   3.845
 1460ACTN    C315064   8.095   1.048   3.825
 1460ACTN    H415065   8.043   1.103   3.903
 1460ACTN    H515066   8.179   1.110   3.791
 1460ACTN    C215067   8.009   1.046   3.705
 1460ACTN    O115068   8.059   1.032   3.597
 1460ACTN    C115069   7.868   1.002   3.729
 1460ACTN    H115070   7.856   0.895   3.712
 1460ACTN    H215071   7.804   1.052   3.656
 1460ACTN    H315072   7.832   1.029   3.829
 1461ACTN    H615073   8.897   6.777   2.109
 1461ACTN    C315074   8.802   6.829   2.103
 1461ACTN    H415075   8.743   6.784   2.024
 1461ACTN    H515076   8.748   6.804   2.194
 1461ACTN    C215077   8.813   6.975   2.076
 1461ACTN    O115078   8.885   7.019   1.985
 1461ACTN    C115079   8.723   7.068   2.151
 1461ACTN    H115080   8.775   7.090   2.244
 1461ACTN    H215081   8.624   7.028   2.174
 1461ACTN    H315082   8.715   7.157   2.089
 1462ACTN    H615083   7.899   1.318   7.302
 1462ACTN    C315084   7.794   1.339   7.320
 1462ACTN    H415085   7.740   1.303   7.232
 1462ACTN    H515086   7.764   1.284   7.409
 1462ACTN    C215087   7.768   1.485   7.339
 1462ACTN    O115088   7.847   1.563   7.285
 1462ACTN    C115089   7.658   1.545   7.423
 1462ACTN    H115090   7.696   1.605   7.506
 1462ACTN    H215091   7.582   1.474   7.458
 1462ACTN    H315092   7.598   1.617   7.369
 1463ACTN    H615093   7.789   5.671   2.278
 1463ACTN    C315094   7.738   5.720   2.361
 1463ACTN    H415095   7.681   5.652   2.424
 1463ACTN    H515096   7.817   5.771   2.416
 1463ACTN    C215097   7.642   5.820   2.307
 1463ACTN    O115098   7.625   5.830   2.184
 1463ACTN    C115099   7.578   5.920   2.403
 1463ACTN    H115100   7.592   6.017   2.354
 1463ACTN    H215101   7.626   5.937   2.499
 1463ACTN    H315102   7.473   5.903   2.428
 1464ACTN    H615103   8.474   6.752   1.288
 1464ACTN    C315104   8.573   6.770   1.330
 1464ACTN    H415105   8.618   6.852   1.273
 1464ACTN    H515106   8.565   6.813   1.430
 1464ACTN    C215107   8.660   6.651   1.332
 1464ACTN    O115108   8.740   6.637   1.426
 1464ACTN    C115109   8.691   6.566   1.213
 1464ACTN    H115110   8.606   6.517   1.165
 1464ACTN    H215111   8.749   6.481   1.249
 1464ACTN    H315112   8.750   6.617   1.137
 1465ACTN    H615113   8.907   5.699   5.662
 1465ACTN    C315114   8.877   5.597   5.638
 1465ACTN    H415115   8.801   5.605   5.560
 1465ACTN    H515116   8.963   5.553   5.587
 1465ACTN    C215117   8.825   5.515   5.755
 1465ACTN    O115118   8.900   5.445   5.820
 1465ACTN    C115119   8.701   5.560   5.817
 1465ACTN    H115120   8.702   5.649   5.881
 1465ACTN    H215121   8.662   5.483   5.884
 1465ACTN    H315122   8.631   5.576   5.735
 1466ACTN    H615123   8.304   6.798   0.441
 1466ACTN    C315124   8.276   6.717   0.374
 1466ACTN    H415125   8.368   6.675   0.334
 1466ACTN    H515126   8.220   6.645   0.433
 1466ACTN    C215127   8.195   6.789   0.276
 1466ACTN    O115128   8.233   6.798   0.159
 1466ACTN    C115129   8.063   6.852   0.321
 1466ACTN    H115130   7.985   6.809   0.259
 1466ACTN    H215131   8.062   6.961   0.309
 1466ACTN    H315132   8.040   6.837   0.426
 1467ACTN    H615133   8.415   0.591   1.095
 1467ACTN    C315134   8.405   0.502   1.032
 1467ACTN    H415135   8.377   0.419   1.097
 1467ACTN    H515136   8.321   0.527   0.967
 1467ACTN    C215137   8.521   0.457   0.956
 1467ACTN    O115138   8.629   0.439   1.008
 1467ACTN    C115139   8.508   0.439   0.810
 1467ACTN    H115140   8.601   0.440   0.755
 1467ACTN    H215141   8.447   0.520   0.770
 1467ACTN    H315142   8.458   0.346   0.780
 1468ACTN    H615143   8.654   5.028   4.435
 1468ACTN    C315144   8.681   4.935   4.484
 1468ACTN    H415145   8.694   4.851   4.415
 1468ACTN    H515146   8.768   4.953   4.547
 1468ACTN    C215147   8.564   4.905   4.571
 1468ACTN    O115148   8.573   4.886   4.691
 1468ACTN    C115149   8.457   4.843   4.491
 1468ACTN    H115150   8.406   4.770   4.554
 1468ACTN    H215151   8.504   4.783   4.414
 1468ACTN    H315152   8.392   4.920   4.450
 1469ACTN    H615153   7.586   0.270   5.270
 1469ACTN    C315154   7.579   0.294   5.164
 1469ACTN    H415155   7.556   0.205   5.107
 1469ACTN    H515156   7.498   0.367   5.154
 1469ACTN    C215157   7.698   0.360   5.101
 1469ACTN    O115158   7.745   0.311   5.000
 1469ACTN    C115159   7.738   0.500   5.148
 1469ACTN    H115160   7.653   0.543   5.201
 1469ACTN    H215161   7.750   0.560   5.058
 1469ACTN    H315162   7.830   0.486   5.205
 1470ACTN    H615163   8.771   1.754   6.095
 1470ACTN    C315164   8.699   1.730   6.017
 1470ACTN    H415165   8.626   1.811   6.022
 1470ACTN    H515166   8.743   1.740   5.918
 1470ACTN    C215167   8.632   1.599   6.031
 1470ACTN    O115168   8.563   1.586   6.127
 1470ACTN    C115169   8.613   1.514   5.905
 1470ACTN    H115170   8.670   1.422   5.918
 1470ACTN    H215171   8.663   1.559   5.819
 1470ACTN    H315172   8.510   1.486   5.883
 1471ACTN    H615173   8.563   4.750   6.034
 1471ACTN    C315174   8.619   4.718   6.121
 1471ACTN    H415175   8.569   4.722   6.218
 1471ACTN    H515176   8.652   4.615   6.104
 1471ACTN    C215177   8.746   4.807   6.140
 1471ACTN    O115178   8.771   4.872   6.239
 1471ACTN    C115179   8.844   4.804   6.029
 1471ACTN    H115180   8.805   4.846   5.936
 1471ACTN    H215181   8.873   4.702   6.003
 1471ACTN    H315182   8.929   4.864   6.061
 1472ACTN    H615183   8.658   7.228   4.352
 1472ACTN    C315184   8.662   7.201   4.246
 1472ACTN    H415185   8.739   7.257   4.194
 1472ACTN    H515186   8.564   7.215   4.200
 1472ACTN    C215187   8.700   7.057   4.234
 1472ACTN    O115188   8.623   6.975   4.191
 1472ACTN    C115189   8.843   7.015   4.266
 1472ACTN    H115190   8.847   7.017   4.375
 1472ACTN    H215191   8.910   7.095   4.232
 1472ACTN    H315192   8.853   6.920   4.213
 1473ACTN    H615193   8.225   2.754   1.798
 1473ACTN    C315194   8.296   2.683   1.754
 1473ACTN    H415195   8.248   2.586   1.743
 1473ACTN    H515196   8.316   2.717   1.652
 1473ACTN    C215197   8.424   2.676   1.829
 1473ACTN    O115198   8.429   2.656   1.953
 1473ACTN    C115199   8.550   2.711   1.756
 1473ACTN    H115200   8.529   2.757   1.659
 1473ACTN    H215201   8.619   2.629   1.737
 1473ACTN    H315202   8.598   2.796   1.804
 1474ACTN    H615203   8.636  -0.098   4.761
 1474ACTN    C315204   8.643   0.002   4.719
 1474ACTN    H415205   8.541   0.037   4.727
 1474ACTN    H515206   8.703   0.065   4.785
 1474ACTN    C215207   8.704  -0.000   4.580
 1474ACTN    O115208   8.654   0.068   4.493
 1474ACTN    C115209   8.846  -0.056   4.563
 1474ACTN    H115210   8.844  -0.104   4.465
 1474ACTN    H215211   8.855  -0.137   4.635
 1474ACTN    H315212   8.925   0.018   4.577
 1475ACTN    H615213   8.710   3.847   4.904
 1475ACTN    C315214   8.744   3.819   5.004
 1475ACTN    H415215   8.846   3.854   5.016
 1475ACTN    H515216   8.699   3.880   5.082
 1475ACTN    C215217   8.721   3.680   5.035
 1475ACTN    O115218   8.611   3.656   5.080
 1475ACTN    C115219   8.810   3.574   5.004
 1475ACTN    H115220   8.911   3.596   5.040
 1475ACTN    H215221   8.828   3.575   4.897
 1475ACTN    H315222   8.778   3.476   5.040
 1476ACTN    H615223   8.870   5.262   2.658
 1476ACTN    C315224   8.794   5.245   2.582
 1476ACTN    H415225   8.812   5.313   2.499
 1476ACTN    H515226   8.826   5.144   2.555
 1476ACTN    C215227   8.647   5.249   2.631
 1476ACTN    O115228   8.573   5.342   2.594
 1476ACTN    C115229   8.594   5.135   2.707
 1476ACTN    H115230   8.670   5.097   2.775
 1476ACTN    H215231   8.557   5.057   2.639
 1476ACTN    H315232   8.509   5.168   2.767
 1477ACTN    H615233   8.707   6.171   4.157
 1477ACTN    C315234   8.614   6.142   4.109
 1477ACTN    H415235   8.555   6.233   4.117
 1477ACTN    H515236   8.626   6.111   4.005
 1477ACTN    C215237   8.542   6.025   4.174
 1477ACTN    O115238   8.507   6.021   4.292
 1477ACTN    C115239   8.529   5.903   4.087
 1477ACTN    H115240   8.530   5.919   3.979
 1477ACTN    H215241   8.439   5.849   4.115
 1477ACTN    H315242   8.609   5.830   4.102
 1478ACTN    H615243   8.451   5.373   1.054
 1478ACTN    C315244   8.481   5.310   1.137
 1478ACTN    H415245   8.587   5.322   1.163
 1478ACTN    H515246   8.471   5.207   1.101
 1478ACTN    C215247   8.393   5.337   1.261
 1478ACTN    O115248   8.429   5.298   1.371
 1478ACTN    C115249   8.278   5.429   1.265
 1478ACTN    H115250   8.231   5.435   1.167
 1478ACTN    H215251   8.318   5.525   1.296
 1478ACTN    H315252   8.197   5.398   1.331
 1479ACTN    H615253   7.661   2.980   4.172
 1479ACTN    C315254   7.652   2.874   4.150
 1479ACTN    H415255   7.591   2.829   4.228
 1479ACTN    H515256   7.608   2.872   4.051
 1479ACTN    C215257   7.789   2.814   4.135
 1479ACTN    O115258   7.885   2.887   4.129
 1479ACTN    C115259   7.797   2.668   4.125
 1479ACTN    H115260   7.706   2.625   4.166
 1479ACTN    H215261   7.893   2.643   4.170
 1479ACTN    H315262   7.801   2.640   4.020
 1480ACTN    H615263   8.284   6.390   5.000
 1480ACTN    C315264   8.212   6.399   4.919
 1480ACTN    H415265   8.266   6.366   4.830
 1480ACTN    H515266   8.143   6.317   4.938
 1480ACTN    C215267   8.152   6.531   4.913
 1480ACTN    O115268   8.040   6.544   4.958
 1480ACTN    C115269   8.230   6.650   4.880
 1480ACTN    H115270   8.181   6.738   4.921
 1480ACTN    H215271   8.242   6.662   4.772
 1480ACTN    H315272   8.327   6.647   4.930
 1481ACTN    H615273   8.527   0.418   3.885
 1481ACTN    C315274   8.611   0.377   3.941
 1481ACTN    H415275   8.608   0.417   4.042
 1481ACTN    H515276   8.608   0.268   3.948
 1481ACTN    C215277   8.745   0.423   3.883
 1481ACTN    O115278   8.781   0.343   3.801
 1481ACTN    C115279   8.803   0.563   3.890
 1481ACTN    H115280   8.819   0.606   3.790
 1481ACTN    H215281   8.898   0.565   3.944
 1481ACTN    H315282   8.737   0.631   3.944
 1482ACTN    H615283   8.308   3.673   2.441
 1482ACTN    C315284   8.221   3.621   2.479
 1482ACTN    H415285   8.134   3.671   2.438
 1482ACTN    H515286   8.221   3.519   2.440
 1482ACTN    C215287   8.220   3.622   2.628
 1482ACTN    O115288   8.321   3.579   2.691
 1482ACTN    C115289   8.110   3.685   2.703
 1482ACTN    H115290   8.116   3.674   2.811
 1482ACTN    H215291   8.016   3.643   2.669
 1482ACTN    H315292   8.098   3.790   2.674
 1483ACTN    H615293   9.159   6.075   5.770
 1483ACTN    C315294   9.072   6.137   5.750
 1483ACTN    H415295   9.033   6.159   5.850
 1483ACTN    H515296   9.121   6.218   5.696
 1483ACTN    C215297   8.988   6.047   5.675
 1483ACTN    O115298   9.043   6.006   5.576
 1483ACTN    C115299   8.866   5.987   5.724
 1483ACTN    H115300   8.792   5.975   5.645
 1483ACTN    H215301   8.831   6.058   5.800
 1483ACTN    H315302   8.875   5.890   5.773
 1484ACTN    H615303   8.392   0.084   3.519
 1484ACTN    C315304   8.286   0.086   3.546
 1484ACTN    H415305   8.272   0.014   3.627
 1484ACTN    H515306   8.236   0.052   3.456
 1484ACTN    C215307   8.241   0.220   3.587
 1484ACTN    O115308   8.199   0.300   3.503
 1484ACTN    C115309   8.227   0.238   3.732
 1484ACTN    H115310   8.129   0.203   3.764
 1484ACTN    H215311   8.236   0.344   3.752
 1484ACTN    H315312   8.303   0.179   3.784
 1485ACTN    H615313   7.686   5.137   1.209
 1485ACTN    C315314   7.695   5.211   1.130
 1485ACTN    H415315   7.795   5.204   1.087
 1485ACTN    H515316   7.625   5.175   1.055
 1485ACTN    C215317   7.660   5.349   1.180
 1485ACTN    O115318   7.735   5.400   1.267
 1485ACTN    C115319   7.544   5.421   1.116
 1485ACTN    H115320   7.455   5.374   1.158
 1485ACTN    H215321   7.551   5.410   1.008
 1485ACTN    H315322   7.550   5.525   1.148
 1486ACTN    H615323   8.129   2.222   2.670
 1486ACTN    C315324   8.128   2.115   2.648
 1486ACTN    H415325   8.216   2.080   2.594
 1486ACTN    H515326   8.122   2.059   2.741
 1486ACTN    C215327   8.011   2.073   2.575
 1486ACTN    O115328   8.020   2.016   2.462
 1486ACTN    C115329   7.879   2.100   2.640
 1486ACTN    H115330   7.838   2.190   2.595
 1486ACTN    H215331   7.897   2.129   2.744
 1486ACTN    H315332   7.817   2.011   2.635
 1487ACTN    H615333   7.593   6.098   5.412
 1487ACTN    C315334   7.516   6.096   5.335
 1487ACTN    H415335   7.569   6.046   5.254
 1487ACTN    H515336   7.428   6.038   5.365
 1487ACTN    C215337   7.475   6.237   5.291
 1487ACTN    O115338   7.482   6.321   5.379
 1487ACTN    C115339   7.400   6.278   5.170
 1487ACTN    H115340   7.406   6.384   5.145
 1487ACTN    H215341   7.296   6.246   5.161
 1487ACTN    H315342   7.452   6.223   5.091
 1488ACTN    H615343   8.107   6.096   2.943
 1488ACTN    C315344   8.016   6.132   2.894
 1488ACTN    H415345   7.933   6.074   2.935
 1488ACTN    H515346   7.994   6.228   2.941
 1488ACTN    C215347   8.029   6.135   2.746
 1488ACTN    O115348   7.986   6.237   2.689
 1488ACTN    C115349   8.120   6.047   2.684
 1488ACTN    H115350   8.084   6.027   2.583
 1488ACTN    H215351   8.145   5.952   2.732
 1488ACTN    H315352   8.210   6.106   2.670
 1489ACTN    H615353   8.293   6.898   1.631
 1489ACTN    C315354   8.221   6.816   1.623
 1489ACTN    H415355   8.253   6.748   1.545
 1489ACTN    H515356   8.223   6.754   1.713
 1489ACTN    C215357   8.081   6.859   1.601
 1489ACTN    O115358   8.010   6.799   1.522
 1489ACTN    C115359   8.016   6.944   1.704
 1489ACTN    H115360   7.921   6.991   1.678
 1489ACTN    H215361   8.080   7.030   1.724
 1489ACTN    H315362   7.999   6.885   1.794
 1490ACTN    H615363   7.978   1.379   5.923
 1490ACTN    C315364   8.026   1.470   5.958
 1490ACTN    H415365   7.999   1.546   5.885
 1490ACTN    H515366   7.969   1.505   6.045
 1490ACTN    C215367   8.174   1.452   5.983
 1490ACTN    O115368   8.251   1.479   5.893
 1490ACTN    C115369   8.218   1.371   6.095
 1490ACTN    H115370   8.278   1.431   6.164
 1490ACTN    H215371   8.292   1.299   6.059
 1490ACTN    H315372   8.145   1.318   6.155
 1491ACTN    H615373   8.362   1.799   6.548
 1491ACTN    C315374   8.372   1.781   6.655
 1491ACTN    H415375   8.323   1.856   6.717
 1491ACTN    H515376   8.308   1.696   6.682
 1491ACTN    C215377   8.513   1.751   6.709
 1491ACTN    O115378   8.590   1.845   6.732
 1491ACTN    C115379   8.563   1.610   6.721
 1491ACTN    H115380   8.670   1.611   6.742
 1491ACTN    H215381   8.555   1.554   6.628
 1491ACTN    H315382   8.509   1.562   6.803
 1492ACTN    H615383   7.794   7.052   4.392
 1492ACTN    C315384   7.847   7.096   4.476
 1492ACTN    H415385   7.783   7.134   4.555
 1492ACTN    H515386   7.897   7.017   4.532
 1492ACTN    C215387   7.948   7.196   4.446
 1492ACTN    O115388   7.931   7.261   4.346
 1492ACTN    C115389   8.019   7.243   4.566
 1492ACTN    H115390   8.123   7.212   4.575
 1492ACTN    H215391   7.969   7.213   4.658
 1492ACTN    H315392   8.026   7.352   4.568
 1493ACTN    H615393   7.912   1.757   6.313
 1493ACTN    C315394   7.898   1.649   6.303
 1493ACTN    H415395   7.790   1.636   6.294
 1493ACTN    H515396   7.953   1.605   6.220
 1493ACTN    C215397   7.942   1.596   6.430
 1493ACTN    O115398   7.909   1.651   6.531
 1493ACTN    C115399   8.038   1.483   6.426
 1493ACTN    H115400   7.992   1.400   6.372
 1493ACTN    H215401   8.050   1.450   6.529
 1493ACTN    H315402   8.136   1.510   6.387
 1494ACTN    H615403   8.111   6.655   4.190
 1494ACTN    C315404   8.145   6.757   4.205
 1494ACTN    H415405   8.238   6.761   4.261
 1494ACTN    H515406   8.170   6.794   4.105
 1494ACTN    C215407   8.045   6.856   4.254
 1494ACTN    O115408   8.062   6.886   4.373
 1494ACTN    C115409   7.928   6.894   4.167
 1494ACTN    H115410   7.868   6.810   4.131
 1494ACTN    H215411   7.943   6.952   4.076
 1494ACTN    H315412   7.861   6.958   4.225
 1495ACTN    H615413   7.844   1.811   4.347
 1495ACTN    C315414   7.939   1.865   4.345
 1495ACTN    H415415   8.021   1.812   4.297
 1495ACTN    H515416   7.915   1.957   4.292
 1495ACTN    C215417   7.971   1.900   4.489
 1495ACTN    O115418   8.014   2.006   4.517
 1495ACTN    C115419   7.941   1.799   4.596
 1495ACTN    H115420   7.873   1.827   4.677
 1495ACTN    H215421   8.037   1.761   4.632
 1495ACTN    H315422   7.886   1.717   4.550
 1496ACTN    H615423   8.001   6.538   2.812
 1496ACTN    C315424   7.932   6.536   2.897
 1496ACTN    H415425   7.835   6.571   2.861
 1496ACTN    H515426   7.920   6.432   2.929
 1496ACTN    C215427   7.985   6.610   3.013
 1496ACTN    O115428   8.059   6.704   2.983
 1496ACTN    C115429   7.935   6.593   3.152
 1496ACTN    H115430   8.015   6.614   3.223
 1496ACTN    H215431   7.906   6.490   3.175
 1496ACTN    H315432   7.847   6.650   3.178
 1497ACTN    H615433   8.567   1.456   1.193
 1497ACTN    C315434   8.527   1.368   1.242
 1497ACTN    H415435   8.484   1.403   1.337
 1497ACTN    H515436   8.444   1.333   1.181
 1497ACTN    C215437   8.614   1.252   1.260
 1497ACTN    O115438   8.741   1.265   1.265
 1497ACTN    C115439   8.555   1.124   1.306
 1497ACTN    H115440   8.512   1.148   1.403
 1497ACTN    H215441   8.634   1.050   1.316
 1497ACTN    H315442   8.475   1.092   1.238
 1498ACTN    H615443   8.373   3.075   4.139
 1498ACTN    C315444   8.421   2.988   4.094
 1498ACTN    H415445   8.497   3.017   4.021
 1498ACTN    H515446   8.467   2.948   4.184
 1498ACTN    C215447   8.312   2.896   4.042
 1498ACTN    O115448   8.274   2.899   3.930
 1498ACTN    C115449   8.220   2.821   4.137
 1498ACTN    H115450   8.221   2.717   4.102
 1498ACTN    H215451   8.124   2.871   4.130
 1498ACTN    H315452   8.249   2.827   4.242
 1499ACTN    H615453   8.766   7.226   3.186
 1499ACTN    C315454   8.754   7.212   3.079
 1499ACTN    H415455   8.686   7.130   3.058
 1499ACTN    H515456   8.701   7.302   3.045
 1499ACTN    C215457   8.888   7.199   3.008
 1499ACTN    O115458   8.982   7.253   3.064
 1499ACTN    C115459   8.920   7.097   2.904
 1499ACTN    H115460   9.008   7.120   2.844
 1499ACTN    H215461   8.837   7.083   2.836
 1499ACTN    H315462   8.939   6.999   2.947
 1500ACTN    H615463   7.497   2.631   1.618
 1500ACTN    C315464   7.528   2.561   1.541
 1500ACTN    H415465   7.484   2.464   1.562
 1500ACTN    H515466   7.475   2.591   1.451
 1500ACTN    C215467   7.675   2.558   1.512
 1500ACTN    O115468   7.736   2.646   1.578
 1500ACTN    C115469   7.726   2.493   1.390
 1500ACTN    H115470   7.683   2.393   1.391
 1500ACTN    H215471   7.834   2.488   1.379
 1500ACTN    H315472   7.691   2.551   1.305
 1501ACTN    H615473   7.751   1.779   5.800
 1501ACTN    C315474   7.762   1.740   5.901
 1501ACTN    H415475   7.746   1.632   5.900
 1501ACTN    H515476   7.863   1.745   5.943
 1501ACTN    C215477   7.667   1.823   5.982
 1501ACTN    O115478   7.552   1.829   5.943
 1501ACTN    C115479   7.715   1.908   6.094
 1501ACTN    H115480   7.824   1.912   6.089
 1501ACTN    H215481   7.678   1.878   6.192
 1501ACTN    H315482   7.682   2.012   6.087
 1502ACTN    H615483   8.463   0.540   4.194
 1502ACTN    C315484   8.443   0.445   4.244
 1502ACTN    H415485   8.526   0.377   4.224
 1502ACTN    H515486   8.438   0.462   4.352
 1502ACTN    C215487   8.312   0.392   4.200
 1502ACTN    O115488   8.256   0.306   4.265
 1502ACTN    C115489   8.254   0.462   4.084
 1502ACTN    H115490   8.160   0.413   4.059
 1502ACTN    H215491   8.322   0.460   3.999
 1502ACTN    H315492   8.225   0.562   4.116
 1503ACTN    H615493   7.848   2.021   1.688
 1503ACTN    C315494   7.812   2.124   1.684
 1503ACTN    H415495   7.752   2.147   1.595
 1503ACTN    H515496   7.748   2.132   1.771
 1503ACTN    C215497   7.925   2.219   1.693
 1503ACTN    O115498   8.038   2.180   1.671
 1503ACTN    C115499   7.906   2.360   1.748
 1503ACTN    H115500   7.937   2.439   1.679
 1503ACTN    H215501   7.953   2.366   1.846
 1503ACTN    H315502   7.799   2.373   1.763
 1504ACTN    H615503   7.638   2.223   2.924
 1504ACTN    C315504   7.608   2.292   2.845
 1504ACTN    H415505   7.672   2.290   2.758
 1504ACTN    H515506   7.510   2.268   2.804
 1504ACTN    C215507   7.602   2.419   2.920
 1504ACTN    O115508   7.713   2.461   2.952
 1504ACTN    C115509   7.473   2.449   3.000
 1504ACTN    H115510   7.487   2.493   3.098
 1504ACTN    H215511   7.420   2.357   3.024
 1504ACTN    H315512   7.408   2.509   2.936
 1505ACTN    H615513   8.989   2.895   3.989
 1505ACTN    C315514   8.943   2.835   4.069
 1505ACTN    H415515   9.008   2.748   4.075
 1505ACTN    H515516   8.931   2.886   4.164
 1505ACTN    C215517   8.812   2.778   4.025
 1505ACTN    O115518   8.750   2.698   4.093
 1505ACTN    C115519   8.765   2.833   3.892
 1505ACTN    H115520   8.753   2.941   3.895
 1505ACTN    H215521   8.667   2.798   3.861
 1505ACTN    H315522   8.836   2.808   3.814
 1506ACTN    H615523   7.623   5.352   3.123
 1506ACTN    C315524   7.530   5.296   3.126
 1506ACTN    H415525   7.443   5.356   3.154
 1506ACTN    H515526   7.508   5.257   3.027
 1506ACTN    C215527   7.535   5.180   3.221
 1506ACTN    O115528   7.455   5.089   3.197
 1506ACTN    C115529   7.637   5.170   3.330
 1506ACTN    H115530   7.622   5.248   3.405
 1506ACTN    H215531   7.734   5.177   3.282
 1506ACTN    H315532   7.622   5.080   3.391
 1507ACTN    H615533   7.640   6.084   4.826
 1507ACTN    C315534   7.715   6.058   4.901
 1507ACTN    H415535   7.684   5.962   4.942
 1507ACTN    H515536   7.814   6.044   4.856
 1507ACTN    C215537   7.731   6.171   5.004
 1507ACTN    O115538   7.767   6.137   5.117
 1507ACTN    C115539   7.755   6.309   4.962
 1507ACTN    H115540   7.852   6.325   4.914
 1507ACTN    H215541   7.732   6.367   5.051
 1507ACTN    H315542   7.681   6.335   4.887
 1508ACTN    H615543   7.875   7.203   3.832
 1508ACTN    C315544   7.837   7.181   3.732
 1508ACTN    H415545   7.745   7.237   3.720
 1508ACTN    H515546   7.821   7.074   3.721
 1508ACTN    C215547   7.944   7.209   3.641
 1508ACTN    O115548   8.019   7.114   3.606
 1508ACTN    C115549   7.968   7.345   3.581
 1508ACTN    H115550   8.064   7.373   3.625
 1508ACTN    H215551   7.886   7.408   3.614
 1508ACTN    H315552   7.983   7.340   3.473
 1509ACTN    H615553   7.759   3.732   2.823
 1509ACTN    C315554   7.726   3.629   2.820
 1509ACTN    H415555   7.812   3.581   2.867
 1509ACTN    H515556   7.632   3.611   2.871
 1509ACTN    C215557   7.724   3.572   2.689
 1509ACTN    O115558   7.780   3.631   2.600
 1509ACTN    C115559   7.651   3.447   2.669
 1509ACTN    H115560   7.543   3.460   2.663
 1509ACTN    H215561   7.680   3.379   2.748
 1509ACTN    H315562   7.677   3.410   2.570
 1510ACTN    H615563   7.722   5.543   1.741
 1510ACTN    C315564   7.763   5.459   1.686
 1510ACTN    H415565   7.733   5.459   1.581
 1510ACTN    H515566   7.870   5.476   1.697
 1510ACTN    C215567   7.735   5.327   1.753
 1510ACTN    O115568   7.621   5.288   1.761
 1510ACTN    C115569   7.844   5.257   1.826
 1510ACTN    H115570   7.910   5.330   1.873
 1510ACTN    H215571   7.908   5.210   1.752
 1510ACTN    H315572   7.810   5.184   1.900
 1511ACTN    H615573   7.532   0.040   3.985
 1511ACTN    C315574   7.616  -0.001   3.928
 1511ACTN    H415575   7.652  -0.097   3.965
 1511ACTN    H515576   7.580  -0.017   3.827
 1511ACTN    C215577   7.719   0.100   3.942
 1511ACTN    O115578   7.788   0.141   3.848
 1511ACTN    C115579   7.757   0.129   4.080
 1511ACTN    H115580   7.688   0.196   4.131
 1511ACTN    H215581   7.848   0.190   4.082
 1511ACTN    H315582   7.773   0.040   4.141
 1512ACTN    H615583   7.796   0.327   4.510
 1512ACTN    C315584   7.903   0.316   4.498
 1512ACTN    H415585   7.938   0.215   4.480
 1512ACTN    H515586   7.929   0.380   4.414
 1512ACTN    C215587   7.982   0.378   4.612
 1512ACTN    O115588   7.935   0.487   4.650
 1512ACTN    C115589   8.130   0.359   4.624
 1512ACTN    H115590   8.156   0.254   4.639
 1512ACTN    H215591   8.176   0.428   4.695
 1512ACTN    H315592   8.183   0.381   4.531
 1513ACTN    H615593   8.429   0.707   3.310
 1513ACTN    C315594   8.456   0.747   3.212
 1513ACTN    H415595   8.430   0.674   3.135
 1513ACTN    H515596   8.396   0.830   3.177
 1513ACTN    C215597   8.603   0.782   3.202
 1513ACTN    O115598   8.640   0.890   3.156
 1513ACTN    C115599   8.704   0.677   3.246
 1513ACTN    H115600   8.681   0.580   3.203
 1513ACTN    H215601   8.721   0.652   3.351
 1513ACTN    H315602   8.801   0.702   3.203
 1514ACTN    H615603   8.436   5.880   2.992
 1514ACTN    C315604   8.483   5.783   2.980
 1514ACTN    H415605   8.497   5.753   3.084
 1514ACTN    H515606   8.582   5.793   2.933
 1514ACTN    C215607   8.405   5.685   2.903
 1514ACTN    O115608   8.410   5.571   2.950
 1514ACTN    C115609   8.388   5.706   2.756
 1514ACTN    H115610   8.334   5.800   2.740
 1514ACTN    H215611   8.331   5.623   2.715
 1514ACTN    H315612   8.488   5.721   2.714
 1515ACTN    H615613   8.000   6.721   2.480
 1515ACTN    C315614   7.911   6.713   2.543
 1515ACTN    H415615   7.821   6.744   2.489
 1515ACTN    H515616   7.895   6.610   2.575
 1515ACTN    C215617   7.914   6.819   2.648
 1515ACTN    O115618   7.820   6.830   2.720
 1515ACTN    C115619   8.037   6.895   2.678
 1515ACTN    H115620   8.023   6.955   2.768
 1515ACTN    H215621   8.058   6.965   2.598
 1515ACTN    H315622   8.121   6.828   2.695
 1516ACTN    H615623   8.150   2.623   6.034
 1516ACTN    C315624   8.064   2.587   6.090
 1516ACTN    H415625   8.101   2.526   6.172
 1516ACTN    H515626   8.005   2.670   6.130
 1516ACTN    C215627   7.971   2.524   5.998
 1516ACTN    O115628   7.938   2.407   6.012
 1516ACTN    C115629   7.907   2.616   5.894
 1516ACTN    H115630   7.807   2.578   5.876
 1516ACTN    H215631   7.960   2.606   5.799
 1516ACTN    H315632   7.902   2.721   5.922
 1517ACTN    H615633   7.567   1.016   4.924
 1517ACTN    C315634   7.536   0.918   4.962
 1517ACTN    H415635   7.522   0.841   4.886
 1517ACTN    H515636   7.612   0.891   5.035
 1517ACTN    C215637   7.397   0.926   5.018
 1517ACTN    O115638   7.296   0.914   4.952
 1517ACTN    C115639   7.383   0.946   5.162
 1517ACTN    H115640   7.403   0.851   5.211
 1517ACTN    H215641   7.279   0.967   5.188
 1517ACTN    H315642   7.446   1.025   5.204
 1518ACTN    H615643   8.411   2.678   2.232
 1518ACTN    C315644   8.483   2.751   2.269
 1518ACTN    H415645   8.468   2.773   2.375
 1518ACTN    H515646   8.587   2.720   2.258
 1518ACTN    C215647   8.455   2.874   2.186
 1518ACTN    O115648   8.554   2.930   2.139
 1518ACTN    C115649   8.318   2.917   2.153
 1518ACTN    H115650   8.270   2.838   2.096
 1518ACTN    H215651   8.314   3.011   2.097
 1518ACTN    H315652   8.266   2.924   2.248
 1519ACTN    H615653   7.917   4.645   2.952
 1519ACTN    C315654   7.971   4.554   2.979
 1519ACTN    H415655   7.905   4.481   3.027
 1519ACTN    H515656   8.011   4.510   2.888
 1519ACTN    C215657   8.080   4.586   3.076
 1519ACTN    O115658   8.070   4.694   3.136
 1519ACTN    C115659   8.179   4.485   3.110
 1519ACTN    H115660   8.246   4.475   3.025
 1519ACTN    H215661   8.135   4.388   3.132
 1519ACTN    H315662   8.241   4.504   3.198
 1520ACTN    H615663   8.361   6.799   0.698
 1520ACTN    C315664   8.315   6.707   0.736
 1520ACTN    H415665   8.208   6.726   0.736
 1520ACTN    H515666   8.345   6.624   0.672
 1520ACTN    C215667   8.353   6.688   0.878
 1520ACTN    O115668   8.310   6.591   0.934
 1520ACTN    C115669   8.435   6.793   0.941
 1520ACTN    H115670   8.375   6.884   0.940
 1520ACTN    H215671   8.529   6.814   0.890
 1520ACTN    H315672   8.463   6.770   1.044
 1521ACTN    H615673   7.919   6.161   2.350
 1521ACTN    C315674   7.988   6.083   2.318
 1521ACTN    H415675   7.978   5.997   2.383
 1521ACTN    H515676   7.956   6.047   2.220
 1521ACTN    C215677   8.131   6.117   2.318
 1521ACTN    O115678   8.221   6.033   2.307
 1521ACTN    C115679   8.165   6.260   2.350
 1521ACTN    H115680   8.238   6.271   2.430
 1521ACTN    H215681   8.079   6.324   2.369
 1521ACTN    H315682   8.211   6.292   2.257
 1522ACTN    H615683   7.959   6.652   6.557
 1522ACTN    C315684   7.906   6.744   6.582
 1522ACTN    H415685   7.960   6.804   6.654
 1522ACTN    H515686   7.909   6.803   6.490
 1522ACTN    C215687   7.765   6.712   6.618
 1522ACTN    O115688   7.681   6.693   6.534
 1522ACTN    C115689   7.734   6.693   6.760
 1522ACTN    H115690   7.628   6.710   6.776
 1522ACTN    H215691   7.793   6.761   6.822
 1522ACTN    H315692   7.768   6.594   6.792
 1523ACTN    H615693   8.052   1.871   0.000
 1523ACTN    C315694   7.992   1.818   0.074
 1523ACTN    H415695   7.916   1.756   0.027
 1523ACTN    H515696   8.061   1.758   0.134
 1523ACTN    C215697   7.923   1.921   0.146
 1523ACTN    O115698   7.802   1.938   0.127
 1523ACTN    C115699   8.009   2.027   0.215
 1523ACTN    H115700   7.970   2.116   0.165
 1523ACTN    H215701   8.114   2.012   0.190
 1523ACTN    H315702   7.995   2.027   0.323
 1524ACTN    H615703   8.168   3.317   2.229
 1524ACTN    C315704   8.167   3.230   2.296
 1524ACTN    H415705   8.157   3.145   2.228
 1524ACTN    H515706   8.264   3.224   2.345
 1524ACTN    C215707   8.056   3.218   2.397
 1524ACTN    O115708   8.036   3.109   2.446
 1524ACTN    C115709   7.941   3.315   2.409
 1524ACTN    H115710   7.851   3.267   2.373
 1524ACTN    H215711   7.952   3.403   2.346
 1524ACTN    H315712   7.925   3.341   2.514
 1525ACTN    H615713   8.343   6.912   4.757
 1525ACTN    C315714   8.441   6.959   4.769
 1525ACTN    H415715   8.431   7.064   4.793
 1525ACTN    H515716   8.493   6.912   4.853
 1525ACTN    C215717   8.538   6.940   4.659
 1525ACTN    O115718   8.614   7.022   4.615
 1525ACTN    C115719   8.529   6.811   4.579
 1525ACTN    H115720   8.625   6.759   4.582
 1525ACTN    H215721   8.505   6.839   4.476
 1525ACTN    H315722   8.444   6.757   4.620
 1526ACTN    H615723   7.325   6.804   3.698
 1526ACTN    C315724   7.421   6.755   3.710
 1526ACTN    H415725   7.477   6.781   3.800
 1526ACTN    H515726   7.401   6.648   3.717
 1526ACTN    C215727   7.514   6.783   3.593
 1526ACTN    O115728   7.498   6.875   3.509
 1526ACTN    C115729   7.641   6.702   3.593
 1526ACTN    H115730   7.723   6.773   3.598
 1526ACTN    H215731   7.653   6.642   3.502
 1526ACTN    H315732   7.642   6.640   3.683
 1527ACTN    H615733   8.244   2.453   4.491
 1527ACTN    C315734   8.347   2.446   4.527
 1527ACTN    H415735   8.414   2.495   4.457
 1527ACTN    H515736   8.353   2.503   4.620
 1527ACTN    C215737   8.401   2.308   4.528
 1527ACTN    O115738   8.465   2.263   4.624
 1527ACTN    C115739   8.361   2.216   4.415
 1527ACTN    H115740   8.442   2.157   4.372
 1527ACTN    H215741   8.318   2.282   4.340
 1527ACTN    H315742   8.285   2.145   4.448
 1528ACTN    H615743   7.721   1.851   5.233
 1528ACTN    C315744   7.716   1.911   5.142
 1528ACTN    H415745   7.746   1.848   5.058
 1528ACTN    H515746   7.609   1.929   5.134
 1528ACTN    C215747   7.808   2.035   5.164
 1528ACTN    O115748   7.792   2.144   5.112
 1528ACTN    C115749   7.916   2.007   5.263
 1528ACTN    H115750   7.989   1.932   5.232
 1528ACTN    H215751   7.867   1.964   5.349
 1528ACTN    H315752   7.977   2.092   5.294
 1529ACTN    H615753   7.668   5.075   6.810
 1529ACTN    C315754   7.672   5.184   6.811
 1529ACTN    H415755   7.569   5.219   6.809
 1529ACTN    H515756   7.705   5.217   6.909
 1529ACTN    C215757   7.764   5.242   6.702
 1529ACTN    O115758   7.722   5.220   6.593
 1529ACTN    C115759   7.864   5.337   6.735
 1529ACTN    H115760   7.960   5.297   6.702
 1529ACTN    H215761   7.871   5.348   6.843
 1529ACTN    H315762   7.849   5.432   6.684
 1530ACTN    H615763   8.221   0.406   6.526
 1530ACTN    C315764   8.267   0.441   6.619
 1530ACTN    H415765   8.290   0.357   6.684
 1530ACTN    H515766   8.359   0.493   6.594
 1530ACTN    C215767   8.169   0.531   6.689
 1530ACTN    O115768   8.200   0.640   6.741
 1530ACTN    C115769   8.033   0.469   6.715
 1530ACTN    H115770   8.008   0.472   6.821
 1530ACTN    H215771   8.041   0.364   6.686
 1530ACTN    H315772   7.950   0.510   6.658
 1531ACTN    H615773   7.319   2.042   0.919
 1531ACTN    C315774   7.377   1.972   0.979
 1531ACTN    H415775   7.479   2.012   0.980
 1531ACTN    H515776   7.350   1.982   1.084
 1531ACTN    C215777   7.368   1.832   0.931
 1531ACTN    O115778   7.460   1.772   0.887
 1531ACTN    C115779   7.246   1.748   0.952
 1531ACTN    H115780   7.259   1.670   1.028
 1531ACTN    H215781   7.215   1.701   0.859
 1531ACTN    H315782   7.157   1.808   0.972
 1532ACTN    H615783   7.853   0.164   6.902
 1532ACTN    C315784   7.789   0.124   6.823
 1532ACTN    H415785   7.859   0.101   6.743
 1532ACTN    H515786   7.733   0.035   6.850
 1532ACTN    C215787   7.680   0.219   6.782
 1532ACTN    O115788   7.689   0.281   6.673
 1532ACTN    C115789   7.560   0.225   6.871
 1532ACTN    H115790   7.568   0.294   6.956
 1532ACTN    H215791   7.543   0.127   6.914
 1532ACTN    H315792   7.468   0.260   6.822
 1533ACTN    H615793   8.832   6.641   7.331
 1533ACTN    C315794   8.857   6.713   7.253
 1533ACTN    H415795   8.923   6.784   7.303
 1533ACTN    H515796   8.913   6.662   7.174
 1533ACTN    C215797   8.735   6.782   7.198
 1533ACTN    O115798   8.664   6.853   7.263
 1533ACTN    C115799   8.725   6.782   7.041
 1533ACTN    H115800   8.650   6.851   7.002
 1533ACTN    H215801   8.699   6.684   7.000
 1533ACTN    H315802   8.819   6.811   6.995
 1534ACTN    H615803   7.908   5.093   7.061
 1534ACTN    C315804   7.872   5.038   7.148
 1534ACTN    H415805   7.864   4.932   7.124
 1534ACTN    H515806   7.947   5.058   7.224
 1534ACTN    C215807   7.740   5.088   7.185
 1534ACTN    O115808   7.645   5.068   7.109
 1534ACTN    C115809   7.719   5.130   7.327
 1534ACTN    H115810   7.636   5.072   7.369
 1534ACTN    H215811   7.690   5.235   7.333
 1534ACTN    H315812   7.810   5.122   7.387
 1535ACTN    H615813   7.336   5.452   3.925
 1535ACTN    C315814   7.408   5.534   3.928
 1535ACTN    H415815   7.490   5.499   3.991
 1535ACTN    H515816   7.450   5.544   3.828
 1535ACTN    C215817   7.358   5.654   3.984
 1535ACTN    O115818   7.324   5.665   4.104
 1535ACTN    C115819   7.366   5.768   3.889
 1535ACTN    H115820   7.465   5.785   3.846
 1535ACTN    H215821   7.341   5.862   3.938
 1535ACTN    H315822   7.298   5.748   3.806
 1536ACTN    H615823   7.825   2.245   3.308
 1536ACTN    C315824   7.812   2.239   3.200
 1536ACTN    H415825   7.708   2.253   3.171
 1536ACTN    H515826   7.867   2.320   3.152
 1536ACTN    C215827   7.862   2.113   3.143
 1536ACTN    O115828   7.859   2.016   3.215
 1536ACTN    C115829   7.870   2.102   2.994
 1536ACTN    H115830   7.857   2.203   2.954
 1536ACTN    H215831   7.802   2.032   2.946
 1536ACTN    H315832   7.971   2.068   2.972
 1537ACTN    H615833   7.907   0.617   3.467
 1537ACTN    C315834   7.945   0.609   3.570
 1537ACTN    H415835   7.889   0.681   3.629
 1537ACTN    H515836   7.914   0.508   3.598
 1537ACTN    C215837   8.094   0.622   3.593
 1537ACTN    O115838   8.140   0.613   3.706
 1537ACTN    C115839   8.173   0.675   3.472
 1537ACTN    H115840   8.160   0.609   3.387
 1537ACTN    H215841   8.280   0.678   3.493
 1537ACTN    H315842   8.130   0.772   3.446
 1538ACTN    H615843   7.829   4.309   3.748
 1538ACTN    C315844   7.813   4.416   3.747
 1538ACTN    H415845   7.742   4.438   3.667
 1538ACTN    H515846   7.771   4.430   3.847
 1538ACTN    C215847   7.942   4.495   3.734
 1538ACTN    O115848   7.944   4.617   3.760
 1538ACTN    C115849   8.074   4.418   3.717
 1538ACTN    H115850   8.052   4.315   3.687
 1538ACTN    H215851   8.130   4.423   3.811
 1538ACTN    H315852   8.137   4.459   3.638
 1539ACTN    H615853   7.460   5.199   2.210
 1539ACTN    C315854   7.470   5.167   2.106
 1539ACTN    H415855   7.399   5.218   2.041
 1539ACTN    H515856   7.569   5.191   2.069
 1539ACTN    C215857   7.451   5.021   2.085
 1539ACTN    O115858   7.432   4.949   2.185
 1539ACTN    C115859   7.443   4.972   1.946
 1539ACTN    H115860   7.412   4.869   1.928
 1539ACTN    H215861   7.541   4.992   1.901
 1539ACTN    H315862   7.376   5.030   1.883
 1540ACTN    H615863   7.486   2.463   6.188
 1540ACTN    C315864   7.472   2.514   6.093
 1540ACTN    H415865   7.572   2.526   6.052
 1540ACTN    H515866   7.423   2.437   6.033
 1540ACTN    C215867   7.394   2.636   6.112
 1540ACTN    O115868   7.320   2.673   6.019
 1540ACTN    C115869   7.432   2.725   6.225
 1540ACTN    H115870   7.360   2.803   6.248
 1540ACTN    H215871   7.525   2.774   6.198
 1540ACTN    H315872   7.437   2.668   6.318
 1541ACTN    H615873   7.561   6.646   4.291
 1541ACTN    C315874   7.610   6.741   4.313
 1541ACTN    H415875   7.713   6.732   4.279
 1541ACTN    H515876   7.568   6.827   4.261
 1541ACTN    C215877   7.599   6.771   4.462
 1541ACTN    O115878   7.510   6.843   4.506
 1541ACTN    C115879   7.722   6.729   4.536
 1541ACTN    H115880   7.694   6.650   4.605
 1541ACTN    H215881   7.757   6.818   4.589
 1541ACTN    H315882   7.807   6.696   4.478
 1542ACTN    H615883   7.934   0.841   0.534
 1542ACTN    C315884   7.951   0.748   0.478
 1542ACTN    H415885   7.980   0.681   0.560
 1542ACTN    H515886   7.852   0.714   0.449
 1542ACTN    C215887   8.029   0.769   0.354
 1542ACTN    O115888   8.066   0.881   0.327
 1542ACTN    C115889   8.093   0.655   0.286
 1542ACTN    H115890   8.178   0.633   0.350
 1542ACTN    H215891   8.114   0.688   0.184
 1542ACTN    H315892   8.033   0.565   0.297
 1543ACTN    H615893   7.847   7.333   4.973
 1543ACTN    C315894   7.753   7.283   4.952
 1543ACTN    H415895   7.772   7.177   4.935
 1543ACTN    H515896   7.684   7.291   5.037
 1543ACTN    C215897   7.691   7.353   4.831
 1543ACTN    O115898   7.576   7.327   4.789
 1543ACTN    C115899   7.767   7.463   4.756
 1543ACTN    H115900   7.702   7.549   4.746
 1543ACTN    H215901   7.784   7.427   4.655
 1543ACTN    H315902   7.862   7.488   4.805
 1544ACTN    H615903   7.880   6.513   0.985
 1544ACTN    C315904   7.854   6.465   1.080
 1544ACTN    H415905   7.822   6.541   1.152
 1544ACTN    H515906   7.772   6.394   1.067
 1544ACTN    C215907   7.968   6.371   1.117
 1544ACTN    O115908   8.007   6.289   1.037
 1544ACTN    C115909   8.050   6.404   1.233
 1544ACTN    H115910   8.123   6.325   1.251
 1544ACTN    H215911   7.994   6.423   1.325
 1544ACTN    H315912   8.099   6.499   1.209
 1545ACTN    H615913   7.556   0.798   3.569
 1545ACTN    C315914   7.557   0.871   3.488
 1545ACTN    H415915   7.481   0.942   3.520
 1545ACTN    H515916   7.651   0.925   3.479
 1545ACTN    C215917   7.536   0.782   3.365
 1545ACTN    O115918   7.541   0.662   3.357
 1545ACTN    C115919   7.511   0.844   3.232
 1545ACTN    H115920   7.415   0.809   3.195
 1545ACTN    H215921   7.585   0.815   3.157
 1545ACTN    H315922   7.510   0.953   3.238
 1546ACTN    H615923   7.809   5.749   2.924
 1546ACTN    C315924   7.717   5.807   2.919
 1546ACTN    H415925   7.697   5.836   3.022
 1546ACTN    H515926   7.736   5.893   2.855
 1546ACTN    C215927   7.598   5.732   2.884
 1546ACTN    O115928   7.570   5.615   2.929
 1546ACTN    C115929   7.512   5.793   2.774
 1546ACTN    H115930   7.520   5.744   2.676
 1546ACTN    H215931   7.544   5.896   2.759
 1546ACTN    H315932   7.406   5.789   2.800
 1547ACTN    H615933   7.915   6.794   3.643
 1547ACTN    C315934   7.966   6.751   3.729
 1547ACTN    H415935   8.058   6.809   3.736
 1547ACTN    H515936   7.897   6.776   3.809
 1547ACTN    C215937   7.962   6.606   3.717
 1547ACTN    O115938   7.962   6.536   3.813
 1547ACTN    C115939   7.975   6.543   3.576
 1547ACTN    H115940   8.081   6.535   3.549
 1547ACTN    H215941   7.938   6.614   3.503
 1547ACTN    H315942   7.928   6.445   3.573
 1548ACTN    H615943   8.154   6.155   1.695
 1548ACTN    C315944   8.182   6.069   1.635
 1548ACTN    H415945   8.286   6.087   1.605
 1548ACTN    H515946   8.188   5.973   1.686
 1548ACTN    C215947   8.101   6.066   1.512
 1548ACTN    O115948   8.019   6.155   1.490
 1548ACTN    C115949   8.132   5.969   1.401
 1548ACTN    H115950   8.048   5.946   1.335
 1548ACTN    H215951   8.180   5.875   1.427
 1548ACTN    H315952   8.203   6.027   1.343
 1549ACTN    H615953   8.209   0.686   2.984
 1549ACTN    C315954   8.103   0.709   2.975
 1549ACTN    H415955   8.093   0.818   2.975
 1549ACTN    H515956   8.067   0.672   2.879
 1549ACTN    C215957   8.025   0.650   3.085
 1549ACTN    O115958   8.069   0.551   3.136
 1549ACTN    C115959   7.912   0.729   3.137
 1549ACTN    H115960   7.912   0.724   3.246
 1549ACTN    H215961   7.819   0.683   3.103
 1549ACTN    H315962   7.910   0.833   3.107
 1550ACTN    H615963   8.677   6.517   3.106
 1550ACTN    C315964   8.763   6.576   3.073
 1550ACTN    H415965   8.769   6.674   3.122
 1550ACTN    H515966   8.849   6.515   3.098
 1550ACTN    C215967   8.751   6.601   2.926
 1550ACTN    O115968   8.701   6.504   2.859
 1550ACTN    C115969   8.814   6.724   2.867
 1550ACTN    H115970   8.742   6.806   2.873
 1550ACTN    H215971   8.846   6.710   2.764
 1550ACTN    H315972   8.902   6.756   2.923
 1551ACTN    H615973   7.777   7.032   0.068
 1551ACTN    C315974   7.695   7.104   0.066
 1551ACTN    H415975   7.685   7.144   0.168
 1551ACTN    H515976   7.711   7.182  -0.008
 1551ACTN    C215977   7.566   7.035   0.025
 1551ACTN    O115978   7.547   6.991  -0.088
 1551ACTN    C115979   7.452   7.036   0.120
 1551ACTN    H115980   7.361   7.057   0.064
 1551ACTN    H215981   7.467   7.101   0.206
 1551ACTN    H315982   7.435   6.935   0.157
 1552ACTN    H615983   7.633   0.453   7.083
 1552ACTN    C315984   7.738   0.468   7.107
 1552ACTN    H415985   7.783   0.503   7.014
 1552ACTN    H515986   7.736   0.560   7.166
 1552ACTN    C215987   7.806   0.353   7.175
 1552ACTN    O115988   7.917   0.362   7.213
 1552ACTN    C115989   7.721   0.241   7.213
 1552ACTN    H115990   7.740   0.154   7.150
 1552ACTN    H215991   7.614   0.261   7.222
 1552ACTN    H315992   7.759   0.206   7.309
 1553ACTN    H615993   7.661   5.947   3.727
 1553ACTN    C315994   7.742   5.935   3.799
 1553ACTN    H415995   7.714   5.936   3.904
 1553ACTN    H515996   7.787   5.837   3.781
 1553ACTN    C215997   7.851   6.039   3.775
 1553ACTN    O115998   7.819   6.145   3.712
 1553ACTN    C115999   7.979   6.023   3.853
 1553ACTN    H116000   7.977   5.923   3.896
 1553ACTN    H216001   7.986   6.105   3.925
 1553ACTN    H316002   8.068   6.018   3.791
 1554ACTN    H616003   8.192   6.565   1.504
 1554ACTN    C316004   8.189   6.490   1.583
 1554ACTN    H416005   8.153   6.531   1.677
 1554ACTN    H516006   8.122   6.408   1.558
 1554ACTN    C216007   8.329   6.446   1.601
 1554ACTN    O116008   8.388   6.401   1.510
 1554ACTN    C116009   8.390   6.450   1.736
 1554ACTN    H116010   8.479   6.387   1.731
 1554ACTN    H216011   8.323   6.417   1.815
 1554ACTN    H316012   8.438   6.543   1.767
 1555ACTN    H616013   8.373   7.296   5.039
 1555ACTN    C316014   8.317   7.379   4.995
 1555ACTN    H416015   8.264   7.435   5.071
 1555ACTN    H516016   8.387   7.449   4.949
 1555ACTN    C216017   8.206   7.335   4.907
 1555ACTN    O116018   8.140   7.420   4.847
 1555ACTN    C116019   8.175   7.190   4.900
 1555ACTN    H116020   8.221   7.148   4.810
 1555ACTN    H216021   8.069   7.165   4.906
 1555ACTN    H316022   8.220   7.146   4.988
 1556ACTN    H616023   7.797   6.576   2.103
 1556ACTN    C316024   7.872   6.584   2.181
 1556ACTN    H416025   7.823   6.631   2.266
 1556ACTN    H516026   7.902   6.483   2.211
 1556ACTN    C216027   7.979   6.680   2.140
 1556ACTN    O116028   7.973   6.796   2.173
 1556ACTN    C116029   8.068   6.641   2.027
 1556ACTN    H116030   8.133   6.723   1.998
 1556ACTN    H216031   8.014   6.614   1.936
 1556ACTN    H316032   8.127   6.550   2.043
 1557ACTN    H616033   8.133   1.618   5.229
 1557ACTN    C316034   8.168   1.697   5.163
 1557ACTN    H416035   8.215   1.787   5.202
 1557ACTN    H516036   8.245   1.654   5.099
 1557ACTN    C216037   8.060   1.735   5.070
 1557ACTN    O116038   7.952   1.674   5.081
 1557ACTN    C116039   8.095   1.820   4.955
 1557ACTN    H116040   8.193   1.864   4.969
 1557ACTN    H216041   8.018   1.896   4.940
 1557ACTN    H316042   8.092   1.762   4.863
 1558ACTN    H616043   8.653   3.316   3.012
 1558ACTN    C316044   8.605   3.218   3.005
 1558ACTN    H416045   8.590   3.183   3.107
 1558ACTN    H516046   8.502   3.231   2.969
 1558ACTN    C216047   8.692   3.119   2.931
 1558ACTN    O116048   8.674   2.998   2.934
 1558ACTN    C116049   8.808   3.172   2.862
 1558ACTN    H116050   8.886   3.189   2.936
 1558ACTN    H216051   8.770   3.267   2.823
 1558ACTN    H316052   8.852   3.107   2.786
 1559ACTN    H616053   8.210   5.694   3.336
 1559ACTN    C316054   8.300   5.744   3.301
 1559ACTN    H416055   8.383   5.723   3.368
 1559ACTN    H516056   8.325   5.701   3.204
 1559ACTN    C216057   8.277   5.891   3.288
 1559ACTN    O116058   8.268   5.944   3.177
 1559ACTN    C116059   8.229   5.965   3.408
 1559ACTN    H116060   8.124   5.948   3.433
 1559ACTN    H216061   8.247   6.072   3.403
 1559ACTN    H316062   8.287   5.930   3.493
 1560ACTN    H616063   7.881   6.382   5.406
 1560ACTN    C316064   7.965   6.345   5.348
 1560ACTN    H416065   8.014   6.276   5.417
 1560ACTN    H516066   7.935   6.281   5.265
 1560ACTN    C216067   8.066   6.451   5.322
 1560ACTN    O116068   8.185   6.429   5.298
 1560ACTN    C116069   8.026   6.588   5.300
 1560ACTN    H116070   7.968   6.626   5.384
 1560ACTN    H216071   7.974   6.591   5.205
 1560ACTN    H316072   8.117   6.647   5.288
 1561ACTN    H616073   7.411   3.642   1.836
 1561ACTN    C316074   7.414   3.736   1.780
 1561ACTN    H416075   7.494   3.721   1.707
 1561ACTN    H516076   7.318   3.747   1.729
 1561ACTN    C216077   7.441   3.854   1.862
 1561ACTN    O116078   7.547   3.915   1.860
 1561ACTN    C116079   7.348   3.894   1.968
 1561ACTN    H116080   7.399   3.929   2.057
 1561ACTN    H216081   7.290   3.805   1.995
 1561ACTN    H316082   7.278   3.974   1.942
 1562ACTN    H616083   8.559   6.417   2.247
 1562ACTN    C316084   8.572   6.331   2.180
 1562ACTN    H416085   8.475   6.290   2.154
 1562ACTN    H516086   8.626   6.359   2.089
 1562ACTN    C216087   8.643   6.221   2.254
 1562ACTN    O116088   8.743   6.247   2.311
 1562ACTN    C116089   8.580   6.091   2.247
 1562ACTN    H116090   8.480   6.096   2.292
 1562ACTN    H216091   8.645   6.015   2.289
 1562ACTN    H316092   8.571   6.068   2.141
 1563ACTN    H616093   8.540   1.276   6.103
 1563ACTN    C316094   8.567   1.185   6.156
 1563ACTN    H416095   8.485   1.154   6.222
 1563ACTN    H516096   8.571   1.096   6.092
 1563ACTN    C216097   8.695   1.200   6.229
 1563ACTN    O116098   8.783   1.121   6.206
 1563ACTN    C116099   8.713   1.315   6.324
 1563ACTN    H116100   8.657   1.305   6.417
 1563ACTN    H216101   8.688   1.408   6.271
 1563ACTN    H316102   8.818   1.335   6.343
 1564ACTN    H616103   8.473   1.130   2.202
 1564ACTN    C316104   8.561   1.118   2.265
 1564ACTN    H416105   8.549   1.088   2.369
 1564ACTN    H516106   8.624   1.043   2.216
 1564ACTN    C216107   8.630   1.251   2.250
 1564ACTN    O116108   8.584   1.354   2.302
 1564ACTN    C116109   8.748   1.255   2.151
 1564ACTN    H116110   8.829   1.301   2.207
 1564ACTN    H216111   8.720   1.316   2.064
 1564ACTN    H316112   8.788   1.160   2.117
 1565ACTN    H616113   8.322   0.573   4.941
 1565ACTN    C316114   8.279   0.657   4.996
 1565ACTN    H416115   8.316   0.747   4.947
 1565ACTN    H516116   8.170   0.656   4.990
 1565ACTN    C216117   8.332   0.663   5.133
 1565ACTN    O116118   8.264   0.676   5.234
 1565ACTN    C116119   8.485   0.664   5.141
 1565ACTN    H116120   8.537   0.592   5.078
 1565ACTN    H216121   8.527   0.649   5.241
 1565ACTN    H316122   8.511   0.763   5.106
 1566ACTN    H616123   7.809   1.034   5.631
 1566ACTN    C316124   7.899   1.034   5.570
 1566ACTN    H416125   7.981   0.973   5.606
 1566ACTN    H516126   7.877   0.983   5.476
 1566ACTN    C216127   7.953   1.178   5.560
 1566ACTN    O116128   7.971   1.229   5.448
 1566ACTN    C116129   7.965   1.260   5.684
 1566ACTN    H116130   7.956   1.207   5.779
 1566ACTN    H216131   7.894   1.343   5.690
 1566ACTN    H316132   8.066   1.301   5.688
 1567ACTN    H616133   8.591   7.141   4.969
 1567ACTN    C316134   8.695   7.110   4.984
 1567ACTN    H416135   8.712   7.019   4.927
 1567ACTN    H516136   8.756   7.197   4.959
 1567ACTN    C216137   8.702   7.088   5.136
 1567ACTN    O116138   8.760   7.171   5.206
 1567ACTN    C116139   8.626   6.970   5.197
 1567ACTN    H116140   8.546   6.937   5.130
 1567ACTN    H216141   8.592   7.000   5.296
 1567ACTN    H316142   8.700   6.892   5.213
 1568ACTN    H616143   7.737   4.614   4.002
 1568ACTN    C316144   7.757   4.712   4.045
 1568ACTN    H416145   7.705   4.777   3.976
 1568ACTN    H516146   7.704   4.713   4.140
 1568ACTN    C216147   7.900   4.754   4.060
 1568ACTN    O116148   7.922   4.875   4.073
 1568ACTN    C116149   7.995   4.641   4.089
 1568ACTN    H116150   7.976   4.599   4.188
 1568ACTN    H216151   8.100   4.669   4.099
 1568ACTN    H316152   7.976   4.557   4.022
 1569ACTN    H616153   7.771   1.300   6.735
 1569ACTN    C316154   7.743   1.237   6.820
 1569ACTN    H416155   7.821   1.163   6.837
 1569ACTN    H516156   7.735   1.299   6.909
 1569ACTN    C216157   7.611   1.164   6.817
 1569ACTN    O116158   7.602   1.065   6.888
 1569ACTN    C116159   7.522   1.196   6.700
 1569ACTN    H116160   7.440   1.123   6.699
 1569ACTN    H216161   7.583   1.182   6.611
 1569ACTN    H316162   7.482   1.297   6.692
 1570ACTN    H616163   7.841   3.076   1.692
 1570ACTN    C316164   7.747   3.034   1.657
 1570ACTN    H416165   7.710   3.094   1.574
 1570ACTN    H516166   7.763   2.929   1.630
 1570ACTN    C216167   7.643   3.041   1.760
 1570ACTN    O116168   7.578   2.945   1.794
 1570ACTN    C116169   7.629   3.169   1.837
 1570ACTN    H116170   7.677   3.166   1.935
 1570ACTN    H216171   7.521   3.181   1.850
 1570ACTN    H316172   7.672   3.253   1.784
 1571ACTN    H616173   8.878   5.962   4.543
 1571ACTN    C316174   8.911   5.889   4.469
 1571ACTN    H416175   8.855   5.903   4.376
 1571ACTN    H516176   9.015   5.915   4.446
 1571ACTN    C216177   8.890   5.757   4.532
 1571ACTN    O116178   8.774   5.717   4.532
 1571ACTN    C116179   8.995   5.667   4.590
 1571ACTN    H116180   8.946   5.574   4.622
 1571ACTN    H216181   9.040   5.705   4.682
 1571ACTN    H316182   9.074   5.650   4.518
 1572ACTN    H616183   8.134   4.399   1.235
 1572ACTN    C316184   8.145   4.479   1.308
 1572ACTN    H416185   8.248   4.478   1.345
 1572ACTN    H516186   8.119   4.570   1.255
 1572ACTN    C216187   8.059   4.454   1.423
 1572ACTN    O116188   8.084   4.360   1.495
 1572ACTN    C116189   7.958   4.553   1.462
 1572ACTN    H116190   7.865   4.497   1.452
 1572ACTN    H216191   7.962   4.640   1.396
 1572ACTN    H316192   7.966   4.576   1.568
 1573ACTN    H616193   7.926   7.526   2.360
 1573ACTN    C316194   7.985   7.473   2.435
 1573ACTN    H416195   8.048   7.544   2.488
 1573ACTN    H516196   7.910   7.434   2.504
 1573ACTN    C216197   8.049   7.353   2.386
 1573ACTN    O116198   8.110   7.280   2.460
 1573ACTN    C116199   8.030   7.320   2.245
 1573ACTN    H116200   7.956   7.385   2.196
 1573ACTN    H216201   8.005   7.215   2.237
 1573ACTN    H316202   8.117   7.334   2.182
 1574ACTN    H616203   8.575   0.182   2.987
 1574ACTN    C316204   8.602   0.273   3.041
 1574ACTN    H416205   8.522   0.346   3.039
 1574ACTN    H516206   8.618   0.240   3.144
 1574ACTN    C216207   8.730   0.330   2.987
 1574ACTN    O116208   8.725   0.446   2.936
 1574ACTN    C116209   8.827   0.223   2.939
 1574ACTN    H116210   8.865   0.176   3.030
 1574ACTN    H216211   8.915   0.258   2.886
 1574ACTN    H316212   8.778   0.144   2.882
 1575ACTN    H616213   8.469   2.723   4.420
 1575ACTN    C316214   8.563   2.765   4.384
 1575ACTN    H416215   8.581   2.738   4.280
 1575ACTN    H516216   8.559   2.874   4.387
 1575ACTN    C216217   8.680   2.714   4.462
 1575ACTN    O116218   8.711   2.764   4.567
 1575ACTN    C116219   8.765   2.599   4.417
 1575ACTN    H116220   8.770   2.514   4.485
 1575ACTN    H216221   8.868   2.630   4.401
 1575ACTN    H316222   8.740   2.564   4.317
 1576ACTN    H616223   7.359   5.073   4.276
 1576ACTN    C316224   7.317   5.013   4.356
 1576ACTN    H416225   7.360   5.046   4.450
 1576ACTN    H516226   7.209   5.025   4.359
 1576ACTN    C216227   7.364   4.868   4.329
 1576ACTN    O116228   7.341   4.787   4.417
 1576ACTN    C116229   7.449   4.843   4.215
 1576ACTN    H116230   7.395   4.824   4.122
 1576ACTN    H216231   7.505   4.750   4.224
 1576ACTN    H316232   7.525   4.918   4.192
 1577ACTN    H616233   7.811   3.163   0.979
 1577ACTN    C316234   7.827   3.124   1.080
 1577ACTN    H416235   7.824   3.016   1.092
 1577ACTN    H516236   7.928   3.149   1.113
 1577ACTN    C216237   7.735   3.188   1.177
 1577ACTN    O116238   7.673   3.283   1.143
 1577ACTN    C116239   7.745   3.164   1.327
 1577ACTN    H116240   7.763   3.058   1.342
 1577ACTN    H216241   7.648   3.182   1.373
 1577ACTN    H316242   7.818   3.230   1.374
 1578ACTN    H616243   8.452   1.866   4.774
 1578ACTN    C316244   8.493   1.942   4.708
 1578ACTN    H416245   8.416   1.992   4.649
 1578ACTN    H516246   8.533   2.023   4.769
 1578ACTN    C216247   8.593   1.883   4.617
 1578ACTN    O116248   8.667   1.959   4.553
 1578ACTN    C116249   8.622   1.736   4.618
 1578ACTN    H116250   8.577   1.681   4.701
 1578ACTN    H216251   8.730   1.721   4.613
 1578ACTN    H316252   8.581   1.701   4.524
 1579ACTN    H616253   7.838   1.720   1.203
 1579ACTN    C316254   7.868   1.807   1.261
 1579ACTN    H416255   7.861   1.768   1.363
 1579ACTN    H516256   7.971   1.836   1.239
 1579ACTN    C216257   7.777   1.930   1.264
 1579ACTN    O116258   7.658   1.923   1.260
 1579ACTN    C116259   7.843   2.062   1.241
 1579ACTN    H116260   7.794   2.126   1.167
 1579ACTN    H216261   7.937   2.045   1.188
 1579ACTN    H316262   7.860   2.100   1.342
 1580ACTN    H616263   8.301   3.418   4.683
 1580ACTN    C316264   8.277   3.317   4.714
 1580ACTN    H416265   8.297   3.245   4.635
 1580ACTN    H516266   8.356   3.288   4.784
 1580ACTN    C216267   8.147   3.311   4.781
 1580ACTN    O116268   8.140   3.369   4.886
 1580ACTN    C116269   8.044   3.219   4.726
 1580ACTN    H116270   8.058   3.121   4.770
 1580ACTN    H216271   8.055   3.213   4.617
 1580ACTN    H316272   7.945   3.259   4.750
 1581ACTN    H616273   8.692   6.335   1.836
 1581ACTN    C316274   8.710   6.267   1.753
 1581ACTN    H416275   8.706   6.323   1.660
 1581ACTN    H516276   8.814   6.233   1.758
 1581ACTN    C216277   8.610   6.162   1.751
 1581ACTN    O116278   8.556   6.130   1.859
 1581ACTN    C116279   8.580   6.085   1.620
 1581ACTN    H116280   8.656   6.119   1.550
 1581ACTN    H216281   8.485   6.103   1.571
 1581ACTN    H316282   8.596   5.978   1.638
 1582ACTN    H616283   8.078   7.008   3.119
 1582ACTN    C316284   8.038   7.052   3.210
 1582ACTN    H416285   7.932   7.031   3.223
 1582ACTN    H516286   8.093   7.008   3.293
 1582ACTN    C216287   8.059   7.200   3.200
 1582ACTN    O116288   8.168   7.246   3.237
 1582ACTN    C116289   7.981   7.280   3.111
 1582ACTN    H116290   8.059   7.323   3.048
 1582ACTN    H216291   7.931   7.362   3.163
 1582ACTN    H316292   7.913   7.233   3.040
 1583ACTN    H616293   7.602   1.099   4.612
 1583ACTN    C316294   7.606   1.009   4.550
 1583ACTN    H416295   7.503   0.986   4.524
 1583ACTN    H516296   7.643   0.930   4.616
 1583ACTN    C216297   7.692   1.035   4.436
 1583ACTN    O116298   7.706   1.152   4.409
 1583ACTN    C116299   7.745   0.922   4.360
 1583ACTN    H116300   7.818   0.959   4.288
 1583ACTN    H216301   7.662   0.876   4.307
 1583ACTN    H316302   7.799   0.853   4.424
 1584ACTN    H616303   7.718   2.155   4.382
 1584ACTN    C316304   7.651   2.079   4.342
 1584ACTN    H416305   7.590   2.134   4.271
 1584ACTN    H516306   7.710   2.007   4.283
 1584ACTN    C216307   7.567   1.999   4.434
 1584ACTN    O116308   7.605   1.892   4.484
 1584ACTN    C116309   7.425   2.043   4.449
 1584ACTN    H116310   7.384   2.066   4.350
 1584ACTN    H216311   7.420   2.136   4.504
 1584ACTN    H316312   7.370   1.965   4.501
 1585ACTN    H616313   7.500   4.337   0.812
 1585ACTN    C316314   7.426   4.324   0.891
 1585ACTN    H416315   7.341   4.260   0.867
 1585ACTN    H516316   7.473   4.276   0.977
 1585ACTN    C216317   7.383   4.458   0.940
 1585ACTN    O116318   7.427   4.505   1.044
 1585ACTN    C116319   7.275   4.529   0.871
 1585ACTN    H116320   7.310   4.571   0.776
 1585ACTN    H216321   7.236   4.610   0.932
 1585ACTN    H316322   7.196   4.456   0.858
 1586ACTN    H616323   7.602   4.955   3.007
 1586ACTN    C316324   7.684   4.925   2.942
 1586ACTN    H416325   7.704   4.822   2.972
 1586ACTN    H516326   7.655   4.921   2.837
 1586ACTN    C216327   7.805   5.005   2.967
 1586ACTN    O116328   7.793   5.117   3.017
 1586ACTN    C116329   7.928   4.966   2.891
 1586ACTN    H116330   8.010   5.029   2.925
 1586ACTN    H216331   7.923   4.981   2.783
 1586ACTN    H316332   7.967   4.866   2.909
 1587ACTN    H616333   7.551   4.160   2.503
 1587ACTN    C316334   7.540   4.112   2.600
 1587ACTN    H416335   7.506   4.014   2.569
 1587ACTN    H516336   7.637   4.117   2.650
 1587ACTN    C216337   7.434   4.167   2.685
 1587ACTN    O116338   7.333   4.194   2.629
 1587ACTN    C116339   7.446   4.187   2.828
 1587ACTN    H116340   7.409   4.099   2.881
 1587ACTN    H216341   7.393   4.276   2.860
 1587ACTN    H316342   7.551   4.198   2.854
 1588ACTN    H616343   7.798   3.163   0.578
 1588ACTN    C316344   7.759   3.140   0.479
 1588ACTN    H416345   7.758   3.232   0.420
 1588ACTN    H516346   7.828   3.071   0.429
 1588ACTN    C216347   7.623   3.079   0.482
 1588ACTN    O116348   7.522   3.147   0.469
 1588ACTN    C116349   7.603   2.928   0.465
 1588ACTN    H116350   7.648   2.877   0.550
 1588ACTN    H216351   7.650   2.890   0.375
 1588ACTN    H316352   7.497   2.901   0.473
 1589ACTN    H616353   8.372   1.618   4.485
 1589ACTN    C316354   8.324   1.699   4.429
 1589ACTN    H416355   8.276   1.764   4.501
 1589ACTN    H516356   8.405   1.753   4.380
 1589ACTN    C216357   8.216   1.640   4.347
 1589ACTN    O116358   8.119   1.583   4.401
 1589ACTN    C116359   8.223   1.657   4.196
 1589ACTN    H116360   8.136   1.645   4.132
 1589ACTN    H216361   8.292   1.586   4.150
 1589ACTN    H316362   8.267   1.755   4.179
 1590ACTN    H616363   7.391   5.087   2.424
 1590ACTN    C316364   7.445   5.147   2.498
 1590ACTN    H416365   7.544   5.172   2.463
 1590ACTN    H516366   7.389   5.237   2.523
 1590ACTN    C216367   7.450   5.072   2.628
 1590ACTN    O116368   7.479   4.953   2.624
 1590ACTN    C116369   7.419   5.144   2.752
 1590ACTN    H116370   7.357   5.082   2.817
 1590ACTN    H216371   7.373   5.238   2.724
 1590ACTN    H316372   7.510   5.166   2.808
 1591ACTN    H616373   8.538   0.051   6.380
 1591ACTN    C316374   8.451   0.081   6.438
 1591ACTN    H416375   8.420  -0.003   6.501
 1591ACTN    H516376   8.482   0.163   6.503
 1591ACTN    C216377   8.336   0.109   6.350
 1591ACTN    O116378   8.231   0.137   6.402
 1591ACTN    C116379   8.354   0.118   6.204
 1591ACTN    H116380   8.260   0.133   6.152
 1591ACTN    H216381   8.383   0.021   6.164
 1591ACTN    H316382   8.431   0.190   6.173
 1592ACTN    H616383   8.560   1.370   4.437
 1592ACTN    C316384   8.507   1.355   4.343
 1592ACTN    H416385   8.498   1.248   4.328
 1592ACTN    H516386   8.412   1.408   4.353
 1592ACTN    C216387   8.568   1.420   4.227
 1592ACTN    O116388   8.598   1.541   4.228
 1592ACTN    C116389   8.606   1.332   4.111
 1592ACTN    H116390   8.580   1.385   4.019
 1592ACTN    H216391   8.546   1.241   4.112
 1592ACTN    H316392   8.711   1.307   4.096
 1593ACTN    H616393   8.261   2.644   3.237
 1593ACTN    C316394   8.166   2.694   3.254
 1593ACTN    H416395   8.186   2.792   3.298
 1593ACTN    H516396   8.112   2.719   3.163
 1593ACTN    C216397   8.089   2.622   3.357
 1593ACTN    O116398   8.148   2.603   3.467
 1593ACTN    C116399   7.936   2.603   3.334
 1593ACTN    H116400   7.920   2.546   3.243
 1593ACTN    H216401   7.886   2.700   3.333
 1593ACTN    H316402   7.892   2.543   3.414
 1594ACTN    H616403   7.379   1.507   4.221
 1594ACTN    C316404   7.418   1.490   4.322
 1594ACTN    H416405   7.351   1.539   4.393
 1594ACTN    H516406   7.422   1.383   4.343
 1594ACTN    C216407   7.550   1.566   4.340
 1594ACTN    O116408   7.575   1.646   4.249
 1594ACTN    C116409   7.665   1.522   4.424
 1594ACTN    H116410   7.763   1.540   4.380
 1594ACTN    H216411   7.656   1.414   4.435
 1594ACTN    H316412   7.662   1.568   4.523
 1595ACTN    H616413   8.791   5.739   3.622
 1595ACTN    C316414   8.749   5.830   3.664
 1595ACTN    H416415   8.667   5.808   3.733
 1595ACTN    H516416   8.834   5.875   3.714
 1595ACTN    C216417   8.703   5.931   3.561
 1595ACTN    O116418   8.780   6.021   3.525
 1595ACTN    C116419   8.568   5.895   3.505
 1595ACTN    H116420   8.589   5.809   3.440
 1595ACTN    H216421   8.524   5.969   3.438
 1595ACTN    H316422   8.508   5.858   3.589
 1596ACTN    H616423   7.573   4.723  -0.041
 1596ACTN    C316424   7.576   4.719   0.068
 1596ACTN    H416425   7.470   4.718   0.094
 1596ACTN    H516426   7.607   4.618   0.095
 1596ACTN    C216427   7.668   4.823   0.125
 1596ACTN    O116428   7.633   4.879   0.223
 1596ACTN    C116429   7.809   4.807   0.085
 1596ACTN    H116430   7.835   4.888   0.017
 1596ACTN    H216431   7.819   4.717   0.026
 1596ACTN    H316432   7.868   4.799   0.176
 1597ACTN    H616433   8.538   7.145   0.104
 1597ACTN    C316434   8.476   7.072   0.155
 1597ACTN    H416435   8.395   7.029   0.096
 1597ACTN    H516436   8.545   6.989   0.170
 1597ACTN    C216437   8.436   7.105   0.295
 1597ACTN    O116438   8.322   7.096   0.336
 1597ACTN    C116439   8.542   7.162   0.382
 1597ACTN    H116440   8.505   7.234   0.454
 1597ACTN    H216441   8.616   7.216   0.323
 1597ACTN    H316442   8.591   7.082   0.438
 1598ACTN    H616443   7.598   0.636   2.331
 1598ACTN    C316444   7.654   0.717   2.378
 1598ACTN    H416445   7.665   0.682   2.481
 1598ACTN    H516446   7.756   0.715   2.341
 1598ACTN    C216447   7.598   0.856   2.354
 1598ACTN    O116448   7.519   0.909   2.434
 1598ACTN    C116449   7.596   0.899   2.216
 1598ACTN    H116450   7.660   0.985   2.199
 1598ACTN    H216451   7.499   0.935   2.183
 1598ACTN    H316452   7.636   0.818   2.155
 1599ACTN    H616453   8.530   5.189   6.092
 1599ACTN    C316454   8.573   5.152   6.185
 1599ACTN    H416455   8.495   5.154   6.262
 1599ACTN    H516456   8.599   5.047   6.172
 1599ACTN    C216457   8.690   5.241   6.212
 1599ACTN    O116458   8.710   5.266   6.325
 1599ACTN    C116459   8.783   5.262   6.098
 1599ACTN    H116460   8.730   5.299   6.010
 1599ACTN    H216461   8.825   5.167   6.064
 1599ACTN    H316462   8.858   5.337   6.123
 1600ACTN    H616463   8.738   6.614   4.274
 1600ACTN    C316464   8.660   6.637   4.201
 1600ACTN    H416465   8.702   6.632   4.101
 1600ACTN    H516466   8.626   6.739   4.219
 1600ACTN    C216467   8.555   6.537   4.214
 1600ACTN    O116468   8.554   6.478   4.320
 1600ACTN    C116469   8.455   6.516   4.101
 1600ACTN    H116470   8.412   6.416   4.101
 1600ACTN    H216471   8.504   6.521   4.004
 1600ACTN    H316472   8.374   6.588   4.104
 1601ACTN    H616473   7.925   5.251   2.791
 1601ACTN    C316474   7.937   5.358   2.774
 1601ACTN    H416475   7.936   5.412   2.869
 1601ACTN    H516476   8.034   5.380   2.728
 1601ACTN    C216477   7.836   5.403   2.685
 1601ACTN    O116478   7.838   5.520   2.645
 1601ACTN    C116479   7.740   5.304   2.624
 1601ACTN    H116480   7.634   5.318   2.647
 1601ACTN    H216481   7.771   5.206   2.662
 1601ACTN    H316482   7.763   5.307   2.517
 1602ACTN    H616483   8.551   3.484   1.595
 1602ACTN    C316484   8.558   3.376   1.603
 1602ACTN    H416485   8.646   3.344   1.547
 1602ACTN    H516486   8.571   3.355   1.709
 1602ACTN    C216487   8.432   3.305   1.560
 1602ACTN    O116488   8.438   3.252   1.447
 1602ACTN    C116489   8.297   3.331   1.630
 1602ACTN    H116490   8.241   3.403   1.570
 1602ACTN    H216491   8.312   3.373   1.729
 1602ACTN    H316492   8.248   3.234   1.641
 1603ACTN    H616493   7.901   5.891   1.854
 1603ACTN    C316494   7.859   5.854   1.948
 1603ACTN    H416495   7.828   5.937   2.012
 1603ACTN    H516496   7.764   5.807   1.924
 1603ACTN    C216497   7.938   5.762   2.023
 1603ACTN    O116498   7.964   5.785   2.139
 1603ACTN    C116499   7.943   5.624   1.969
 1603ACTN    H116500   8.020   5.566   2.019
 1603ACTN    H216501   7.977   5.638   1.866
 1603ACTN    H316502   7.847   5.572   1.969
 1604ACTN    H616503   7.860   5.072   5.913
 1604ACTN    C316504   7.925   5.047   5.997
 1604ACTN    H416505   7.940   4.939   5.995
 1604ACTN    H516506   8.018   5.102   5.979
 1604ACTN    C216507   7.864   5.088   6.121
 1604ACTN    O116508   7.861   5.206   6.147
 1604ACTN    C116509   7.806   4.990   6.216
 1604ACTN    H116510   7.700   5.009   6.233
 1604ACTN    H216511   7.852   4.994   6.315
 1604ACTN    H316512   7.820   4.889   6.177
 1605ACTN    H616513   8.138   0.441   6.302
 1605ACTN    C316514   8.036   0.412   6.277
 1605ACTN    H416515   8.024   0.416   6.169
 1605ACTN    H516516   8.023   0.305   6.289
 1605ACTN    C216517   7.932   0.487   6.357
 1605ACTN    O116518   7.965   0.587   6.419
 1605ACTN    C116519   7.789   0.457   6.336
 1605ACTN    H116520   7.729   0.545   6.314
 1605ACTN    H216521   7.749   0.409   6.425
 1605ACTN    H316522   7.774   0.389   6.252
 1606ACTN    H616523   7.893   0.979   6.805
 1606ACTN    C316524   7.881   0.876   6.773
 1606ACTN    H416525   7.822   0.872   6.682
 1606ACTN    H516526   7.979   0.832   6.755
 1606ACTN    C216527   7.823   0.783   6.879
 1606ACTN    O116528   7.882   0.770   6.987
 1606ACTN    C116529   7.682   0.724   6.863
 1606ACTN    H116530   7.617   0.788   6.803
 1606ACTN    H216531   7.635   0.720   6.961
 1606ACTN    H316532   7.684   0.623   6.820
 1607ACTN    H616533   8.199   6.816   6.366
 1607ACTN    C316534   8.172   6.894   6.437
 1607ACTN    H416535   8.067   6.924   6.429
 1607ACTN    H516536   8.194   6.852   6.535
 1607ACTN    C216537   8.248   7.027   6.426
 1607ACTN    O116538   8.197   7.117   6.358
 1607ACTN    C116539   8.353   7.053   6.524
 1607ACTN    H116540   8.321   7.047   6.628
 1607ACTN    H216541   8.405   7.148   6.512
 1607ACTN    H316542   8.412   6.962   6.508
 1608ACTN    H616543   8.455   1.589   5.273
 1608ACTN    C316544   8.519   1.502   5.261
 1608ACTN    H416545   8.474   1.406   5.285
 1608ACTN    H516546   8.557   1.508   5.159
 1608ACTN    C216547   8.633   1.514   5.352
 1608ACTN    O116548   8.738   1.547   5.305
 1608ACTN    C116549   8.603   1.522   5.494
 1608ACTN    H116550   8.528   1.596   5.522
 1608ACTN    H216551   8.689   1.516   5.560
 1608ACTN    H316552   8.555   1.427   5.518
 1609ACTN    H616553   8.659   2.016   5.031
 1609ACTN    C316554   8.582   1.949   5.068
 1609ACTN    H416555   8.586   1.953   5.177
 1609ACTN    H516556   8.485   1.997   5.050
 1609ACTN    C216557   8.596   1.816   5.015
 1609ACTN    O116558   8.500   1.745   4.983
 1609ACTN    C116559   8.721   1.745   5.008
 1609ACTN    H116560   8.711   1.659   5.075
 1609ACTN    H216561   8.808   1.799   5.047
 1609ACTN    H316562   8.723   1.698   4.910
 1610ACTN    H616563   8.907   4.409   6.475
 1610ACTN    C316564   8.848   4.457   6.553
 1610ACTN    H416565   8.880   4.428   6.653
 1610ACTN    H516566   8.859   4.564   6.541
 1610ACTN    C216567   8.704   4.422   6.523
 1610ACTN    O116568   8.666   4.412   6.410
 1610ACTN    C116569   8.609   4.403   6.637
 1610ACTN    H116570   8.608   4.301   6.676
 1610ACTN    H216571   8.509   4.431   6.605
 1610ACTN    H316572   8.641   4.468   6.718
 1611ACTN    H616573   7.468   3.068   2.561
 1611ACTN    C316574   7.471   3.172   2.527
 1611ACTN    H416575   7.409   3.239   2.586
 1611ACTN    H516576   7.576   3.200   2.538
 1611ACTN    C216577   7.441   3.186   2.382
 1611ACTN    O116578   7.328   3.217   2.341
 1611ACTN    C116579   7.548   3.155   2.280
 1611ACTN    H116580   7.512   3.094   2.198
 1611ACTN    H216581   7.630   3.111   2.338
 1611ACTN    H316582   7.575   3.250   2.236
 1612ACTN    H616583   8.188   2.394   5.092
 1612ACTN    C316584   8.119   2.310   5.101
 1612ACTN    H416585   8.091   2.298   5.206
 1612ACTN    H516586   8.027   2.338   5.050
 1612ACTN    C216587   8.186   2.186   5.034
 1612ACTN    O116588   8.230   2.100   5.110
 1612ACTN    C116589   8.216   2.193   4.888
 1612ACTN    H116590   8.138   2.255   4.843
 1612ACTN    H216591   8.200   2.094   4.844
 1612ACTN    H316592   8.307   2.239   4.852
 1613ACTN    H616593   7.575   4.729   6.454
 1613ACTN    C316594   7.532   4.696   6.549
 1613ACTN    H416595   7.432   4.736   6.563
 1613ACTN    H516596   7.541   4.588   6.553
 1613ACTN    C216597   7.609   4.762   6.666
 1613ACTN    O116598   7.536   4.793   6.757
 1613ACTN    C116599   7.759   4.752   6.672
 1613ACTN    H116600   7.798   4.707   6.581
 1613ACTN    H216601   7.783   4.694   6.761
 1613ACTN    H316602   7.803   4.851   6.688
 1614ACTN    H616603   7.744   2.166   2.280
 1614ACTN    C316604   7.827   2.235   2.290
 1614ACTN    H416605   7.816   2.305   2.373
 1614ACTN    H516606   7.920   2.183   2.314
 1614ACTN    C216607   7.837   2.306   2.158
 1614ACTN    O116608   7.900   2.259   2.065
 1614ACTN    C116609   7.753   2.424   2.133
 1614ACTN    H116610   7.784   2.498   2.206
 1614ACTN    H216611   7.645   2.407   2.144
 1614ACTN    H316612   7.770   2.462   2.033
 1615ACTN    H616613   8.018   2.717   2.240
 1615ACTN    C316614   7.937   2.788   2.258
 1615ACTN    H416615   7.883   2.765   2.349
 1615ACTN    H516616   7.979   2.886   2.282
 1615ACTN    C216617   7.853   2.805   2.129
 1615ACTN    O116618   7.738   2.831   2.141
 1615ACTN    C116619   7.923   2.821   1.994
 1615ACTN    H116620   7.852   2.860   1.922
 1615ACTN    H216621   7.955   2.722   1.959
 1615ACTN    H316622   8.007   2.888   2.010
 1616ACTN    H616623   7.497   6.328   1.539
 1616ACTN    C316624   7.433   6.257   1.487
 1616ACTN    H416625   7.438   6.163   1.543
 1616ACTN    H516626   7.332   6.299   1.497
 1616ACTN    C216627   7.452   6.243   1.340
 1616ACTN    O116628   7.562   6.266   1.287
 1616ACTN    C116629   7.352   6.170   1.264
 1616ACTN    H116630   7.277   6.109   1.314
 1616ACTN    H216631   7.408   6.094   1.208
 1616ACTN    H316632   7.306   6.232   1.187
 1617ACTN    H616633   8.252   7.412   4.014
 1617ACTN    C316634   8.152   7.389   4.051
 1617ACTN    H416635   8.122   7.436   4.145
 1617ACTN    H516636   8.079   7.433   3.984
 1617ACTN    C216637   8.138   7.243   4.066
 1617ACTN    O116638   8.081   7.174   3.988
 1617ACTN    C116639   8.210   7.170   4.170
 1617ACTN    H116640   8.173   7.069   4.190
 1617ACTN    H216641   8.207   7.226   4.264
 1617ACTN    H316642   8.315   7.158   4.145
 1618ACTN    H616643   8.007   1.911   5.520
 1618ACTN    C316644   8.079   1.831   5.502
 1618ACTN    H416645   8.096   1.828   5.394
 1618ACTN    H516646   8.167   1.865   5.557
 1618ACTN    C216647   8.029   1.699   5.558
 1618ACTN    O116648   7.924   1.686   5.617
 1618ACTN    C116649   8.132   1.591   5.575
 1618ACTN    H116650   8.086   1.503   5.531
 1618ACTN    H216651   8.152   1.573   5.681
 1618ACTN    H316652   8.230   1.600   5.529
 1619ACTN    H616653   8.644   6.448   3.836
 1619ACTN    C316654   8.638   6.469   3.729
 1619ACTN    H416655   8.684   6.382   3.684
 1619ACTN    H516656   8.533   6.463   3.700
 1619ACTN    C216657   8.714   6.596   3.698
 1619ACTN    O116658   8.688   6.690   3.778
 1619ACTN    C116659   8.784   6.606   3.565
 1619ACTN    H116660   8.738   6.679   3.498
 1619ACTN    H216661   8.786   6.503   3.530
 1619ACTN    H316662   8.886   6.634   3.589
 1620ACTN    H616663   8.235   4.300   0.059
 1620ACTN    C316664   8.263   4.324   0.162
 1620ACTN    H416665   8.355   4.381   0.172
 1620ACTN    H516666   8.181   4.367   0.219
 1620ACTN    C216667   8.286   4.187   0.221
 1620ACTN    O116668   8.344   4.174   0.326
 1620ACTN    C116669   8.221   4.065   0.160
 1620ACTN    H116670   8.136   4.031   0.219
 1620ACTN    H216671   8.291   3.982   0.152
 1620ACTN    H316672   8.193   4.076   0.055
 1621ACTN    H616673   8.494   6.419   5.038
 1621ACTN    C316674   8.588   6.444   4.989
 1621ACTN    H416675   8.659   6.363   5.006
 1621ACTN    H516676   8.575   6.457   4.881
 1621ACTN    C216677   8.643   6.567   5.039
 1621ACTN    O116678   8.582   6.672   5.006
 1621ACTN    C116679   8.750   6.557   5.137
 1621ACTN    H116680   8.730   6.499   5.227
 1621ACTN    H216681   8.781   6.656   5.170
 1621ACTN    H316682   8.835   6.513   5.084
 1622ACTN    H616683   8.407   7.167   1.221
 1622ACTN    C316684   8.320   7.138   1.163
 1622ACTN    H416685   8.313   7.184   1.064
 1622ACTN    H516686   8.329   7.031   1.142
 1622ACTN    C216687   8.200   7.158   1.248
 1622ACTN    O116688   8.187   7.270   1.296
 1622ACTN    C116689   8.089   7.055   1.274
 1622ACTN    H116690   8.041   7.076   1.370
 1622ACTN    H216691   8.137   6.959   1.291
 1622ACTN    H316692   8.024   7.059   1.187
 1623ACTN    H616693   7.931   4.732   8.147
 1623ACTN    C316694   7.895   4.720   8.045
 1623ACTN    H416695   7.925   4.620   8.014
 1623ACTN    H516696   7.788   4.730   8.031
 1623ACTN    C216697   7.971   4.810   7.952
 1623ACTN    O116698   8.089   4.837   7.975
 1623ACTN    C116699   7.895   4.867   7.842
 1623ACTN    H116700   7.795   4.825   7.834
 1623ACTN    H216701   7.945   4.840   7.749
 1623ACTN    H316702   7.882   4.976   7.845
 1624ACTN    H616703   8.104   0.855   8.420
 1624ACTN    C316704   8.201   0.881   8.462
 1624ACTN    H416705   8.229   0.816   8.545
 1624ACTN    H516706   8.273   0.880   8.381
 1624ACTN    C216707   8.189   1.024   8.507
 1624ACTN    O116708   8.264   1.109   8.461
 1624ACTN    C116709   8.091   1.059   8.609
 1624ACTN    H116710   8.064   0.968   8.661
 1624ACTN    H216711   7.998   1.110   8.584
 1624ACTN    H316712   8.136   1.107   8.696
 1625ACTN    H616713   7.561   6.299   8.095
 1625ACTN    C316714   7.646   6.233   8.081
 1625ACTN    H416715   7.726   6.261   8.150
 1625ACTN    H516716   7.695   6.239   7.984
 1625ACTN    C216717   7.605   6.090   8.107
 1625ACTN    O116718   7.609   6.047   8.223
 1625ACTN    C116719   7.519   6.026   8.005
 1625ACTN    H116720   7.419   6.066   7.987
 1625ACTN    H216721   7.513   5.921   8.034
 1625ACTN    H316722   7.572   6.031   7.910
 1626ACTN    H616723   8.004   0.225   7.810
 1626ACTN    C316724   8.040   0.180   7.718
 1626ACTN    H416725   7.996   0.082   7.698
 1626ACTN    H516726   8.010   0.254   7.644
 1626ACTN    C216727   8.185   0.166   7.707
 1626ACTN    O116728   8.261   0.211   7.627
 1626ACTN    C116729   8.247   0.082   7.817
 1626ACTN    H116730   8.276  -0.015   7.777
 1626ACTN    H216731   8.179   0.080   7.902
 1626ACTN    H316732   8.340   0.129   7.847
 1627ACTN    H616733   8.855   6.302   8.053
 1627ACTN    C316734   8.917   6.263   7.972
 1627ACTN    H416735   8.916   6.340   7.896
 1627ACTN    H516736   9.020   6.244   8.004
 1627ACTN    C216737   8.852   6.135   7.923
 1627ACTN    O116738   8.909   6.028   7.914
 1627ACTN    C116739   8.706   6.137   7.933
 1627ACTN    H116740   8.665   6.064   7.863
 1627ACTN    H216741   8.653   6.226   7.897
 1627ACTN    H316742   8.676   6.119   8.037
 1628ACTN    H616743   9.059   7.283   8.032
 1628ACTN    C316744   8.958   7.243   8.023
 1628ACTN    H416745   8.951   7.205   7.921
 1628ACTN    H516746   8.945   7.164   8.097
 1628ACTN    C216747   8.860   7.348   8.049
 1628ACTN    O116748   8.902   7.461   8.060
 1628ACTN    C116749   8.718   7.316   8.010
 1628ACTN    H116750   8.706   7.325   7.902
 1628ACTN    H216751   8.639   7.374   8.059
 1628ACTN    H316752   8.709   7.209   8.024
 1629ACTN    H616753   7.928   6.404   8.138
 1629ACTN    C316754   7.972   6.496   8.099
 1629ACTN    H416755   7.907   6.583   8.093
 1629ACTN    H516756   8.061   6.513   8.159
 1629ACTN    C216757   7.997   6.482   7.951
 1629ACTN    O116758   8.102   6.438   7.905
 1629ACTN    C116759   7.905   6.536   7.856
 1629ACTN    H116760   7.880   6.640   7.877
 1629ACTN    H216761   7.820   6.471   7.877
 1629ACTN    H316762   7.932   6.523   7.752
 1630ACTN    H616763   8.150   4.977   8.478
 1630ACTN    C316764   8.192   4.999   8.380
 1630ACTN    H416765   8.178   4.907   8.323
 1630ACTN    H516766   8.300   5.004   8.398
 1630ACTN    C216767   8.144   5.125   8.315
 1630ACTN    O116768   8.074   5.205   8.379
 1630ACTN    C116769   8.163   5.147   8.168
 1630ACTN    H116770   8.266   5.169   8.141
 1630ACTN    H216771   8.104   5.235   8.143
 1630ACTN    H316772   8.131   5.061   8.109
 1631ACTN    H616773   8.744   1.168   7.564
 1631ACTN    C316774   8.643   1.125   7.568
 1631ACTN    H416775   8.618   1.080   7.472
 1631ACTN    H516776   8.582   1.214   7.585
 1631ACTN    C216777   8.634   1.021   7.672
 1631ACTN    O116778   8.736   0.971   7.718
 1631ACTN    C116779   8.498   0.989   7.717
 1631ACTN    H116780   8.485   1.047   7.808
 1631ACTN    H216781   8.480   0.884   7.740
 1631ACTN    H316782   8.421   1.021   7.646
 1632ACTN    H616783   8.902   7.165   8.935
 1632ACTN    C316784   8.871   7.098   8.855
 1632ACTN    H416785   8.967   7.056   8.824
 1632ACTN    H516786   8.810   7.017   8.894
 1632ACTN    C216787   8.811   7.166   8.737
 1632ACTN    O116788   8.858   7.264   8.696
 1632ACTN    C116789   8.672   7.125   8.695
 1632ACTN    H116790   8.682   7.075   8.599
 1632ACTN    H216791   8.609   7.213   8.684
 1632ACTN    H316792   8.622   7.052   8.758
 1633ACTN    H616793   8.627   0.178   7.840
 1633ACTN    C316794   8.646   0.285   7.848
 1633ACTN    H416795   8.570   0.332   7.910
 1633ACTN    H516796   8.743   0.302   7.893
 1633ACTN    C216797   8.652   0.350   7.714
 1633ACTN    O116798   8.706   0.292   7.622
 1633ACTN    C116799   8.601   0.493   7.686
 1633ACTN    H116800   8.580   0.520   7.583
 1633ACTN    H216801   8.678   0.560   7.725
 1633ACTN    H316802   8.517   0.516   7.752
 1634ACTN    H616803   8.009   5.740   8.129
 1634ACTN    C316804   8.041   5.824   8.067
 1634ACTN    H416805   8.106   5.885   8.129
 1634ACTN    H516806   8.098   5.789   7.981
 1634ACTN    C216807   7.938   5.917   8.012
 1634ACTN    O116808   7.849   5.866   7.941
 1634ACTN    C116809   7.948   6.063   8.044
 1634ACTN    H116810   7.875   6.119   7.985
 1634ACTN    H216811   8.044   6.109   8.021
 1634ACTN    H316812   7.929   6.080   8.150
 1635ACTN    H616813   8.474   6.752   8.647
 1635ACTN    C316814   8.573   6.770   8.689
 1635ACTN    H416815   8.618   6.852   8.632
 1635ACTN    H516816   8.565   6.813   8.789
 1635ACTN    C216817   8.660   6.651   8.691
 1635ACTN    O116818   8.740   6.637   8.785
 1635ACTN    C116819   8.691   6.566   8.572
 1635ACTN    H116820   8.606   6.517   8.524
 1635ACTN    H216821   8.749   6.481   8.608
 1635ACTN    H316822   8.750   6.617   8.496
 1636ACTN    H616823   8.304   6.798   7.800
 1636ACTN    C316824   8.276   6.717   7.733
 1636ACTN    H416825   8.368   6.675   7.693
 1636ACTN    H516826   8.220   6.645   7.792
 1636ACTN    C216827   8.195   6.789   7.635
 1636ACTN    O116828   8.233   6.798   7.518
 1636ACTN    C116829   8.063   6.852   7.680
 1636ACTN    H116830   7.985   6.809   7.618
 1636ACTN    H216831   8.062   6.961   7.668
 1636ACTN    H316832   8.040   6.837   7.785
 1637ACTN    H616833   8.415   0.591   8.454
 1637ACTN    C316834   8.405   0.502   8.391
 1637ACTN    H416835   8.377   0.419   8.456
 1637ACTN    H516836   8.321   0.527   8.326
 1637ACTN    C216837   8.521   0.457   8.315
 1637ACTN    O116838   8.629   0.439   8.367
 1637ACTN    C116839   8.508   0.439   8.169
 1637ACTN    H116840   8.601   0.440   8.114
 1637ACTN    H216841   8.447   0.520   8.129
 1637ACTN    H316842   8.458   0.346   8.139
 1638ACTN    H616843   8.451   5.373   8.413
 1638ACTN    C316844   8.481   5.310   8.496
 1638ACTN    H416845   8.587   5.322   8.522
 1638ACTN    H516846   8.471   5.207   8.460
 1638ACTN    C216847   8.393   5.337   8.620
 1638ACTN    O116848   8.429   5.298   8.730
 1638ACTN    C116849   8.278   5.429   8.624
 1638ACTN    H116850   8.231   5.435   8.526
 1638ACTN    H216851   8.318   5.525   8.655
 1638ACTN    H316852   8.197   5.398   8.690
 1639ACTN    H616853   7.686   5.137   8.568
 1639ACTN    C316854   7.695   5.211   8.489
 1639ACTN    H416855   7.795   5.204   8.446
 1639ACTN    H516856   7.625   5.175   8.414
 1639ACTN    C216857   7.660   5.349   8.539
 1639ACTN    O116858   7.735   5.400   8.626
 1639ACTN    C116859   7.544   5.421   8.475
 1639ACTN    H116860   7.455   5.374   8.517
 1639ACTN    H216861   7.551   5.410   8.367
 1639ACTN    H316862   7.550   5.525   8.507
 1640ACTN    H616863   8.361   6.799   8.057
 1640ACTN    C316864   8.315   6.707   8.095
 1640ACTN    H416865   8.208   6.726   8.095
 1640ACTN    H516866   8.345   6.624   8.031
 1640ACTN    C216867   8.353   6.688   8.237
 1640ACTN    O116868   8.310   6.591   8.293
 1640ACTN    C116869   8.435   6.793   8.300
 1640ACTN    H116870   8.375   6.884   8.299
 1640ACTN    H216871   8.529   6.814   8.249
 1640ACTN    H316872   8.463   6.770   8.403
 1641ACTN    H616873   8.052   1.871   7.359
 1641ACTN    C316874   7.992   1.818   7.433
 1641ACTN    H416875   7.916   1.756   7.386
 1641ACTN    H516876   8.061   1.758   7.493
 1641ACTN    C216877   7.923   1.921   7.505
 1641ACTN    O116878   7.802   1.938   7.486
 1641ACTN    C116879   8.009   2.027   7.574
 1641ACTN    H116880   7.970   2.116   7.524
 1641ACTN    H216881   8.114   2.012   7.549
 1641ACTN    H316882   7.995   2.027   7.682
 1642ACTN    H616883   7.319   2.042   8.278
 1642ACTN    C316884   7.377   1.972   8.338
 1642ACTN    H416885   7.479   2.012   8.339
 1642ACTN    H516886   7.350   1.982   8.443
 1642ACTN    C216887   7.368   1.832   8.290
 1642ACTN    O116888   7.460   1.772   8.246
 1642ACTN    C116889   7.246   1.748   8.311
 1642ACTN    H116890   7.259   1.670   8.387
 1642ACTN    H216891   7.215   1.701   8.218
 1642ACTN    H316892   7.157   1.808   8.331
 1643ACTN    H616893   7.934   0.841   7.893
 1643ACTN    C316894   7.951   0.748   7.837
 1643ACTN    H416895   7.980   0.681   7.919
 1643ACTN    H516896   7.852   0.714   7.808
 1643ACTN    C216897   8.029   0.769   7.713
 1643ACTN    O116898   8.066   0.881   7.686
 1643ACTN    C116899   8.093   0.655   7.645
 1643ACTN    H116900   8.178   0.633   7.709
 1643ACTN    H216901   8.114   0.688   7.543
 1643ACTN    H316902   8.033   0.565   7.656
 1644ACTN    H616903   7.880   6.513   8.344
 1644ACTN    C316904   7.854   6.465   8.439
 1644ACTN    H416905   7.822   6.541   8.511
 1644ACTN    H516906   7.772   6.394   8.426
 1644ACTN    C216907   7.968   6.371   8.476
 1644ACTN    O116908   8.007   6.289   8.396
 1644ACTN    C116909   8.050   6.404   8.592
 1644ACTN    H116910   8.123   6.325   8.610
 1644ACTN    H216911   7.994   6.423   8.684
 1644ACTN    H316912   8.099   6.499   8.568
 1645ACTN    H616913   8.948   5.671   8.812
 1645ACTN    C316914   8.848   5.672   8.768
 1645ACTN    H416915   8.845   5.623   8.671
 1645ACTN    H516916   8.787   5.610   8.833
 1645ACTN    C216917   8.796   5.811   8.762
 1645ACTN    O116918   8.869   5.914   8.774
 1645ACTN    C116919   8.666   5.833   8.698
 1645ACTN    H116920   8.677   5.915   8.627
 1645ACTN    H216921   8.590   5.865   8.769
 1645ACTN    H316922   8.632   5.743   8.646
 1646ACTN    H616923   7.777   7.032   7.427
 1646ACTN    C316924   7.695   7.104   7.425
 1646ACTN    H416925   7.685   7.144   7.527
 1646ACTN    H516926   7.711   7.182   7.351
 1646ACTN    C216927   7.566   7.035   7.384
 1646ACTN    O116928   7.547   6.991   7.271
 1646ACTN    C116929   7.452   7.036   7.479
 1646ACTN    H116930   7.361   7.057   7.423
 1646ACTN    H216931   7.467   7.101   7.565
 1646ACTN    H316932   7.435   6.935   7.516
 1647ACTN    H616933   8.134   4.399   8.594
 1647ACTN    C316934   8.145   4.479   8.667
 1647ACTN    H416935   8.248   4.478   8.704
 1647ACTN    H516936   8.119   4.570   8.614
 1647ACTN    C216937   8.059   4.454   8.782
 1647ACTN    O116938   8.084   4.360   8.854
 1647ACTN    C116939   7.958   4.553   8.821
 1647ACTN    H116940   7.865   4.497   8.811
 1647ACTN    H216941   7.962   4.640   8.755
 1647ACTN    H316942   7.966   4.576   8.927
 1648ACTN    H616943   7.811   3.163   8.338
 1648ACTN    C316944   7.827   3.124   8.439
 1648ACTN    H416945   7.824   3.016   8.451
 1648ACTN    H516946   7.928   3.149   8.472
 1648ACTN    C216947   7.735   3.188   8.536
 1648ACTN    O116948   7.673   3.283   8.502
 1648ACTN    C116949   7.745   3.164   8.686
 1648ACTN    H116950   7.763   3.058   8.701
 1648ACTN    H216951   7.648   3.182   8.732
 1648ACTN    H316952   7.818   3.230   8.733
 1649ACTN    H616953   7.838   1.720   8.562
 1649ACTN    C316954   7.868   1.807   8.620
 1649ACTN    H416955   7.861   1.768   8.722
 1649ACTN    H516956   7.971   1.836   8.598
 1649ACTN    C216957   7.777   1.930   8.623
 1649ACTN    O116958   7.658   1.923   8.619
 1649ACTN    C116959   7.843   2.062   8.600
 1649ACTN    H116960   7.794   2.126   8.526
 1649ACTN    H216961   7.937   2.045   8.547
 1649ACTN    H316962   7.860   2.100   8.701
 1650ACTN    H616963   7.500   4.337   8.171
 1650ACTN    C316964   7.426   4.324   8.250
 1650ACTN    H416965   7.341   4.260   8.226
 1650ACTN    H516966   7.473   4.276   8.336
 1650ACTN    C216967   7.383   4.458   8.299
 1650ACTN    O116968   7.427   4.505   8.403
 1650ACTN    C116969   7.275   4.529   8.230
 1650ACTN    H116970   7.310   4.571   8.135
 1650ACTN    H216971   7.236   4.610   8.291
 1650ACTN    H316972   7.196   4.456   8.217
 1651ACTN    H616973   7.798   3.163   7.937
 1651ACTN    C316974   7.759   3.140   7.838
 1651ACTN    H416975   7.758   3.232   7.779
 1651ACTN    H516976   7.828   3.071   7.788
 1651ACTN    C216977   7.623   3.079   7.841
 1651ACTN    O116978   7.522   3.147   7.828
 1651ACTN    C116979   7.603   2.928   7.824
 1651ACTN    H116980   7.648   2.877   7.909
 1651ACTN    H216981   7.650   2.890   7.734
 1651ACTN    H316982   7.497   2.901   7.832
 1652ACTN    H616983   7.573   4.723   7.318
 1652ACTN    C316984   7.576   4.719   7.427
 1652ACTN    H416985   7.470   4.718   7.453
 1652ACTN    H516986   7.607   4.618   7.454
 1652ACTN    C216987   7.668   4.823   7.484
 1652ACTN    O116988   7.633   4.879   7.582
 1652ACTN    C116989   7.809   4.807   7.444
 1652ACTN    H116990   7.835   4.888   7.376
 1652ACTN    H216991   7.819   4.717   7.385
 1652ACTN    H316992   7.868   4.799   7.535
 1653ACTN    H616993   8.538   7.145   7.463
 1653ACTN    C316994   8.476   7.072   7.514
 1653ACTN    H416995   8.395   7.029   7.455
 1653ACTN    H516996   8.545   6.989   7.529
 1653ACTN    C216997   8.436   7.105   7.654
 1653ACTN    O116998   8.322   7.096   7.695
 1653ACTN    C116999   8.542   7.162   7.741
 1653ACTN    H117000   8.505   7.234   7.813
 1653ACTN    H217001   8.616   7.216   7.682
 1653ACTN    H317002   8.591   7.082   7.797
 1654ACTN    H617003   7.497   6.328   8.898
 1654ACTN    C317004   7.433   6.257   8.846
 1654ACTN    H417005   7.438   6.163   8.902
 1654ACTN    H517006   7.332   6.299   8.856
 1654ACTN    C217007   7.452   6.243   8.699
 1654ACTN    O117008   7.562   6.266   8.646
 1654ACTN    C117009   7.352   6.170   8.623
 1654ACTN    H117010   7.277   6.109   8.673
 1654ACTN    H217011   7.408   6.094   8.567
 1654ACTN    H317012   7.306   6.232   8.546
 1655ACTN    H617013   8.235   4.300   7.418
 1655ACTN    C317014   8.263   4.324   7.521
 1655ACTN    H417015   8.355   4.381   7.531
 1655ACTN    H517016   8.181   4.367   7.578
 1655ACTN    C217017   8.286   4.187   7.580
 1655ACTN    O117018   8.344   4.174   7.685
 1655ACTN    C117019   8.221   4.065   7.519
 1655ACTN    H117020   8.136   4.031   7.578
 1655ACTN    H217021   8.291   3.982   7.511
 1655ACTN    H317022   8.193   4.076   7.414
 1656ACTN    H617023   8.407   7.167   8.580
 1656ACTN    C317024   8.320   7.138   8.522
 1656ACTN    H417025   8.313   7.184   8.423
 1656ACTN    H517026   8.329   7.031   8.501
 1656ACTN    C217027   8.200   7.158   8.607
 1656ACTN    O117028   8.187   7.270   8.655
 1656ACTN    C117029   8.089   7.055   8.633
 1656ACTN    H117030   8.041   7.076   8.729
 1656ACTN    H217031   8.137   6.959   8.650
 1656ACTN    H317032   8.024   7.059   8.546
 1657ACTN    H617033   8.482   8.453   5.832
 1657ACTN    C317034   8.481   8.471   5.724
 1657ACTN    H417035   8.490   8.579   5.713
 1657ACTN    H517036   8.576   8.434   5.685
 1657ACTN    C217037   8.353   8.429   5.664
 1657ACTN    O117038   8.245   8.464   5.716
 1657ACTN    C117039   8.347   8.365   5.531
 1657ACTN    H117040   8.418   8.413   5.464
 1657ACTN    H217041   8.246   8.372   5.492
 1657ACTN    H317042   8.367   8.258   5.539
 1658ACTN    H617043   8.104   8.214   1.061
 1658ACTN    C317044   8.201   8.240   1.103
 1658ACTN    H417045   8.229   8.175   1.186
 1658ACTN    H517046   8.273   8.239   1.022
 1658ACTN    C217047   8.189   8.383   1.148
 1658ACTN    O117048   8.264   8.468   1.102
 1658ACTN    C117049   8.091   8.418   1.250
 1658ACTN    H117050   8.064   8.327   1.302
 1658ACTN    H217051   7.998   8.469   1.225
 1658ACTN    H317052   8.136   8.466   1.337
 1659ACTN    H617053   7.818   8.907   5.246
 1659ACTN    C317054   7.738   8.834   5.264
 1659ACTN    H417055   7.685   8.819   5.170
 1659ACTN    H517056   7.779   8.736   5.285
 1659ACTN    C217057   7.644   8.881   5.365
 1659ACTN    O117058   7.583   8.986   5.352
 1659ACTN    C117059   7.601   8.790   5.474
 1659ACTN    H117060   7.495   8.765   5.466
 1659ACTN    H217061   7.605   8.844   5.568
 1659ACTN    H317062   7.661   8.700   5.477
 1660ACTN    H617063   8.572   8.230   4.841
 1660ACTN    C317064   8.545   8.325   4.794
 1660ACTN    H417065   8.441   8.323   4.762
 1660ACTN    H517066   8.553   8.397   4.875
 1660ACTN    C217067   8.635   8.345   4.674
 1660ACTN    O117068   8.669   8.251   4.602
 1660ACTN    C117069   8.687   8.483   4.664
 1660ACTN    H117070   8.650   8.532   4.574
 1660ACTN    H217071   8.795   8.496   4.673
 1660ACTN    H317072   8.657   8.540   4.753
 1661ACTN    H617073   8.136   8.289   5.096
 1661ACTN    C317074   8.203   8.351   5.037
 1661ACTN    H417075   8.305   8.319   5.059
 1661ACTN    H517076   8.180   8.334   4.932
 1661ACTN    C217077   8.176   8.497   5.077
 1661ACTN    O117078   8.268   8.570   5.105
 1661ACTN    C117079   8.033   8.542   5.048
 1661ACTN    H117080   7.962   8.523   5.128
 1661ACTN    H217081   8.000   8.484   4.962
 1661ACTN    H317082   8.032   8.648   5.021
 1662ACTN    H617083   8.004   7.584   0.451
 1662ACTN    C317084   8.040   7.539   0.359
 1662ACTN    H417085   7.996   7.441   0.339
 1662ACTN    H517086   8.010   7.613   0.285
 1662ACTN    C217087   8.185   7.525   0.348
 1662ACTN    O117088   8.261   7.570   0.268
 1662ACTN    C117089   8.247   7.441   0.458
 1662ACTN    H117090   8.276   7.344   0.418
 1662ACTN    H217091   8.179   7.439   0.543
 1662ACTN    H317092   8.340   7.488   0.488
 1663ACTN    H617093   8.478   7.894   5.555
 1663ACTN    C317094   8.399   7.839   5.606
 1663ACTN    H417095   8.401   7.737   5.565
 1663ACTN    H517096   8.425   7.848   5.711
 1663ACTN    C217097   8.272   7.908   5.580
 1663ACTN    O117098   8.238   8.015   5.624
 1663ACTN    C117099   8.168   7.820   5.515
 1663ACTN    H117100   8.197   7.805   5.411
 1663ACTN    H217101   8.066   7.856   5.505
 1663ACTN    H317102   8.159   7.721   5.558
 1664ACTN    H617103   8.580   8.207   7.200
 1664ACTN    C317104   8.513   8.122   7.207
 1664ACTN    H417105   8.430   8.164   7.151
 1664ACTN    H517106   8.561   8.043   7.150
 1664ACTN    C217107   8.486   8.088   7.346
 1664ACTN    O117108   8.583   8.075   7.417
 1664ACTN    C117109   8.355   8.063   7.393
 1664ACTN    H117110   8.312   8.141   7.455
 1664ACTN    H217111   8.371   7.972   7.450
 1664ACTN    H317112   8.288   8.034   7.312
 1665ACTN    H617113   7.784   8.229   6.312
 1665ACTN    C317114   7.883   8.260   6.344
 1665ACTN    H417115   7.900   8.204   6.436
 1665ACTN    H517116   7.959   8.244   6.267
 1665ACTN    C217117   7.868   8.402   6.391
 1665ACTN    O117118   7.931   8.453   6.486
 1665ACTN    C117119   7.765   8.492   6.328
 1665ACTN    H117120   7.807   8.587   6.296
 1665ACTN    H217121   7.686   8.518   6.399
 1665ACTN    H317122   7.715   8.441   6.246
 1666ACTN    H617123   8.348   7.906   2.881
 1666ACTN    C317124   8.400   7.835   2.817
 1666ACTN    H417125   8.406   7.738   2.867
 1666ACTN    H517126   8.501   7.872   2.803
 1666ACTN    C217127   8.338   7.820   2.679
 1666ACTN    O117128   8.288   7.712   2.654
 1666ACTN    C117129   8.337   7.930   2.580
 1666ACTN    H117130   8.346   7.888   2.480
 1666ACTN    H217131   8.416   7.998   2.611
 1666ACTN    H317132   8.241   7.981   2.589
 1667ACTN    H617133   7.687   8.020   4.404
 1667ACTN    C317134   7.694   7.968   4.499
 1667ACTN    H417135   7.748   7.880   4.464
 1667ACTN    H517136   7.756   8.035   4.560
 1667ACTN    C217137   7.562   7.921   4.554
 1667ACTN    O117138   7.539   7.910   4.674
 1667ACTN    C117139   7.447   7.894   4.463
 1667ACTN    H117140   7.480   7.917   4.362
 1667ACTN    H217141   7.363   7.959   4.488
 1667ACTN    H317142   7.402   7.795   4.475
 1668ACTN    H617143   7.389   8.551   6.108
 1668ACTN    C317144   7.370   8.657   6.122
 1668ACTN    H417145   7.368   8.711   6.027
 1668ACTN    H517146   7.264   8.659   6.150
 1668ACTN    C217147   7.460   8.737   6.209
 1668ACTN    O117148   7.577   8.740   6.176
 1668ACTN    C117149   7.412   8.791   6.343
 1668ACTN    H117150   7.466   8.881   6.375
 1668ACTN    H217151   7.425   8.709   6.414
 1668ACTN    H317152   7.305   8.810   6.341
 1669ACTN    H617153   7.946   7.446   2.796
 1669ACTN    C317154   7.897   7.543   2.804
 1669ACTN    H417155   7.862   7.577   2.707
 1669ACTN    H517156   7.809   7.530   2.868
 1669ACTN    C217157   7.979   7.647   2.869
 1669ACTN    O117158   7.934   7.766   2.864
 1669ACTN    C117159   8.110   7.605   2.927
 1669ACTN    H117160   8.100   7.537   3.011
 1669ACTN    H217161   8.165   7.691   2.965
 1669ACTN    H317162   8.179   7.566   2.852
 1670ACTN    H617163   8.744   8.527   0.205
 1670ACTN    C317164   8.643   8.484   0.209
 1670ACTN    H417165   8.618   8.439   0.113
 1670ACTN    H517166   8.582   8.573   0.226
 1670ACTN    C217167   8.634   8.380   0.313
 1670ACTN    O117168   8.736   8.330   0.359
 1670ACTN    C117169   8.498   8.348   0.358
 1670ACTN    H117170   8.485   8.406   0.449
 1670ACTN    H217171   8.480   8.243   0.381
 1670ACTN    H317172   8.421   8.380   0.287
 1671ACTN    H617173   8.627   7.537   0.481
 1671ACTN    C317174   8.646   7.644   0.489
 1671ACTN    H417175   8.570   7.691   0.551
 1671ACTN    H517176   8.743   7.661   0.534
 1671ACTN    C217177   8.652   7.709   0.355
 1671ACTN    O117178   8.706   7.651   0.263
 1671ACTN    C117179   8.601   7.852   0.327
 1671ACTN    H117180   8.580   7.879   0.224
 1671ACTN    H217181   8.678   7.919   0.366
 1671ACTN    H317182   8.517   7.875   0.393
 1672ACTN    H617183   7.406   8.661   5.643
 1672ACTN    C317184   7.376   8.635   5.744
 1672ACTN    H417185   7.355   8.724   5.804
 1672ACTN    H517186   7.283   8.579   5.733
 1672ACTN    C217187   7.471   8.550   5.821
 1672ACTN    O117188   7.452   8.435   5.847
 1672ACTN    C117189   7.609   8.606   5.847
 1672ACTN    H117190   7.610   8.628   5.954
 1672ACTN    H217191   7.628   8.699   5.794
 1672ACTN    H317192   7.690   8.535   5.833
 1673ACTN    H617193   8.132   8.307   3.845
 1673ACTN    C317194   8.095   8.407   3.825
 1673ACTN    H417195   8.043   8.462   3.903
 1673ACTN    H517196   8.179   8.469   3.791
 1673ACTN    C217197   8.009   8.405   3.705
 1673ACTN    O117198   8.059   8.391   3.597
 1673ACTN    C117199   7.868   8.361   3.729
 1673ACTN    H117200   7.856   8.254   3.712
 1673ACTN    H217201   7.804   8.411   3.656
 1673ACTN    H317202   7.832   8.388   3.829
 1674ACTN    H617203   7.899   8.677   7.302
 1674ACTN    C317204   7.794   8.698   7.320
 1674ACTN    H417205   7.740   8.662   7.232
 1674ACTN    H517206   7.764   8.643   7.409
 1674ACTN    C217207   7.768   8.844   7.339
 1674ACTN    O117208   7.847   8.922   7.285
 1674ACTN    C117209   7.658   8.904   7.423
 1674ACTN    H117210   7.696   8.964   7.506
 1674ACTN    H217211   7.582   8.833   7.458
 1674ACTN    H317212   7.598   8.976   7.369
 1675ACTN    H617213   8.415   7.950   1.095
 1675ACTN    C317214   8.405   7.861   1.032
 1675ACTN    H417215   8.377   7.778   1.097
 1675ACTN    H517216   8.321   7.886   0.967
 1675ACTN    C217217   8.521   7.816   0.956
 1675ACTN    O117218   8.629   7.798   1.008
 1675ACTN    C117219   8.508   7.798   0.810
 1675ACTN    H117220   8.601   7.799   0.755
 1675ACTN    H217221   8.447   7.879   0.770
 1675ACTN    H317222   8.458   7.705   0.780
 1676ACTN    H617223   7.586   7.629   5.270
 1676ACTN    C317224   7.579   7.653   5.164
 1676ACTN    H417225   7.556   7.564   5.107
 1676ACTN    H517226   7.498   7.726   5.154
 1676ACTN    C217227   7.698   7.719   5.101
 1676ACTN    O117228   7.745   7.670   5.000
 1676ACTN    C117229   7.738   7.859   5.148
 1676ACTN    H117230   7.653   7.902   5.201
 1676ACTN    H217231   7.750   7.919   5.058
 1676ACTN    H317232   7.830   7.845   5.205
 1677ACTN    H617233   8.636   7.261   4.761
 1677ACTN    C317234   8.643   7.361   4.719
 1677ACTN    H417235   8.541   7.396   4.727
 1677ACTN    H517236   8.703   7.424   4.785
 1677ACTN    C217237   8.704   7.359   4.580
 1677ACTN    O117238   8.654   7.427   4.493
 1677ACTN    C117239   8.846   7.303   4.563
 1677ACTN    H117240   8.844   7.255   4.465
 1677ACTN    H217241   8.855   7.222   4.635
 1677ACTN    H317242   8.925   7.377   4.577
 1678ACTN    H617243   8.527   7.777   3.885
 1678ACTN    C317244   8.611   7.736   3.941
 1678ACTN    H417245   8.608   7.776   4.042
 1678ACTN    H517246   8.608   7.627   3.948
 1678ACTN    C217247   8.745   7.782   3.883
 1678ACTN    O117248   8.781   7.702   3.801
 1678ACTN    C117249   8.803   7.922   3.890
 1678ACTN    H117250   8.819   7.965   3.790
 1678ACTN    H217251   8.898   7.924   3.944
 1678ACTN    H317252   8.737   7.990   3.944
 1679ACTN    H617253   8.392   7.443   3.519
 1679ACTN    C317254   8.286   7.445   3.546
 1679ACTN    H417255   8.272   7.373   3.627
 1679ACTN    H517256   8.236   7.411   3.456
 1679ACTN    C217257   8.241   7.579   3.587
 1679ACTN    O117258   8.199   7.659   3.503
 1679ACTN    C117259   8.227   7.597   3.732
 1679ACTN    H117260   8.129   7.562   3.764
 1679ACTN    H217261   8.236   7.703   3.752
 1679ACTN    H317262   8.303   7.538   3.784
 1680ACTN    H617263   7.978   8.738   5.923
 1680ACTN    C317264   8.026   8.829   5.958
 1680ACTN    H417265   7.999   8.905   5.885
 1680ACTN    H517266   7.969   8.864   6.045
 1680ACTN    C217267   8.174   8.811   5.983
 1680ACTN    O117268   8.251   8.838   5.893
 1680ACTN    C117269   8.218   8.730   6.095
 1680ACTN    H117270   8.278   8.790   6.164
 1680ACTN    H217271   8.292   8.658   6.059
 1680ACTN    H317272   8.145   8.677   6.155
 1681ACTN    H617273   7.912   9.116   6.313
 1681ACTN    C317274   7.898   9.008   6.303
 1681ACTN    H417275   7.790   8.995   6.294
 1681ACTN    H517276   7.953   8.964   6.220
 1681ACTN    C217277   7.942   8.955   6.430
 1681ACTN    O117278   7.909   9.010   6.531
 1681ACTN    C117279   8.038   8.842   6.426
 1681ACTN    H117280   7.992   8.759   6.372
 1681ACTN    H217281   8.050   8.809   6.529
 1681ACTN    H317282   8.136   8.869   6.387
 1682ACTN    H617283   8.567   8.815   1.193
 1682ACTN    C317284   8.527   8.727   1.242
 1682ACTN    H417285   8.484   8.762   1.337
 1682ACTN    H517286   8.444   8.692   1.181
 1682ACTN    C217287   8.614   8.611   1.260
 1682ACTN    O117288   8.741   8.624   1.265
 1682ACTN    C117289   8.555   8.483   1.306
 1682ACTN    H117290   8.512   8.507   1.403
 1682ACTN    H217291   8.634   8.409   1.316
 1682ACTN    H317292   8.475   8.451   1.238
 1683ACTN    H617293   8.710   7.426   5.031
 1683ACTN    C317294   8.760   7.504   5.088
 1683ACTN    H417295   8.789   7.467   5.187
 1683ACTN    H517296   8.851   7.536   5.037
 1683ACTN    C217297   8.669   7.620   5.096
 1683ACTN    O117298   8.659   7.691   4.999
 1683ACTN    C117299   8.574   7.626   5.212
 1683ACTN    H117300   8.596   7.716   5.270
 1683ACTN    H217301   8.585   7.541   5.280
 1683ACTN    H317302   8.470   7.628   5.178
 1684ACTN    H617303   8.463   7.899   4.194
 1684ACTN    C317304   8.443   7.804   4.244
 1684ACTN    H417305   8.526   7.736   4.224
 1684ACTN    H517306   8.438   7.821   4.352
 1684ACTN    C217307   8.312   7.751   4.200
 1684ACTN    O117308   8.256   7.665   4.265
 1684ACTN    C117309   8.254   7.821   4.084
 1684ACTN    H117310   8.160   7.772   4.059
 1684ACTN    H217311   8.322   7.819   3.999
 1684ACTN    H317312   8.225   7.921   4.116
 1685ACTN    H617313   7.532   7.399   3.985
 1685ACTN    C317314   7.616   7.358   3.928
 1685ACTN    H417315   7.652   7.262   3.965
 1685ACTN    H517316   7.580   7.342   3.827
 1685ACTN    C217317   7.719   7.459   3.942
 1685ACTN    O117318   7.788   7.500   3.848
 1685ACTN    C117319   7.757   7.488   4.080
 1685ACTN    H117320   7.688   7.555   4.131
 1685ACTN    H217321   7.848   7.549   4.082
 1685ACTN    H317322   7.773   7.399   4.141
 1686ACTN    H617323   7.796   7.686   4.510
 1686ACTN    C317324   7.903   7.675   4.498
 1686ACTN    H417325   7.938   7.574   4.480
 1686ACTN    H517326   7.929   7.739   4.414
 1686ACTN    C217327   7.982   7.737   4.612
 1686ACTN    O117328   7.935   7.846   4.650
 1686ACTN    C117329   8.130   7.718   4.624
 1686ACTN    H117330   8.156   7.613   4.639
 1686ACTN    H217331   8.176   7.787   4.695
 1686ACTN    H317332   8.183   7.740   4.531
 1687ACTN    H617333   8.429   8.066   3.310
 1687ACTN    C317334   8.456   8.106   3.212
 1687ACTN    H417335   8.430   8.033   3.135
 1687ACTN    H517336   8.396   8.189   3.177
 1687ACTN    C217337   8.603   8.141   3.202
 1687ACTN    O117338   8.640   8.249   3.156
 1687ACTN    C117339   8.704   8.036   3.246
 1687ACTN    H117340   8.681   7.939   3.203
 1687ACTN    H217341   8.721   8.011   3.351
 1687ACTN    H317342   8.801   8.061   3.203
 1688ACTN    H617343   7.567   8.375   4.924
 1688ACTN    C317344   7.536   8.277   4.962
 1688ACTN    H417345   7.522   8.200   4.886
 1688ACTN    H517346   7.612   8.250   5.035
 1688ACTN    C217347   7.397   8.285   5.018
 1688ACTN    O117348   7.296   8.273   4.952
 1688ACTN    C117349   7.383   8.305   5.162
 1688ACTN    H117350   7.403   8.210   5.211
 1688ACTN    H217351   7.279   8.326   5.188
 1688ACTN    H317352   7.446   8.384   5.204
 1689ACTN    H617353   8.221   7.765   6.526
 1689ACTN    C317354   8.267   7.800   6.619
 1689ACTN    H417355   8.290   7.716   6.684
 1689ACTN    H517356   8.359   7.852   6.594
 1689ACTN    C217357   8.169   7.890   6.689
 1689ACTN    O117358   8.200   7.999   6.741
 1689ACTN    C117359   8.033   7.828   6.715
 1689ACTN    H117360   8.008   7.831   6.821
 1689ACTN    H217361   8.041   7.723   6.686
 1689ACTN    H317362   7.950   7.869   6.658
 1690ACTN    H617363   7.853   7.523   6.902
 1690ACTN    C317364   7.789   7.483   6.823
 1690ACTN    H417365   7.859   7.460   6.743
 1690ACTN    H517366   7.733   7.394   6.850
 1690ACTN    C217367   7.680   7.578   6.782
 1690ACTN    O117368   7.689   7.640   6.673
 1690ACTN    C117369   7.560   7.584   6.871
 1690ACTN    H117370   7.568   7.653   6.956
 1690ACTN    H217371   7.543   7.486   6.914
 1690ACTN    H317372   7.468   7.619   6.822
 1691ACTN    H617373   7.907   7.976   3.467
 1691ACTN    C317374   7.945   7.968   3.570
 1691ACTN    H417375   7.889   8.040   3.629
 1691ACTN    H517376   7.914   7.867   3.598
 1691ACTN    C217377   8.094   7.981   3.593
 1691ACTN    O117378   8.140   7.972   3.706
 1691ACTN    C117379   8.173   8.034   3.472
 1691ACTN    H117380   8.160   7.968   3.387
 1691ACTN    H217381   8.280   8.037   3.493
 1691ACTN    H317382   8.130   8.131   3.446
 1692ACTN    H617383   7.934   8.200   0.534
 1692ACTN    C317384   7.951   8.107   0.478
 1692ACTN    H417385   7.980   8.040   0.560
 1692ACTN    H517386   7.852   8.073   0.449
 1692ACTN    C217387   8.029   8.128   0.354
 1692ACTN    O117388   8.066   8.240   0.327
 1692ACTN    C117389   8.093   8.014   0.286
 1692ACTN    H117390   8.178   7.992   0.350
 1692ACTN    H217391   8.114   8.047   0.184
 1692ACTN    H317392   8.033   7.924   0.297
 1693ACTN    H617393   7.556   8.157   3.569
 1693ACTN    C317394   7.557   8.230   3.488
 1693ACTN    H417395   7.481   8.301   3.520
 1693ACTN    H517396   7.651   8.284   3.479
 1693ACTN    C217397   7.536   8.141   3.365
 1693ACTN    O117398   7.541   8.021   3.357
 1693ACTN    C117399   7.511   8.203   3.232
 1693ACTN    H117400   7.415   8.168   3.195
 1693ACTN    H217401   7.585   8.174   3.157
 1693ACTN    H317402   7.510   8.312   3.238
 1694ACTN    H617403   8.209   8.045   2.984
 1694ACTN    C317404   8.103   8.068   2.975
 1694ACTN    H417405   8.093   8.177   2.975
 1694ACTN    H517406   8.067   8.031   2.879
 1694ACTN    C217407   8.025   8.009   3.085
 1694ACTN    O117408   8.069   7.910   3.136
 1694ACTN    C117409   7.912   8.088   3.137
 1694ACTN    H117410   7.912   8.083   3.246
 1694ACTN    H217411   7.819   8.042   3.103
 1694ACTN    H317412   7.910   8.192   3.107
 1695ACTN    H617413   7.633   7.812   7.083
 1695ACTN    C317414   7.738   7.827   7.107
 1695ACTN    H417415   7.783   7.862   7.014
 1695ACTN    H517416   7.736   7.919   7.166
 1695ACTN    C217417   7.806   7.712   7.175
 1695ACTN    O117418   7.917   7.721   7.213
 1695ACTN    C117419   7.721   7.600   7.213
 1695ACTN    H117420   7.740   7.513   7.150
 1695ACTN    H217421   7.614   7.620   7.222
 1695ACTN    H317422   7.759   7.565   7.309
 1696ACTN    H617423   8.540   8.635   6.103
 1696ACTN    C317424   8.567   8.544   6.156
 1696ACTN    H417425   8.485   8.513   6.222
 1696ACTN    H517426   8.571   8.455   6.092
 1696ACTN    C217427   8.695   8.559   6.229
 1696ACTN    O117428   8.783   8.480   6.206
 1696ACTN    C117429   8.713   8.674   6.324
 1696ACTN    H117430   8.657   8.664   6.417
 1696ACTN    H217431   8.688   8.767   6.271
 1696ACTN    H317432   8.818   8.694   6.343
 1697ACTN    H617433   8.473   8.489   2.202
 1697ACTN    C317434   8.561   8.477   2.265
 1697ACTN    H417435   8.549   8.447   2.369
 1697ACTN    H517436   8.624   8.402   2.216
 1697ACTN    C217437   8.630   8.610   2.250
 1697ACTN    O117438   8.584   8.713   2.302
 1697ACTN    C117439   8.748   8.614   2.151
 1697ACTN    H117440   8.829   8.660   2.207
 1697ACTN    H217441   8.720   8.675   2.064
 1697ACTN    H317442   8.788   8.519   2.117
 1698ACTN    H617443   8.322   7.932   4.941
 1698ACTN    C317444   8.279   8.016   4.996
 1698ACTN    H417445   8.316   8.106   4.947
 1698ACTN    H517446   8.170   8.015   4.990
 1698ACTN    C217447   8.332   8.022   5.133
 1698ACTN    O117448   8.264   8.035   5.234
 1698ACTN    C117449   8.485   8.023   5.141
 1698ACTN    H117450   8.537   7.951   5.078
 1698ACTN    H217451   8.527   8.008   5.241
 1698ACTN    H317452   8.511   8.122   5.106
 1699ACTN    H617453   7.809   8.393   5.631
 1699ACTN    C317454   7.899   8.393   5.570
 1699ACTN    H417455   7.981   8.332   5.606
 1699ACTN    H517456   7.877   8.342   5.476
 1699ACTN    C217457   7.953   8.537   5.560
 1699ACTN    O117458   7.971   8.588   5.448
 1699ACTN    C117459   7.965   8.619   5.684
 1699ACTN    H117460   7.956   8.566   5.779
 1699ACTN    H217461   7.894   8.702   5.690
 1699ACTN    H317462   8.066   8.660   5.688
 1700ACTN    H617463   7.771   8.659   6.735
 1700ACTN    C317464   7.743   8.596   6.820
 1700ACTN    H417465   7.821   8.522   6.837
 1700ACTN    H517466   7.735   8.658   6.909
 1700ACTN    C217467   7.611   8.523   6.817
 1700ACTN    O117468   7.602   8.424   6.888
 1700ACTN    C117469   7.522   8.555   6.700
 1700ACTN    H117470   7.440   8.482   6.699
 1700ACTN    H217471   7.583   8.541   6.611
 1700ACTN    H317472   7.482   8.656   6.692
 1701ACTN    H617473   8.575   7.541   2.987
 1701ACTN    C317474   8.602   7.632   3.041
 1701ACTN    H417475   8.522   7.705   3.039
 1701ACTN    H517476   8.618   7.599   3.144
 1701ACTN    C217477   8.730   7.689   2.987
 1701ACTN    O117478   8.725   7.805   2.936
 1701ACTN    C117479   8.827   7.582   2.939
 1701ACTN    H117480   8.865   7.535   3.030
 1701ACTN    H217481   8.915   7.617   2.886
 1701ACTN    H317482   8.778   7.503   2.882
 1702ACTN    H617483   8.538   7.410   6.380
 1702ACTN    C317484   8.451   7.440   6.438
 1702ACTN    H417485   8.420   7.356   6.501
 1702ACTN    H517486   8.482   7.522   6.503
 1702ACTN    C217487   8.336   7.468   6.350
 1702ACTN    O117488   8.231   7.496   6.402
 1702ACTN    C117489   8.354   7.477   6.204
 1702ACTN    H117490   8.260   7.492   6.152
 1702ACTN    H217491   8.383   7.380   6.164
 1702ACTN    H317492   8.431   7.549   6.173
 1703ACTN    H617493   8.560   8.729   4.437
 1703ACTN    C317494   8.507   8.714   4.343
 1703ACTN    H417495   8.498   8.607   4.328
 1703ACTN    H517496   8.412   8.767   4.353
 1703ACTN    C217497   8.568   8.779   4.227
 1703ACTN    O117498   8.598   8.900   4.228
 1703ACTN    C117499   8.606   8.691   4.111
 1703ACTN    H117500   8.580   8.744   4.019
 1703ACTN    H217501   8.546   8.600   4.112
 1703ACTN    H317502   8.711   8.666   4.096
 1704ACTN    H617503   7.379   8.866   4.221
 1704ACTN    C317504   7.418   8.849   4.322
 1704ACTN    H417505   7.351   8.898   4.393
 1704ACTN    H517506   7.422   8.742   4.343
 1704ACTN    C217507   7.550   8.925   4.340
 1704ACTN    O117508   7.575   9.005   4.249
 1704ACTN    C117509   7.665   8.881   4.424
 1704ACTN    H117510   7.763   8.899   4.380
 1704ACTN    H217511   7.656   8.773   4.435
 1704ACTN    H317512   7.662   8.927   4.523
 1705ACTN    H617513   7.598   7.995   2.331
 1705ACTN    C317514   7.654   8.076   2.378
 1705ACTN    H417515   7.665   8.041   2.481
 1705ACTN    H517516   7.756   8.074   2.341
 1705ACTN    C217517   7.598   8.215   2.354
 1705ACTN    O117518   7.519   8.268   2.434
 1705ACTN    C117519   7.596   8.258   2.216
 1705ACTN    H117520   7.660   8.344   2.199
 1705ACTN    H217521   7.499   8.294   2.183
 1705ACTN    H317522   7.636   8.177   2.155
 1706ACTN    H617523   8.138   7.800   6.302
 1706ACTN    C317524   8.036   7.771   6.277
 1706ACTN    H417525   8.024   7.775   6.169
 1706ACTN    H517526   8.023   7.664   6.289
 1706ACTN    C217527   7.932   7.846   6.357
 1706ACTN    O117528   7.965   7.946   6.419
 1706ACTN    C117529   7.789   7.816   6.336
 1706ACTN    H117530   7.729   7.904   6.314
 1706ACTN    H217531   7.749   7.768   6.425
 1706ACTN    H317532   7.774   7.748   6.252
 1707ACTN    H617533   9.081   8.459   3.873
 1707ACTN    C317534   9.103   8.561   3.906
 1707ACTN    H417535   9.199   8.590   3.862
 1707ACTN    H517536   9.026   8.624   3.862
 1707ACTN    C217537   9.105   8.564   4.056
 1707ACTN    O117538   9.211   8.542   4.115
 1707ACTN    C117539   8.988   8.610   4.128
 1707ACTN    H117540   9.003   8.676   4.213
 1707ACTN    H217541   8.929   8.528   4.167
 1707ACTN    H317542   8.927   8.667   4.057
 1708ACTN    H617543   7.893   8.338   6.805
 1708ACTN    C317544   7.881   8.235   6.773
 1708ACTN    H417545   7.822   8.231   6.682
 1708ACTN    H517546   7.979   8.191   6.755
 1708ACTN    C217547   7.823   8.142   6.879
 1708ACTN    O117548   7.882   8.129   6.987
 1708ACTN    C117549   7.682   8.083   6.863
 1708ACTN    H117550   7.617   8.147   6.803
 1708ACTN    H217551   7.635   8.079   6.961
 1708ACTN    H317552   7.684   7.982   6.820
 1709ACTN    H617553   8.104   8.214   8.420
 1709ACTN    C317554   8.201   8.240   8.462
 1709ACTN    H417555   8.229   8.175   8.545
 1709ACTN    H517556   8.273   8.239   8.381
 1709ACTN    C217557   8.189   8.383   8.507
 1709ACTN    O117558   8.264   8.468   8.461
 1709ACTN    C117559   8.091   8.418   8.609
 1709ACTN    H117560   8.064   8.327   8.661
 1709ACTN    H217561   7.998   8.469   8.584
 1709ACTN    H317562   8.136   8.466   8.696
 1710ACTN    H617563   8.004   7.584   7.810
 1710ACTN    C317564   8.040   7.539   7.718
 1710ACTN    H417565   7.996   7.441   7.698
 1710ACTN    H517566   8.010   7.613   7.644
 1710ACTN    C217567   8.185   7.525   7.707
 1710ACTN    O117568   8.261   7.570   7.627
 1710ACTN    C117569   8.247   7.441   7.817
 1710ACTN    H117570   8.276   7.344   7.777
 1710ACTN    H217571   8.179   7.439   7.902
 1710ACTN    H317572   8.340   7.488   7.847
 1711ACTN    H617573   8.744   8.527   7.564
 1711ACTN    C317574   8.643   8.484   7.568
 1711ACTN    H417575   8.618   8.439   7.472
 1711ACTN    H517576   8.582   8.573   7.585
 1711ACTN    C217577   8.634   8.380   7.672
 1711ACTN    O117578   8.736   8.330   7.718
 1711ACTN    C117579   8.498   8.348   7.717
 1711ACTN    H117580   8.485   8.406   7.808
 1711ACTN    H217581   8.480   8.243   7.740
 1711ACTN    H317582   8.421   8.380   7.646
 1712ACTN    H617583   8.627   7.537   7.840
 1712ACTN    C317584   8.646   7.644   7.848
 1712ACTN    H417585   8.570   7.691   7.910
 1712ACTN    H517586   8.743   7.661   7.893
 1712ACTN    C217587   8.652   7.709   7.714
 1712ACTN    O117588   8.706   7.651   7.622
 1712ACTN    C117589   8.601   7.852   7.686
 1712ACTN    H117590   8.580   7.879   7.583
 1712ACTN    H217591   8.678   7.919   7.725
 1712ACTN    H317592   8.517   7.875   7.752
 1713ACTN    H617593   8.415   7.950   8.454
 1713ACTN    C317594   8.405   7.861   8.391
 1713ACTN    H417595   8.377   7.778   8.456
 1713ACTN    H517596   8.321   7.886   8.326
 1713ACTN    C217597   8.521   7.816   8.315
 1713ACTN    O117598   8.629   7.798   8.367
 1713ACTN    C117599   8.508   7.798   8.169
 1713ACTN    H117600   8.601   7.799   8.114
 1713ACTN    H217601   8.447   7.879   8.129
 1713ACTN    H317602   8.458   7.705   8.139
 1714ACTN    H617603   8.567   8.815   8.552
 1714ACTN    C317604   8.527   8.727   8.601
 1714ACTN    H417605   8.484   8.762   8.696
 1714ACTN    H517606   8.444   8.692   8.540
 1714ACTN    C217607   8.614   8.611   8.619
 1714ACTN    O117608   8.741   8.624   8.624
 1714ACTN    C117609   8.555   8.483   8.665
 1714ACTN    H117610   8.512   8.507   8.762
 1714ACTN    H217611   8.634   8.409   8.675
 1714ACTN    H317612   8.475   8.451   8.597
 1715ACTN    H617613   7.934   8.200   7.893
 1715ACTN    C317614   7.951   8.107   7.837
 1715ACTN    H417615   7.980   8.040   7.919
 1715ACTN    H517616   7.852   8.073   7.808
 1715ACTN    C217617   8.029   8.128   7.713
 1715ACTN    O117618   8.066   8.240   7.686
 1715ACTN    C117619   8.093   8.014   7.645
 1715ACTN    H117620   8.178   7.992   7.709
 1715ACTN    H217621   8.114   8.047   7.543
 1715ACTN    H317622   8.033   7.924   7.656
 1716SOL     OW17623   2.876   5.525   3.505
 1716SOL    HW117624   2.888   5.430   3.531
 1716SOL    HW217625   2.781   5.540   3.477
 1717SOL     OW17626   2.372   5.320   1.445
 1717SOL    HW117627   2.371   5.255   1.521
 1717SOL    HW217628   2.385   5.270   1.359
 1718SOL     OW17629   2.475   0.254   7.259
 1718SOL    HW117630   2.567   0.276   7.226
 1718SOL    HW217631   2.456   0.307   7.342
 1719SOL     OW17632   4.985   4.615   6.609
 1719SOL    HW117633   4.914   4.546   6.621
 1719SOL    HW217634   4.945   4.706   6.621
 1720SOL     OW17635   1.208   0.961   0.986
 1720SOL    HW117636   1.246   0.899   1.055
 1720SOL    HW217637   1.153   0.908   0.921
 1721SOL     OW17638   2.734   3.796   5.618
 1721SOL    HW117639   2.680   3.813   5.700
 1721SOL    HW217640   2.678   3.746   5.551
 1722SOL     OW17641   4.315   0.311   6.661
 1722SOL    HW117642   4.410   0.283   6.649
 1722SOL    HW217643   4.300   0.335   6.757
 1723SOL     OW17644   4.529   5.875   0.577
 1723SOL    HW117645   4.620   5.842   0.553
 1723SOL    HW217646   4.538   5.955   0.637
 1724SOL     OW17647   6.543   6.886   3.972
 1724SOL    HW117648   6.580   6.940   3.896
 1724SOL    HW217649   6.545   6.940   4.056
 1725SOL     OW17650   5.907   5.742   0.913
 1725SOL    HW117651   5.866   5.791   0.990
 1725SOL    HW217652   5.836   5.693   0.863
 1726SOL     OW17653   5.995   1.556   2.390
 1726SOL    HW117654   6.074   1.538   2.449
 1726SOL    HW217655   5.997   1.493   2.313
 1727SOL     OW17656   3.941   3.635   1.295
 1727SOL    HW117657   3.945   3.657   1.393
 1727SOL    HW217658   3.850   3.657   1.260
 1728SOL     OW17659   3.923   4.156   5.025
 1728SOL    HW117660   4.008   4.149   4.973
 1728SOL    HW217661   3.879   4.244   5.005
 1729SOL     OW17662   3.135   4.423   1.416
 1729SOL    HW117663   3.140   4.348   1.350
 1729SOL    HW217664   3.194   4.498   1.386
 1730SOL     OW17665   7.116   1.203   1.373
 1730SOL    HW117666   7.116   1.302   1.387
 1730SOL    HW217667   7.107   1.184   1.275
 1731SOL     OW17668   2.773   2.167   1.410
 1731SOL    HW117669   2.752   2.164   1.312
 1731SOL    HW217670   2.867   2.135   1.424
 1732SOL     OW17671   0.723   0.256   5.189
 1732SOL    HW117672   0.637   0.269   5.238
 1732SOL    HW217673   0.714   0.290   5.095
 1733SOL     OW17674   6.146   5.506   4.086
 1733SOL    HW117675   6.114   5.529   3.994
 1733SOL    HW217676   6.246   5.498   4.085
 1734SOL     OW17677   2.623   2.479   7.145
 1734SOL    HW117678   2.717   2.461   7.176
 1734SOL    HW217679   2.601   2.576   7.160
 1735SOL     OW17680   7.160   1.234   3.015
 1735SOL    HW117681   7.074   1.241   2.963
 1735SOL    HW217682   7.212   1.319   3.003
 1736SOL     OW17683   3.506   2.457   2.285
 1736SOL    HW117684   3.495   2.439   2.187
 1736SOL    HW217685   3.543   2.377   2.330
 1737SOL     OW17686   7.009   1.415   0.303
 1737SOL    HW117687   7.058   1.337   0.262
 1737SOL    HW217688   6.987   1.481   0.231
 1738SOL     OW17689   5.429   3.473   4.895
 1738SOL    HW117690   5.470   3.469   4.804
 1738SOL    HW217691   5.476   3.409   4.956
 1739SOL     OW17692   2.829   3.487   6.406
 1739SOL    HW117693   2.740   3.463   6.443
 1739SOL    HW217694   2.878   3.404   6.378
 1740SOL     OW17695   1.037   1.069   3.353
 1740SOL    HW117696   1.083   1.027   3.431
 1740SOL    HW217697   1.104   1.119   3.298
 1741SOL     OW17698   3.009   0.200   4.104
 1741SOL    HW117699   3.050   0.278   4.056
 1741SOL    HW217700   3.077   0.156   4.162
 1742SOL     OW17701   4.436   3.450   2.426
 1742SOL    HW117702   4.526   3.409   2.410
 1742SOL    HW217703   4.383   3.391   2.487
 1743SOL     OW17704   6.547   4.790   5.588
 1743SOL    HW117705   6.623   4.741   5.630
 1743SOL    HW217706   6.556   4.787   5.488
 1744SOL     OW17707   0.605   0.670   5.847
 1744SOL    HW117708   0.675   0.742   5.845
 1744SOL    HW217709   0.527   0.701   5.901
 1745SOL     OW17710   4.268   3.226   0.843
 1745SOL    HW117711   4.271   3.210   0.941
 1745SOL    HW217712   4.181   3.268   0.819
 1746SOL     OW17713   6.980   0.183   7.064
 1746SOL    HW117714   6.932   0.268   7.046
 1746SOL    HW217715   7.078   0.200   7.072
 1747SOL     OW17716   7.325   4.311   4.674
 1747SOL    HW117717   7.240   4.355   4.703
 1747SOL    HW217718   7.310   4.261   4.589
 1748SOL     OW17719   4.571   5.172   6.220
 1748SOL    HW117720   4.535   5.261   6.248
 1748SOL    HW217721   4.496   5.116   6.184
 1749SOL     OW17722   5.404   4.540   2.214
 1749SOL    HW117723   5.305   4.549   2.198
 1749SOL    HW217724   5.454   4.569   2.133
 1750SOL     OW17725   3.093   2.924   5.587
 1750SOL    HW117726   3.088   2.936   5.686
 1750SOL    HW217727   3.076   2.829   5.564
 1751SOL     OW17728   6.060   1.046   2.654
 1751SOL    HW117729   6.151   1.044   2.696
 1751SOL    HW217730   6.069   1.060   2.555
 1752SOL     OW17731   3.987   1.069   2.092
 1752SOL    HW117732   4.012   1.158   2.128
 1752SOL    HW217733   3.887   1.062   2.085
 1753SOL     OW17734   5.279   2.421   6.224
 1753SOL    HW117735   5.346   2.495   6.217
 1753SOL    HW217736   5.301   2.363   6.302
 1754SOL     OW17737   1.883   3.251   2.984
 1754SOL    HW117738   1.917   3.234   2.892
 1754SOL    HW217739   1.829   3.173   3.015
 1755SOL     OW17740   7.296   2.104   3.641
 1755SOL    HW117741   7.372   2.139   3.585
 1755SOL    HW217742   7.212   2.154   3.619
 1756SOL     OW17743   0.606   4.499   1.856
 1756SOL    HW117744   0.604   4.434   1.933
 1756SOL    HW217745   0.700   4.528   1.840
 1757SOL     OW17746   2.285   1.518   6.948
 1757SOL    HW117747   2.235   1.474   6.873
 1757SOL    HW217748   2.383   1.503   6.935
 1758SOL     OW17749   0.307   7.132   5.701
 1758SOL    HW117750   0.320   7.090   5.611
 1758SOL    HW217751   0.375   7.204   5.715
 1759SOL     OW17752   4.230   3.846   1.563
 1759SOL    HW117753   4.224   3.926   1.623
 1759SOL    HW217754   4.325   3.830   1.538
 1760SOL     OW17755   2.682   5.712   2.952
 1760SOL    HW117756   2.614   5.672   2.890
 1760SOL    HW217757   2.673   5.811   2.952
 1761SOL     OW17758   4.079   2.014   5.852
 1761SOL    HW117759   4.050   2.110   5.857
 1761SOL    HW217760   4.075   1.983   5.757
 1762SOL     OW17761   6.015   2.933   4.530
 1762SOL    HW117762   5.989   2.938   4.434
 1762SOL    HW217763   5.937   2.901   4.583
 1763SOL     OW17764   5.969   5.645   2.772
 1763SOL    HW117765   5.903   5.617   2.702
 1763SOL    HW217766   5.920   5.677   2.853
 1764SOL     OW17767   6.046   0.498   4.359
 1764SOL    HW117768   6.008   0.483   4.268
 1764SOL    HW217769   6.050   0.411   4.408
 1765SOL     OW17770   6.508   6.808   6.883
 1765SOL    HW117771   6.580   6.759   6.834
 1765SOL    HW217772   6.540   6.833   6.974
 1766SOL     OW17773   5.334   1.077   6.730
 1766SOL    HW117774   5.246   1.116   6.703
 1766SOL    HW217775   5.394   1.150   6.763
 1767SOL     OW17776   3.442   2.354   0.388
 1767SOL    HW117777   3.383   2.283   0.351
 1767SOL    HW217778   3.418   2.442   0.346
 1768SOL     OW17779   5.937   2.882   7.122
 1768SOL    HW117780   5.863   2.815   7.119
 1768SOL    HW217781   5.907   2.968   7.080
 1769SOL     OW17782   4.592   6.396   4.632
 1769SOL    HW117783   4.622   6.317   4.578
 1769SOL    HW217784   4.493   6.408   4.621
 1770SOL     OW17785   2.129   5.261   5.673
 1770SOL    HW117786   2.086   5.184   5.720
 1770SOL    HW217787   2.205   5.295   5.729
 1771SOL     OW17788   0.348   2.611   6.845
 1771SOL    HW117789   0.423   2.657   6.795
 1771SOL    HW217790   0.351   2.638   6.941
 1772SOL     OW17791   5.177   2.106   1.801
 1772SOL    HW117792   5.128   2.168   1.741
 1772SOL    HW217793   5.168   2.012   1.766
 1773SOL     OW17794   5.986   6.131   5.021
 1773SOL    HW117795   5.954   6.217   5.062
 1773SOL    HW217796   6.083   6.139   4.998
 1774SOL     OW17797   3.475   6.109   4.720
 1774SOL    HW117798   3.494   6.023   4.672
 1774SOL    HW217799   3.377   6.117   4.738
 1775SOL     OW17800   4.781   4.640   1.318
 1775SOL    HW117801   4.769   4.725   1.268
 1775SOL    HW217802   4.707   4.577   1.296
 1776SOL     OW17803   2.392   6.078   3.931
 1776SOL    HW117804   2.456   6.148   3.962
 1776SOL    HW217805   2.303   6.119   3.915
 1777SOL     OW17806   3.718   5.655   3.070
 1777SOL    HW117807   3.778   5.659   3.149
 1777SOL    HW217808   3.655   5.733   3.071
 1778SOL     OW17809   1.064   3.543   3.726
 1778SOL    HW117810   1.148   3.549   3.672
 1778SOL    HW217811   1.028   3.635   3.741
 1779SOL     OW17812   2.635   1.823   2.150
 1779SOL    HW117813   2.723   1.834   2.197
 1779SOL    HW217814   2.638   1.740   2.094
 1780SOL     OW17815   1.040   5.984   6.739
 1780SOL    HW117816   0.957   6.025   6.701
 1780SOL    HW217817   1.027   5.886   6.752
 1781SOL     OW17818   5.306   5.059   5.808
 1781SOL    HW117819   5.341   5.117   5.881
 1781SOL    HW217820   5.340   4.966   5.821
 1782SOL     OW17821   2.167   7.316   2.600
 1782SOL    HW117822   2.258   7.354   2.617
 1782SOL    HW217823   2.099   7.365   2.654
 1783SOL     OW17824   6.995   4.099   1.760
 1783SOL    HW117825   6.995   4.134   1.854
 1783SOL    HW217826   7.083   4.121   1.717
 1784SOL     OW17827   1.160   7.272   2.888
 1784SOL    HW117828   1.117   7.300   2.801
 1784SOL    HW217829   1.109   7.312   2.964
 1785SOL     OW17830   3.388   2.850   5.483
 1785SOL    HW117831   3.381   2.757   5.447
 1785SOL    HW217832   3.300   2.876   5.525
 1786SOL     OW17833   1.001   6.596   6.051
 1786SOL    HW117834   1.025   6.668   5.986
 1786SOL    HW217835   0.905   6.604   6.077
 1787SOL     OW17836   4.027   4.082   3.778
 1787SOL    HW117837   4.119   4.101   3.745
 1787SOL    HW217838   3.960   4.111   3.709
 1788SOL     OW17839   5.132   1.927   3.581
 1788SOL    HW117840   5.094   1.940   3.489
 1788SOL    HW217841   5.199   1.999   3.600
 1789SOL     OW17842   7.001   3.024   5.917
 1789SOL    HW117843   6.971   3.084   5.843
 1789SOL    HW217844   7.031   2.936   5.880
 1790SOL     OW17845   2.716   5.220   4.035
 1790SOL    HW117846   2.735   5.308   4.078
 1790SOL    HW217847   2.688   5.153   4.104
 1791SOL     OW17848   4.247   0.752   0.691
 1791SOL    HW117849   4.320   0.700   0.736
 1791SOL    HW217850   4.270   0.850   0.691
 1792SOL     OW17851   7.215   4.398   6.296
 1792SOL    HW117852   7.253   4.335   6.228
 1792SOL    HW217853   7.158   4.346   6.360
 1793SOL     OW17854   3.117   3.280   5.971
 1793SOL    HW117855   3.156   3.314   5.885
 1793SOL    HW217856   3.049   3.345   6.004
 1794SOL     OW17857   4.674   1.727   7.218
 1794SOL    HW117858   4.655   1.797   7.287
 1794SOL    HW217859   4.590   1.677   7.197
 1795SOL     OW17860   0.454   4.253   1.400
 1795SOL    HW117861   0.473   4.169   1.349
 1795SOL    HW217862   0.521   4.263   1.474
 1796SOL     OW17863   5.429   4.661   1.607
 1796SOL    HW117864   5.519   4.617   1.605
 1796SOL    HW217865   5.384   4.649   1.519
 1797SOL     OW17866   6.882   5.524   4.151
 1797SOL    HW117867   6.862   5.467   4.071
 1797SOL    HW217868   6.967   5.492   4.193
 1798SOL     OW17869   4.683   4.934   6.973
 1798SOL    HW117870   4.775   4.904   6.949
 1798SOL    HW217871   4.686   4.984   7.060
 1799SOL     OW17872   2.479   5.816   0.554
 1799SOL    HW117873   2.509   5.744   0.617
 1799SOL    HW217874   2.395   5.858   0.589
 1800SOL     OW17875   6.900   2.381   1.206
 1800SOL    HW117876   6.909   2.291   1.162
 1800SOL    HW217877   6.905   2.370   1.305
 1801SOL     OW17878   4.041   7.246   5.799
 1801SOL    HW117879   4.087   7.158   5.812
 1801SOL    HW217880   4.082   7.315   5.860
 1802SOL     OW17881   0.588   5.696   4.609
 1802SOL    HW117882   0.518   5.699   4.680
 1802SOL    HW217883   0.611   5.789   4.580
 1803SOL     OW17884   1.875   4.260   1.172
 1803SOL    HW117885   1.777   4.279   1.176
 1803SOL    HW217886   1.892   4.183   1.111
 1804SOL     OW17887   6.075   5.148   1.240
 1804SOL    HW117888   6.163   5.172   1.282
 1804SOL    HW217889   6.035   5.230   1.200
 1805SOL     OW17890   2.690   1.904   1.601
 1805SOL    HW117891   2.774   1.851   1.612
 1805SOL    HW217892   2.684   1.938   1.507
 1806SOL     OW17893   5.912   0.397   6.570
 1806SOL    HW117894   5.954   0.314   6.607
 1806SOL    HW217895   5.870   0.449   6.645
 1807SOL     OW17896   0.428   2.143   7.250
 1807SOL    HW117897   0.394   2.075   7.314
 1807SOL    HW217898   0.459   2.224   7.300
 1808SOL     OW17899   1.146   2.251   0.670
 1808SOL    HW117900   1.214   2.179   0.682
 1808SOL    HW217901   1.176   2.314   0.598
 1809SOL     OW17902   2.760   3.801   7.025
 1809SOL    HW117903   2.767   3.893   6.986
 1809SOL    HW217904   2.804   3.799   7.115
 1810SOL     OW17905   6.939   4.442   6.160
 1810SOL    HW117906   6.909   4.346   6.158
 1810SOL    HW217907   7.012   4.452   6.227
 1811SOL     OW17908   3.955   5.571   2.964
 1811SOL    HW117909   3.869   5.610   2.998
 1811SOL    HW217910   3.957   5.473   2.984
 1812SOL     OW17911   0.441   2.596   0.567
 1812SOL    HW117912   0.485   2.506   0.572
 1812SOL    HW217913   0.481   2.648   0.491
 1813SOL     OW17914   5.719   3.917   3.696
 1813SOL    HW117915   5.758   3.959   3.778
 1813SOL    HW217916   5.780   3.932   3.619
 1814SOL     OW17917   6.123   3.758   3.710
 1814SOL    HW117918   6.123   3.849   3.751
 1814SOL    HW217919   6.213   3.738   3.673
 1815SOL     OW17920   6.487   4.532   0.642
 1815SOL    HW117921   6.434   4.603   0.597
 1815SOL    HW217922   6.426   4.458   0.671
 1816SOL     OW17923   3.911   6.961   5.942
 1816SOL    HW117924   3.830   6.941   5.886
 1816SOL    HW217925   3.989   6.980   5.882
 1817SOL     OW17926   6.511   3.979   7.330
 1817SOL    HW117927   6.466   3.897   7.365
 1817SOL    HW217928   6.483   4.058   7.385
 1818SOL     OW17929   3.998   2.314   5.723
 1818SOL    HW117930   3.920   2.273   5.676
 1818SOL    HW217931   3.980   2.411   5.738
 1819SOL     OW17932   5.349   7.340   7.202
 1819SOL    HW117933   5.436   7.348   7.250
 1819SOL    HW217934   5.343   7.250   7.159
 1820SOL     OW17935   2.170   7.131   3.020
 1820SOL    HW117936   2.269   7.135   3.008
 1820SOL    HW217937   2.145   7.172   3.107
 1821SOL     OW17938   0.383   6.157   6.926
 1821SOL    HW117939   0.304   6.177   6.983
 1821SOL    HW217940   0.416   6.064   6.946
 1822SOL     OW17941   5.419   2.237   6.407
 1822SOL    HW117942   5.513   2.232   6.376
 1822SOL    HW217943   5.416   2.227   6.506
 1823SOL     OW17944   5.659   6.051   6.705
 1823SOL    HW117945   5.632   6.124   6.643
 1823SOL    HW217946   5.580   5.993   6.724
 1824SOL     OW17947   2.964   1.842   0.849
 1824SOL    HW117948   2.949   1.937   0.823
 1824SOL    HW217949   2.878   1.802   0.882
 1825SOL     OW17950   3.201   7.203   1.105
 1825SOL    HW117951   3.209   7.120   1.049
 1825SOL    HW217952   3.107   7.214   1.135
 1826SOL     OW17953   6.698   0.194   0.821
 1826SOL    HW117954   6.688   0.175   0.724
 1826SOL    HW217955   6.704   0.108   0.872
 1827SOL     OW17956   4.704   1.309   3.397
 1827SOL    HW117957   4.662   1.245   3.462
 1827SOL    HW217958   4.722   1.261   3.311
 1828SOL     OW17959   5.613   6.631   6.410
 1828SOL    HW117960   5.684   6.566   6.439
 1828SOL    HW217961   5.547   6.583   6.351
 1829SOL     OW17962   5.840   0.980   1.514
 1829SOL    HW117963   5.932   0.941   1.518
 1829SOL    HW217964   5.802   0.986   1.607
 1830SOL     OW17965   1.017   5.932   0.532
 1830SOL    HW117966   1.042   5.848   0.485
 1830SOL    HW217967   0.950   5.982   0.477
 1831SOL     OW17968   2.629   0.443   1.149
 1831SOL    HW117969   2.679   0.396   1.222
 1831SOL    HW217970   2.531   0.444   1.172
 1832SOL     OW17971   3.850   2.552   2.895
 1832SOL    HW117972   3.947   2.531   2.905
 1832SOL    HW217973   3.796   2.484   2.945
 1833SOL     OW17974   5.403   4.216   2.609
 1833SOL    HW117975   5.417   4.251   2.516
 1833SOL    HW217976   5.366   4.123   2.604
 1834SOL     OW17977   5.867   6.354   5.181
 1834SOL    HW117978   5.785   6.396   5.145
 1834SOL    HW217979   5.929   6.424   5.217
 1835SOL     OW17980   4.190   3.612   6.467
 1835SOL    HW117981   4.257   3.577   6.533
 1835SOL    HW217982   4.112   3.650   6.517
 1836SOL     OW17983   5.750   2.779   4.484
 1836SOL    HW117984   5.774   2.699   4.429
 1836SOL    HW217985   5.653   2.801   4.472
 1837SOL     OW17986   0.070   4.253   6.614
 1837SOL    HW117987   0.042   4.323   6.549
 1837SOL    HW217988   0.170   4.254   6.622
 1838SOL     OW17989   5.422   3.152   0.130
 1838SOL    HW117990   5.521   3.146   0.115
 1838SOL    HW217991   5.374   3.099   0.060
 1839SOL     OW17992   1.094   3.582   2.934
 1839SOL    HW117993   1.041   3.583   2.849
 1839SOL    HW217994   1.191   3.573   2.913
 1840SOL     OW17995   1.042   3.249   0.474
 1840SOL    HW117996   0.998   3.229   0.561
 1840SOL    HW217997   1.041   3.348   0.457
 1841SOL     OW17998   3.991   0.671   3.331
 1841SOL    HW117999   4.043   0.737   3.277
 1841SOL    HW218000   4.016   0.578   3.302
 1842SOL     OW18001   4.041   0.154   0.435
 1842SOL    HW118002   4.070   0.067   0.396
 1842SOL    HW218003   3.983   0.138   0.515
 1843SOL     OW18004   5.477   0.129   2.615
 1843SOL    HW118005   5.544   0.065   2.652
 1843SOL    HW218006   5.524   0.199   2.561
 1844SOL     OW18007   4.437   2.849   2.921
 1844SOL    HW118008   4.384   2.814   2.843
 1844SOL    HW218009   4.530   2.871   2.890
 1845SOL     OW18010   6.971   1.335   7.016
 1845SOL    HW118011   7.024   1.407   6.973
 1845SOL    HW218012   7.031   1.279   7.073
 1846SOL     OW18013   6.841   5.405   7.344
 1846SOL    HW118014   6.933   5.410   7.306
 1846SOL    HW218015   6.812   5.310   7.349
 1847SOL     OW18016   0.108   4.422   2.380
 1847SOL    HW118017   0.030   4.360   2.371
 1847SOL    HW218018   0.139   4.422   2.475
 1848SOL     OW18019   5.346   3.647   1.339
 1848SOL    HW118020   5.444   3.638   1.318
 1848SOL    HW218021   5.334   3.714   1.412
 1849SOL     OW18022   6.362   2.727   6.555
 1849SOL    HW118023   6.428   2.669   6.602
 1849SOL    HW218024   6.271   2.711   6.592
 1850SOL     OW18025   6.879   5.439   0.429
 1850SOL    HW118026   6.817   5.430   0.507
 1850SOL    HW218027   6.932   5.355   0.418
 1851SOL     OW18028   1.615   5.863   5.122
 1851SOL    HW118029   1.571   5.774   5.106
 1851SOL    HW218030   1.658   5.894   5.037
 1852SOL     OW18031   1.827   1.372   0.771
 1852SOL    HW118032   1.833   1.354   0.870
 1852SOL    HW218033   1.918   1.394   0.736
 1853SOL     OW18034   1.852   0.469   3.054
 1853SOL    HW118035   1.944   0.430   3.059
 1853SOL    HW218036   1.790   0.415   3.112
 1854SOL     OW18037   0.008   1.948   3.371
 1854SOL    HW118038   0.058   1.873   3.413
 1854SOL    HW218039  -0.086   1.949   3.405
 1855SOL     OW18040   1.524   1.908   1.679
 1855SOL    HW118041   1.537   1.826   1.622
 1855SOL    HW218042   1.507   1.987   1.620
 1856SOL     OW18043   2.002   1.513   0.240
 1856SOL    HW118044   1.972   1.466   0.323
 1856SOL    HW218045   2.101   1.527   0.245
 1857SOL     OW18046   3.587   7.068   7.179
 1857SOL    HW118047   3.511   7.125   7.211
 1857SOL    HW218048   3.551   6.990   7.128
 1858SOL     OW18049   2.394   3.614   1.907
 1858SOL    HW118050   2.405   3.693   1.847
 1858SOL    HW218051   2.461   3.544   1.882
 1859SOL     OW18052   7.002   5.229   0.518
 1859SOL    HW118053   7.075   5.243   0.585
 1859SOL    HW218054   6.985   5.131   0.506
 1860SOL     OW18055   5.627   3.785   0.377
 1860SOL    HW118056   5.584   3.699   0.349
 1860SOL    HW218057   5.586   3.815   0.463
 1861SOL     OW18058   5.472   0.768   1.613
 1861SOL    HW118059   5.464   0.804   1.706
 1861SOL    HW218060   5.548   0.703   1.609
 1862SOL     OW18061   2.474   7.100   3.904
 1862SOL    HW118062   2.526   7.055   3.976
 1862SOL    HW218063   2.537   7.145   3.840
 1863SOL     OW18064   0.727   4.091   5.446
 1863SOL    HW118065   0.744   4.181   5.486
 1863SOL    HW218066   0.733   4.098   5.346
 1864SOL     OW18067   5.016   6.718   6.942
 1864SOL    HW118068   4.973   6.631   6.918
 1864SOL    HW218069   5.000   6.784   6.868
 1865SOL     OW18070   5.248   0.922   7.154
 1865SOL    HW118071   5.173   0.884   7.101
 1865SOL    HW218072   5.333   0.914   7.102
 1866SOL     OW18073   3.765   1.606   4.428
 1866SOL    HW118074   3.695   1.601   4.357
 1866SOL    HW218075   3.845   1.653   4.392
 1867SOL     OW18076   3.104   1.045   1.257
 1867SOL    HW118077   3.203   1.055   1.247
 1867SOL    HW218078   3.057   1.119   1.208
 1868SOL     OW18079   2.375   7.073   2.098
 1868SOL    HW118080   2.304   7.009   2.124
 1868SOL    HW218081   2.456   7.023   2.068
 1869SOL     OW18082   5.465   5.345   1.857
 1869SOL    HW118083   5.497   5.400   1.780
 1869SOL    HW218084   5.515   5.371   1.940
 1870SOL     OW18085   4.915   4.811   0.366
 1870SOL    HW118086   4.915   4.711   0.364
 1870SOL    HW218087   5.004   4.845   0.336
 1871SOL     OW18088   3.568   5.843   4.091
 1871SOL    HW118089   3.667   5.831   4.102
 1871SOL    HW218090   3.547   5.858   3.994
 1872SOL     OW18091   6.817   2.085   4.603
 1872SOL    HW118092   6.782   2.084   4.696
 1872SOL    HW218093   6.899   2.142   4.598
 1873SOL     OW18094   5.964   0.799   0.871
 1873SOL    HW118095   5.934   0.809   0.776
 1873SOL    HW218096   5.977   0.702   0.892
 1874SOL     OW18097   1.455   5.448   0.559
 1874SOL    HW118098   1.447   5.547   0.553
 1874SOL    HW218099   1.376   5.411   0.609
 1875SOL     OW18100   6.825   2.469   7.283
 1875SOL    HW118101   6.913   2.512   7.304
 1875SOL    HW218102   6.784   2.515   7.204
 1876SOL     OW18103   4.589   6.103   2.034
 1876SOL    HW118104   4.628   6.181   1.984
 1876SOL    HW218105   4.497   6.084   2.001
 1877SOL     OW18106   6.307   4.379   0.798
 1877SOL    HW118107   6.345   4.359   0.889
 1877SOL    HW218108   6.222   4.431   0.809
 1878SOL     OW18109   7.267   2.369   6.288
 1878SOL    HW118110   7.238   2.326   6.202
 1878SOL    HW218111   7.203   2.442   6.311
 1879SOL     OW18112   4.033   3.664   0.944
 1879SOL    HW118113   4.064   3.657   1.039
 1879SOL    HW218114   4.030   3.573   0.903
 1880SOL     OW18115   7.258   4.232   0.323
 1880SOL    HW118116   7.209   4.202   0.242
 1880SOL    HW218117   7.347   4.269   0.297
 1881SOL     OW18118   4.415   4.318   6.380
 1881SOL    HW118119   4.493   4.256   6.371
 1881SOL    HW218120   4.444   4.400   6.430
 1882SOL     OW18121   6.172   3.259   2.828
 1882SOL    HW118122   6.178   3.356   2.805
 1882SOL    HW218123   6.242   3.208   2.777
 1883SOL     OW18124   2.471   2.155   0.772
 1883SOL    HW118125   2.390   2.213   0.778
 1883SOL    HW218126   2.492   2.137   0.676
 1884SOL     OW18127   7.262   5.923   6.828
 1884SOL    HW118128   7.293   5.906   6.735
 1884SOL    HW218129   7.247   6.021   6.841
 1885SOL     OW18130   6.738   1.046   6.721
 1885SOL    HW118131   6.657   1.099   6.748
 1885SOL    HW218132   6.809   1.056   6.792
 1886SOL     OW18133   0.425   6.309   6.695
 1886SOL    HW118134   0.336   6.344   6.666
 1886SOL    HW218135   0.415   6.258   6.781
 1887SOL     OW18136   2.564   5.952   1.692
 1887SOL    HW118137   2.514   5.891   1.754
 1887SOL    HW218138   2.519   6.041   1.689
 1888SOL     OW18139   4.942   1.009   3.170
 1888SOL    HW118140   5.041   1.017   3.162
 1888SOL    HW218141   4.918   0.976   3.261
 1889SOL     OW18142   0.966   0.156   0.898
 1889SOL    HW118143   0.877   0.145   0.942
 1889SOL    HW218144   0.984   0.077   0.839
 1890SOL     OW18145   0.929   2.976   1.055
 1890SOL    HW118146   0.911   3.028   1.139
 1890SOL    HW218147   1.027   2.959   1.047
 1891SOL     OW18148   1.062   2.542   5.962
 1891SOL    HW118149   1.014   2.597   5.895
 1891SOL    HW218150   1.109   2.603   6.027
 1892SOL     OW18151   1.211   5.419   0.699
 1892SOL    HW118152   1.151   5.428   0.620
 1892SOL    HW218153   1.200   5.498   0.759
 1893SOL     OW18154   5.709   1.111   0.158
 1893SOL    HW118155   5.686   1.162   0.241
 1893SOL    HW218156   5.771   1.036   0.181
 1894SOL     OW18157   1.576   0.358   6.420
 1894SOL    HW118158   1.491   0.308   6.400
 1894SOL    HW218159   1.561   0.418   6.499
 1895SOL     OW18160   5.777   3.093   6.977
 1895SOL    HW118161   5.713   3.164   7.006
 1895SOL    HW218162   5.840   3.131   6.909
 1896SOL     OW18163   2.596   3.804   5.371
 1896SOL    HW118164   2.512   3.849   5.340
 1896SOL    HW218165   2.582   3.705   5.372
 1897SOL     OW18166   0.130   4.038   5.047
 1897SOL    HW118167   0.050   4.069   4.995
 1897SOL    HW218168   0.121   4.065   5.142
 1898SOL     OW18169   1.417   6.105   6.436
 1898SOL    HW118170   1.342   6.043   6.455
 1898SOL    HW218171   1.402   6.150   6.348
 1899SOL     OW18172   0.565   0.565   2.550
 1899SOL    HW118173   0.538   0.660   2.539
 1899SOL    HW218174   0.640   0.558   2.616
 1900SOL     OW18175   4.706   4.698   2.913
 1900SOL    HW118176   4.709   4.789   2.955
 1900SOL    HW218177   4.668   4.632   2.978
 1901SOL     OW18178   2.571   3.335   4.282
 1901SOL    HW118179   2.635   3.363   4.354
 1901SOL    HW218180   2.575   3.236   4.270
 1902SOL     OW18181   1.496   2.107   3.546
 1902SOL    HW118182   1.508   2.049   3.626
 1902SOL    HW218183   1.581   2.112   3.495
 1903SOL     OW18184   5.465   5.268   1.541
 1903SOL    HW118185   5.382   5.297   1.492
 1903SOL    HW218186   5.513   5.348   1.576
 1904SOL     OW18187   3.188   4.635   5.747
 1904SOL    HW118188   3.187   4.559   5.811
 1904SOL    HW218189   3.102   4.637   5.696
 1905SOL     OW18190   6.404   6.464   6.983
 1905SOL    HW118191   6.362   6.380   7.017
 1905SOL    HW218192   6.333   6.534   6.971
 1906SOL     OW18193   5.218   6.718   3.505
 1906SOL    HW118194   5.306   6.729   3.459
 1906SOL    HW218195   5.179   6.807   3.525
 1907SOL     OW18196   4.095   1.679   5.376
 1907SOL    HW118197   4.005   1.696   5.335
 1907SOL    HW218198   4.091   1.699   5.474
 1908SOL     OW18199   0.105   5.979   7.344
 1908SOL    HW118200   0.114   6.046   7.417
 1908SOL    HW218201   0.026   6.002   7.286
 1909SOL     OW18202   3.957   3.615   0.433
 1909SOL    HW118203   3.926   3.523   0.409
 1909SOL    HW218204   4.057   3.617   0.433
 1910SOL     OW18205   1.511   0.891   2.195
 1910SOL    HW118206   1.428   0.836   2.197
 1910SOL    HW218207   1.558   0.877   2.107
 1911SOL     OW18208   4.121   6.889   3.909
 1911SOL    HW118209   4.074   6.824   3.969
 1911SOL    HW218210   4.130   6.977   3.956
 1912SOL     OW18211   7.232   3.498   0.131
 1912SOL    HW118212   7.220   3.417   0.189
 1912SOL    HW218213   7.194   3.480   0.041
 1913SOL     OW18214   4.608   5.837   5.144
 1913SOL    HW118215   4.688   5.792   5.104
 1913SOL    HW218216   4.633   5.928   5.177
 1914SOL     OW18217   3.016   0.138   2.534
 1914SOL    HW118218   3.014   0.069   2.461
 1914SOL    HW218219   2.955   0.109   2.608
 1915SOL     OW18220   6.711   0.905   0.570
 1915SOL    HW118221   6.758   0.868   0.490
 1915SOL    HW218222   6.726   1.003   0.575
 1916SOL     OW18223   0.326   7.084   0.470
 1916SOL    HW118224   0.399   7.136   0.425
 1916SOL    HW218225   0.294   7.012   0.409
 1917SOL     OW18226   5.025   2.767   1.153
 1917SOL    HW118227   4.974   2.840   1.108
 1917SOL    HW218228   5.118   2.797   1.170
 1918SOL     OW18229   6.746   1.720   2.667
 1918SOL    HW118230   6.711   1.812   2.682
 1918SOL    HW218231   6.728   1.664   2.748
 1919SOL     OW18232   3.388   6.800   1.954
 1919SOL    HW118233   3.406   6.866   2.026
 1919SOL    HW218234   3.324   6.731   1.987
 1920SOL     OW18235   4.206   6.213   5.469
 1920SOL    HW118236   4.230   6.118   5.489
 1920SOL    HW218237   4.159   6.218   5.381
 1921SOL     OW18238   4.335   1.005   4.846
 1921SOL    HW118239   4.290   0.982   4.932
 1921SOL    HW218240   4.429   0.971   4.847
 1922SOL     OW18241   6.650   3.642   2.413
 1922SOL    HW118242   6.733   3.590   2.435
 1922SOL    HW218243   6.570   3.594   2.451
 1923SOL     OW18244   4.561   2.977   1.810
 1923SOL    HW118245   4.550   3.055   1.872
 1923SOL    HW218246   4.570   3.011   1.716
 1924SOL     OW18247   7.317   2.455   7.220
 1924SOL    HW118248   7.416   2.448   7.231
 1924SOL    HW218249   7.284   2.378   7.165
 1925SOL     OW18250   6.251   4.686   3.894
 1925SOL    HW118251   6.168   4.708   3.842
 1925SOL    HW218252   6.331   4.722   3.847
 1926SOL     OW18253   2.597   3.063   4.330
 1926SOL    HW118254   2.633   3.085   4.421
 1926SOL    HW218255   2.673   3.038   4.270
 1927SOL     OW18256   4.265   2.161   5.396
 1927SOL    HW118257   4.224   2.251   5.406
 1927SOL    HW218258   4.220   2.096   5.457
 1928SOL     OW18259   1.060   3.902   5.452
 1928SOL    HW118260   1.009   3.904   5.538
 1928SOL    HW218261   1.018   3.835   5.390
 1929SOL     OW18262   4.851   5.378   4.901
 1929SOL    HW118263   4.883   5.443   4.970
 1929SOL    HW218264   4.920   5.305   4.890
 1930SOL     OW18265   2.785   6.006   1.046
 1930SOL    HW118266   2.756   5.911   1.031
 1930SOL    HW218267   2.823   6.043   0.961
 1931SOL     OW18268   5.688   0.295   2.506
 1931SOL    HW118269   5.760   0.241   2.463
 1931SOL    HW218270   5.716   0.320   2.599
 1932SOL     OW18271   3.898   1.397   3.536
 1932SOL    HW118272   3.943   1.308   3.548
 1932SOL    HW218273   3.807   1.384   3.498
 1933SOL     OW18274   5.083   5.636   5.631
 1933SOL    HW118275   5.072   5.570   5.556
 1933SOL    HW218276   5.170   5.619   5.677
 1934SOL     OW18277   2.481   3.700   3.860
 1934SOL    HW118278   2.386   3.731   3.858
 1934SOL    HW218279   2.490   3.618   3.804
 1935SOL     OW18280   5.951   2.474   6.594
 1935SOL    HW118281   5.976   2.496   6.500
 1935SOL    HW218282   5.946   2.559   6.648
 1936SOL     OW18283   6.844   2.725   4.029
 1936SOL    HW118284   6.896   2.652   3.987
 1936SOL    HW218285   6.903   2.778   4.091
 1937SOL     OW18286   2.802   3.681   1.130
 1937SOL    HW118287   2.877   3.652   1.070
 1937SOL    HW218288   2.726   3.617   1.121
 1938SOL     OW18289   6.787   6.421   6.584
 1938SOL    HW118290   6.827   6.512   6.593
 1938SOL    HW218291   6.690   6.430   6.559
 1939SOL     OW18292   7.174   0.513   2.457
 1939SOL    HW118293   7.107   0.542   2.389
 1939SOL    HW218294   7.127   0.467   2.532
 1940SOL     OW18295   5.258   0.758   3.649
 1940SOL    HW118296   5.283   0.718   3.738
 1940SOL    HW218297   5.164   0.733   3.627
 1941SOL     OW18298   4.246   0.372   1.059
 1941SOL    HW118299   4.209   0.367   0.966
 1941SOL    HW218300   4.303   0.293   1.076
 1942SOL     OW18301   4.486   6.634   6.103
 1942SOL    HW118302   4.478   6.553   6.160
 1942SOL    HW218303   4.580   6.642   6.070
 1943SOL     OW18304   0.098   3.556   1.128
 1943SOL    HW118305   0.028   3.592   1.189
 1943SOL    HW218306   0.148   3.483   1.174
 1944SOL     OW18307   6.225   0.835   5.440
 1944SOL    HW118308   6.174   0.871   5.362
 1944SOL    HW218309   6.320   0.817   5.413
 1945SOL     OW18310   3.363   6.078   6.326
 1945SOL    HW118311   3.425   6.139   6.276
 1945SOL    HW218312   3.412   5.994   6.349
 1946SOL     OW18313   0.156   1.027   5.542
 1946SOL    HW118314   0.216   1.055   5.468
 1946SOL    HW218315   0.204   0.964   5.603
 1947SOL     OW18316   1.301   1.928   0.258
 1947SOL    HW118317   1.335   1.930   0.163
 1947SOL    HW218318   1.375   1.898   0.318
 1948SOL     OW18319   6.822   5.003   6.795
 1948SOL    HW118320   6.843   5.033   6.702
 1948SOL    HW218321   6.906   5.002   6.849
 1949SOL     OW18322   6.679   2.566   6.385
 1949SOL    HW118323   6.721   2.491   6.334
 1949SOL    HW218324   6.621   2.620   6.323
 1950SOL     OW18325   0.753   4.697   2.132
 1950SOL    HW118326   0.707   4.623   2.183
 1950SOL    HW218327   0.691   4.731   2.061
 1951SOL     OW18328   1.852   5.067   5.107
 1951SOL    HW118329   1.778   5.132   5.089
 1951SOL    HW218330   1.859   5.002   5.031
 1952SOL     OW18331   4.548   7.114   0.887
 1952SOL    HW118332   4.644   7.118   0.915
 1952SOL    HW218333   4.491   7.105   0.969
 1953SOL     OW18334   4.077   6.033   6.059
 1953SOL    HW118335   4.106   5.943   6.093
 1953SOL    HW218336   4.142   6.065   5.990
 1954SOL     OW18337   2.729   3.120   4.549
 1954SOL    HW118338   2.717   3.164   4.638
 1954SOL    HW218339   2.814   3.067   4.549
 1955SOL     OW18340   7.017   1.563   2.890
 1955SOL    HW118341   7.027   1.648   2.837
 1955SOL    HW218342   7.107   1.528   2.915
 1956SOL     OW18343   6.551   6.521   0.027
 1956SOL    HW118344   6.494   6.448  -0.011
 1956SOL    HW218345   6.565   6.592  -0.042
 1957SOL     OW18346   2.198   0.145   0.034
 1957SOL    HW118347   2.291   0.144  -0.002
 1957SOL    HW218348   2.154   0.232   0.012
 1958SOL     OW18349   1.276   1.245   0.901
 1958SOL    HW118350   1.292   1.148   0.918
 1958SOL    HW218351   1.183   1.269   0.929
 1959SOL     OW18352   6.129   5.520   2.990
 1959SOL    HW118353   6.106   5.425   2.970
 1959SOL    HW218354   6.097   5.578   2.915
 1960SOL     OW18355   6.003   7.117   4.162
 1960SOL    HW118356   5.985   7.022   4.189
 1960SOL    HW218357   6.030   7.120   4.066
 1961SOL     OW18358   4.844   3.172   5.399
 1961SOL    HW118359   4.763   3.136   5.353
 1961SOL    HW218360   4.925   3.121   5.370
 1962SOL     OW18361   1.126   2.475   3.389
 1962SOL    HW118362   1.183   2.404   3.347
 1962SOL    HW218363   1.060   2.432   3.451
 1963SOL     OW18364   4.594   4.559   7.057
 1963SOL    HW118365   4.515   4.615   7.035
 1963SOL    HW218366   4.665   4.571   6.987
 1964SOL     OW18367   3.723   5.940   6.238
 1964SOL    HW118368   3.729   6.032   6.200
 1964SOL    HW218369   3.721   5.872   6.164
 1965SOL     OW18370   2.340   2.899   2.872
 1965SOL    HW118371   2.275   2.971   2.846
 1965SOL    HW218372   2.293   2.811   2.875
 1966SOL     OW18373   2.594   2.769   2.516
 1966SOL    HW118374   2.556   2.699   2.576
 1966SOL    HW218375   2.637   2.841   2.570
 1967SOL     OW18376   2.628   2.090   4.578
 1967SOL    HW118377   2.585   2.007   4.543
 1967SOL    HW218378   2.559   2.149   4.619
 1968SOL     OW18379   2.659   4.240   1.547
 1968SOL    HW118380   2.758   4.239   1.531
 1968SOL    HW218381   2.611   4.240   1.459
 1969SOL     OW18382   3.697   0.367   3.290
 1969SOL    HW118383   3.685   0.329   3.381
 1969SOL    HW218384   3.628   0.438   3.275
 1970SOL     OW18385   5.395   3.210   2.169
 1970SOL    HW118386   5.440   3.286   2.216
 1970SOL    HW218387   5.440   3.195   2.081
 1971SOL     OW18388   1.434   4.132   5.934
 1971SOL    HW118389   1.373   4.079   5.875
 1971SOL    HW218390   1.401   4.129   6.028
 1972SOL     OW18391   7.315   4.317   2.066
 1972SOL    HW118392   7.362   4.251   2.124
 1972SOL    HW218393   7.368   4.330   1.982
 1973SOL     OW18394   4.447   2.507   1.879
 1973SOL    HW118395   4.413   2.535   1.969
 1973SOL    HW218396   4.524   2.567   1.853
 1974SOL     OW18397   0.860   5.388   2.109
 1974SOL    HW118398   0.879   5.429   2.198
 1974SOL    HW218399   0.806   5.305   2.121
 1975SOL     OW18400   7.136   5.551   1.970
 1975SOL    HW118401   7.055   5.494   1.956
 1975SOL    HW218402   7.218   5.501   1.942
 1976SOL     OW18403   6.485   7.097   5.168
 1976SOL    HW118404   6.534   7.059   5.247
 1976SOL    HW218405   6.409   7.154   5.201
 1977SOL     OW18406   5.499   5.561   2.794
 1977SOL    HW118407   5.428   5.491   2.782
 1977SOL    HW218408   5.523   5.568   2.891
 1978SOL     OW18409   3.681   4.803   0.181
 1978SOL    HW118410   3.695   4.747   0.100
 1978SOL    HW218411   3.596   4.776   0.227
 1979SOL     OW18412   2.109   4.813   4.486
 1979SOL    HW118413   2.189   4.812   4.547
 1979SOL    HW218414   2.141   4.820   4.392
 1980SOL     OW18415   0.648   6.291   4.662
 1980SOL    HW118416   0.560   6.294   4.615
 1980SOL    HW218417   0.688   6.383   4.664
 1981SOL     OW18418   4.107   2.196   1.929
 1981SOL    HW118419   4.059   2.109   1.928
 1981SOL    HW218420   4.069   2.256   1.858
 1982SOL     OW18421   1.741   5.489   4.916
 1982SOL    HW118422   1.817   5.555   4.916
 1982SOL    HW218423   1.735   5.445   4.826
 1983SOL     OW18424   5.529   0.025   0.966
 1983SOL    HW118425   5.594   0.027   1.042
 1983SOL    HW218426   5.576   0.045   0.880
 1984SOL     OW18427   0.277   0.771   6.115
 1984SOL    HW118428   0.244   0.683   6.081
 1984SOL    HW218429   0.217   0.803   6.189
 1985SOL     OW18430   4.877   2.705   6.939
 1985SOL    HW118431   4.950   2.640   6.960
 1985SOL    HW218432   4.858   2.763   7.019
 1986SOL     OW18433   2.336   5.159   4.654
 1986SOL    HW118434   2.270   5.234   4.651
 1986SOL    HW218435   2.326   5.102   4.573
 1987SOL     OW18436   4.702   3.361   4.740
 1987SOL    HW118437   4.685   3.273   4.695
 1987SOL    HW218438   4.743   3.345   4.829
 1988SOL     OW18439   3.287   2.207   3.840
 1988SOL    HW118440   3.210   2.163   3.887
 1988SOL    HW218441   3.361   2.224   3.906
 1989SOL     OW18442   2.887   1.334   6.583
 1989SOL    HW118443   2.936   1.395   6.646
 1989SOL    HW218444   2.949   1.303   6.511
 1990SOL     OW18445   5.811   6.221   4.373
 1990SOL    HW118446   5.874   6.265   4.310
 1990SOL    HW218447   5.850   6.222   4.465
 1991SOL     OW18448   5.250   5.396   3.082
 1991SOL    HW118449   5.322   5.403   3.150
 1991SOL    HW218450   5.170   5.351   3.122
 1992SOL     OW18451   3.885   3.642   6.395
 1992SOL    HW118452   3.886   3.548   6.430
 1992SOL    HW218453   3.965   3.655   6.335
 1993SOL     OW18454   5.163   6.489   4.387
 1993SOL    HW118455   5.102   6.414   4.413
 1993SOL    HW218456   5.114   6.576   4.393
 1994SOL     OW18457   0.515   4.913   1.061
 1994SOL    HW118458   0.499   4.974   0.984
 1994SOL    HW218459   0.548   4.966   1.139
 1995SOL     OW18460   2.788   1.875   5.434
 1995SOL    HW118461   2.733   1.868   5.350
 1995SOL    HW218462   2.881   1.901   5.410
 1996SOL     OW18463   0.913   4.662   6.908
 1996SOL    HW118464   0.890   4.594   6.978
 1996SOL    HW218465   0.884   4.628   6.818
 1997SOL     OW18466   3.365   5.259   1.524
 1997SOL    HW118467   3.307   5.316   1.583
 1997SOL    HW218468   3.446   5.230   1.575
 1998SOL     OW18469   5.315   2.543   0.245
 1998SOL    HW118470   5.327   2.514   0.150
 1998SOL    HW218471   5.281   2.466   0.299
 1999SOL     OW18472   2.158   3.101   3.444
 1999SOL    HW118473   2.234   3.134   3.501
 1999SOL    HW218474   2.071   3.118   3.491
 2000SOL     OW18475   5.654   4.140   0.616
 2000SOL    HW118476   5.736   4.167   0.666
 2000SOL    HW218477   5.666   4.158   0.519
 2001SOL     OW18478   2.555   5.592   6.121
 2001SOL    HW118479   2.509   5.506   6.143
 2001SOL    HW218480   2.515   5.631   6.038
 2002SOL     OW18481   4.040   5.839   2.117
 2002SOL    HW118482   3.976   5.762   2.124
 2002SOL    HW218483   4.010   5.913   2.177
 2003SOL     OW18484   2.473   1.075   1.993
 2003SOL    HW118485   2.549   1.012   2.009
 2003SOL    HW218486   2.433   1.101   2.081
 2004SOL     OW18487   3.648   6.490   3.003
 2004SOL    HW118488   3.722   6.424   2.985
 2004SOL    HW218489   3.572   6.472   2.941
 2005SOL     OW18490   4.639   7.289   4.839
 2005SOL    HW118491   4.618   7.261   4.746
 2005SOL    HW218492   4.633   7.210   4.900
 2006SOL     OW18493   5.523   3.662   0.907
 2006SOL    HW118494   5.461   3.692   0.978
 2006SOL    HW218495   5.471   3.633   0.826
 2007SOL     OW18496   7.306   3.216   3.270
 2007SOL    HW118497   7.231   3.174   3.321
 2007SOL    HW218498   7.290   3.204   3.172
 2008SOL     OW18499   2.517   6.326   4.023
 2008SOL    HW118500   2.539   6.406   4.079
 2008SOL    HW218501   2.557   6.337   3.932
 2009SOL     OW18502   1.518   3.105   5.834
 2009SOL    HW118503   1.535   3.196   5.796
 2009SOL    HW218504   1.485   3.113   5.928
 2010SOL     OW18505   4.421   3.229   0.230
 2010SOL    HW118506   4.363   3.192   0.158
 2010SOL    HW218507   4.373   3.222   0.318
 2011SOL     OW18508   2.315   5.715   4.392
 2011SOL    HW118509   2.322   5.725   4.491
 2011SOL    HW218510   2.393   5.662   4.358
 2012SOL     OW18511   6.843   5.382   3.908
 2012SOL    HW118512   6.917   5.329   3.950
 2012SOL    HW218513   6.769   5.320   3.881
 2013SOL     OW18514   4.435   2.228   4.841
 2013SOL    HW118515   4.511   2.198   4.899
 2013SOL    HW218516   4.396   2.312   4.878
 2014SOL     OW18517   1.961   4.871   0.816
 2014SOL    HW118518   1.948   4.970   0.805
 2014SOL    HW218519   1.877   4.824   0.789
 2015SOL     OW18520   2.741   1.425   7.221
 2015SOL    HW118521   2.804   1.409   7.297
 2015SOL    HW218522   2.647   1.418   7.255
 2016SOL     OW18523   2.093   3.339   7.011
 2016SOL    HW118524   2.176   3.356   6.958
 2016SOL    HW218525   2.117   3.323   7.107
 2017SOL     OW18526   6.438   5.555   5.949
 2017SOL    HW118527   6.460   5.649   5.924
 2017SOL    HW218528   6.474   5.535   6.040
 2018SOL     OW18529   4.189   4.196   2.669
 2018SOL    HW118530   4.233   4.149   2.746
 2018SOL    HW218531   4.147   4.129   2.608
 2019SOL     OW18532   1.013   2.319   6.109
 2019SOL    HW118533   1.096   2.289   6.156
 2019SOL    HW218534   1.029   2.408   6.066
 2020SOL     OW18535   7.081   1.083   1.125
 2020SOL    HW118536   7.047   1.019   1.055
 2020SOL    HW218537   7.153   1.140   1.086
 2021SOL     OW18538   3.266   1.781   7.039
 2021SOL    HW118539   3.215   1.863   7.064
 2021SOL    HW218540   3.221   1.700   7.076
 2022SOL     OW18541   3.701   2.830   4.028
 2022SOL    HW118542   3.737   2.837   4.121
 2022SOL    HW218543   3.622   2.891   4.018
 2023SOL     OW18544   1.687   2.583   6.629
 2023SOL    HW118545   1.776   2.591   6.676
 2023SOL    HW218546   1.637   2.669   6.638
 2024SOL     OW18547   5.289   2.284   5.574
 2024SOL    HW118548   5.232   2.297   5.655
 2024SOL    HW218549   5.251   2.209   5.518
 2025SOL     OW18550   3.745   0.355   1.338
 2025SOL    HW118551   3.717   0.261   1.356
 2025SOL    HW218552   3.840   0.368   1.364
 2026SOL     OW18553   4.945   5.507   0.987
 2026SOL    HW118554   4.897   5.595   0.992
 2026SOL    HW218555   4.927   5.465   0.898
 2027SOL     OW18556   4.396   6.893   1.720
 2027SOL    HW118557   4.432   6.829   1.652
 2027SOL    HW218558   4.380   6.982   1.677
 2028SOL     OW18559   3.231   5.381   4.977
 2028SOL    HW118560   3.312   5.393   4.921
 2028SOL    HW218561   3.167   5.319   4.931
 2029SOL     OW18562   2.610   6.918   2.280
 2029SOL    HW118563   2.542   6.967   2.334
 2029SOL    HW218564   2.611   6.822   2.308
 2030SOL     OW18565   5.912   1.018   4.821
 2030SOL    HW118566   5.966   0.934   4.832
 2030SOL    HW218567   5.818   0.995   4.796
 2031SOL     OW18568   1.694   3.193   1.548
 2031SOL    HW118569   1.613   3.134   1.555
 2031SOL    HW218570   1.665   3.286   1.527
 2032SOL     OW18571   3.470   5.624   3.369
 2032SOL    HW118572   3.374   5.603   3.353
 2032SOL    HW218573   3.496   5.594   3.461
 2033SOL     OW18574   2.130   3.367   6.180
 2033SOL    HW118575   2.096   3.461   6.187
 2033SOL    HW218576   2.052   3.304   6.173
 2034SOL     OW18577   4.858   0.004   3.453
 2034SOL    HW118578   4.840   0.080   3.390
 2034SOL    HW218579   4.870  -0.080   3.400
 2035SOL     OW18580   6.396   0.365   5.905
 2035SOL    HW118581   6.350   0.387   5.990
 2035SOL    HW218582   6.484   0.412   5.901
 2036SOL     OW18583   4.824   4.688   0.983
 2036SOL    HW118584   4.745   4.730   1.028
 2036SOL    HW218585   4.894   4.757   0.967
 2037SOL     OW18586   4.054   7.089   2.942
 2037SOL    HW118587   4.061   7.187   2.963
 2037SOL    HW218588   4.107   7.069   2.859
 2038SOL     OW18589   1.956   7.170   6.533
 2038SOL    HW118590   1.974   7.075   6.557
 2038SOL    HW218591   2.009   7.231   6.592
 2039SOL     OW18592   0.084   5.437   0.439
 2039SOL    HW118593   0.124   5.491   0.365
 2039SOL    HW218594   0.079   5.492   0.522
 2040SOL     OW18595   0.006   4.369   1.520
 2040SOL    HW118596  -0.039   4.297   1.573
 2040SOL    HW218597  -0.051   4.394   1.442
 2041SOL     OW18598   0.083   4.718   5.577
 2041SOL    HW118599  -0.002   4.731   5.526
 2041SOL    HW218600   0.159   4.704   5.512
 2042SOL     OW18601   2.643   2.009   3.287
 2042SOL    HW118602   2.575   2.076   3.258
 2042SOL    HW218603   2.733   2.035   3.251
 2043SOL     OW18604   5.197   6.422   3.450
 2043SOL    HW118605   5.124   6.354   3.440
 2043SOL    HW218606   5.159   6.509   3.481
 2044SOL     OW18607   6.632   0.532   1.090
 2044SOL    HW118608   6.711   0.496   1.139
 2044SOL    HW218609   6.648   0.628   1.066
 2045SOL     OW18610   6.111   1.589   4.897
 2045SOL    HW118611   6.088   1.505   4.847
 2045SOL    HW218612   6.198   1.625   4.864
 2046SOL     OW18613   3.378   4.945   2.740
 2046SOL    HW118614   3.320   4.915   2.665
 2046SOL    HW218615   3.426   4.865   2.778
 2047SOL     OW18616   4.679   5.702   3.558
 2047SOL    HW118617   4.623   5.661   3.631
 2047SOL    HW218618   4.773   5.671   3.566
 2048SOL     OW18619   6.172   2.995   5.756
 2048SOL    HW118620   6.091   3.046   5.727
 2048SOL    HW218621   6.252   3.027   5.704
 2049SOL     OW18622   5.604   3.899   1.887
 2049SOL    HW118623   5.515   3.858   1.867
 2049SOL    HW218624   5.632   3.875   1.980
 2050SOL     OW18625   3.785   6.059   5.749
 2050SOL    HW118626   3.869   6.050   5.695
 2050SOL    HW218627   3.737   5.971   5.752
 2051SOL     OW18628   4.240   0.257   0.284
 2051SOL    HW118629   4.148   0.222   0.301
 2051SOL    HW218630   4.235   0.333   0.220
 2052SOL     OW18631   4.349   4.952   2.004
 2052SOL    HW118632   4.363   4.859   2.036
 2052SOL    HW218633   4.419   4.976   1.936
 2053SOL     OW18634   0.511   0.660   0.897
 2053SOL    HW118635   0.545   0.754   0.895
 2053SOL    HW218636   0.434   0.651   0.834
 2054SOL     OW18637   1.786   2.371   3.943
 2054SOL    HW118638   1.775   2.365   4.043
 2054SOL    HW218639   1.695   2.373   3.901
 2055SOL     OW18640   4.959   4.648   0.659
 2055SOL    HW118641   4.918   4.574   0.605
 2055SOL    HW218642   4.997   4.611   0.743
 2056SOL     OW18643   5.745   4.023   3.268
 2056SOL    HW118644   5.698   3.935   3.272
 2056SOL    HW218645   5.693   4.091   3.319
 2057SOL     OW18646   0.577   6.470   4.409
 2057SOL    HW118647   0.516   6.406   4.456
 2057SOL    HW218648   0.542   6.487   4.317
 2058SOL     OW18649   0.972   4.496   1.031
 2058SOL    HW118650   0.984   4.439   1.112
 2058SOL    HW218651   1.015   4.586   1.047
 2059SOL     OW18652   6.556   4.865   0.108
 2059SOL    HW118653   6.643   4.910   0.125
 2059SOL    HW218654   6.534   4.870   0.010
 2060SOL     OW18655   1.142   2.961   1.357
 2060SOL    HW118656   1.198   3.035   1.320
 2060SOL    HW218657   1.105   2.988   1.446
 2061SOL     OW18658   7.188   3.443   7.237
 2061SOL    HW118659   7.153   3.379   7.169
 2061SOL    HW218660   7.116   3.509   7.261
 2062SOL     OW18661   4.653   3.626   4.681
 2062SOL    HW118662   4.676   3.529   4.684
 2062SOL    HW218663   4.571   3.640   4.625
 2063SOL     OW18664   1.172   4.469   1.513
 2063SOL    HW118665   1.097   4.534   1.509
 2063SOL    HW218666   1.258   4.518   1.525
 2064SOL     OW18667   4.432   5.591   2.874
 2064SOL    HW118668   4.451   5.673   2.821
 2064SOL    HW218669   4.477   5.597   2.963
 2065SOL     OW18670   3.543   5.840   6.394
 2065SOL    HW118671   3.608   5.901   6.348
 2065SOL    HW218672   3.533   5.756   6.342
 2066SOL     OW18673   2.468   4.285   4.949
 2066SOL    HW118674   2.444   4.191   4.927
 2066SOL    HW218675   2.434   4.307   5.041
 2067SOL     OW18676   0.661   5.996   0.099
 2067SOL    HW118677   0.615   5.952   0.176
 2067SOL    HW218678   0.597   6.058   0.053
 2068SOL     OW18679   5.482   0.914   3.287
 2068SOL    HW118680   5.564   0.895   3.233
 2068SOL    HW218681   5.491   0.873   3.378
 2069SOL     OW18682   6.475   6.616   3.880
 2069SOL    HW118683   6.489   6.580   3.972
 2069SOL    HW218684   6.500   6.713   3.878
 2070SOL     OW18685   5.298   5.264   6.922
 2070SOL    HW118686   5.283   5.341   6.860
 2070SOL    HW218687   5.363   5.200   6.880
 2071SOL     OW18688   5.150   5.126   0.591
 2071SOL    HW118689   5.158   5.095   0.686
 2071SOL    HW218690   5.058   5.105   0.557
 2072SOL     OW18691   7.094   6.909   6.641
 2072SOL    HW118692   7.053   6.992   6.603
 2072SOL    HW218693   7.097   6.916   6.740
 2073SOL     OW18694   1.776   3.704   4.966
 2073SOL    HW118695   1.876   3.706   4.958
 2073SOL    HW218696   1.744   3.610   4.963
 2074SOL     OW18697   5.008   5.253   3.145
 2074SOL    HW118698   4.973   5.170   3.103
 2074SOL    HW218699   4.935   5.294   3.201
 2075SOL     OW18700   0.967   2.235   1.165
 2075SOL    HW118701   1.000   2.258   1.074
 2075SOL    HW218702   0.885   2.288   1.186
 2076SOL     OW18703   4.347   6.508   4.366
 2076SOL    HW118704   4.307   6.458   4.444
 2076SOL    HW218705   4.441   6.476   4.351
 2077SOL     OW18706   1.529   0.731   0.812
 2077SOL    HW118707   1.449   0.748   0.755
 2077SOL    HW218708   1.612   0.755   0.762
 2078SOL     OW18709   2.163   0.056   6.812
 2078SOL    HW118710   2.218  -0.019   6.774
 2078SOL    HW218711   2.174   0.059   6.911
 2079SOL     OW18712   5.170   3.857   1.976
 2079SOL    HW118713   5.107   3.892   1.907
 2079SOL    HW218714   5.146   3.896   2.066
 2080SOL     OW18715   3.213   6.171   7.213
 2080SOL    HW118716   3.297   6.222   7.233
 2080SOL    HW218717   3.171   6.141   7.298
 2081SOL     OW18718   1.904   2.108   1.867
 2081SOL    HW118719   1.896   2.035   1.935
 2081SOL    HW218720   1.942   2.189   1.911
 2082SOL     OW18721   3.763   5.738   6.048
 2082SOL    HW118722   3.742   5.749   5.951
 2082SOL    HW218723   3.843   5.679   6.058
 2083SOL     OW18724   3.183   2.985   5.845
 2083SOL    HW118725   3.143   2.916   5.906
 2083SOL    HW218726   3.200   3.069   5.896
 2084SOL     OW18727   4.513   1.026   0.322
 2084SOL    HW118728   4.477   0.938   0.354
 2084SOL    HW218729   4.525   1.087   0.400
 2085SOL     OW18730   3.273   2.908   6.626
 2085SOL    HW118731   3.300   2.941   6.536
 2085SOL    HW218732   3.193   2.849   6.617
 2086SOL     OW18733   5.940   1.711   0.010
 2086SOL    HW118734   5.953   1.617  -0.020
 2086SOL    HW218735   5.842   1.733   0.010
 2087SOL     OW18736   3.969   6.949   4.847
 2087SOL    HW118737   3.921   6.870   4.886
 2087SOL    HW218738   3.914   6.989   4.774
 2088SOL     OW18739   1.312   4.112   4.497
 2088SOL    HW118740   1.257   4.108   4.581
 2088SOL    HW218741   1.384   4.043   4.501
 2089SOL     OW18742   4.146   0.806   2.055
 2089SOL    HW118743   4.223   0.807   2.120
 2089SOL    HW218744   4.073   0.864   2.090
 2090SOL     OW18745   3.701   7.303   5.326
 2090SOL    HW118746   3.662   7.324   5.236
 2090SOL    HW218747   3.793   7.265   5.314
 2091SOL     OW18748   3.377   4.294   0.674
 2091SOL    HW118749   3.346   4.364   0.738
 2091SOL    HW218750   3.330   4.305   0.587
 2092SOL     OW18751   2.968   2.737   1.177
 2092SOL    HW118752   2.873   2.740   1.208
 2092SOL    HW218753   2.984   2.651   1.128
 2093SOL     OW18754   4.527   6.560   6.562
 2093SOL    HW118755   4.437   6.522   6.583
 2093SOL    HW218756   4.523   6.612   6.477
 2094SOL     OW18757   1.130   0.136   5.543
 2094SOL    HW118758   1.060   0.166   5.479
 2094SOL    HW218759   1.173   0.052   5.510
 2095SOL     OW18760   6.774   0.514   7.101
 2095SOL    HW118761   6.729   0.466   7.176
 2095SOL    HW218762   6.873   0.503   7.109
 2096SOL     OW18763   4.276   1.567   5.783
 2096SOL    HW118764   4.321   1.591   5.697
 2096SOL    HW218765   4.344   1.531   5.847
 2097SOL     OW18766   3.980   2.765   6.508
 2097SOL    HW118767   4.073   2.765   6.546
 2097SOL    HW218768   3.946   2.671   6.504
 2098SOL     OW18769   0.753   0.249   5.900
 2098SOL    HW118770   0.804   0.334   5.913
 2098SOL    HW218771   0.657   0.264   5.925
 2099SOL     OW18772   4.905   3.712   2.923
 2099SOL    HW118773   4.980   3.676   2.868
 2099SOL    HW218774   4.904   3.812   2.917
 2100SOL     OW18775   1.620   3.691   1.877
 2100SOL    HW118776   1.595   3.786   1.895
 2100SOL    HW218777   1.595   3.634   1.955
 2101SOL     OW18778   5.097   6.346   2.927
 2101SOL    HW118779   5.134   6.310   3.013
 2101SOL    HW218780   5.159   6.325   2.852
 2102SOL     OW18781   6.782   6.108   4.062
 2102SOL    HW118782   6.686   6.096   4.037
 2102SOL    HW218783   6.839   6.104   3.979
 2103SOL     OW18784   3.388   0.514   1.136
 2103SOL    HW118785   3.441   0.541   1.055
 2103SOL    HW218786   3.428   0.431   1.174
 2104SOL     OW18787   4.001   5.585   0.573
 2104SOL    HW118788   4.019   5.488   0.558
 2104SOL    HW218789   4.069   5.622   0.637
 2105SOL     OW18790   6.179   1.209   0.627
 2105SOL    HW118791   6.210   1.195   0.721
 2105SOL    HW218792   6.233   1.152   0.565
 2106SOL     OW18793   4.651   6.608   3.995
 2106SOL    HW118794   4.734   6.651   4.031
 2106SOL    HW218795   4.601   6.566   4.071
 2107SOL     OW18796   2.053   0.130   2.774
 2107SOL    HW118797   1.966   0.093   2.804
 2107SOL    HW218798   2.108   0.155   2.854
 2108SOL     OW18799   3.186   0.327   3.032
 2108SOL    HW118800   3.096   0.363   3.010
 2108SOL    HW218801   3.216   0.264   2.960
 2109SOL     OW18802   4.910   5.471   4.645
 2109SOL    HW118803   4.904   5.442   4.740
 2109SOL    HW218804   4.832   5.529   4.622
 2110SOL     OW18805   4.560   5.618   3.343
 2110SOL    HW118806   4.575   5.522   3.367
 2110SOL    HW218807   4.617   5.676   3.400
 2111SOL     OW18808   6.555   3.060   6.133
 2111SOL    HW118809   6.477   3.087   6.076
 2111SOL    HW218810   6.535   2.973   6.178
 2112SOL     OW18811   4.037   2.195   7.039
 2112SOL    HW118812   3.977   2.126   7.078
 2112SOL    HW218813   4.132   2.166   7.047
 2113SOL     OW18814   5.276   3.363   2.573
 2113SOL    HW118815   5.341   3.430   2.538
 2113SOL    HW218816   5.187   3.378   2.530
 2114SOL     OW18817   1.922   4.091   4.234
 2114SOL    HW118818   1.852   4.159   4.252
 2114SOL    HW218819   1.880   4.005   4.208
 2115SOL     OW18820   4.641   3.875   7.242
 2115SOL    HW118821   4.552   3.920   7.239
 2115SOL    HW218822   4.688   3.887   7.155
 2116SOL     OW18823   4.385   0.179   6.337
 2116SOL    HW118824   4.286   0.173   6.347
 2116SOL    HW218825   4.419   0.257   6.391
 2117SOL     OW18826   6.102   4.777   5.846
 2117SOL    HW118827   6.190   4.796   5.891
 2117SOL    HW218828   6.041   4.855   5.858
 2118SOL     OW18829   6.071   7.045   6.771
 2118SOL    HW118830   6.071   7.103   6.689
 2118SOL    HW218831   6.124   6.963   6.752
 2119SOL     OW18832   4.643   1.448   6.882
 2119SOL    HW118833   4.650   1.428   6.979
 2119SOL    HW218834   4.721   1.503   6.853
 2120SOL     OW18835   4.838   4.408   5.493
 2120SOL    HW118836   4.891   4.342   5.440
 2120SOL    HW218837   4.895   4.488   5.514
 2121SOL     OW18838   4.665   1.410   0.440
 2121SOL    HW118839   4.676   1.434   0.537
 2121SOL    HW218840   4.666   1.493   0.385
 2122SOL     OW18841   4.302   4.864   5.787
 2122SOL    HW118842   4.297   4.773   5.744
 2122SOL    HW218843   4.334   4.854   5.881
 2123SOL     OW18844   3.018   3.974   6.225
 2123SOL    HW118845   2.948   3.949   6.158
 2123SOL    HW218846   2.974   3.998   6.311
 2124SOL     OW18847   6.031   2.057   0.424
 2124SOL    HW118848   5.962   2.072   0.494
 2124SOL    HW218849   5.987   2.050   0.334
 2125SOL     OW18850   0.937   1.809   7.001
 2125SOL    HW118851   0.861   1.834   6.942
 2125SOL    HW218852   0.931   1.712   7.024
 2126SOL     OW18853   2.545   1.384   6.050
 2126SOL    HW118854   2.527   1.481   6.033
 2126SOL    HW218855   2.492   1.328   5.986
 2127SOL     OW18856   4.472   2.142   0.018
 2127SOL    HW118857   4.373   2.158   0.010
 2127SOL    HW218858   4.521   2.227   0.002
 2128SOL     OW18859   5.197   0.574   1.549
 2128SOL    HW118860   5.120   0.512   1.539
 2128SOL    HW218861   5.218   0.617   1.461
 2129SOL     OW18862   5.240   6.437   4.119
 2129SOL    HW118863   5.219   6.453   4.215
 2129SOL    HW218864   5.292   6.352   4.110
 2130SOL     OW18865   6.792   6.790   3.312
 2130SOL    HW118866   6.868   6.768   3.251
 2130SOL    HW218867   6.816   6.870   3.368
 2131SOL     OW18868   3.293   1.859   7.328
 2131SOL    HW118869   3.195   1.855   7.306
 2131SOL    HW218870   3.336   1.933   7.277
 2132SOL     OW18871   6.184   2.306   3.773
 2132SOL    HW118872   6.281   2.329   3.784
 2132SOL    HW218873   6.145   2.280   3.861
 2133SOL     OW18874   4.859   3.448   0.133
 2133SOL    HW118875   4.904   3.431   0.045
 2133SOL    HW218876   4.771   3.401   0.135
 2134SOL     OW18877   4.905   0.525   0.463
 2134SOL    HW118878   4.845   0.580   0.405
 2134SOL    HW218879   4.970   0.585   0.509
 2135SOL     OW18880   4.698   6.776   1.447
 2135SOL    HW118881   4.598   6.786   1.439
 2135SOL    HW218882   4.721   6.748   1.540
 2136SOL     OW18883   1.741   2.065   5.471
 2136SOL    HW118884   1.762   1.968   5.460
 2136SOL    HW218885   1.650   2.075   5.512
 2137SOL     OW18886   5.225   1.398   7.251
 2137SOL    HW118887   5.172   1.482   7.238
 2137SOL    HW218888   5.232   1.349   7.165
 2138SOL     OW18889   1.958   6.897   5.887
 2138SOL    HW118890   2.048   6.937   5.872
 2138SOL    HW218891   1.953   6.807   5.843
 2139SOL     OW18892   4.823   5.113   5.797
 2139SOL    HW118893   4.909   5.065   5.782
 2139SOL    HW218894   4.819   5.195   5.740
 2140SOL     OW18895   1.260   2.295   1.636
 2140SOL    HW118896   1.284   2.382   1.593
 2140SOL    HW218897   1.229   2.230   1.566
 2141SOL     OW18898   5.679   3.339   0.723
 2141SOL    HW118899   5.614   3.293   0.783
 2141SOL    HW218900   5.753   3.378   0.778
 2142SOL     OW18901   7.011   1.694   3.968
 2142SOL    HW118902   7.077   1.677   3.895
 2142SOL    HW218903   6.992   1.792   3.973
 2143SOL     OW18904   3.190   0.163   2.803
 2143SOL    HW118905   3.259   0.145   2.733
 2143SOL    HW218906   3.101   0.176   2.759
 2144SOL     OW18907   4.188   0.548   4.070
 2144SOL    HW118908   4.207   0.553   3.972
 2144SOL    HW218909   4.103   0.596   4.091
 2145SOL     OW18910   2.595   3.917   0.593
 2145SOL    HW118911   2.510   3.969   0.579
 2145SOL    HW218912   2.575   3.819   0.589
 2146SOL     OW18913   2.893   1.883   7.211
 2146SOL    HW118914   2.866   1.795   7.175
 2146SOL    HW218915   2.812   1.937   7.234
 2147SOL     OW18916   4.076   5.485   2.749
 2147SOL    HW118917   4.026   5.520   2.828
 2147SOL    HW218918   4.013   5.476   2.671
 2148SOL     OW18919   4.361   4.082   4.625
 2148SOL    HW118920   4.407   4.156   4.674
 2148SOL    HW218921   4.266   4.075   4.656
 2149SOL     OW18922   2.868   3.884   4.953
 2149SOL    HW118923   2.859   3.889   5.052
 2149SOL    HW218924   2.960   3.911   4.926
 2150SOL     OW18925   3.230   3.124   1.373
 2150SOL    HW118926   3.166   3.049   1.361
 2150SOL    HW218927   3.182   3.204   1.408
 2151SOL     OW18928   7.063   7.109   6.288
 2151SOL    HW118929   7.105   7.196   6.261
 2151SOL    HW218930   7.088   7.038   6.221
 2152SOL     OW18931   5.647   6.897   3.665
 2152SOL    HW118932   5.729   6.930   3.712
 2152SOL    HW218933   5.668   6.883   3.569
 2153SOL     OW18934   3.509   6.151   2.723
 2153SOL    HW118935   3.603   6.120   2.734
 2153SOL    HW218936   3.446   6.077   2.747
 2154SOL     OW18937   3.066   1.027   4.738
 2154SOL    HW118938   3.011   1.071   4.667
 2154SOL    HW218939   3.102   1.096   4.800
 2155SOL     OW18940   3.100   4.120   5.722
 2155SOL    HW118941   3.185   4.171   5.710
 2155SOL    HW218942   3.027   4.183   5.747
 2156SOL     OW18943   3.954   7.015   7.009
 2156SOL    HW118944   4.017   6.941   6.989
 2156SOL    HW218945   3.914   7.049   6.924
 2157SOL     OW18946   3.919   1.889   5.056
 2157SOL    HW118947   3.854   1.842   4.996
 2157SOL    HW218948   3.993   1.928   5.002
 2158SOL     OW18949   5.303   7.091   7.084
 2158SOL    HW118950   5.252   7.007   7.099
 2158SOL    HW218951   5.369   7.077   7.010
 2159SOL     OW18952   5.020   4.205   5.396
 2159SOL    HW118953   5.086   4.267   5.354
 2159SOL    HW218954   5.069   4.129   5.439
 2160SOL     OW18955   6.182   4.358   3.462
 2160SOL    HW118956   6.191   4.373   3.560
 2160SOL    HW218957   6.159   4.262   3.445
 2161SOL     OW18958   2.746   4.461   5.754
 2161SOL    HW118959   2.655   4.492   5.724
 2161SOL    HW218960   2.810   4.538   5.747
 2162SOL     OW18961   1.201   5.090   3.098
 2162SOL    HW118962   1.183   5.012   3.158
 2162SOL    HW218963   1.126   5.099   3.032
 2163SOL     OW18964   5.089   3.412   6.307
 2163SOL    HW118965   5.147   3.479   6.260
 2163SOL    HW218966   5.000   3.453   6.327
 2164SOL     OW18967   5.703   0.405   3.728
 2164SOL    HW118968   5.746   0.339   3.667
 2164SOL    HW218969   5.618   0.439   3.687
 2165SOL     OW18970   3.647   6.434   0.445
 2165SOL    HW118971   3.721   6.372   0.419
 2165SOL    HW218972   3.573   6.428   0.378
 2166SOL     OW18973   2.327   3.341   2.167
 2166SOL    HW118974   2.383   3.263   2.140
 2166SOL    HW218975   2.312   3.339   2.266
 2167SOL     OW18976   0.862   0.009   5.918
 2167SOL    HW118977   0.817   0.096   5.900
 2167SOL    HW218978   0.939  -0.002   5.855
 2168SOL     OW18979   0.207   3.708   6.944
 2168SOL    HW118980   0.286   3.650   6.966
 2168SOL    HW218981   0.183   3.762   7.025
 2169SOL     OW18982   4.110   7.312   3.240
 2169SOL    HW118983   4.096   7.348   3.148
 2169SOL    HW218984   4.201   7.272   3.247
 2170SOL     OW18985   6.370   6.980   4.617
 2170SOL    HW118986   6.406   6.896   4.658
 2170SOL    HW218987   6.378   7.055   4.682
 2171SOL     OW18988   4.221   1.505   3.928
 2171SOL    HW118989   4.158   1.442   3.882
 2171SOL    HW218990   4.250   1.575   3.863
 2172SOL     OW18991   4.118   3.707   1.915
 2172SOL    HW118992   4.178   3.658   1.852
 2172SOL    HW218993   4.053   3.644   1.956
 2173SOL     OW18994   4.870   2.055   3.619
 2173SOL    HW118995   4.843   2.151   3.628
 2173SOL    HW218996   4.966   2.045   3.644
 2174SOL     OW18997   5.670   1.955   1.993
 2174SOL    HW118998   5.637   2.049   2.002
 2174SOL    HW218999   5.736   1.950   1.918
 2175SOL     OW19000   2.884   1.541   5.670
 2175SOL    HW119001   2.948   1.532   5.594
 2175SOL    HW219002   2.817   1.467   5.667
 2176SOL     OW19003   2.987   4.348   4.907
 2176SOL    HW119004   2.928   4.271   4.932
 2176SOL    HW219005   2.984   4.417   4.980
 2177SOL     OW19006   6.767   2.206   3.861
 2177SOL    HW119007   6.791   2.213   3.957
 2177SOL    HW219008   6.731   2.115   3.841
 2178SOL     OW19009   1.645   2.840   5.568
 2178SOL    HW119010   1.652   2.747   5.603
 2178SOL    HW219011   1.556   2.878   5.592
 2179SOL     OW19012   6.941   1.502   2.003
 2179SOL    HW119013   6.852   1.458   1.988
 2179SOL    HW219014   7.010   1.432   2.022
 2180SOL     OW19015   3.411   0.457   3.856
 2180SOL    HW119016   3.449   0.540   3.897
 2180SOL    HW219017   3.441   0.377   3.909
 2181SOL     OW19018   6.671   2.987   4.737
 2181SOL    HW119019   6.634   3.067   4.783
 2181SOL    HW219020   6.627   2.905   4.772
 2182SOL     OW19021   1.779   3.915   3.946
 2182SOL    HW119022   1.826   4.003   3.952
 2182SOL    HW219023   1.749   3.887   4.038
 2183SOL     OW19024   5.521   5.088   6.858
 2183SOL    HW119025   5.576   5.121   6.934
 2183SOL    HW219026   5.549   4.995   6.834
 2184SOL     OW19027   4.221   1.831   6.830
 2184SOL    HW119028   4.137   1.781   6.847
 2184SOL    HW219029   4.248   1.820   6.734
 2185SOL     OW19030   7.212   1.524   0.099
 2185SOL    HW119031   7.296   1.509   0.152
 2185SOL    HW219032   7.181   1.618   0.114
 2186SOL     OW19033   6.047   5.263   5.783
 2186SOL    HW119034   6.104   5.242   5.863
 2186SOL    HW219035   6.040   5.362   5.773
 2187SOL     OW19036   0.397   1.220   3.462
 2187SOL    HW119037   0.406   1.132   3.416
 2187SOL    HW219038   0.306   1.258   3.444
 2188SOL     OW19039   1.824   4.451   4.132
 2188SOL    HW119040   1.877   4.482   4.211
 2188SOL    HW219041   1.877   4.462   4.049
 2189SOL     OW19042   4.111   1.193   4.184
 2189SOL    HW119043   4.093   1.096   4.198
 2189SOL    HW219044   4.207   1.206   4.161
 2190SOL     OW19045   1.943   5.242   4.485
 2190SOL    HW119046   1.949   5.151   4.525
 2190SOL    HW219047   2.018   5.299   4.519
 2191SOL     OW19048   3.613   4.048   6.336
 2191SOL    HW119049   3.588   4.114   6.265
 2191SOL    HW219050   3.582   3.957   6.308
 2192SOL     OW19051   4.872   0.493   2.614
 2192SOL    HW119052   4.890   0.514   2.518
 2192SOL    HW219053   4.776   0.507   2.635
 2193SOL     OW19054   4.361   3.172   0.529
 2193SOL    HW119055   4.330   3.248   0.586
 2193SOL    HW219056   4.455   3.148   0.555
 2194SOL     OW19057   5.447   4.396   7.125
 2194SOL    HW119058   5.526   4.378   7.184
 2194SOL    HW219059   5.393   4.312   7.115
 2195SOL     OW19060   0.276   0.785   5.671
 2195SOL    HW119061   0.342   0.734   5.618
 2195SOL    HW219062   0.322   0.830   5.748
 2196SOL     OW19063   4.032   2.578   0.525
 2196SOL    HW119064   4.023   2.660   0.469
 2196SOL    HW219065   3.941   2.547   0.554
 2197SOL     OW19066   7.061   1.892   7.106
 2197SOL    HW119067   7.030   1.876   7.200
 2197SOL    HW219068   7.079   1.804   7.062
 2198SOL     OW19069   0.060   2.741   7.191
 2198SOL    HW119070   0.053   2.647   7.224
 2198SOL    HW219071   0.045   2.743   7.092
 2199SOL     OW19072   5.784   3.323   2.986
 2199SOL    HW119073   5.819   3.260   2.916
 2199SOL    HW219074   5.701   3.367   2.953
 2200SOL     OW19075   3.453   6.604   0.559
 2200SOL    HW119076   3.514   6.533   0.525
 2200SOL    HW219077   3.418   6.579   0.649
 2201SOL     OW19078   6.549   3.480   6.089
 2201SOL    HW119079   6.639   3.437   6.085
 2201SOL    HW219080   6.492   3.443   6.016
 2202SOL     OW19081   3.049   2.178   3.982
 2202SOL    HW119082   2.988   2.149   3.908
 2202SOL    HW219083   3.004   2.162   4.070
 2203SOL     OW19084   6.379   3.083   2.686
 2203SOL    HW119085   6.352   2.994   2.721
 2203SOL    HW219086   6.461   3.073   2.630
 2204SOL     OW19087   0.830   1.408   0.190
 2204SOL    HW119088   0.791   1.481   0.246
 2204SOL    HW219089   0.768   1.330   0.189
 2205SOL     OW19090   1.462   4.923   5.441
 2205SOL    HW119091   1.461   5.018   5.473
 2205SOL    HW219092   1.553   4.901   5.405
 2206SOL     OW19093   0.891   4.466   7.101
 2206SOL    HW119094   0.849   4.399   7.163
 2206SOL    HW219095   0.954   4.419   7.039
 2207SOL     OW19096   5.728   4.732   3.225
 2207SOL    HW119097   5.692   4.664   3.161
 2207SOL    HW219098   5.707   4.704   3.319
 2208SOL     OW19099   4.265   0.403   3.251
 2208SOL    HW119100   4.167   0.386   3.237
 2208SOL    HW219101   4.312   0.316   3.264
 2209SOL     OW19102   3.810   6.188   0.745
 2209SOL    HW119103   3.808   6.089   0.757
 2209SOL    HW219104   3.718   6.225   0.752
 2210SOL     OW19105   6.880   3.294   1.645
 2210SOL    HW119106   6.851   3.280   1.740
 2210SOL    HW219107   6.884   3.392   1.626
 2211SOL     OW19108   3.633   5.735   2.348
 2211SOL    HW119109   3.698   5.765   2.418
 2211SOL    HW219110   3.658   5.644   2.316
 2212SOL     OW19111   4.944   4.954   0.980
 2212SOL    HW119112   4.862   4.994   0.940
 2212SOL    HW219113   5.023   5.013   0.962
 2213SOL     OW19114   2.482   4.352   1.745
 2213SOL    HW119115   2.419   4.415   1.700
 2213SOL    HW219116   2.545   4.314   1.677
 2214SOL     OW19117   3.893   7.288   2.103
 2214SOL    HW119118   3.815   7.308   2.163
 2214SOL    HW219119   3.935   7.202   2.131
 2215SOL     OW19120   0.294   5.491   5.598
 2215SOL    HW119121   0.210   5.537   5.570
 2215SOL    HW219122   0.368   5.515   5.534
 2216SOL     OW19123   5.436   3.609   2.542
 2216SOL    HW119124   5.515   3.656   2.503
 2216SOL    HW219125   5.415   3.648   2.631
 2217SOL     OW19126   5.559   3.263   1.941
 2217SOL    HW119127   5.594   3.295   2.029
 2217SOL    HW219128   5.630   3.276   1.871
 2218SOL     OW19129   1.120   2.230   3.685
 2218SOL    HW119130   1.053   2.299   3.657
 2218SOL    HW219131   1.161   2.190   3.603
 2219SOL     OW19132   2.261   0.285   6.657
 2219SOL    HW119133   2.199   0.292   6.579
 2219SOL    HW219134   2.230   0.212   6.717
 2220SOL     OW19135   2.152   0.878   2.009
 2220SOL    HW119136   2.196   0.890   1.920
 2220SOL    HW219137   2.123   0.967   2.044
 2221SOL     OW19138   5.607   1.323   5.256
 2221SOL    HW119139   5.628   1.260   5.182
 2221SOL    HW219140   5.519   1.298   5.297
 2222SOL     OW19141   4.965   5.658   6.997
 2222SOL    HW119142   4.870   5.640   6.970
 2222SOL    HW219143   4.973   5.750   7.035
 2223SOL     OW19144   5.252   1.311   0.140
 2223SOL    HW119145   5.243   1.353   0.050
 2223SOL    HW219146   5.165   1.319   0.189
 2224SOL     OW19147   6.626   2.391   4.856
 2224SOL    HW119148   6.578   2.417   4.772
 2224SOL    HW219149   6.652   2.473   4.906
 2225SOL     OW19150   6.516   0.284   1.681
 2225SOL    HW119151   6.527   0.372   1.726
 2225SOL    HW219152   6.525   0.295   1.582
 2226SOL     OW19153   4.056   7.357   6.759
 2226SOL    HW119154   4.086   7.262   6.766
 2226SOL    HW219155   4.054   7.384   6.662
 2227SOL     OW19156   3.266   4.879   3.749
 2227SOL    HW119157   3.304   4.937   3.678
 2227SOL    HW219158   3.296   4.784   3.735
 2228SOL     OW19159   3.608   6.962   6.879
 2228SOL    HW119160   3.700   7.003   6.873
 2228SOL    HW219161   3.541   7.029   6.847
 2229SOL     OW19162   0.245   0.528   0.178
 2229SOL    HW119163   0.169   0.464   0.168
 2229SOL    HW219164   0.230   0.586   0.258
 2230SOL     OW19165   2.454   2.733   2.294
 2230SOL    HW119166   2.496   2.753   2.382
 2230SOL    HW219167   2.420   2.817   2.252
 2231SOL     OW19168   5.691   0.623   4.216
 2231SOL    HW119169   5.750   0.552   4.178
 2231SOL    HW219170   5.673   0.605   4.312
 2232SOL     OW19171   6.831   5.927   2.396
 2232SOL    HW119172   6.757   5.983   2.434
 2232SOL    HW219173   6.830   5.837   2.440
 2233SOL     OW19174   0.208   3.187   5.990
 2233SOL    HW119175   0.110   3.171   6.002
 2233SOL    HW219176   0.225   3.226   5.899
 2234SOL     OW19177   3.179   7.328   7.256
 2234SOL    HW119178   3.125   7.317   7.339
 2234SOL    HW219179   3.134   7.395   7.196
 2235SOL     OW19180   7.150   5.240   4.844
 2235SOL    HW119181   7.208   5.163   4.871
 2235SOL    HW219182   7.115   5.286   4.926
 2236SOL     OW19183   0.472   7.333   5.319
 2236SOL    HW119184   0.503   7.347   5.413
 2236SOL    HW219185   0.407   7.405   5.293
 2237SOL     OW19186   0.829   0.968   6.113
 2237SOL    HW119187   0.913   0.925   6.082
 2237SOL    HW219188   0.850   1.038   6.181
 2238SOL     OW19189   3.971   6.614   5.674
 2238SOL    HW119190   3.963   6.516   5.657
 2238SOL    HW219191   4.059   6.634   5.718
 2239SOL     OW19192   3.085   7.087   3.631
 2239SOL    HW119193   3.144   7.027   3.685
 2239SOL    HW219194   3.115   7.182   3.645
 2240SOL     OW19195   1.027   1.065   7.333
 2240SOL    HW119196   1.001   1.161   7.319
 2240SOL    HW219197   0.974   1.008   7.270
 2241SOL     OW19198   4.401   5.380   5.071
 2241SOL    HW119199   4.354   5.469   5.069
 2241SOL    HW219200   4.334   5.309   5.094
 2242SOL     OW19201   0.971   2.887   0.129
 2242SOL    HW119202   1.053   2.880   0.072
 2242SOL    HW219203   0.891   2.902   0.071
 2243SOL     OW19204   0.445   0.676   4.817
 2243SOL    HW119205   0.356   0.635   4.795
 2243SOL    HW219206   0.516   0.629   4.765
 2244SOL     OW19207   7.101   5.347   4.585
 2244SOL    HW119208   7.067   5.283   4.516
 2244SOL    HW219209   7.111   5.300   4.672
 2245SOL     OW19210   6.710   5.619   1.252
 2245SOL    HW119211   6.625   5.599   1.300
 2245SOL    HW219212   6.768   5.678   1.308
 2246SOL     OW19213   2.956   5.703   2.970
 2246SOL    HW119214   2.968   5.740   3.062
 2246SOL    HW219215   2.860   5.707   2.945
 2247SOL     OW19216   1.140   3.258   6.642
 2247SOL    HW119217   1.127   3.177   6.699
 2247SOL    HW219218   1.178   3.229   6.554
 2248SOL     OW19219   6.858   4.454   5.448
 2248SOL    HW119220   6.841   4.552   5.449
 2248SOL    HW219221   6.938   4.435   5.390
 2249SOL     OW19222   3.790   2.364   5.962
 2249SOL    HW119223   3.851   2.441   5.980
 2249SOL    HW219224   3.814   2.322   5.874
 2250SOL     OW19225   5.923   6.523   3.575
 2250SOL    HW119226   5.974   6.527   3.490
 2250SOL    HW219227   5.835   6.479   3.559
 2251SOL     OW19228   5.327   0.364   6.535
 2251SOL    HW119229   5.411   0.315   6.558
 2251SOL    HW219230   5.327   0.385   6.437
 2252SOL     OW19231   4.134   1.740   0.087
 2252SOL    HW119232   4.231   1.718   0.097
 2252SOL    HW219233   4.083   1.658   0.059
 2253SOL     OW19234   0.995   6.311   5.930
 2253SOL    HW119235   0.989   6.290   5.833
 2253SOL    HW219236   1.038   6.400   5.942
 2254SOL     OW19237   5.500   1.137   7.094
 2254SOL    HW119238   5.490   1.125   7.193
 2254SOL    HW219239   5.576   1.199   7.075
 2255SOL     OW19240   2.616   2.329   6.894
 2255SOL    HW119241   2.632   2.394   6.968
 2255SOL    HW219242   2.696   2.327   6.834
 2256SOL     OW19243   5.975   6.231   2.252
 2256SOL    HW119244   6.072   6.217   2.234
 2256SOL    HW219245   5.957   6.215   2.349
 2257SOL     OW19246   3.827   6.101   7.356
 2257SOL    HW119247   3.826   6.185   7.303
 2257SOL    HW219248   3.807   6.122   7.452
 2258SOL     OW19249   6.463   4.513   5.180
 2258SOL    HW119250   6.372   4.499   5.140
 2258SOL    HW219251   6.510   4.426   5.188
 2259SOL     OW19252   0.177   2.217   3.538
 2259SOL    HW119253   0.156   2.244   3.445
 2259SOL    HW219254   0.250   2.148   3.536
 2260SOL     OW19255   4.073   5.351   0.490
 2260SOL    HW119256   4.127   5.356   0.406
 2260SOL    HW219257   4.071   5.257   0.523
 2261SOL     OW19258   5.571   2.498   0.820
 2261SOL    HW119259   5.546   2.494   0.917
 2261SOL    HW219260   5.574   2.594   0.791
 2262SOL     OW19261   5.431   1.165   0.479
 2262SOL    HW119262   5.354   1.230   0.469
 2262SOL    HW219263   5.515   1.208   0.445
 2263SOL     OW19264   1.784   2.934   6.502
 2263SOL    HW119265   1.854   2.869   6.472
 2263SOL    HW219266   1.806   3.025   6.468
 2264SOL     OW19267   6.256   6.442   5.592
 2264SOL    HW119268   6.241   6.400   5.502
 2264SOL    HW219269   6.348   6.481   5.596
 2265SOL     OW19270   1.228   1.913   2.210
 2265SOL    HW119271   1.141   1.951   2.241
 2265SOL    HW219272   1.256   1.956   2.124
 2266SOL     OW19273   4.176   3.549   1.170
 2266SOL    HW119274   4.172   3.451   1.189
 2266SOL    HW219275   4.094   3.593   1.206
 2267SOL     OW19276   0.311   3.844   7.331
 2267SOL    HW119277   0.305   3.745   7.314
 2267SOL    HW219278   0.330   3.892   7.246
 2268SOL     OW19279   4.925   5.996   2.680
 2268SOL    HW119280   4.931   6.068   2.750
 2268SOL    HW219281   4.927   5.907   2.724
 2269SOL     OW19282   5.040   2.894   2.077
 2269SOL    HW119283   4.999   2.985   2.076
 2269SOL    HW219284   5.132   2.899   2.115
 2270SOL     OW19285   4.107   2.510   3.047
 2270SOL    HW119286   4.182   2.448   3.065
 2270SOL    HW219287   4.101   2.578   3.119
 2271SOL     OW19288   6.226   0.244   5.302
 2271SOL    HW119289   6.137   0.277   5.332
 2271SOL    HW219290   6.266   0.189   5.375
 2272SOL     OW19291   6.196   2.347   5.052
 2272SOL    HW119292   6.100   2.372   5.040
 2272SOL    HW219293   6.203   2.249   5.071
 2273SOL     OW19294   2.298   4.332   3.715
 2273SOL    HW119295   2.319   4.424   3.749
 2273SOL    HW219296   2.308   4.267   3.790
 2274SOL     OW19297   2.429   1.618   5.051
 2274SOL    HW119298   2.444   1.672   5.133
 2274SOL    HW219299   2.453   1.523   5.069
 2275SOL     OW19300   2.824   2.964   0.384
 2275SOL    HW119301   2.875   2.936   0.302
 2275SOL    HW219302   2.845   2.900   0.459
 2276SOL     OW19303   3.640   6.308   6.668
 2276SOL    HW119304   3.562   6.364   6.694
 2276SOL    HW219305   3.653   6.235   6.735
 2277SOL     OW19306   2.403   1.900   4.515
 2277SOL    HW119307   2.331   1.925   4.579
 2277SOL    HW219308   2.398   1.801   4.496
 2278SOL     OW19309   4.875   3.284   2.817
 2278SOL    HW119310   4.836   3.370   2.849
 2278SOL    HW219311   4.827   3.254   2.735
 2279SOL     OW19312   5.632   4.939   7.187
 2279SOL    HW119313   5.555   4.889   7.147
 2279SOL    HW219314   5.679   4.991   7.115
 2280SOL     OW19315   1.650   5.260   0.520
 2280SOL    HW119316   1.720   5.255   0.449
 2280SOL    HW219317   1.589   5.338   0.502
 2281SOL     OW19318   6.759   2.725   1.512
 2281SOL    HW119319   6.835   2.689   1.458
 2281SOL    HW219320   6.682   2.662   1.507
 2282SOL     OW19321   0.023   5.911   3.424
 2282SOL    HW119322  -0.055   5.850   3.438
 2282SOL    HW219323   0.000   5.979   3.355
 2283SOL     OW19324   1.339   4.648   1.292
 2283SOL    HW119325   1.303   4.692   1.374
 2283SOL    HW219326   1.417   4.589   1.316
 2284SOL     OW19327   4.285   1.500   0.541
 2284SOL    HW119328   4.299   1.571   0.472
 2284SOL    HW219329   4.187   1.477   0.546
 2285SOL     OW19330   5.725   0.515   6.388
 2285SOL    HW119331   5.718   0.588   6.455
 2285SOL    HW219332   5.806   0.460   6.408
 2286SOL     OW19333   6.244   6.604   1.966
 2286SOL    HW119334   6.226   6.658   1.884
 2286SOL    HW219335   6.227   6.660   2.047
 2287SOL     OW19336   5.618   2.140   1.426
 2287SOL    HW119337   5.648   2.123   1.520
 2287SOL    HW219338   5.671   2.082   1.363
 2288SOL     OW19339   5.325   0.210   3.737
 2288SOL    HW119340   5.333   0.115   3.705
 2288SOL    HW219341   5.393   0.266   3.690
 2289SOL     OW19342   3.688   3.511   5.151
 2289SOL    HW119343   3.744   3.430   5.137
 2289SOL    HW219344   3.648   3.509   5.243
 2290SOL     OW19345   3.780   0.752   0.842
 2290SOL    HW119346   3.873   0.742   0.878
 2290SOL    HW219347   3.778   0.722   0.747
 2291SOL     OW19348   4.926   2.976   1.013
 2291SOL    HW119349   4.848   3.039   1.019
 2291SOL    HW219350   4.963   2.978   0.920
 2292SOL     OW19351   1.938   0.408   0.619
 2292SOL    HW119352   1.964   0.314   0.597
 2292SOL    HW219353   1.883   0.408   0.703
 2293SOL     OW19354   5.778   3.651   3.311
 2293SOL    HW119355   5.825   3.563   3.304
 2293SOL    HW219356   5.697   3.642   3.369
 2294SOL     OW19357   2.583   2.487   1.066
 2294SOL    HW119358   2.569   2.585   1.054
 2294SOL    HW219359   2.528   2.454   1.143
 2295SOL     OW19360   0.742   5.443   0.444
 2295SOL    HW119361   0.784   5.465   0.532
 2295SOL    HW219362   0.768   5.350   0.417
 2296SOL     OW19363   1.684   5.509   6.665
 2296SOL    HW119364   1.763   5.537   6.611
 2296SOL    HW219365   1.701   5.418   6.704
 2297SOL     OW19366   2.965   7.057   5.785
 2297SOL    HW119367   2.973   7.046   5.884
 2297SOL    HW219368   3.018   7.137   5.756
 2298SOL     OW19369   3.006   4.047   4.334
 2298SOL    HW119370   2.971   4.119   4.394
 2298SOL    HW219371   3.000   3.959   4.381
 2299SOL     OW19372   2.823   3.308   1.675
 2299SOL    HW119373   2.875   3.259   1.745
 2299SOL    HW219374   2.860   3.286   1.585
 2300SOL     OW19375   0.217   2.913   2.794
 2300SOL    HW119376   0.259   2.966   2.720
 2300SOL    HW219377   0.275   2.917   2.875
 2301SOL     OW19378   3.860   0.283   2.065
 2301SOL    HW119379   3.822   0.356   2.008
 2301SOL    HW219380   3.836   0.298   2.160
 2302SOL     OW19381   4.702   2.509   5.560
 2302SOL    HW119382   4.784   2.489   5.612
 2302SOL    HW219383   4.622   2.505   5.619
 2303SOL     OW19384   5.598   3.965   5.619
 2303SOL    HW119385   5.646   3.877   5.621
 2303SOL    HW219386   5.547   3.973   5.533
 2304SOL     OW19387   6.951   4.461   5.832
 2304SOL    HW119388   6.940   4.469   5.931
 2304SOL    HW219389   7.040   4.496   5.805
 2305SOL     OW19390   5.685   5.292   0.762
 2305SOL    HW119391   5.749   5.269   0.836
 2305SOL    HW219392   5.729   5.275   0.674
 2306SOL     OW19393   6.393   3.524   2.957
 2306SOL    HW119394   6.411   3.475   2.872
 2306SOL    HW219395   6.442   3.612   2.955
 2307SOL     OW19396   6.705   6.654   6.774
 2307SOL    HW119397   6.805   6.649   6.770
 2307SOL    HW219398   6.668   6.561   6.777
 2308SOL     OW19399   1.207   6.443   7.318
 2308SOL    HW119400   1.165   6.352   7.319
 2308SOL    HW219401   1.294   6.439   7.269
 2309SOL     OW19402   2.580   6.937   3.532
 2309SOL    HW119403   2.515   6.924   3.607
 2309SOL    HW219404   2.637   6.855   3.523
 2310SOL     OW19405   6.122   1.110   6.812
 2310SOL    HW119406   6.058   1.038   6.784
 2310SOL    HW219407   6.140   1.102   6.910
 2311SOL     OW19408   6.221   0.089   5.982
 2311SOL    HW119409   6.296   0.119   5.924
 2311SOL    HW219410   6.155   0.037   5.927
 2312SOL     OW19411   0.151   1.757   3.466
 2312SOL    HW119412   0.107   1.709   3.542
 2312SOL    HW219413   0.246   1.728   3.460
 2313SOL     OW19414   1.257   2.424   0.353
 2313SOL    HW119415   1.188   2.484   0.311
 2313SOL    HW219416   1.271   2.344   0.295
 2314SOL     OW19417   1.898   5.252   5.483
 2314SOL    HW119418   1.849   5.168   5.504
 2314SOL    HW219419   1.866   5.325   5.543
 2315SOL     OW19420   4.901   3.697   0.995
 2315SOL    HW119421   4.981   3.637   0.985
 2315SOL    HW219422   4.894   3.756   0.915
 2316SOL     OW19423   4.981   1.409   2.433
 2316SOL    HW119424   4.901   1.393   2.491
 2316SOL    HW219425   5.036   1.483   2.471
 2317SOL     OW19426   1.035   2.142   6.855
 2317SOL    HW119427   0.997   2.103   6.939
 2317SOL    HW219428   1.122   2.186   6.875
 2318SOL     OW19429   3.156   0.590   0.097
 2318SOL    HW119430   3.077   0.631   0.052
 2318SOL    HW219431   3.128   0.505   0.142
 2319SOL     OW19432   1.115   2.930   3.676
 2319SOL    HW119433   1.110   2.870   3.596
 2319SOL    HW219434   1.054   2.896   3.747
 2320SOL     OW19435   6.633   7.000   3.742
 2320SOL    HW119436   6.542   6.966   3.718
 2320SOL    HW219437   6.666   7.061   3.670
 2321SOL     OW19438   3.344   3.923   0.341
 2321SOL    HW119439   3.444   3.919   0.339
 2321SOL    HW219440   3.315   3.991   0.409
 2322SOL     OW19441   4.928   5.269   3.482
 2322SOL    HW119442   4.917   5.181   3.435
 2322SOL    HW219443   4.928   5.343   3.415
 2323SOL     OW19444   4.347   1.325   0.746
 2323SOL    HW119445   4.289   1.364   0.674
 2323SOL    HW219446   4.356   1.391   0.821
 2324SOL     OW19447   0.968   3.745   1.056
 2324SOL    HW119448   0.947   3.783   0.966
 2324SOL    HW219449   1.013   3.814   1.111
 2325SOL     OW19450   4.285   6.018   5.161
 2325SOL    HW119451   4.302   6.009   5.259
 2325SOL    HW219452   4.372   6.037   5.114
 2326SOL     OW19453   7.073   1.281   2.571
 2326SOL    HW119454   6.976   1.307   2.570
 2326SOL    HW219455   7.082   1.188   2.607
 2327SOL     OW19456   5.931   5.935   2.296
 2327SOL    HW119457   5.927   5.841   2.263
 2327SOL    HW219458   6.021   5.953   2.337
 2328SOL     OW19459   0.784   1.015   2.785
 2328SOL    HW119460   0.880   1.043   2.786
 2328SOL    HW219461   0.770   0.948   2.712
 2329SOL     OW19462   6.703   6.113   2.538
 2329SOL    HW119463   6.765   6.149   2.608
 2329SOL    HW219464   6.610   6.112   2.573
 2330SOL     OW19465   1.364   0.288   5.551
 2330SOL    HW119466   1.410   0.256   5.634
 2330SOL    HW219467   1.285   0.228   5.533
 2331SOL     OW19468   0.727   4.484   0.482
 2331SOL    HW119469   0.785   4.452   0.556
 2331SOL    HW219470   0.776   4.552   0.428
 2332SOL     OW19471   7.176   2.216   7.108
 2332SOL    HW119472   7.113   2.212   7.031
 2332SOL    HW219473   7.245   2.144   7.098
 2333SOL     OW19474   1.363   6.286   5.736
 2333SOL    HW119475   1.387   6.230   5.657
 2333SOL    HW219476   1.339   6.227   5.813
 2334SOL     OW19477   5.033   6.734   2.677
 2334SOL    HW119478   5.039   6.697   2.770
 2334SOL    HW219479   5.079   6.672   2.613
 2335SOL     OW19480   0.546   4.643   1.057
 2335SOL    HW119481   0.477   4.584   1.099
 2335SOL    HW219482   0.529   4.738   1.083
 2336SOL     OW19483   4.436   0.509   1.691
 2336SOL    HW119484   4.475   0.599   1.709
 2336SOL    HW219485   4.470   0.444   1.759
 2337SOL     OW19486   3.782   3.590   5.586
 2337SOL    HW119487   3.756   3.512   5.644
 2337SOL    HW219488   3.726   3.590   5.503
 2338SOL     OW19489   4.676   2.280   1.861
 2338SOL    HW119490   4.750   2.341   1.890
 2338SOL    HW219491   4.589   2.329   1.867
 2339SOL     OW19492   0.848   1.427   3.237
 2339SOL    HW119493   0.862   1.396   3.331
 2339SOL    HW219494   0.820   1.349   3.180
 2340SOL     OW19495   4.909   1.965   2.620
 2340SOL    HW119496   4.922   1.962   2.719
 2340SOL    HW219497   4.817   1.999   2.600
 2341SOL     OW19498   6.644   2.567   6.669
 2341SOL    HW119499   6.731   2.614   6.683
 2341SOL    HW219500   6.629   2.550   6.572
 2342SOL     OW19501   5.451   3.228   6.708
 2342SOL    HW119502   5.430   3.176   6.791
 2342SOL    HW219503   5.376   3.292   6.689
 2343SOL     OW19504   4.409   4.167   5.150
 2343SOL    HW119505   4.481   4.234   5.133
 2343SOL    HW219506   4.324   4.214   5.173
 2344SOL     OW19507   5.519   5.660   4.599
 2344SOL    HW119508   5.470   5.584   4.641
 2344SOL    HW219509   5.491   5.745   4.645
 2345SOL     OW19510   2.626   3.624   0.527
 2345SOL    HW119511   2.700   3.570   0.487
 2345SOL    HW219512   2.541   3.604   0.480
 2346SOL     OW19513   2.611   0.078   0.524
 2346SOL    HW119514   2.514   0.064   0.540
 2346SOL    HW219515   2.651   0.124   0.603
 2347SOL     OW19516   0.028   0.920   1.274
 2347SOL    HW119517   0.017   1.017   1.253
 2347SOL    HW219518  -0.048   0.869   1.235
 2348SOL     OW19519   0.341   4.590   4.645
 2348SOL    HW119520   0.390   4.504   4.634
 2348SOL    HW219521   0.380   4.659   4.584
 2349SOL     OW19522   5.758   5.096   6.572
 2349SOL    HW119523   5.809   5.138   6.647
 2349SOL    HW219524   5.793   5.004   6.555
 2350SOL     OW19525   6.137   5.816   0.149
 2350SOL    HW119526   6.204   5.769   0.206
 2350SOL    HW219527   6.072   5.749   0.112
 2351SOL     OW19528   1.388   2.983   7.030
 2351SOL    HW119529   1.389   3.043   7.110
 2351SOL    HW219530   1.359   2.892   7.057
 2352SOL     OW19531   4.684   2.669   4.011
 2352SOL    HW119532   4.614   2.734   3.981
 2352SOL    HW219533   4.666   2.580   3.971
 2353SOL     OW19534   4.916   1.949   5.456
 2353SOL    HW119535   4.929   1.954   5.555
 2353SOL    HW219536   4.849   1.877   5.435
 2354SOL     OW19537   5.224   2.837   4.862
 2354SOL    HW119538   5.260   2.824   4.954
 2354SOL    HW219539   5.135   2.883   4.867
 2355SOL     OW19540   6.718   5.775   2.795
 2355SOL    HW119541   6.622   5.792   2.771
 2355SOL    HW219542   6.721   5.707   2.869
 2356SOL     OW19543   4.268   2.448   0.084
 2356SOL    HW119544   4.352   2.501   0.070
 2356SOL    HW219545   4.282   2.355   0.052
 2357SOL     OW19546   5.954   2.708   2.000
 2357SOL    HW119547   5.930   2.648   2.077
 2357SOL    HW219548   5.872   2.730   1.948
 2358SOL     OW19549   1.160   4.270   5.670
 2358SOL    HW119550   1.155   4.298   5.574
 2358SOL    HW219551   1.170   4.351   5.728
 2359SOL     OW19552   6.264   4.980   2.399
 2359SOL    HW119553   6.319   4.897   2.398
 2359SOL    HW219554   6.291   5.037   2.477
 2360SOL     OW19555   6.375   4.440   7.285
 2360SOL    HW119556   6.408   4.352   7.320
 2360SOL    HW219557   6.440   4.475   7.218
 2361SOL     OW19558   0.601   4.772   1.843
 2361SOL    HW119559   0.632   4.824   1.764
 2361SOL    HW219560   0.591   4.676   1.817
 2362SOL     OW19561   1.787   4.371   7.136
 2362SOL    HW119562   1.861   4.437   7.144
 2362SOL    HW219563   1.736   4.389   7.052
 2363SOL     OW19564   2.929   6.380   0.075
 2363SOL    HW119565   2.839   6.422   0.068
 2363SOL    HW219566   2.999   6.452   0.081
 2364SOL     OW19567   7.210   3.934   2.566
 2364SOL    HW119568   7.227   3.895   2.476
 2364SOL    HW219569   7.170   4.025   2.556
 2365SOL     OW19570   5.595   4.892   3.780
 2365SOL    HW119571   5.682   4.878   3.828
 2365SOL    HW219572   5.554   4.978   3.810
 2366SOL     OW19573   3.143   5.365   0.404
 2366SOL    HW119574   3.156   5.275   0.362
 2366SOL    HW219575   3.233   5.407   0.421
 2367SOL     OW19576   3.535   5.289   5.627
 2367SOL    HW119577   3.514   5.376   5.670
 2367SOL    HW219578   3.590   5.304   5.545
 2368SOL     OW19579   6.461   0.823   0.568
 2368SOL    HW119580   6.452   0.834   0.667
 2368SOL    HW219581   6.556   0.841   0.541
 2369SOL     OW19582   3.433   4.368   3.748
 2369SOL    HW119583   3.468   4.384   3.840
 2369SOL    HW219584   3.401   4.273   3.741
 2370SOL     OW19585   7.087   4.023   2.221
 2370SOL    HW119586   7.152   3.949   2.203
 2370SOL    HW219587   7.089   4.044   2.319
 2371SOL     OW19588   5.477   5.971   2.084
 2371SOL    HW119589   5.556   6.032   2.078
 2371SOL    HW219590   5.434   5.981   2.173
 2372SOL     OW19591   0.616   2.338   7.142
 2372SOL    HW119592   0.654   2.320   7.233
 2372SOL    HW219593   0.529   2.291   7.132
 2373SOL     OW19594   5.005   6.106   5.678
 2373SOL    HW119595   5.075   6.130   5.745
 2373SOL    HW219596   5.024   6.152   5.591
 2374SOL     OW19597   4.731   6.259   4.181
 2374SOL    HW119598   4.758   6.163   4.166
 2374SOL    HW219599   4.799   6.319   4.138
 2375SOL     OW19600   4.025   3.034   2.161
 2375SOL    HW119601   4.034   2.972   2.083
 2375SOL    HW219602   3.929   3.038   2.189
 2376SOL     OW19603   0.202   2.179   1.414
 2376SOL    HW119604   0.107   2.189   1.385
 2376SOL    HW219605   0.241   2.097   1.371
 2377SOL     OW19606   3.815   2.930   4.519
 2377SOL    HW119607   3.899   2.979   4.542
 2377SOL    HW219608   3.752   2.934   4.596
 2378SOL     OW19609   4.838   7.357   5.343
 2378SOL    HW119610   4.827   7.343   5.245
 2378SOL    HW219611   4.910   7.297   5.378
 2379SOL     OW19612   3.136   0.421   1.138
 2379SOL    HW119613   3.229   0.448   1.163
 2379SOL    HW219614   3.139   0.365   1.055
 2380SOL     OW19615   4.859   4.581   6.218
 2380SOL    HW119616   4.835   4.599   6.123
 2380SOL    HW219617   4.957   4.597   6.232
 2381SOL     OW19618   6.362   6.223   1.101
 2381SOL    HW119619   6.431   6.279   1.147
 2381SOL    HW219620   6.343   6.262   1.010
 2382SOL     OW19621   2.348   6.657   6.229
 2382SOL    HW119622   2.310   6.720   6.298
 2382SOL    HW219623   2.333   6.695   6.138
 2383SOL     OW19624   4.760   4.693   5.927
 2383SOL    HW119625   4.846   4.685   5.877
 2383SOL    HW219626   4.712   4.605   5.925
 2384SOL     OW19627   0.136   3.025   0.087
 2384SOL    HW119628   0.100   2.933   0.097
 2384SOL    HW219629   0.064   3.092   0.106
 2385SOL     OW19630   2.616   4.179   4.311
 2385SOL    HW119631   2.544   4.227   4.260
 2385SOL    HW219632   2.597   4.081   4.312
 2386SOL     OW19633   3.772   1.769   6.105
 2386SOL    HW119634   3.844   1.814   6.053
 2386SOL    HW219635   3.813   1.717   6.179
 2387SOL     OW19636   2.855   4.276   1.935
 2387SOL    HW119637   2.907   4.308   2.014
 2387SOL    HW219638   2.894   4.317   1.852
 2388SOL     OW19639   1.177   2.066   2.614
 2388SOL    HW119640   1.111   1.996   2.588
 2388SOL    HW219641   1.243   2.027   2.679
 2389SOL     OW19642   7.285   0.915   1.818
 2389SOL    HW119643   7.209   0.860   1.783
 2389SOL    HW219644   7.255   1.009   1.833
 2390SOL     OW19645   2.845   0.764   6.444
 2390SOL    HW119646   2.899   0.808   6.516
 2390SOL    HW219647   2.906   0.722   6.377
 2391SOL     OW19648   3.338   4.258   5.680
 2391SOL    HW119649   3.432   4.224   5.691
 2391SOL    HW219650   3.329   4.304   5.592
 2392SOL     OW19651   4.429   4.250   0.696
 2392SOL    HW119652   4.331   4.267   0.704
 2392SOL    HW219653   4.457   4.182   0.764
 2393SOL     OW19654   5.611   5.743   3.931
 2393SOL    HW119655   5.621   5.772   3.836
 2393SOL    HW219656   5.660   5.657   3.946
 2394SOL     OW19657   2.657   4.857   0.983
 2394SOL    HW119658   2.602   4.935   0.953
 2394SOL    HW219659   2.745   4.890   1.018
 2395SOL     OW19660   1.907   3.083   3.968
 2395SOL    HW119661   1.958   2.998   3.982
 2395SOL    HW219662   1.849   3.073   3.888
 2396SOL     OW19663   0.045   3.476   6.758
 2396SOL    HW119664   0.076   3.419   6.682
 2396SOL    HW219665   0.083   3.568   6.748
 2397SOL     OW19666   6.256   2.195   5.440
 2397SOL    HW119667   6.172   2.195   5.386
 2397SOL    HW219668   6.234   2.180   5.536
 2398SOL     OW19669   4.994   3.026   0.756
 2398SOL    HW119670   4.923   3.095   0.745
 2398SOL    HW219671   5.006   2.976   0.670
 2399SOL     OW19672   6.316   4.212   1.509
 2399SOL    HW119673   6.416   4.206   1.510
 2399SOL    HW219674   6.280   4.181   1.596
 2400SOL     OW19675   7.003   6.328   6.445
 2400SOL    HW119676   7.006   6.228   6.435
 2400SOL    HW219677   6.916   6.355   6.485
 2401SOL     OW19678   5.873   3.376   3.361
 2401SOL    HW119679   5.900   3.342   3.451
 2401SOL    HW219680   5.805   3.315   3.321
 2402SOL     OW19681   6.647   7.274   2.931
 2402SOL    HW119682   6.654   7.268   2.831
 2402SOL    HW219683   6.655   7.369   2.959
 2403SOL     OW19684   7.157   1.269   0.114
 2403SOL    HW119685   7.174   1.367   0.100
 2403SOL    HW219686   7.240   1.217   0.094
 2404SOL     OW19687   7.209   7.184   5.824
 2404SOL    HW119688   7.158   7.142   5.900
 2404SOL    HW219689   7.307   7.167   5.838
 2405SOL     OW19690   2.941   6.120   3.095
 2405SOL    HW119691   3.037   6.096   3.080
 2405SOL    HW219692   2.924   6.213   3.063
 2406SOL     OW19693   4.950   5.519   3.379
 2406SOL    HW119694   4.942   5.553   3.473
 2406SOL    HW219695   4.869   5.544   3.327
 2407SOL     OW19696   2.709   7.148   6.057
 2407SOL    HW119697   2.661   7.215   6.001
 2407SOL    HW219698   2.767   7.194   6.123
 2408SOL     OW19699   3.595   6.662   0.053
 2408SOL    HW119700   3.677   6.612   0.082
 2408SOL    HW219701   3.516   6.600   0.055
 2409SOL     OW19702   1.645   3.742   2.615
 2409SOL    HW119703   1.658   3.835   2.580
 2409SOL    HW219704   1.734   3.697   2.622
 2410SOL     OW19705   2.048   0.269   6.485
 2410SOL    HW119706   2.018   0.359   6.453
 2410SOL    HW219707   1.976   0.227   6.540
 2411SOL     OW19708   1.154   4.368   1.242
 2411SOL    HW119709   1.227   4.310   1.204
 2411SOL    HW219710   1.182   4.464   1.237
 2412SOL     OW19711   2.280   6.051   4.771
 2412SOL    HW119712   2.219   6.028   4.846
 2412SOL    HW219713   2.373   6.021   4.794
 2413SOL     OW19714   4.451   1.457   5.000
 2413SOL    HW119715   4.406   1.379   4.957
 2413SOL    HW219716   4.456   1.532   4.935
 2414SOL     OW19717   6.536   5.685   0.555
 2414SOL    HW119718   6.528   5.685   0.456
 2414SOL    HW219719   6.574   5.597   0.586
 2415SOL     OW19720   5.846   4.873   7.353
 2415SOL    HW119721   5.863   4.780   7.385
 2415SOL    HW219722   5.760   4.876   7.304
 2416SOL     OW19723   4.652   3.328   6.584
 2416SOL    HW119724   4.662   3.249   6.523
 2416SOL    HW219725   4.681   3.302   6.676
 2417SOL     OW19726   5.437   6.329   5.610
 2417SOL    HW119727   5.372   6.318   5.535
 2417SOL    HW219728   5.446   6.425   5.633
 2418SOL     OW19729   4.224   4.321   3.024
 2418SOL    HW119730   4.147   4.310   3.088
 2418SOL    HW219731   4.254   4.231   2.993
 2419SOL     OW19732   2.613   4.971   1.286
 2419SOL    HW119733   2.712   4.981   1.292
 2419SOL    HW219734   2.590   4.883   1.244
 2420SOL     OW19735   3.031   4.176   3.179
 2420SOL    HW119736   3.096   4.106   3.149
 2420SOL    HW219737   2.958   4.186   3.112
 2421SOL     OW19738   2.294   6.156   0.617
 2421SOL    HW119739   2.317   6.190   0.708
 2421SOL    HW219740   2.202   6.116   0.619
 2422SOL     OW19741   3.555   4.939   7.012
 2422SOL    HW119742   3.580   5.022   6.961
 2422SOL    HW219743   3.537   4.963   7.108
 2423SOL     OW19744   6.535   1.404   1.805
 2423SOL    HW119745   6.552   1.381   1.709
 2423SOL    HW219746   6.505   1.499   1.811
 2424SOL     OW19747   6.643   4.306   5.250
 2424SOL    HW119748   6.704   4.272   5.178
 2424SOL    HW219749   6.696   4.343   5.325
 2425SOL     OW19750   3.402   3.107   7.059
 2425SOL    HW119751   3.434   3.202   7.067
 2425SOL    HW219752   3.329   3.103   6.991
 2426SOL     OW19753   6.001   6.544   5.315
 2426SOL    HW119754   6.077   6.594   5.272
 2426SOL    HW219755   5.931   6.609   5.343
 2427SOL     OW19756   1.129   0.466   2.275
 2427SOL    HW119757   1.056   0.494   2.213
 2427SOL    HW219758   1.199   0.417   2.224
 2428SOL     OW19759   2.614   0.629   6.529
 2428SOL    HW119760   2.606   0.531   6.517
 2428SOL    HW219761   2.694   0.662   6.477
 2429SOL     OW19762   5.588   4.785   0.568
 2429SOL    HW119763   5.649   4.712   0.600
 2429SOL    HW219764   5.553   4.760   0.477
 2430SOL     OW19765   3.917   6.341   5.547
 2430SOL    HW119766   3.997   6.305   5.595
 2430SOL    HW219767   3.927   6.326   5.449
 2431SOL     OW19768   2.123   5.039   0.089
 2431SOL    HW119769   2.175   4.986   0.156
 2431SOL    HW219770   2.125   5.136   0.115
 2432SOL     OW19771   0.428   5.320   0.780
 2432SOL    HW119772   0.392   5.408   0.751
 2432SOL    HW219773   0.511   5.300   0.728
 2433SOL     OW19774   6.105   6.713   1.748
 2433SOL    HW119775   6.105   6.639   1.680
 2433SOL    HW219776   6.056   6.792   1.712
 2434SOL     OW19777   7.095   6.993   6.005
 2434SOL    HW119778   7.111   6.904   6.047
 2434SOL    HW219779   7.008   6.992   5.956
 2435SOL     OW19780   1.910   5.238   0.329
 2435SOL    HW119781   1.998   5.246   0.282
 2435SOL    HW219782   1.860   5.324   0.320
 2436SOL     OW19783   5.999   5.926   4.227
 2436SOL    HW119784   6.050   5.883   4.301
 2436SOL    HW219785   5.933   5.861   4.189
 2437SOL     OW19786   4.176   3.005   3.274
 2437SOL    HW119787   4.200   3.095   3.311
 2437SOL    HW219788   4.175   3.009   3.174
 2438SOL     OW19789   5.522   3.423   5.338
 2438SOL    HW119790   5.470   3.409   5.254
 2438SOL    HW219791   5.560   3.336   5.369
 2439SOL     OW19792   2.860   7.297   0.022
 2439SOL    HW119793   2.821   7.222  -0.032
 2439SOL    HW219794   2.878   7.265   0.115
 2440SOL     OW19795   5.182   2.169   6.121
 2440SOL    HW119796   5.248   2.095   6.113
 2440SOL    HW219797   5.229   2.254   6.145
 2441SOL     OW19798   4.387   1.458   6.829
 2441SOL    HW119799   4.352   1.510   6.906
 2441SOL    HW219800   4.477   1.421   6.852
 2442SOL     OW19801   3.674   3.082   5.746
 2442SOL    HW119802   3.678   3.178   5.771
 2442SOL    HW219803   3.616   3.033   5.811
 2443SOL     OW19804   1.153   4.208   7.178
 2443SOL    HW119805   1.106   4.122   7.158
 2443SOL    HW219806   1.198   4.202   7.267
 2444SOL     OW19807   6.885   4.519   1.498
 2444SOL    HW119808   6.911   4.553   1.588
 2444SOL    HW219809   6.846   4.594   1.444
 2445SOL     OW19810   4.283   4.340   1.428
 2445SOL    HW119811   4.333   4.365   1.511
 2445SOL    HW219812   4.330   4.379   1.349
 2446SOL     OW19813   4.885   6.593   6.415
 2446SOL    HW119814   4.822   6.661   6.452
 2446SOL    HW219815   4.979   6.620   6.435
 2447SOL     OW19816   3.480   4.698   3.023
 2447SOL    HW119817   3.513   4.619   3.075
 2447SOL    HW219818   3.491   4.780   3.078
 2448SOL     OW19819   2.493   4.106   1.190
 2448SOL    HW119820   2.455   4.124   1.099
 2448SOL    HW219821   2.420   4.080   1.252
 2449SOL     OW19822   5.459   0.470   3.370
 2449SOL    HW119823   5.464   0.521   3.284
 2449SOL    HW219824   5.404   0.387   3.357
 2450SOL     OW19825   6.186   1.789   7.281
 2450SOL    HW119826   6.246   1.712   7.260
 2450SOL    HW219827   6.096   1.754   7.306
 2451SOL     OW19828   1.339   2.725   1.082
 2451SOL    HW119829   1.359   2.749   0.987
 2451SOL    HW219830   1.423   2.693   1.126
 2452SOL     OW19831   1.801   1.358   1.725
 2452SOL    HW119832   1.714   1.354   1.774
 2452SOL    HW219833   1.845   1.446   1.741
 2453SOL     OW19834   4.399   3.537   2.814
 2453SOL    HW119835   4.457   3.570   2.740
 2453SOL    HW219836   4.453   3.480   2.876
 2454SOL     OW19837   5.358   5.398   7.351
 2454SOL    HW119838   5.273   5.437   7.387
 2454SOL    HW219839   5.341   5.305   7.319
 2455SOL     OW19840   6.832   5.119   5.626
 2455SOL    HW119841   6.756   5.167   5.583
 2455SOL    HW219842   6.900   5.184   5.657
 2456SOL     OW19843   5.911   5.504   1.085
 2456SOL    HW119844   5.912   5.572   1.012
 2456SOL    HW219845   5.915   5.412   1.045
 2457SOL     OW19846   0.006   2.969   3.774
 2457SOL    HW119847   0.064   3.049   3.789
 2457SOL    HW219848   0.032   2.925   3.688
 2458SOL     OW19849   3.974   3.611   5.773
 2458SOL    HW119850   3.908   3.600   5.699
 2458SOL    HW219851   4.025   3.696   5.760
 2459SOL     OW19852   5.750   5.303   6.339
 2459SOL    HW119853   5.840   5.338   6.311
 2459SOL    HW219854   5.762   5.231   6.408
 2460SOL     OW19855   2.991   5.892   1.393
 2460SOL    HW119856   2.903   5.935   1.373
 2460SOL    HW219857   2.984   5.840   1.478
 2461SOL     OW19858   6.003   5.519   5.793
 2461SOL    HW119859   6.018   5.589   5.864
 2461SOL    HW219860   6.051   5.546   5.710
 2462SOL     OW19861   3.411   5.220   7.009
 2462SOL    HW119862   3.437   5.293   7.073
 2462SOL    HW219863   3.320   5.186   7.034
 2463SOL     OW19864   7.359   0.349   6.206
 2463SOL    HW119865   7.333   0.269   6.152
 2463SOL    HW219866   7.287   0.418   6.198
 2464SOL     OW19867   0.160   3.558   3.150
 2464SOL    HW119868   0.109   3.535   3.233
 2464SOL    HW219869   0.123   3.642   3.110
 2465SOL     OW19870   2.677   4.361   6.979
 2465SOL    HW119871   2.761   4.401   7.015
 2465SOL    HW219872   2.642   4.418   6.905
 2466SOL     OW19873   6.123   4.092   0.598
 2466SOL    HW119874   6.213   4.135   0.592
 2466SOL    HW219875   6.123   4.006   0.547
 2467SOL     OW19876   4.541   5.393   3.545
 2467SOL    HW119877   4.452   5.438   3.545
 2467SOL    HW219878   4.567   5.372   3.640
 2468SOL     OW19879   5.606   6.918   2.347
 2468SOL    HW119880   5.529   6.957   2.398
 2468SOL    HW219881   5.684   6.981   2.353
 2469SOL     OW19882   7.019   0.512   0.588
 2469SOL    HW119883   7.017   0.414   0.565
 2469SOL    HW219884   7.044   0.523   0.684
 2470SOL     OW19885   4.072   2.538   4.845
 2470SOL    HW119886   4.059   2.446   4.808
 2470SOL    HW219887   4.060   2.605   4.772
 2471SOL     OW19888   5.311   2.938   2.177
 2471SOL    HW119889   5.289   3.030   2.209
 2471SOL    HW219890   5.378   2.943   2.103
 2472SOL     OW19891   1.971   2.860   6.311
 2472SOL    HW119892   1.939   2.768   6.289
 2472SOL    HW219893   2.061   2.875   6.270
 2473SOL     OW19894   0.173   3.785   6.253
 2473SOL    HW119895   0.113   3.750   6.325
 2473SOL    HW219896   0.264   3.745   6.262
 2474SOL     OW19897   3.716   5.117   5.159
 2474SOL    HW119898   3.624   5.083   5.139
 2474SOL    HW219899   3.782   5.042   5.146
 2475SOL     OW19900   5.070   4.849   3.443
 2475SOL    HW119901   5.033   4.788   3.514
 2475SOL    HW219902   4.998   4.908   3.409
 2476SOL     OW19903   0.832   5.552   1.623
 2476SOL    HW119904   0.903   5.605   1.578
 2476SOL    HW219905   0.748   5.605   1.628
 2477SOL     OW19906   3.505   2.364   1.018
 2477SOL    HW119907   3.444   2.442   1.001
 2477SOL    HW219908   3.541   2.370   1.111
 2478SOL     OW19909   6.247   6.228   3.924
 2478SOL    HW119910   6.184   6.209   3.849
 2478SOL    HW219911   6.341   6.228   3.891
 2479SOL     OW19912   2.360   2.227   2.258
 2479SOL    HW119913   2.428   2.200   2.326
 2479SOL    HW219914   2.333   2.322   2.275
 2480SOL     OW19915   7.144   6.638   1.420
 2480SOL    HW119916   7.068   6.699   1.443
 2480SOL    HW219917   7.210   6.686   1.363
 2481SOL     OW19918   1.242   2.452   2.730
 2481SOL    HW119919   1.176   2.479   2.800
 2481SOL    HW219920   1.197   2.394   2.663
 2482SOL     OW19921   6.008   4.478   2.741
 2482SOL    HW119922   5.983   4.417   2.665
 2482SOL    HW219923   5.947   4.557   2.741
 2483SOL     OW19924   4.656   4.189   3.085
 2483SOL    HW119925   4.639   4.181   2.987
 2483SOL    HW219926   4.600   4.123   3.134
 2484SOL     OW19927   4.659   1.971   6.090
 2484SOL    HW119928   4.742   1.981   6.035
 2484SOL    HW219929   4.652   2.048   6.154
 2485SOL     OW19930   4.348   4.149   5.445
 2485SOL    HW119931   4.429   4.146   5.503
 2485SOL    HW219932   4.369   4.106   5.357
 2486SOL     OW19933   3.172   6.206   0.544
 2486SOL    HW119934   3.263   6.165   0.546
 2486SOL    HW219935   3.113   6.160   0.610
 2487SOL     OW19936   0.514   0.923   2.037
 2487SOL    HW119937   0.442   0.954   1.975
 2487SOL    HW219938   0.592   0.986   2.032
 2488SOL     OW19939   4.348   1.419   1.443
 2488SOL    HW119940   4.341   1.320   1.433
 2488SOL    HW219941   4.323   1.445   1.536
 2489SOL     OW19942   3.966   5.965   5.553
 2489SOL    HW119943   3.973   6.017   5.468
 2489SOL    HW219944   3.994   5.870   5.536
 2490SOL     OW19945   1.178   0.731   1.468
 2490SOL    HW119946   1.110   0.687   1.411
 2490SOL    HW219947   1.165   0.702   1.563
 2491SOL     OW19948   3.496   6.628   1.772
 2491SOL    HW119949   3.418   6.629   1.709
 2491SOL    HW219950   3.480   6.694   1.846
 2492SOL     OW19951   0.188   0.210   6.344
 2492SOL    HW119952   0.186   0.205   6.444
 2492SOL    HW219953   0.143   0.295   6.315
 2493SOL     OW19954   4.155   1.351   1.150
 2493SOL    HW119955   4.088   1.279   1.128
 2493SOL    HW219956   4.245   1.310   1.161
 2494SOL     OW19957   6.994   5.605   7.134
 2494SOL    HW119958   7.061   5.649   7.074
 2494SOL    HW219959   7.037   5.527   7.181
 2495SOL     OW19960   5.481   2.931   0.463
 2495SOL    HW119961   5.539   3.009   0.440
 2495SOL    HW219962   5.409   2.921   0.394
 2496SOL     OW19963   0.915   3.586   5.528
 2496SOL    HW119964   0.885   3.681   5.520
 2496SOL    HW219965   0.917   3.543   5.438
 2497SOL     OW19966   0.846   0.358   1.405
 2497SOL    HW119967   0.755   0.345   1.445
 2497SOL    HW219968   0.851   0.309   1.318
 2498SOL     OW19969   2.068   5.531   3.733
 2498SOL    HW119970   2.134   5.523   3.659
 2498SOL    HW219971   1.986   5.478   3.711
 2499SOL     OW19972   3.412   4.340   6.304
 2499SOL    HW119973   3.476   4.327   6.228
 2499SOL    HW219974   3.335   4.277   6.294
 2500SOL     OW19975   5.598   3.295   7.036
 2500SOL    HW119976   5.603   3.390   7.065
 2500SOL    HW219977   5.502   3.270   7.021
 2501SOL     OW19978   0.401   1.646   3.464
 2501SOL    HW119979   0.477   1.637   3.401
 2501SOL    HW219980   0.375   1.555   3.498
 2502SOL     OW19981   5.766   2.719   0.995
 2502SOL    HW119982   5.715   2.748   0.913
 2502SOL    HW219983   5.792   2.799   1.048
 2503SOL     OW19984   4.571   0.872   4.261
 2503SOL    HW119985   4.574   0.781   4.303
 2503SOL    HW219986   4.487   0.919   4.287
 2504SOL     OW19987   6.294   2.191   5.735
 2504SOL    HW119988   6.243   2.275   5.716
 2504SOL    HW219989   6.392   2.208   5.722
 2505SOL     OW19990   4.599   4.285   3.776
 2505SOL    HW119991   4.682   4.267   3.723
 2505SOL    HW219992   4.591   4.218   3.850
 2506SOL     OW19993   2.610   1.700   0.035
 2506SOL    HW119994   2.698   1.715   0.079
 2506SOL    HW219995   2.544   1.665   0.101
 2507SOL     OW19996   6.324   1.723   4.783
 2507SOL    HW119997   6.309   1.813   4.824
 2507SOL    HW219998   6.421   1.710   4.764
 2508SOL     OW19999   4.091   3.919   0.481
 2508SOL    HW120000   4.097   3.824   0.450
 2508SOL    HW220001   4.001   3.936   0.521
 2509SOL     OW20002   1.854   4.345   5.491
 2509SOL    HW120003   1.890   4.259   5.525
 2509SOL    HW220004   1.812   4.331   5.402
 2510SOL     OW20005   6.092   3.603   2.971
 2510SOL    HW120006   6.169   3.652   3.011
 2510SOL    HW220007   6.075   3.519   3.023
 2511SOL     OW20008   3.883   3.824   5.466
 2511SOL    HW120009   3.863   3.770   5.384
 2511SOL    HW220010   3.863   3.770   5.548
 2512SOL     OW20011   3.539   3.608   0.540
 2512SOL    HW120012   3.626   3.636   0.582
 2512SOL    HW220013   3.533   3.508   0.540
 2513SOL     OW20014   2.372   5.226   3.147
 2513SOL    HW120015   2.294   5.192   3.199
 2513SOL    HW220016   2.360   5.204   3.050
 2514SOL     OW20017   5.489   5.137   3.864
 2514SOL    HW120018   5.449   5.133   3.956
 2514SOL    HW220019   5.429   5.189   3.804
 2515SOL     OW20020   5.496   6.019   1.459
 2515SOL    HW120021   5.437   6.097   1.481
 2515SOL    HW220022   5.466   5.978   1.373
 2516SOL     OW20023   2.191   0.741   6.838
 2516SOL    HW120024   2.247   0.659   6.831
 2516SOL    HW220025   2.185   0.770   6.934
 2517SOL     OW20026   2.582   3.447   2.055
 2517SOL    HW120027   2.633   3.364   2.075
 2517SOL    HW220028   2.487   3.437   2.086
 2518SOL     OW20029   4.737   6.372   5.396
 2518SOL    HW120030   4.742   6.450   5.334
 2518SOL    HW220031   4.642   6.356   5.423
 2519SOL     OW20032   2.304   5.550   3.984
 2519SOL    HW120033   2.233   5.555   3.914
 2519SOL    HW220034   2.358   5.635   3.983
 2520SOL     OW20035   6.566   5.767   3.436
 2520SOL    HW120036   6.558   5.668   3.449
 2520SOL    HW220037   6.562   5.788   3.338
 2521SOL     OW20038   4.695   3.887   0.160
 2521SOL    HW120039   4.774   3.934   0.199
 2521SOL    HW220040   4.706   3.879   0.061
 2522SOL     OW20041   3.100   2.327   0.628
 2522SOL    HW120042   3.173   2.323   0.697
 2522SOL    HW220043   3.043   2.407   0.645
 2523SOL     OW20044   5.999   4.050   6.780
 2523SOL    HW120045   5.994   4.097   6.692
 2523SOL    HW220046   6.040   4.110   6.848
 2524SOL     OW20047   3.056   2.484   3.974
 2524SOL    HW120048   3.108   2.398   3.967
 2524SOL    HW220049   2.970   2.467   4.021
 2525SOL     OW20050   3.468   4.407   4.873
 2525SOL    HW120051   3.376   4.368   4.878
 2525SOL    HW220052   3.478   4.458   4.788
 2526SOL     OW20053   3.163   0.503   2.206
 2526SOL    HW120054   3.147   0.451   2.290
 2526SOL    HW220055   3.259   0.495   2.180
 2527SOL     OW20056   0.444   1.600   0.475
 2527SOL    HW120057   0.398   1.664   0.414
 2527SOL    HW220058   0.412   1.507   0.456
 2528SOL     OW20059   4.602   6.472   4.289
 2528SOL    HW120060   4.669   6.493   4.361
 2528SOL    HW220061   4.631   6.390   4.241
 2529SOL     OW20062   7.004   5.100   1.847
 2529SOL    HW120063   7.042   5.008   1.853
 2529SOL    HW220064   6.911   5.095   1.811
 2530SOL     OW20065   3.421   1.331   5.746
 2530SOL    HW120066   3.387   1.423   5.766
 2530SOL    HW220067   3.498   1.311   5.807
 2531SOL     OW20068   2.871   4.366   2.491
 2531SOL    HW120069   2.775   4.355   2.467
 2531SOL    HW220070   2.880   4.438   2.559
 2532SOL     OW20071   3.624   5.567   1.323
 2532SOL    HW120072   3.627   5.583   1.422
 2532SOL    HW220073   3.700   5.508   1.297
 2533SOL     OW20074   1.604   2.645   1.993
 2533SOL    HW120075   1.513   2.628   2.030
 2533SOL    HW220076   1.627   2.574   1.927
 2534SOL     OW20077   6.245   0.042   0.484
 2534SOL    HW120078   6.315   0.095   0.437
 2534SOL    HW220079   6.169   0.022   0.422
 2535SOL     OW20080   5.318   3.772   6.403
 2535SOL    HW120081   5.387   3.811   6.341
 2535SOL    HW220082   5.231   3.820   6.390
 2536SOL     OW20083   4.796   5.954   7.247
 2536SOL    HW120084   4.797   6.011   7.329
 2536SOL    HW220085   4.784   5.858   7.272
 2537SOL     OW20086   2.046   5.673   4.657
 2537SOL    HW120087   1.981   5.679   4.733
 2537SOL    HW220088   2.128   5.726   4.678
 2538SOL     OW20089   5.526   6.579   5.354
 2538SOL    HW120090   5.461   6.647   5.320
 2538SOL    HW220091   5.556   6.606   5.446
 2539SOL     OW20092   2.127   6.185   6.049
 2539SOL    HW120093   2.050   6.121   6.044
 2539SOL    HW220094   2.158   6.206   5.956
 2540SOL     OW20095   6.205   2.724   4.518
 2540SOL    HW120096   6.150   2.804   4.541
 2540SOL    HW220097   6.181   2.692   4.426
 2541SOL     OW20098   2.244   4.285   1.078
 2541SOL    HW120099   2.194   4.352   1.134
 2541SOL    HW220100   2.340   4.312   1.072
 2542SOL     OW20101   2.360   2.156   1.133
 2542SOL    HW120102   2.269   2.147   1.093
 2542SOL    HW220103   2.429   2.121   1.070
 2543SOL     OW20104   4.628   0.090   0.311
 2543SOL    HW120105   4.552   0.074   0.248
 2543SOL    HW220106   4.675   0.174   0.285
 2544SOL     OW20107   4.513   3.837   0.613
 2544SOL    HW120108   4.561   3.772   0.554
 2544SOL    HW220109   4.580   3.891   0.665
 2545SOL     OW20110   1.928   2.048   5.754
 2545SOL    HW120111   1.879   1.976   5.705
 2545SOL    HW220112   1.905   2.137   5.715
 2546SOL     OW20113   4.212   0.942   2.947
 2546SOL    HW120114   4.312   0.945   2.944
 2546SOL    HW220115   4.181   0.929   3.041
 2547SOL     OW20116   3.711   3.590   1.018
 2547SOL    HW120117   3.700   3.687   1.039
 2547SOL    HW220118   3.701   3.536   1.102
 2548SOL     OW20119   0.358   3.901   0.758
 2548SOL    HW120120   0.331   3.985   0.805
 2548SOL    HW220121   0.292   3.829   0.778
 2549SOL     OW20122   5.783   3.400   2.659
 2549SOL    HW120123   5.739   3.438   2.740
 2549SOL    HW220124   5.882   3.398   2.673
 2550SOL     OW20125   0.668   6.404   7.220
 2550SOL    HW120126   0.601   6.443   7.158
 2550SOL    HW220127   0.701   6.476   7.282
 2551SOL     OW20128   4.313   4.733   3.664
 2551SOL    HW120129   4.365   4.647   3.665
 2551SOL    HW220130   4.372   4.807   3.630
 2552SOL     OW20131   4.666   5.984   3.118
 2552SOL    HW120132   4.675   6.082   3.103
 2552SOL    HW220133   4.688   5.963   3.214
 2553SOL     OW20134   1.224   5.354   0.074
 2553SOL    HW120135   1.261   5.441   0.043
 2553SOL    HW220136   1.266   5.330   0.162
 2554SOL     OW20137   3.968   5.481   6.908
 2554SOL    HW120138   4.022   5.411   6.955
 2554SOL    HW220139   3.944   5.448   6.817
 2555SOL     OW20140   6.196   1.667   1.422
 2555SOL    HW120141   6.149   1.747   1.458
 2555SOL    HW220142   6.129   1.599   1.392
 2556SOL     OW20143   3.241   5.401   3.494
 2556SOL    HW120144   3.208   5.478   3.440
 2556SOL    HW220145   3.298   5.435   3.569
 2557SOL     OW20146   0.565   6.480   6.332
 2557SOL    HW120147   0.586   6.418   6.407
 2557SOL    HW220148   0.467   6.481   6.315
 2558SOL     OW20149   1.751   1.018   3.136
 2558SOL    HW120150   1.793   0.995   3.224
 2558SOL    HW220151   1.742   0.935   3.081
 2559SOL     OW20152   5.492   2.119   5.108
 2559SOL    HW120153   5.501   2.052   5.182
 2559SOL    HW220154   5.414   2.178   5.127
 2560SOL     OW20155   0.372   3.586   6.477
 2560SOL    HW120156   0.367   3.683   6.501
 2560SOL    HW220157   0.390   3.532   6.559
 2561SOL     OW20158   2.306   0.769   5.343
 2561SOL    HW120159   2.358   0.692   5.380
 2561SOL    HW220160   2.352   0.854   5.367
 2562SOL     OW20161   3.321   6.560   0.805
 2562SOL    HW120162   3.262   6.552   0.885
 2562SOL    HW220163   3.400   6.618   0.827
 2563SOL     OW20164   0.908   5.560   4.189
 2563SOL    HW120165   1.007   5.579   4.185
 2563SOL    HW220166   0.876   5.571   4.282
 2564SOL     OW20167   2.676   4.768   6.504
 2564SOL    HW120168   2.602   4.718   6.460
 2564SOL    HW220169   2.642   4.855   6.540
 2565SOL     OW20170   5.223   6.502   1.956
 2565SOL    HW120171   5.308   6.529   2.002
 2565SOL    HW220172   5.221   6.402   1.947
 2566SOL     OW20173   1.267   3.803   2.278
 2566SOL    HW120174   1.315   3.778   2.362
 2566SOL    HW220175   1.227   3.721   2.237
 2567SOL     OW20176   5.248   3.391   6.590
 2567SOL    HW120177   5.310   3.470   6.581
 2567SOL    HW220178   5.178   3.395   6.519
 2568SOL     OW20179   5.644   6.520   6.783
 2568SOL    HW120180   5.730   6.549   6.824
 2568SOL    HW220181   5.662   6.463   6.703
 2569SOL     OW20182   7.186   0.746   1.245
 2569SOL    HW120183   7.106   0.799   1.273
 2569SOL    HW220184   7.225   0.700   1.325
 2570SOL     OW20185   2.158   3.389   4.815
 2570SOL    HW120186   2.085   3.406   4.748
 2570SOL    HW220187   2.121   3.401   4.907
 2571SOL     OW20188   7.166   0.065   6.559
 2571SOL    HW120189   7.196   0.026   6.472
 2571SOL    HW220190   7.234   0.044   6.630
 2572SOL     OW20191   1.068   6.339   6.947
 2572SOL    HW120192   1.134   6.282   6.997
 2572SOL    HW220193   1.117   6.406   6.891
 2573SOL     OW20194   1.267   2.558   6.532
 2573SOL    HW120195   1.280   2.465   6.566
 2573SOL    HW220196   1.169   2.577   6.524
 2574SOL     OW20197   1.150   1.440   2.913
 2574SOL    HW120198   1.126   1.374   2.983
 2574SOL    HW220199   1.088   1.519   2.917
 2575SOL     OW20200   4.612   6.979   3.694
 2575SOL    HW120201   4.514   6.961   3.682
 2575SOL    HW220202   4.644   6.933   3.777
 2576SOL     OW20203   7.130   6.339   6.691
 2576SOL    HW120204   7.155   6.432   6.718
 2576SOL    HW220205   7.115   6.336   6.593
 2577SOL     OW20206   1.161   4.967   3.502
 2577SOL    HW120207   1.250   5.006   3.527
 2577SOL    HW220208   1.088   5.018   3.548
 2578SOL     OW20209   1.920   6.954   2.573
 2578SOL    HW120210   1.967   6.960   2.661
 2578SOL    HW220211   1.865   7.037   2.560
 2579SOL     OW20212   1.760   3.279   7.056
 2579SOL    HW120213   1.737   3.314   6.965
 2579SOL    HW220214   1.858   3.289   7.072
 2580SOL     OW20215   5.748   5.699   4.923
 2580SOL    HW120216   5.791   5.689   4.833
 2580SOL    HW220217   5.659   5.744   4.912
 2581SOL     OW20218   1.742   0.803   0.665
 2581SOL    HW120219   1.740   0.839   0.572
 2581SOL    HW220220   1.822   0.838   0.713
 2582SOL     OW20221   2.419   0.597   3.564
 2582SOL    HW120222   2.412   0.573   3.661
 2582SOL    HW220223   2.328   0.624   3.530
 2583SOL     OW20224   5.746   6.308   5.472
 2583SOL    HW120225   5.704   6.219   5.455
 2583SOL    HW220226   5.743   6.363   5.388
 2584SOL     OW20227   0.246   4.339   2.121
 2584SOL    HW120228   0.246   4.253   2.070
 2584SOL    HW220229   0.187   4.330   2.201
 2585SOL     OW20230   0.356   4.886   1.392
 2585SOL    HW120231   0.295   4.942   1.448
 2585SOL    HW220232   0.302   4.819   1.341
 2586SOL     OW20233   5.710   1.986   1.210
 2586SOL    HW120234   5.741   1.934   1.290
 2586SOL    HW220235   5.634   1.938   1.166
 2587SOL     OW20236   0.235   5.457   4.674
 2587SOL    HW120237   0.204   5.373   4.719
 2587SOL    HW220238   0.311   5.436   4.613
 2588SOL     OW20239   1.107   3.133   3.369
 2588SOL    HW120240   1.129   3.230   3.367
 2588SOL    HW220241   1.077   3.107   3.461
 2589SOL     OW20242   6.157   6.316   6.139
 2589SOL    HW120243   6.207   6.381   6.082
 2589SOL    HW220244   6.221   6.250   6.179
 2590SOL     OW20245   2.853   5.472   1.031
 2590SOL    HW120246   2.891   5.553   0.987
 2590SOL    HW220247   2.833   5.493   1.127
 2591SOL     OW20248   0.076   2.112   5.261
 2591SOL    HW120249   0.129   2.191   5.291
 2591SOL    HW220250   0.103   2.032   5.316
 2592SOL     OW20251   5.330   5.223   5.576
 2592SOL    HW120252   5.353   5.166   5.655
 2592SOL    HW220253   5.235   5.254   5.584
 2593SOL     OW20254   3.579   2.861   6.820
 2593SOL    HW120255   3.495   2.915   6.815
 2593SOL    HW220256   3.639   2.886   6.744
 2594SOL     OW20257   1.808   3.605   3.517
 2594SOL    HW120258   1.752   3.525   3.495
 2594SOL    HW220259   1.754   3.671   3.569
 2595SOL     OW20260   2.597   5.302   4.321
 2595SOL    HW120261   2.577   5.340   4.412
 2595SOL    HW220262   2.583   5.203   4.322
 2596SOL     OW20263   4.980   7.245   1.443
 2596SOL    HW120264   5.006   7.253   1.347
 2596SOL    HW220265   4.903   7.181   1.451
 2597SOL     OW20266   2.269   0.079   1.156
 2597SOL    HW120267   2.284   0.174   1.181
 2597SOL    HW220268   2.348   0.046   1.103
 2598SOL     OW20269   0.845   6.065   0.356
 2598SOL    HW120270   0.903   6.130   0.308
 2598SOL    HW220271   0.792   6.012   0.290
 2599SOL     OW20272   6.224   2.500   6.637
 2599SOL    HW120273   6.132   2.473   6.665
 2599SOL    HW220274   6.290   2.467   6.704
 2600SOL     OW20275   0.811   0.065   1.690
 2600SOL    HW120276   0.840  -0.018   1.737
 2600SOL    HW220277   0.883   0.135   1.696
 2601SOL     OW20278   5.385   3.808   0.061
 2601SOL    HW120279   5.308   3.784   0.002
 2601SOL    HW220280   5.449   3.866   0.010
 2602SOL     OW20281   4.727   3.105   6.438
 2602SOL    HW120282   4.738   3.025   6.497
 2602SOL    HW220283   4.811   3.120   6.386
 2603SOL     OW20284   6.277   0.521   4.590
 2603SOL    HW120285   6.259   0.614   4.558
 2603SOL    HW220286   6.297   0.462   4.513
 2604SOL     OW20287   0.582   0.281   1.468
 2604SOL    HW120288   0.494   0.322   1.490
 2604SOL    HW220289   0.568   0.189   1.431
 2605SOL     OW20290   2.945   3.587   0.934
 2605SOL    HW120291   2.990   3.658   0.880
 2605SOL    HW220292   2.857   3.565   0.893
 2606SOL     OW20293   5.075   3.834   3.665
 2606SOL    HW120294   5.106   3.772   3.737
 2606SOL    HW220295   5.151   3.855   3.603
 2607SOL     OW20296   3.437   2.988   4.980
 2607SOL    HW120297   3.353   2.935   4.966
 2607SOL    HW220298   3.515   2.925   4.990
 2608SOL     OW20299   0.364   1.437   2.145
 2608SOL    HW120300   0.447   1.393   2.112
 2608SOL    HW220301   0.297   1.367   2.169
 2609SOL     OW20302   2.448   3.061   5.859
 2609SOL    HW120303   2.370   3.114   5.892
 2609SOL    HW220304   2.530   3.084   5.912
 2610SOL     OW20305   2.256   7.035   1.632
 2610SOL    HW120306   2.314   7.078   1.701
 2610SOL    HW220307   2.179   7.096   1.612
 2611SOL     OW20308   3.435   6.148   0.556
 2611SOL    HW120309   3.511   6.120   0.497
 2611SOL    HW220310   3.427   6.083   0.632
 2612SOL     OW20311   7.095   2.768   5.834
 2612SOL    HW120312   7.076   2.672   5.811
 2612SOL    HW220313   7.182   2.775   5.881
 2613SOL     OW20314   0.210   4.120   6.177
 2613SOL    HW120315   0.177   4.083   6.264
 2613SOL    HW220316   0.275   4.055   6.136
 2614SOL     OW20317   5.089   5.181   6.505
 2614SOL    HW120318   5.125   5.248   6.440
 2614SOL    HW220319   5.164   5.127   6.542
 2615SOL     OW20320   3.673   3.584   2.055
 2615SOL    HW120321   3.659   3.683   2.055
 2615SOL    HW220322   3.585   3.538   2.040
 2616SOL     OW20323   0.168   2.353   5.382
 2616SOL    HW120324   0.182   2.338   5.479
 2616SOL    HW220325   0.170   2.451   5.363
 2617SOL     OW20326   1.107   2.274   6.467
 2617SOL    HW120327   1.169   2.254   6.543
 2617SOL    HW220328   1.122   2.208   6.393
 2618SOL     OW20329   5.429   6.986   3.834
 2618SOL    HW120330   5.520   6.966   3.797
 2618SOL    HW220331   5.390   6.903   3.873
 2619SOL     OW20332   2.128   1.125   2.120
 2619SOL    HW120333   2.202   1.188   2.146
 2619SOL    HW220334   2.082   1.159   2.038
 2620SOL     OW20335   4.728   6.653   4.803
 2620SOL    HW120336   4.781   6.569   4.809
 2620SOL    HW220337   4.789   6.731   4.789
 2621SOL     OW20338   5.960   3.255   2.001
 2621SOL    HW120339   5.925   3.328   2.059
 2621SOL    HW220340   6.058   3.269   1.986
 2622SOL     OW20341   5.504   2.723   1.345
 2622SOL    HW120342   5.444   2.706   1.424
 2622SOL    HW220343   5.599   2.708   1.372
 2623SOL     OW20344   7.125   3.507   4.386
 2623SOL    HW120345   7.080   3.427   4.348
 2623SOL    HW220346   7.174   3.556   4.313
 2624SOL     OW20347   4.239   1.809   1.765
 2624SOL    HW120348   4.182   1.765   1.834
 2624SOL    HW220349   4.182   1.868   1.708
 2625SOL     OW20350   3.387   0.009   4.568
 2625SOL    HW120351   3.389  -0.070   4.506
 2625SOL    HW220352   3.467   0.008   4.627
 2626SOL     OW20353   6.817   2.129   1.144
 2626SOL    HW120354   6.761   2.182   1.207
 2626SOL    HW220355   6.806   2.163   1.051
 2627SOL     OW20356   6.419   4.096   6.470
 2627SOL    HW120357   6.472   4.180   6.477
 2627SOL    HW220358   6.478   4.022   6.439
 2628SOL     OW20359   6.552   6.901   3.208
 2628SOL    HW120360   6.640   6.887   3.252
 2628SOL    HW220361   6.484   6.839   3.249
 2629SOL     OW20362   5.618   5.482   5.033
 2629SOL    HW120363   5.520   5.502   5.029
 2629SOL    HW220364   5.670   5.565   5.014
 2630SOL     OW20365   6.091   6.636   6.632
 2630SOL    HW120366   6.156   6.562   6.617
 2630SOL    HW220367   6.135   6.711   6.681
 2631SOL     OW20368   5.281   1.174   2.435
 2631SOL    HW120369   5.314   1.241   2.369
 2631SOL    HW220370   5.335   1.180   2.518
 2632SOL     OW20371   0.876   4.217   2.131
 2632SOL    HW120372   0.878   4.271   2.215
 2632SOL    HW220373   0.968   4.187   2.108
 2633SOL     OW20374   2.163   4.174   3.223
 2633SOL    HW120375   2.217   4.155   3.140
 2633SOL    HW220376   2.223   4.177   3.302
 2634SOL     OW20377   6.414   5.049   0.555
 2634SOL    HW120378   6.397   5.012   0.463
 2634SOL    HW220379   6.506   5.087   0.558
 2635SOL     OW20380   5.906   1.837   1.294
 2635SOL    HW120381   5.883   1.748   1.255
 2635SOL    HW220382   5.973   1.826   1.367
 2636SOL     OW20383   6.294   2.864   0.465
 2636SOL    HW120384   6.246   2.861   0.553
 2636SOL    HW220385   6.376   2.808   0.470
 2637SOL     OW20386   3.435   6.911   3.643
 2637SOL    HW120387   3.472   6.822   3.616
 2637SOL    HW220388   3.493   6.984   3.606
 2638SOL     OW20389   3.294   2.939   6.313
 2638SOL    HW120390   3.372   2.951   6.252
 2638SOL    HW220391   3.283   2.842   6.335
 2639SOL     OW20392   1.647   4.782   5.652
 2639SOL    HW120393   1.558   4.768   5.609
 2639SOL    HW220394   1.670   4.880   5.651
 2640SOL     OW20395   3.568   5.825   2.780
 2640SOL    HW120396   3.613   5.794   2.696
 2640SOL    HW220397   3.627   5.891   2.826
 2641SOL     OW20398   3.110   3.519   0.562
 2641SOL    HW120399   3.144   3.576   0.488
 2641SOL    HW220400   3.172   3.525   0.640
 2642SOL     OW20401   0.791   5.572   4.451
 2642SOL    HW120402   0.851   5.646   4.482
 2642SOL    HW220403   0.699   5.587   4.487
 2643SOL     OW20404   1.748   4.744   0.455
 2643SOL    HW120405   1.805   4.826   0.453
 2643SOL    HW220406   1.727   4.720   0.550
 2644SOL     OW20407   6.058   4.497   0.826
 2644SOL    HW120408   6.041   4.399   0.827
 2644SOL    HW220409   5.972   4.546   0.841
 2645SOL     OW20410   5.864   3.088   1.581
 2645SOL    HW120411   5.922   3.033   1.641
 2645SOL    HW220412   5.810   3.028   1.523
 2646SOL     OW20413   3.633   3.838   2.083
 2646SOL    HW120414   3.699   3.907   2.055
 2646SOL    HW220415   3.592   3.864   2.171
 2647SOL     OW20416   1.729   2.977   2.196
 2647SOL    HW120417   1.781   3.047   2.147
 2647SOL    HW220418   1.664   3.021   2.258
 2648SOL     OW20419   4.707   3.391   6.247
 2648SOL    HW120420   4.718   3.399   6.148
 2648SOL    HW220421   4.628   3.445   6.276
 2649SOL     OW20422   5.708   4.391   7.293
 2649SOL    HW120423   5.689   4.479   7.335
 2649SOL    HW220424   5.742   4.327   7.362
 2650SOL     OW20425   4.155   5.447   2.175
 2650SOL    HW120426   4.169   5.348   2.170
 2650SOL    HW220427   4.069   5.471   2.132
 2651SOL     OW20428   5.987   0.584   1.592
 2651SOL    HW120429   6.013   0.490   1.572
 2651SOL    HW220430   5.951   0.589   1.685
 2652SOL     OW20431   7.019   3.256   0.213
 2652SOL    HW120432   7.052   3.289   0.302
 2652SOL    HW220433   6.925   3.286   0.199
 2653SOL     OW20434   3.560   0.756   6.593
 2653SOL    HW120435   3.649   0.719   6.565
 2653SOL    HW220436   3.546   0.740   6.691
 2654SOL     OW20437   5.965   4.155   3.175
 2654SOL    HW120438   5.884   4.121   3.223
 2654SOL    HW220439   5.955   4.254   3.160
 2655SOL     OW20440   1.395   4.581   0.529
 2655SOL    HW120441   1.391   4.617   0.436
 2655SOL    HW220442   1.336   4.635   0.589
 2656SOL     OW20443   6.634   2.978   6.640
 2656SOL    HW120444   6.706   3.044   6.620
 2656SOL    HW220445   6.547   3.013   6.607
 2657SOL     OW20446   4.639   3.090   3.533
 2657SOL    HW120447   4.617   3.187   3.542
 2657SOL    HW220448   4.738   3.077   3.535
 2658SOL     OW20449   5.852   1.025   6.706
 2658SOL    HW120450   5.830   1.019   6.608
 2658SOL    HW220451   5.833   1.118   6.738
 2659SOL     OW20452   2.341   6.484   2.377
 2659SOL    HW120453   2.333   6.386   2.392
 2659SOL    HW220454   2.431   6.505   2.338
 2660SOL     OW20455   5.866   3.811   6.748
 2660SOL    HW120456   5.914   3.884   6.798
 2660SOL    HW220457   5.931   3.742   6.718
 2661SOL     OW20458   5.225   5.427   2.818
 2661SOL    HW120459   5.250   5.414   2.913
 2661SOL    HW220460   5.172   5.348   2.786
 2662SOL     OW20461   3.508   1.712   1.332
 2662SOL    HW120462   3.477   1.766   1.253
 2662SOL    HW220463   3.443   1.723   1.407
 2663SOL     OW20464   3.506   3.035   4.069
 2663SOL    HW120465   3.456   3.109   4.025
 2663SOL    HW220466   3.441   2.970   4.108
 2664SOL     OW20467   4.574   0.010   6.233
 2664SOL    HW120468   4.658   0.046   6.273
 2664SOL    HW220469   4.498   0.070   6.255
 2665SOL     OW20470   0.063   2.966   3.470
 2665SOL    HW120471   0.157   2.996   3.484
 2665SOL    HW220472   0.022   3.018   3.395
 2666SOL     OW20473   6.214   4.998   4.284
 2666SOL    HW120474   6.216   5.098   4.275
 2666SOL    HW220475   6.307   4.963   4.289
 2667SOL     OW20476   2.712   4.088   6.932
 2667SOL    HW120477   2.649   4.074   6.856
 2667SOL    HW220478   2.693   4.177   6.975
 2668SOL     OW20479   3.937   6.798   4.446
 2668SOL    HW120480   3.898   6.863   4.379
 2668SOL    HW220481   4.036   6.812   4.453
 2669SOL     OW20482   3.785   1.054   0.242
 2669SOL    HW120483   3.819   1.119   0.173
 2669SOL    HW220484   3.820   0.963   0.223
 2670SOL     OW20485   2.516   3.133   2.062
 2670SOL    HW120486   2.603   3.105   2.023
 2670SOL    HW220487   2.449   3.059   2.051
 2671SOL     OW20488   0.931   4.287   3.419
 2671SOL    HW120489   1.007   4.250   3.364
 2671SOL    HW220490   0.853   4.225   3.413
 2672SOL     OW20491   6.898   3.064   5.434
 2672SOL    HW120492   6.935   3.011   5.357
 2672SOL    HW220493   6.804   3.090   5.414
 2673SOL     OW20494   4.626   1.452   2.447
 2673SOL    HW120495   4.674   1.392   2.510
 2673SOL    HW220496   4.576   1.397   2.380
 2674SOL     OW20497   3.421   6.347   5.880
 2674SOL    HW120498   3.505   6.316   5.835
 2674SOL    HW220499   3.396   6.282   5.953
 2675SOL     OW20500   1.924   5.664   5.362
 2675SOL    HW120501   1.963   5.574   5.346
 2675SOL    HW220502   1.962   5.702   5.446
 2676SOL     OW20503   2.645   3.764   2.876
 2676SOL    HW120504   2.566   3.703   2.879
 2676SOL    HW220505   2.726   3.711   2.848
 2677SOL     OW20506   3.887   6.029   2.289
 2677SOL    HW120507   3.935   6.109   2.254
 2677SOL    HW220508   3.789   6.040   2.274
 2678SOL     OW20509   4.448   6.415   0.869
 2678SOL    HW120510   4.469   6.485   0.938
 2678SOL    HW220511   4.382   6.350   0.907
 2679SOL     OW20512   0.007   1.153   0.911
 2679SOL    HW120513   0.021   1.222   0.983
 2679SOL    HW220514  -0.055   1.189   0.842
 2680SOL     OW20515   6.787   2.378   2.768
 2680SOL    HW120516   6.810   2.296   2.715
 2680SOL    HW220517   6.712   2.426   2.723
 2681SOL     OW20518   7.062   4.877   3.476
 2681SOL    HW120519   7.091   4.861   3.570
 2681SOL    HW220520   7.124   4.828   3.413
 2682SOL     OW20521   1.516   3.214   3.847
 2682SOL    HW120522   1.426   3.172   3.835
 2682SOL    HW220523   1.585   3.159   3.800
 2683SOL     OW20524   1.181   1.816   3.402
 2683SOL    HW120525   1.101   1.769   3.365
 2683SOL    HW220526   1.232   1.753   3.462
 2684SOL     OW20527   6.223   2.726   2.140
 2684SOL    HW120528   6.191   2.762   2.053
 2684SOL    HW220529   6.186   2.781   2.215
 2685SOL     OW20530   1.567   2.148   4.187
 2685SOL    HW120531   1.478   2.103   4.191
 2685SOL    HW220532   1.639   2.079   4.196
 2686SOL     OW20533   3.218   2.624   0.914
 2686SOL    HW120534   3.312   2.598   0.890
 2686SOL    HW220535   3.204   2.720   0.890
 2687SOL     OW20536   4.181   0.738   5.757
 2687SOL    HW120537   4.272   0.776   5.779
 2687SOL    HW220538   4.114   0.777   5.820
 2688SOL     OW20539   4.121   1.648   1.161
 2688SOL    HW120540   4.158   1.559   1.133
 2688SOL    HW220541   4.177   1.687   1.233
 2689SOL     OW20542   3.994   5.977   3.407
 2689SOL    HW120543   3.984   5.985   3.506
 2689SOL    HW220544   4.089   5.954   3.385
 2690SOL     OW20545   1.223   5.928   6.481
 2690SOL    HW120546   1.228   5.836   6.519
 2690SOL    HW220547   1.147   5.978   6.522
 2691SOL     OW20548   5.808   1.761   5.272
 2691SOL    HW120549   5.882   1.767   5.339
 2691SOL    HW220550   5.805   1.668   5.234
 2692SOL     OW20551   2.026   4.600   7.348
 2692SOL    HW120552   1.971   4.643   7.419
 2692SOL    HW220553   1.984   4.617   7.259
 2693SOL     OW20554   2.756   0.823   2.562
 2693SOL    HW120555   2.697   0.879   2.621
 2693SOL    HW220556   2.749   0.855   2.468
 2694SOL     OW20557   5.135   6.087   4.096
 2694SOL    HW120558   5.186   6.157   4.146
 2694SOL    HW220559   5.175   6.076   4.004
 2695SOL     OW20560   2.080   1.813   1.229
 2695SOL    HW120561   2.076   1.718   1.198
 2695SOL    HW220562   2.175   1.843   1.230
 2696SOL     OW20563   2.982   3.701   6.824
 2696SOL    HW120564   2.985   3.659   6.734
 2696SOL    HW220565   2.899   3.757   6.833
 2697SOL     OW20566   6.592   4.495   1.566
 2697SOL    HW120567   6.671   4.556   1.557
 2697SOL    HW220568   6.513   4.538   1.523
 2698SOL     OW20569   5.414   7.073   4.448
 2698SOL    HW120570   5.368   7.160   4.464
 2698SOL    HW220571   5.459   7.075   4.359
 2699SOL     OW20572   1.900   1.225   3.446
 2699SOL    HW120573   1.851   1.139   3.458
 2699SOL    HW220574   1.998   1.206   3.437
 2700SOL     OW20575   0.487   4.232   4.239
 2700SOL    HW120576   0.403   4.222   4.291
 2700SOL    HW220577   0.564   4.244   4.301
 2701SOL     OW20578   6.085   6.302   6.813
 2701SOL    HW120579   6.078   6.352   6.726
 2701SOL    HW220580   6.031   6.219   6.808
 2702SOL     OW20581   3.177   7.105   5.044
 2702SOL    HW120582   3.174   7.010   5.074
 2702SOL    HW220583   3.266   7.124   5.001
 2703SOL     OW20584   4.622   4.318   3.494
 2703SOL    HW120585   4.583   4.301   3.584
 2703SOL    HW220586   4.550   4.352   3.433
 2704SOL     OW20587   6.205   0.333   4.812
 2704SOL    HW120588   6.246   0.344   4.903
 2704SOL    HW220589   6.239   0.404   4.751
 2705SOL     OW20590   7.131   2.913   4.559
 2705SOL    HW120591   7.171   2.825   4.582
 2705SOL    HW220592   7.031   2.908   4.567
 2706SOL     OW20593   0.449   3.236   6.110
 2706SOL    HW120594   0.511   3.263   6.037
 2706SOL    HW220595   0.362   3.208   6.072
 2707SOL     OW20596   4.830   4.296   5.924
 2707SOL    HW120597   4.832   4.243   5.839
 2707SOL    HW220598   4.785   4.242   5.996
 2708SOL     OW20599   5.258   5.657   0.769
 2708SOL    HW120600   5.310   5.586   0.817
 2708SOL    HW220601   5.206   5.616   0.694
 2709SOL     OW20602   3.955   2.874   1.936
 2709SOL    HW120603   4.020   2.813   1.890
 2709SOL    HW220604   3.885   2.819   1.982
 2710SOL     OW20605   5.753   2.298   4.775
 2710SOL    HW120606   5.791   2.205   4.779
 2710SOL    HW220607   5.653   2.293   4.774
 2711SOL     OW20608   3.133   2.445   1.934
 2711SOL    HW120609   3.170   2.509   1.866
 2711SOL    HW220610   3.135   2.488   2.024
 2712SOL     OW20611   2.112   1.934   0.519
 2712SOL    HW120612   2.171   1.857   0.545
 2712SOL    HW220613   2.102   1.996   0.597
 2713SOL     OW20614   0.275   2.194   0.239
 2713SOL    HW120615   0.352   2.161   0.294
 2713SOL    HW220616   0.310   2.250   0.163
 2714SOL     OW20617   4.684   4.296   4.419
 2714SOL    HW120618   4.681   4.381   4.471
 2714SOL    HW220619   4.779   4.269   4.405
 2715SOL     OW20620   3.278   3.935   4.647
 2715SOL    HW120621   3.271   3.836   4.639
 2715SOL    HW220622   3.237   3.964   4.734
 2716SOL     OW20623   2.433   1.301   0.405
 2716SOL    HW120624   2.467   1.274   0.315
 2716SOL    HW220625   2.470   1.239   0.475
 2717SOL     OW20626   6.477   2.368   3.847
 2717SOL    HW120627   6.508   2.462   3.836
 2717SOL    HW220628   6.555   2.308   3.862
 2718SOL     OW20629   3.935   1.069   5.285
 2718SOL    HW120630   3.938   1.024   5.375
 2718SOL    HW220631   4.028   1.098   5.260
 2719SOL     OW20632   3.284   3.336   1.122
 2719SOL    HW120633   3.250   3.247   1.090
 2719SOL    HW220634   3.206   3.397   1.138
 2720SOL     OW20635   3.478   3.332   0.556
 2720SOL    HW120636   3.501   3.275   0.477
 2720SOL    HW220637   3.517   3.292   0.639
 2721SOL     OW20638   1.514   0.829   0.014
 2721SOL    HW120639   1.448   0.782   0.074
 2721SOL    HW220640   1.548   0.911   0.060
 2722SOL     OW20641   4.316   3.404   2.003
 2722SOL    HW120642   4.256   3.402   2.082
 2722SOL    HW220643   4.403   3.362   2.025
 2723SOL     OW20644   1.846   2.206   4.413
 2723SOL    HW120645   1.773   2.206   4.482
 2723SOL    HW220646   1.934   2.192   4.457
 2724SOL     OW20647   3.847   3.390   0.324
 2724SOL    HW120648   3.882   3.319   0.263
 2724SOL    HW220649   3.794   3.456   0.272
 2725SOL     OW20650   7.217   5.285   0.699
 2725SOL    HW120651   7.295   5.228   0.725
 2725SOL    HW220652   7.220   5.372   0.748
 2726SOL     OW20653   5.520   4.180   1.930
 2726SOL    HW120654   5.559   4.091   1.905
 2726SOL    HW220655   5.458   4.168   2.008
 2727SOL     OW20656   3.981   6.512   6.553
 2727SOL    HW120657   3.997   6.459   6.470
 2727SOL    HW220658   3.885   6.501   6.581
 2728SOL     OW20659   6.091   4.066   3.397
 2728SOL    HW120660   6.057   4.112   3.314
 2728SOL    HW220661   6.088   3.967   3.383
 2729SOL     OW20662   6.729   4.977   2.854
 2729SOL    HW120663   6.752   4.901   2.916
 2729SOL    HW220664   6.647   4.953   2.803
 2730SOL     OW20665   6.316   0.452   6.172
 2730SOL    HW120666   6.370   0.369   6.188
 2730SOL    HW220667   6.242   0.457   6.239
 2731SOL     OW20668   4.125   7.131   5.454
 2731SOL    HW120669   4.168   7.109   5.366
 2731SOL    HW220670   4.180   7.094   5.528
 2732SOL     OW20671   3.117   0.815   6.325
 2732SOL    HW120672   3.162   0.902   6.308
 2732SOL    HW220673   3.174   0.758   6.384
 2733SOL     OW20674   0.034   2.963   1.524
 2733SOL    HW120675  -0.038   2.943   1.591
 2733SOL    HW220676   0.064   3.058   1.534
 2734SOL     OW20677   4.241   5.681   4.808
 2734SOL    HW120678   4.226   5.587   4.777
 2734SOL    HW220679   4.246   5.682   4.908
 2735SOL     OW20680   1.666   6.948   0.348
 2735SOL    HW120681   1.727   6.921   0.274
 2735SOL    HW220682   1.668   6.879   0.421
 2736SOL     OW20683   1.007   3.971   1.372
 2736SOL    HW120684   1.086   3.951   1.314
 2736SOL    HW220685   1.010   4.066   1.401
 2737SOL     OW20686   6.055   1.185   0.096
 2737SOL    HW120687   5.980   1.154   0.154
 2737SOL    HW220688   6.118   1.241   0.150
 2738SOL     OW20689   4.714   3.182   1.172
 2738SOL    HW120690   4.635   3.207   1.229
 2738SOL    HW220691   4.766   3.264   1.149
 2739SOL     OW20692   4.419   3.570   0.189
 2739SOL    HW120693   4.465   3.540   0.105
 2739SOL    HW220694   4.426   3.498   0.258
 2740SOL     OW20695   5.539   2.939   5.509
 2740SOL    HW120696   5.501   3.027   5.479
 2740SOL    HW220697   5.489   2.907   5.589
 2741SOL     OW20698   3.234   4.134   6.192
 2741SOL    HW120699   3.151   4.080   6.202
 2741SOL    HW220700   3.312   4.072   6.178
 2742SOL     OW20701   1.895   1.076   1.286
 2742SOL    HW120702   1.813   1.130   1.266
 2742SOL    HW220703   1.892   0.991   1.234
 2743SOL     OW20704   0.034   4.560   7.086
 2743SOL    HW120705   0.129   4.588   7.103
 2743SOL    HW220706   0.032   4.491   7.014
 2744SOL     OW20707   4.712   3.859   3.099
 2744SOL    HW120708   4.762   3.921   3.039
 2744SOL    HW220709   4.750   3.864   3.191
 2745SOL     OW20710   5.981   4.315   3.769
 2745SOL    HW120711   5.954   4.292   3.863
 2745SOL    HW220712   6.076   4.346   3.768
 2746SOL     OW20713   0.287   0.115   0.211
 2746SOL    HW120714   0.239   0.072   0.287
 2746SOL    HW220715   0.220   0.160   0.151
 2747SOL     OW20716   6.171   3.336   3.826
 2747SOL    HW120717   6.103   3.400   3.863
 2747SOL    HW220718   6.245   3.387   3.782
 2748SOL     OW20719   2.814   2.320   0.557
 2748SOL    HW120720   2.764   2.262   0.491
 2748SOL    HW220721   2.751   2.384   0.599
 2749SOL     OW20722   5.656   4.981   5.974
 2749SOL    HW120723   5.660   5.071   6.018
 2749SOL    HW220724   5.578   4.929   6.010
 2750SOL     OW20725   0.075   7.325   5.221
 2750SOL    HW120726   0.122   7.237   5.228
 2750SOL    HW220727   0.102   7.383   5.299
 2751SOL     OW20728   3.843   4.894   6.626
 2751SOL    HW120729   3.775   4.950   6.580
 2751SOL    HW220730   3.891   4.837   6.559
 2752SOL     OW20731   4.625   2.952   5.864
 2752SOL    HW120732   4.616   2.910   5.774
 2752SOL    HW220733   4.679   3.035   5.857
 2753SOL     OW20734   0.341   2.813   6.652
 2753SOL    HW120735   0.438   2.791   6.659
 2753SOL    HW220736   0.287   2.738   6.691
 2754SOL     OW20737   2.303   4.930   3.577
 2754SOL    HW120738   2.219   4.982   3.559
 2754SOL    HW220739   2.358   4.979   3.644
 2755SOL     OW20740   4.745   0.547   0.097
 2755SOL    HW120741   4.675   0.496   0.146
 2755SOL    HW220742   4.727   0.543  -0.001
 2756SOL     OW20743   2.056   5.689   0.239
 2756SOL    HW120744   2.039   5.746   0.158
 2756SOL    HW220745   2.140   5.719   0.284
 2757SOL     OW20746   3.602   6.131   2.139
 2757SOL    HW120747   3.533   6.076   2.185
 2757SOL    HW220748   3.613   6.218   2.187
 2758SOL     OW20749   0.840   3.748   4.235
 2758SOL    HW120750   0.922   3.706   4.195
 2758SOL    HW220751   0.793   3.681   4.293
 2759SOL     OW20752   4.090   0.076   1.306
 2759SOL    HW120753   4.150   0.058   1.227
 2759SOL    HW220754   4.141   0.128   1.374
 2760SOL     OW20755   5.290   5.692   5.374
 2760SOL    HW120756   5.202   5.646   5.389
 2760SOL    HW220757   5.334   5.710   5.462
 2761SOL     OW20758   6.994   7.122   0.392
 2761SOL    HW120759   6.916   7.077   0.349
 2761SOL    HW220760   7.062   7.054   0.417
 2762SOL     OW20761   0.333   4.576   2.050
 2762SOL    HW120762   0.286   4.505   2.104
 2762SOL    HW220763   0.335   4.549   1.954
 2763SOL     OW20764   1.188   4.488   5.824
 2763SOL    HW120765   1.128   4.462   5.899
 2763SOL    HW220766   1.281   4.501   5.859
 2764SOL     OW20767   3.934   1.912   1.376
 2764SOL    HW120768   3.908   1.822   1.411
 2764SOL    HW220769   4.024   1.937   1.412
 2765SOL     OW20770   4.773   6.821   5.941
 2765SOL    HW120771   4.800   6.893   6.005
 2765SOL    HW220772   4.770   6.733   5.990
 2766SOL     OW20773   4.248   2.531   4.606
 2766SOL    HW120774   4.331   2.475   4.598
 2766SOL    HW220775   4.171   2.473   4.634
 2767SOL     OW20776   0.721   6.350   6.015
 2767SOL    HW120777   0.811   6.322   5.981
 2767SOL    HW220778   0.733   6.423   6.083
 2768SOL     OW20779   6.272   7.270   5.270
 2768SOL    HW120780   6.237   7.331   5.199
 2768SOL    HW220781   6.270   7.316   5.358
 2769SOL     OW20782   6.637   4.215   4.123
 2769SOL    HW120783   6.678   4.141   4.069
 2769SOL    HW220784   6.703   4.245   4.192
 2770SOL     OW20785   6.587   3.626   1.667
 2770SOL    HW120786   6.576   3.582   1.756
 2770SOL    HW220787   6.684   3.628   1.643
 2771SOL     OW20788   5.655   2.024   6.478
 2771SOL    HW120789   5.742   1.990   6.514
 2771SOL    HW220790   5.591   2.039   6.553
 2772SOL     OW20791   7.085   7.291   5.610
 2772SOL    HW120792   6.991   7.259   5.621
 2772SOL    HW220793   7.143   7.250   5.681
 2773SOL     OW20794   6.990   0.342   2.588
 2773SOL    HW120795   7.084   0.321   2.616
 2773SOL    HW220796   6.941   0.257   2.570
 2774SOL     OW20797   4.459   5.354   1.496
 2774SOL    HW120798   4.450   5.319   1.403
 2774SOL    HW220799   4.372   5.344   1.544
 2775SOL     OW20800   6.126   2.279   4.079
 2775SOL    HW120801   6.083   2.312   4.163
 2775SOL    HW220802   6.224   2.264   4.096
 2776SOL     OW20803   5.530   1.006   1.508
 2776SOL    HW120804   5.608   0.992   1.446
 2776SOL    HW220805   5.492   0.918   1.535
 2777SOL     OW20806   2.908   3.019   1.952
 2777SOL    HW120807   2.951   2.941   1.997
 2777SOL    HW220808   2.950   3.032   1.861
 2778SOL     OW20809   1.082   3.282   0.763
 2778SOL    HW120810   1.106   3.185   0.774
 2778SOL    HW220811   1.048   3.318   0.850
 2779SOL     OW20812   3.358   3.248   5.105
 2779SOL    HW120813   3.375   3.157   5.069
 2779SOL    HW220814   3.444   3.289   5.135
 2780SOL     OW20815   2.390   1.205   5.929
 2780SOL    HW120816   2.429   1.148   6.001
 2780SOL    HW220817   2.293   1.222   5.950
 2781SOL     OW20818   4.916   7.179   4.610
 2781SOL    HW120819   4.995   7.212   4.557
 2781SOL    HW220820   4.947   7.110   4.676
 2782SOL     OW20821   6.679   0.722   6.064
 2782SOL    HW120822   6.638   0.801   6.109
 2782SOL    HW220823   6.730   0.752   5.983
 2783SOL     OW20824   5.441   2.385   2.451
 2783SOL    HW120825   5.361   2.325   2.452
 2783SOL    HW220826   5.424   2.465   2.508
 2784SOL     OW20827   4.001   0.438   0.515
 2784SOL    HW120828   4.011   0.375   0.439
 2784SOL    HW220829   3.904   0.448   0.538
 2785SOL     OW20830   0.505   7.258   0.289
 2785SOL    HW120831   0.555   7.255   0.202
 2785SOL    HW220832   0.448   7.340   0.292
 2786SOL     OW20833   3.688   5.063   2.400
 2786SOL    HW120834   3.695   5.020   2.490
 2786SOL    HW220835   3.691   4.993   2.328
 2787SOL     OW20836   3.987   2.203   2.682
 2787SOL    HW120837   3.933   2.265   2.626
 2787SOL    HW220838   4.079   2.241   2.694
 2788SOL     OW20839   0.845   0.506   5.967
 2788SOL    HW120840   0.788   0.565   5.910
 2788SOL    HW220841   0.942   0.530   5.954
 2789SOL     OW20842   5.090   0.829   2.630
 2789SOL    HW120843   5.004   0.796   2.669
 2789SOL    HW220844   5.086   0.928   2.617
 2790SOL     OW20845   4.526   2.083   1.700
 2790SOL    HW120846   4.453   2.151   1.709
 2790SOL    HW220847   4.609   2.118   1.742
 2791SOL     OW20848   2.872   4.170   2.964
 2791SOL    HW120849   2.963   4.210   2.950
 2791SOL    HW220850   2.826   4.160   2.876
 2792SOL     OW20851   5.871   4.202   1.830
 2792SOL    HW120852   5.940   4.275   1.827
 2792SOL    HW220853   5.900   4.127   1.771
 2793SOL     OW20854   2.630   3.058   6.462
 2793SOL    HW120855   2.605   3.055   6.365
 2793SOL    HW220856   2.552   3.028   6.517
 2794SOL     OW20857   5.562   6.382   3.143
 2794SOL    HW120858   5.557   6.457   3.077
 2794SOL    HW220859   5.586   6.297   3.095
 2795SOL     OW20860   3.040   3.358   1.459
 2795SOL    HW120861   3.090   3.376   1.374
 2795SOL    HW220862   3.040   3.440   1.516
 2796SOL     OW20863   1.382   0.559   5.498
 2796SOL    HW120864   1.473   0.584   5.464
 2796SOL    HW220865   1.377   0.459   5.508
 2797SOL     OW20866   7.356   4.508   0.518
 2797SOL    HW120867   7.386   4.585   0.575
 2797SOL    HW220868   7.267   4.475   0.549
 2798SOL     OW20869   2.467   5.845   0.050
 2798SOL    HW120870   2.547   5.802   0.009
 2798SOL    HW220871   2.385   5.820  -0.001
 2799SOL     OW20872   3.370   3.494   4.788
 2799SOL    HW120873   3.432   3.547   4.846
 2799SOL    HW220874   3.290   3.549   4.765
 2800SOL     OW20875   2.684   2.967   2.696
 2800SOL    HW120876   2.764   3.026   2.704
 2800SOL    HW220877   2.644   2.952   2.786
 2801SOL     OW20878   5.364   2.133   3.232
 2801SOL    HW120879   5.429   2.079   3.285
 2801SOL    HW220880   5.372   2.109   3.135
 2802SOL     OW20881   6.276   4.746   3.511
 2802SOL    HW120882   6.321   4.666   3.551
 2802SOL    HW220883   6.345   4.816   3.491
 2803SOL     OW20884   0.504   3.162   5.306
 2803SOL    HW120885   0.512   3.094   5.379
 2803SOL    HW220886   0.595   3.187   5.274
 2804SOL     OW20887   1.537   6.584   0.334
 2804SOL    HW120888   1.580   6.610   0.248
 2804SOL    HW220889   1.572   6.642   0.408
 2805SOL     OW20890   7.249   0.675   0.741
 2805SOL    HW120891   7.280   0.648   0.649
 2805SOL    HW220892   7.251   0.774   0.749
 2806SOL     OW20893   4.806   5.304   6.387
 2806SOL    HW120894   4.807   5.382   6.325
 2806SOL    HW220895   4.899   5.272   6.403
 2807SOL     OW20896   0.157   5.472   2.338
 2807SOL    HW120897   0.227   5.452   2.270
 2807SOL    HW220898   0.074   5.503   2.291
 2808SOL     OW20899   6.675   0.763   2.717
 2808SOL    HW120900   6.578   0.764   2.743
 2808SOL    HW220901   6.721   0.842   2.757
 2809SOL     OW20902   4.382   0.892   3.584
 2809SOL    HW120903   4.377   0.984   3.623
 2809SOL    HW220904   4.362   0.825   3.656
 2810SOL     OW20905   0.401   3.129   7.326
 2810SOL    HW120906   0.391   3.229   7.327
 2810SOL    HW220907   0.337   3.089   7.391
 2811SOL     OW20908   4.253   1.870   3.465
 2811SOL    HW120909   4.171   1.883   3.520
 2811SOL    HW220910   4.317   1.944   3.483
 2812SOL     OW20911   3.144   3.047   0.356
 2812SOL    HW120912   3.207   3.089   0.422
 2812SOL    HW220913   3.105   3.117   0.298
 2813SOL     OW20914   2.528   2.118   0.113
 2813SOL    HW120915   2.474   2.191   0.071
 2813SOL    HW220916   2.468   2.041   0.137
 2814SOL     OW20917   6.780   4.634   5.719
 2814SOL    HW120918   6.828   4.547   5.710
 2814SOL    HW220919   6.847   4.708   5.729
 2815SOL     OW20920   2.541   1.772   3.384
 2815SOL    HW120921   2.591   1.756   3.469
 2815SOL    HW220922   2.558   1.866   3.353
 2816SOL     OW20923   7.117   2.883   1.576
 2816SOL    HW120924   7.105   2.982   1.567
 2816SOL    HW220925   7.074   2.837   1.499
 2817SOL     OW20926   2.248   6.932   4.281
 2817SOL    HW120927   2.264   6.834   4.269
 2817SOL    HW220928   2.312   6.968   4.349
 2818SOL     OW20929   0.528   4.025   0.184
 2818SOL    HW120930   0.500   4.077   0.265
 2818SOL    HW220931   0.570   3.939   0.212
 2819SOL     OW20932   2.296   5.713   2.989
 2819SOL    HW120933   2.324   5.789   3.049
 2819SOL    HW220934   2.306   5.627   3.038
 2820SOL     OW20935   3.356   0.352   6.838
 2820SOL    HW120936   3.424   0.363   6.909
 2820SOL    HW220937   3.308   0.439   6.823
 2821SOL     OW20938   0.114   2.230   0.632
 2821SOL    HW120939   0.069   2.312   0.665
 2821SOL    HW220940   0.213   2.238   0.647
 2822SOL     OW20941   4.923   0.304   3.515
 2822SOL    HW120942   4.844   0.323   3.573
 2822SOL    HW220943   4.893   0.263   3.429
 2823SOL     OW20944   5.391   7.293   1.711
 2823SOL    HW120945   5.359   7.233   1.638
 2823SOL    HW220946   5.406   7.385   1.675
 2824SOL     OW20947   1.358   1.503   0.405
 2824SOL    HW120948   1.268   1.460   0.405
 2824SOL    HW220949   1.424   1.442   0.449
 2825SOL     OW20950   5.535   4.651   3.648
 2825SOL    HW120951   5.625   4.640   3.606
 2825SOL    HW220952   5.537   4.730   3.709
 2826SOL     OW20953   0.684   4.312   4.418
 2826SOL    HW120954   0.700   4.398   4.370
 2826SOL    HW220955   0.772   4.272   4.444
 2827SOL     OW20956   6.327   6.192   6.495
 2827SOL    HW120957   6.263   6.153   6.429
 2827SOL    HW220958   6.292   6.280   6.527
 2828SOL     OW20959   1.486   4.356   6.182
 2828SOL    HW120960   1.472   4.384   6.087
 2828SOL    HW220961   1.400   4.364   6.232
 2829SOL     OW20962   5.095   7.290   1.905
 2829SOL    HW120963   5.157   7.367   1.889
 2829SOL    HW220964   5.127   7.236   1.982
 2830SOL     OW20965   0.920   4.909   1.997
 2830SOL    HW120966   0.904   4.820   2.041
 2830SOL    HW220967   0.846   4.929   1.933
 2831SOL     OW20968   1.496   2.751   2.691
 2831SOL    HW120969   1.457   2.827   2.639
 2831SOL    HW220970   1.539   2.786   2.774
 2832SOL     OW20971   1.805   1.089   5.128
 2832SOL    HW120972   1.856   1.076   5.213
 2832SOL    HW220973   1.809   1.185   5.101
 2833SOL     OW20974   3.666   2.190   1.598
 2833SOL    HW120975   3.604   2.227   1.528
 2833SOL    HW220976   3.760   2.193   1.564
 2834SOL     OW20977   6.882   4.027   5.309
 2834SOL    HW120978   6.836   4.083   5.240
 2834SOL    HW220979   6.822   3.952   5.337
 2835SOL     OW20980   4.375   4.601   2.481
 2835SOL    HW120981   4.305   4.560   2.422
 2835SOL    HW220982   4.332   4.637   2.564
 2836SOL     OW20983   4.793   6.528   3.613
 2836SOL    HW120984   4.747   6.509   3.699
 2836SOL    HW220985   4.887   6.556   3.630
 2837SOL     OW20986   2.621   5.678   6.594
 2837SOL    HW120987   2.715   5.650   6.613
 2837SOL    HW220988   2.599   5.759   6.648
 2838SOL     OW20989   0.577   1.553   3.283
 2838SOL    HW120990   0.620   1.635   3.245
 2838SOL    HW220991   0.647   1.485   3.303
 2839SOL     OW20992   4.767   1.084   6.980
 2839SOL    HW120993   4.837   1.139   7.025
 2839SOL    HW220994   4.797   1.061   6.887
 2840SOL     OW20995   5.630   0.713   6.545
 2840SOL    HW120996   5.579   0.651   6.604
 2840SOL    HW220997   5.579   0.799   6.536
 2841SOL     OW20998   4.960   0.686   2.336
 2841SOL    HW120999   5.029   0.645   2.276
 2841SOL    HW221000   4.959   0.785   2.323
 2842SOL     OW21001   4.371   0.740   2.692
 2842SOL    HW121002   4.306   0.759   2.619
 2842SOL    HW221003   4.460   0.781   2.669
 2843SOL     OW21004   0.910   1.586   2.996
 2843SOL    HW121005   0.880   1.681   3.007
 2843SOL    HW221006   0.868   1.528   3.066
 2844SOL     OW21007   2.223   2.642   1.639
 2844SOL    HW121008   2.319   2.626   1.660
 2844SOL    HW221009   2.215   2.670   1.543
 2845SOL     OW21010   3.065   4.278   1.764
 2845SOL    HW121011   3.078   4.194   1.818
 2845SOL    HW221012   3.154   4.309   1.730
 2846SOL     OW21013   5.409   5.023   0.454
 2846SOL    HW121014   5.390   4.943   0.510
 2846SOL    HW221015   5.341   5.094   0.473
 2847SOL     OW21016   5.116   3.519   0.949
 2847SOL    HW121017   5.096   3.427   0.982
 2847SOL    HW221018   5.158   3.513   0.858
 2848SOL     OW21019   1.085   5.135   6.582
 2848SOL    HW121020   1.131   5.224   6.590
 2848SOL    HW221021   1.144   5.063   6.618
 2849SOL     OW21022   1.045   2.081   3.270
 2849SOL    HW121023   1.054   1.997   3.324
 2849SOL    HW221024   1.116   2.146   3.298
 2850SOL     OW21025   6.666   4.708   4.497
 2850SOL    HW121026   6.617   4.695   4.411
 2850SOL    HW221027   6.716   4.624   4.520
 2851SOL     OW21028   7.171   1.857   4.759
 2851SOL    HW121029   7.099   1.873   4.827
 2851SOL    HW221030   7.153   1.914   4.678
 2852SOL     OW21031   5.057   3.817   6.364
 2852SOL    HW121032   5.004   3.735   6.384
 2852SOL    HW221033   5.023   3.893   6.420
 2853SOL     OW21034   0.654   7.286   1.008
 2853SOL    HW121035   0.635   7.382   1.029
 2853SOL    HW221036   0.606   7.228   1.074
 2854SOL     OW21037   0.965   6.631   6.603
 2854SOL    HW121038   1.009   6.694   6.667
 2854SOL    HW221039   0.996   6.650   6.510
 2855SOL     OW21040   5.637   0.995   3.727
 2855SOL    HW121041   5.548   0.963   3.758
 2855SOL    HW221042   5.626   1.051   3.645
 2856SOL     OW21043   5.411   1.123   3.108
 2856SOL    HW121044   5.318   1.088   3.116
 2856SOL    HW221045   5.474   1.060   3.153
 2857SOL     OW21046   4.422   3.885   3.935
 2857SOL    HW121047   4.377   3.884   4.024
 2857SOL    HW221048   4.422   3.979   3.899
 2858SOL     OW21049   1.287   2.918   6.200
 2858SOL    HW121050   1.206   2.970   6.227
 2858SOL    HW221051   1.353   2.978   6.156
 2859SOL     OW21052   1.351   0.268   6.684
 2859SOL    HW121053   1.427   0.212   6.653
 2859SOL    HW221054   1.343   0.349   6.625
 2860SOL     OW21055   3.545   3.665   4.931
 2860SOL    HW121056   3.592   3.606   4.996
 2860SOL    HW221057   3.606   3.688   4.855
 2861SOL     OW21058   3.480   5.221   2.450
 2861SOL    HW121059   3.546   5.146   2.437
 2861SOL    HW221060   3.446   5.217   2.544
 2862SOL     OW21061   5.885   4.696   0.615
 2862SOL    HW121062   5.872   4.793   0.598
 2862SOL    HW221063   5.975   4.681   0.656
 2863SOL     OW21064   2.628   1.455   1.525
 2863SOL    HW121065   2.632   1.393   1.603
 2863SOL    HW221066   2.611   1.548   1.556
 2864SOL     OW21067   6.225   6.747   2.190
 2864SOL    HW121068   6.252   6.678   2.258
 2864SOL    HW221069   6.306   6.773   2.136
 2865SOL     OW21070   4.711   5.349   6.993
 2865SOL    HW121071   4.725   5.404   6.911
 2865SOL    HW221072   4.788   5.359   7.055
 2866SOL     OW21073   3.357   4.880   0.001
 2866SOL    HW121074   3.391   4.922   0.085
 2866SOL    HW221075   3.376   4.781   0.003
 2867SOL     OW21076   2.632   2.884   3.625
 2867SOL    HW121077   2.670   2.877   3.717
 2867SOL    HW221078   2.634   2.795   3.581
 2868SOL     OW21079   2.520   6.283   5.727
 2868SOL    HW121080   2.589   6.225   5.772
 2868SOL    HW221081   2.434   6.232   5.719
 2869SOL     OW21082   4.193   0.990   1.540
 2869SOL    HW121083   4.124   0.938   1.490
 2869SOL    HW221084   4.199   0.955   1.634
 2870SOL     OW21085   1.481   3.607   5.598
 2870SOL    HW121086   1.470   3.690   5.543
 2870SOL    HW221087   1.568   3.612   5.648
 2871SOL     OW21088   4.946   1.017   4.306
 2871SOL    HW121089   4.956   1.024   4.207
 2871SOL    HW221090   4.988   1.097   4.349
 2872SOL     OW21091   2.934   3.557   0.133
 2872SOL    HW121092   3.028   3.529   0.153
 2872SOL    HW221093   2.870   3.494   0.178
 2873SOL     OW21094   1.683   4.807   7.116
 2873SOL    HW121095   1.597   4.848   7.146
 2873SOL    HW221096   1.759   4.854   7.160
 2874SOL     OW21097   4.970   5.377   2.058
 2874SOL    HW121098   5.037   5.342   1.993
 2874SOL    HW221099   5.003   5.362   2.152
 2875SOL     OW21100   1.679   1.339   0.233
 2875SOL    HW121101   1.659   1.275   0.308
 2875SOL    HW221102   1.773   1.371   0.241
 2876SOL     OW21103   1.343   3.157   5.419
 2876SOL    HW121104   1.368   3.253   5.432
 2876SOL    HW221105   1.253   3.151   5.377
 2877SOL     OW21106   3.730   6.421   0.121
 2877SOL    HW121107   3.642   6.384   0.151
 2877SOL    HW221108   3.800   6.397   0.188
 2878SOL     OW21109   6.624   1.965   2.605
 2878SOL    HW121110   6.574   1.965   2.518
 2878SOL    HW221111   6.562   1.990   2.679
 2879SOL     OW21112   4.872   6.645   4.243
 2879SOL    HW121113   4.931   6.721   4.269
 2879SOL    HW221114   4.832   6.605   4.325
 2880SOL     OW21115   6.765   2.521   2.369
 2880SOL    HW121116   6.737   2.502   2.463
 2880SOL    HW221117   6.831   2.596   2.369
 2881SOL     OW21118   6.394   5.005   5.518
 2881SOL    HW121119   6.424   5.042   5.430
 2881SOL    HW221120   6.466   4.948   5.556
 2882SOL     OW21121   0.236   3.668   3.981
 2882SOL    HW121122   0.238   3.568   3.974
 2882SOL    HW221123   0.326   3.701   4.008
 2883SOL     OW21124   3.163   5.177   7.129
 2883SOL    HW121125   3.100   5.254   7.126
 2883SOL    HW221126   3.232   5.192   7.199
 2884SOL     OW21127   4.773   0.635   2.135
 2884SOL    HW121128   4.703   0.568   2.162
 2884SOL    HW221129   4.837   0.648   2.211
 2885SOL     OW21130   6.759   2.038   4.182
 2885SOL    HW121131   6.790   1.963   4.240
 2885SOL    HW221132   6.672   2.073   4.217
 2886SOL     OW21133   3.215   0.691   3.365
 2886SOL    HW121134   3.244   0.625   3.435
 2886SOL    HW221135   3.209   0.646   3.276
 2887SOL     OW21136   6.701   2.588   4.231
 2887SOL    HW121137   6.723   2.644   4.151
 2887SOL    HW221138   6.618   2.535   4.213
 2888SOL     OW21139   2.029   4.754   4.815
 2888SOL    HW121140   2.088   4.743   4.895
 2888SOL    HW221141   2.077   4.805   4.744
 2889SOL     OW21142   6.561   3.587   7.203
 2889SOL    HW121143   6.597   3.670   7.160
 2889SOL    HW221144   6.491   3.547   7.144
 2890SOL     OW21145   0.118   4.575   3.828
 2890SOL    HW121146   0.127   4.554   3.925
 2890SOL    HW221147   0.116   4.490   3.775
 2891SOL     OW21148   2.584   4.006   0.149
 2891SOL    HW121149   2.496   4.046   0.173
 2891SOL    HW221150   2.627   4.061   0.077
 2892SOL     OW21151   4.030   3.147   0.184
 2892SOL    HW121152   4.015   3.059   0.229
 2892SOL    HW221153   4.093   3.202   0.238
 2893SOL     OW21154   4.012   7.337   2.970
 2893SOL    HW121155   3.913   7.345   2.983
 2893SOL    HW221156   4.035   7.362   2.876
 2894SOL     OW21157   1.610   4.592   4.214
 2894SOL    HW121158   1.684   4.567   4.152
 2894SOL    HW221159   1.527   4.612   4.162
 2895SOL     OW21160   3.576   0.088   1.985
 2895SOL    HW121161   3.628   0.153   2.041
 2895SOL    HW221162   3.637   0.047   1.917
 2896SOL     OW21163   4.248   3.982   3.349
 2896SOL    HW121164   4.241   3.886   3.321
 2896SOL    HW221165   4.339   4.017   3.325
 2897SOL     OW21166   1.109   4.579   7.348
 2897SOL    HW121167   1.164   4.647   7.300
 2897SOL    HW221168   1.053   4.529   7.282
 2898SOL     OW21169   3.543   5.201   5.998
 2898SOL    HW121170   3.580   5.109   5.987
 2898SOL    HW221171   3.499   5.209   6.088
 2899SOL     OW21172   0.382   3.763   1.095
 2899SOL    HW121173   0.319   3.704   1.045
 2899SOL    HW221174   0.461   3.784   1.037
 2900SOL     OW21175   7.093   0.884   2.308
 2900SOL    HW121176   7.108   0.852   2.215
 2900SOL    HW221177   7.170   0.856   2.366
 2901SOL     OW21178   5.000   3.950   2.185
 2901SOL    HW121179   4.932   3.878   2.170
 2901SOL    HW221180   5.016   3.960   2.284
 2902SOL     OW21181   7.269   0.941   5.468
 2902SOL    HW121182   7.246   1.033   5.437
 2902SOL    HW221183   7.363   0.939   5.500
 2903SOL     OW21184   2.258   4.281   6.883
 2903SOL    HW121185   2.314   4.328   6.814
 2903SOL    HW221186   2.229   4.192   6.847
 2904SOL     OW21187   4.568   4.133   2.817
 2904SOL    HW121188   4.527   4.214   2.775
 2904SOL    HW221189   4.584   4.064   2.747
 2905SOL     OW21190   0.705   1.100   2.024
 2905SOL    HW121191   0.777   1.129   1.960
 2905SOL    HW221192   0.660   1.180   2.063
 2906SOL     OW21193   2.605   6.670   5.491
 2906SOL    HW121194   2.652   6.607   5.554
 2906SOL    HW221195   2.671   6.734   5.452
 2907SOL     OW21196   6.352   5.846   1.551
 2907SOL    HW121197   6.337   5.922   1.488
 2907SOL    HW221198   6.334   5.875   1.645
 2908SOL     OW21199   0.648   2.238   0.744
 2908SOL    HW121200   0.632   2.306   0.673
 2908SOL    HW221201   0.732   2.188   0.724
 2909SOL     OW21202   1.773   0.723   3.073
 2909SOL    HW121203   1.818   0.747   3.159
 2909SOL    HW221204   1.800   0.631   3.046
 2910SOL     OW21205   4.359   0.290   0.557
 2910SOL    HW121206   4.308   0.259   0.477
 2910SOL    HW221207   4.447   0.242   0.561
 2911SOL     OW21208   5.989   3.923   2.768
 2911SOL    HW121209   6.078   3.969   2.764
 2911SOL    HW221210   5.938   3.955   2.847
 2912SOL     OW21211   4.600   1.322   4.302
 2912SOL    HW121212   4.535   1.393   4.328
 2912SOL    HW221213   4.693   1.353   4.321
 2913SOL     OW21214   1.816   7.027   1.835
 2913SOL    HW121215   1.732   6.980   1.862
 2913SOL    HW221216   1.858   7.069   1.916
 2914SOL     OW21217   4.025   0.278   3.564
 2914SOL    HW121218   3.987   0.352   3.618
 2914SOL    HW221219   4.087   0.224   3.621
 2915SOL     OW21220   3.383   6.257   1.343
 2915SOL    HW121221   3.462   6.199   1.362
 2915SOL    HW221222   3.319   6.252   1.420
 2916SOL     OW21223   2.950   2.118   6.590
 2916SOL    HW121224   2.857   2.085   6.570
 2916SOL    HW221225   2.960   2.133   6.688
 2917SOL     OW21226   2.987   3.935   5.547
 2917SOL    HW121227   3.013   3.989   5.627
 2917SOL    HW221228   2.902   3.886   5.566
 2918SOL     OW21229   3.119   1.557   2.829
 2918SOL    HW121230   3.040   1.518   2.781
 2918SOL    HW221231   3.087   1.599   2.915
 2919SOL     OW21232   0.527   3.669   7.158
 2919SOL    HW121233   0.585   3.592   7.185
 2919SOL    HW221234   0.432   3.649   7.183
 2920SOL     OW21235   0.904   3.427   5.995
 2920SOL    HW121236   0.914   3.509   6.051
 2920SOL    HW221237   0.881   3.453   5.901
 2921SOL     OW21238   6.278   1.362   7.077
 2921SOL    HW121239   6.251   1.267   7.060
 2921SOL    HW221240   6.197   1.421   7.073
 2922SOL     OW21241   4.021   0.426   6.127
 2922SOL    HW121242   4.055   0.452   6.036
 2922SOL    HW221243   3.969   0.502   6.166
 2923SOL     OW21244   1.297   2.180   0.179
 2923SOL    HW121245   1.231   2.189   0.105
 2923SOL    HW221246   1.296   2.087   0.214
 2924SOL     OW21247   2.706   4.233   3.775
 2924SOL    HW121248   2.710   4.224   3.675
 2924SOL    HW221249   2.744   4.151   3.817
 2925SOL     OW21250   6.575   4.340   1.825
 2925SOL    HW121251   6.487   4.369   1.863
 2925SOL    HW221252   6.586   4.379   1.734
 2926SOL     OW21253   6.187   0.105   6.873
 2926SOL    HW121254   6.245   0.179   6.907
 2926SOL    HW221255   6.136   0.065   6.949
 2927SOL     OW21256   5.147   2.913   0.069
 2927SOL    HW121257   5.225   2.927   0.009
 2927SOL    HW221258   5.079   2.985   0.055
 2928SOL     OW21259   5.593   3.091   6.417
 2928SOL    HW121260   5.634   3.107   6.327
 2928SOL    HW221261   5.525   3.162   6.436
 2929SOL     OW21262   2.466   4.889   4.033
 2929SOL    HW121263   2.471   4.789   4.023
 2929SOL    HW221264   2.384   4.923   3.988
 2930SOL     OW21265   3.066   2.367   4.567
 2930SOL    HW121266   2.979   2.329   4.536
 2930SOL    HW221267   3.138   2.299   4.554
 2931SOL     OW21268   2.717   6.776   1.783
 2931SOL    HW121269   2.772   6.859   1.793
 2931SOL    HW221270   2.776   6.696   1.795
 2932SOL     OW21271   5.272   4.952   2.402
 2932SOL    HW121272   5.361   4.910   2.390
 2932SOL    HW221273   5.223   4.954   2.315
 2933SOL     OW21274   4.131   5.943   4.958
 2933SOL    HW121275   4.198   5.927   4.885
 2933SOL    HW221276   4.180   5.954   5.045
 2934SOL     OW21277   4.645   0.369   3.617
 2934SOL    HW121278   4.562   0.317   3.640
 2934SOL    HW221279   4.670   0.428   3.694
 2935SOL     OW21280   1.203   3.554   0.027
 2935SOL    HW121281   1.282   3.536  -0.032
 2935SOL    HW221282   1.119   3.535  -0.024
 2936SOL     OW21283   6.889   1.116   1.774
 2936SOL    HW121284   6.813   1.098   1.713
 2936SOL    HW221285   6.860   1.178   1.847
 2937SOL     OW21286   5.701   3.898   7.039
 2937SOL    HW121287   5.691   3.830   6.966
 2937SOL    HW221288   5.713   3.988   6.998
 2938SOL     OW21289   0.665   1.435   1.421
 2938SOL    HW121290   0.600   1.442   1.346
 2938SOL    HW221291   0.626   1.475   1.504
 2939SOL     OW21292   5.655   4.005   4.078
 2939SOL    HW121293   5.648   3.938   4.152
 2939SOL    HW221294   5.575   3.997   4.018
 2940SOL     OW21295   7.332   1.728   4.578
 2940SOL    HW121296   7.422   1.767   4.559
 2940SOL    HW221297   7.290   1.776   4.655
 2941SOL     OW21298   4.227   6.300   0.995
 2941SOL    HW121299   4.177   6.308   0.908
 2941SOL    HW221300   4.214   6.208   1.032
 2942SOL     OW21301   4.876   0.965   6.736
 2942SOL    HW121302   4.857   0.951   6.638
 2942SOL    HW221303   4.913   0.881   6.775
 2943SOL     OW21304   1.209   5.931   0.889
 2943SOL    HW121305   1.163   5.979   0.814
 2943SOL    HW221306   1.300   5.970   0.902
 2944SOL     OW21307   5.423   4.088   6.847
 2944SOL    HW121308   5.373   4.140   6.777
 2944SOL    HW221309   5.520   4.112   6.844
 2945SOL     OW21310   0.321   1.588   3.164
 2945SOL    HW121311   0.404   1.575   3.217
 2945SOL    HW221312   0.335   1.554   3.071
 2946SOL     OW21313   0.571   5.037   1.316
 2946SOL    HW121314   0.551   5.132   1.343
 2946SOL    HW221315   0.496   4.978   1.344
 2947SOL     OW21316   0.837   4.340   5.568
 2947SOL    HW121317   0.776   4.412   5.536
 2947SOL    HW221318   0.847   4.345   5.667
 2948SOL     OW21319   0.455   1.410   1.225
 2948SOL    HW121320   0.392   1.344   1.186
 2948SOL    HW221321   0.533   1.422   1.164
 2949SOL     OW21322   4.402   1.674   6.639
 2949SOL    HW121323   4.455   1.736   6.697
 2949SOL    HW221324   4.423   1.579   6.663
 2950SOL     OW21325   2.258   4.774   0.586
 2950SOL    HW121326   2.222   4.695   0.634
 2950SOL    HW221327   2.355   4.760   0.567
 2951SOL     OW21328   5.694   4.782   0.913
 2951SOL    HW121329   5.631   4.852   0.881
 2951SOL    HW221330   5.749   4.819   0.988
 2952SOL     OW21331   6.685   6.982   6.525
 2952SOL    HW121332   6.677   6.883   6.515
 2952SOL    HW221333   6.779   7.005   6.550
 2953SOL     OW21334   0.749   2.317   0.045
 2953SOL    HW121335   0.834   2.274   0.077
 2953SOL    HW221336   0.713   2.376   0.117
 2954SOL     OW21337   5.729   4.260   6.468
 2954SOL    HW121338   5.656   4.202   6.504
 2954SOL    HW221339   5.704   4.356   6.479
 2955SOL     OW21340   0.509   7.023   6.997
 2955SOL    HW121341   0.531   7.087   7.070
 2955SOL    HW221342   0.410   7.008   6.995
 2956SOL     OW21343   5.727   4.173   2.591
 2956SOL    HW121344   5.703   4.155   2.496
 2956SOL    HW221345   5.670   4.117   2.651
 2957SOL     OW21346   5.879   1.433   1.946
 2957SOL    HW121347   5.888   1.532   1.962
 2957SOL    HW221348   5.811   1.418   1.874
 2958SOL     OW21349   5.088   2.766   2.775
 2958SOL    HW121350   5.100   2.667   2.770
 2958SOL    HW221351   5.120   2.799   2.864
 2959SOL     OW21352   2.567   5.278   3.351
 2959SOL    HW121353   2.491   5.259   3.289
 2959SOL    HW221354   2.650   5.233   3.317
 2960SOL     OW21355   4.400   6.064   4.603
 2960SOL    HW121356   4.481   6.013   4.630
 2960SOL    HW221357   4.318   6.008   4.619
 2961SOL     OW21358   3.685   1.812   6.788
 2961SOL    HW121359   3.662   1.762   6.871
 2961SOL    HW221360   3.694   1.747   6.712
 2962SOL     OW21361   4.441   0.318   2.975
 2962SOL    HW121362   4.536   0.314   2.942
 2962SOL    HW221363   4.400   0.405   2.949
 2963SOL     OW21364   4.711   5.485   1.551
 2963SOL    HW121365   4.772   5.406   1.543
 2963SOL    HW221366   4.621   5.461   1.516
 2964SOL     OW21367   4.630   0.618   1.394
 2964SOL    HW121368   4.649   0.687   1.464
 2964SOL    HW221369   4.612   0.663   1.307
 2965SOL     OW21370   5.773   4.230   4.184
 2965SOL    HW121371   5.692   4.281   4.212
 2965SOL    HW221372   5.746   4.142   4.144
 2966SOL     OW21373   3.545   3.756   3.005
 2966SOL    HW121374   3.641   3.738   2.981
 2966SOL    HW221375   3.521   3.849   2.979
 2967SOL     OW21376   1.729   4.805   2.212
 2967SOL    HW121377   1.727   4.744   2.291
 2967SOL    HW221378   1.655   4.781   2.149
 2968SOL     OW21379   0.239   4.443   5.667
 2968SOL    HW121380   0.147   4.447   5.629
 2968SOL    HW221381   0.291   4.370   5.623
 2969SOL     OW21382   2.329   0.503   6.800
 2969SOL    HW121383   2.288   0.440   6.733
 2969SOL    HW221384   2.356   0.451   6.881
 2970SOL     OW21385   3.131   0.249   5.315
 2970SOL    HW121386   3.158   0.153   5.307
 2970SOL    HW221387   3.205   0.301   5.358
 2971SOL     OW21388   5.922   6.856   0.080
 2971SOL    HW121389   5.874   6.793   0.019
 2971SOL    HW221390   5.963   6.804   0.155
 2972SOL     OW21391   6.421   0.193   6.187
 2972SOL    HW121392   6.387   0.124   6.124
 2972SOL    HW221393   6.411   0.159   6.281
 2973SOL     OW21394   2.503   4.603   3.984
 2973SOL    HW121395   2.595   4.565   3.985
 2973SOL    HW221396   2.464   4.594   3.892
 2974SOL     OW21397   1.587   6.959   6.792
 2974SOL    HW121398   1.635   6.890   6.847
 2974SOL    HW221399   1.570   7.039   6.849
 2975SOL     OW21400   0.580   5.215   0.586
 2975SOL    HW121401   0.661   5.195   0.530
 2975SOL    HW221402   0.501   5.227   0.527
 2976SOL     OW21403   1.397   3.804   5.431
 2976SOL    HW121404   1.358   3.886   5.471
 2976SOL    HW221405   1.389   3.807   5.331
 2977SOL     OW21406   3.870   4.914   7.235
 2977SOL    HW121407   3.810   4.840   7.266
 2977SOL    HW221408   3.952   4.874   7.193
 2978SOL     OW21409   3.619   1.505   0.138
 2978SOL    HW121410   3.536   1.519   0.084
 2978SOL    HW221411   3.629   1.580   0.204
 2979SOL     OW21412   3.892   0.912   1.193
 2979SOL    HW121413   3.796   0.886   1.200
 2979SOL    HW221414   3.947   0.833   1.166
 2980SOL     OW21415   0.376   4.558   1.724
 2980SOL    HW121416   0.457   4.513   1.761
 2980SOL    HW221417   0.326   4.493   1.666
 2981SOL     OW21418   5.290   1.035   3.564
 2981SOL    HW121419   5.285   0.939   3.592
 2981SOL    HW221420   5.199   1.066   3.536
 2982SOL     OW21421   4.253   0.214   1.455
 2982SOL    HW121422   4.253   0.183   1.551
 2982SOL    HW221423   4.289   0.307   1.450
 2983SOL     OW21424   3.192   3.427   7.187
 2983SOL    HW121425   3.284   3.459   7.163
 2983SOL    HW221426   3.176   3.441   7.285
 2984SOL     OW21427   5.990   2.170   1.717
 2984SOL    HW121428   5.931   2.250   1.731
 2984SOL    HW221429   6.050   2.186   1.639
 2985SOL     OW21430   5.427   0.471   3.632
 2985SOL    HW121431   5.331   0.492   3.647
 2985SOL    HW221432   5.447   0.474   3.533
 2986SOL     OW21433   5.945   6.374   6.320
 2986SOL    HW121434   6.008   6.325   6.261
 2986SOL    HW221435   5.865   6.403   6.267
 2987SOL     OW21436   0.713   3.887   7.260
 2987SOL    HW121437   0.642   3.820   7.240
 2987SOL    HW221438   0.672   3.968   7.303
 2988SOL     OW21439   7.012   2.240   0.626
 2988SOL    HW121440   7.029   2.186   0.543
 2988SOL    HW221441   6.970   2.327   0.601
 2989SOL     OW21442   4.123   4.348   0.702
 2989SOL    HW121443   4.134   4.272   0.765
 2989SOL    HW221444   4.063   4.321   0.627
 2990SOL     OW21445   5.311   3.130   4.041
 2990SOL    HW121446   5.232   3.073   4.018
 2990SOL    HW221447   5.392   3.097   3.993
 2991SOL     OW21448   3.280   2.377   1.547
 2991SOL    HW121449   3.238   2.327   1.623
 2991SOL    HW221450   3.225   2.364   1.464
 2992SOL     OW21451   4.455   5.191   7.013
 2992SOL    HW121452   4.551   5.215   7.003
 2992SOL    HW221453   4.412   5.250   7.082
 2993SOL     OW21454   4.539   4.778   6.667
 2993SOL    HW121455   4.542   4.732   6.756
 2993SOL    HW221456   4.621   4.835   6.657
 2994SOL     OW21457   6.472   6.511   4.149
 2994SOL    HW121458   6.482   6.413   4.166
 2994SOL    HW221459   6.491   6.561   4.233
 2995SOL     OW21460   2.998   5.535   0.022
 2995SOL    HW121461   3.014   5.629  -0.006
 2995SOL    HW221462   2.993   5.475  -0.058
 2996SOL     OW21463   0.563   1.759   3.654
 2996SOL    HW121464   0.659   1.775   3.627
 2996SOL    HW221465   0.509   1.738   3.573
 2997SOL     OW21466   2.051   3.519   5.033
 2997SOL    HW121467   2.121   3.524   5.104
 2997SOL    HW221468   2.066   3.592   4.967
 2998SOL     OW21469   3.676   3.633   6.044
 2998SOL    HW121470   3.599   3.579   6.009
 2998SOL    HW221471   3.761   3.585   6.027
 2999SOL     OW21472   5.993   4.893   4.129
 2999SOL    HW121473   6.068   4.954   4.153
 2999SOL    HW221474   6.010   4.803   4.170
 3000SOL     OW21475   0.202   3.557   0.665
 3000SOL    HW121476   0.163   3.640   0.704
 3000SOL    HW221477   0.226   3.494   0.739
 3001SOL     OW21478   0.361   2.397   0.016
 3001SOL    HW121479   0.262   2.381   0.025
 3001SOL    HW221480   0.377   2.489  -0.019
 3002SOL     OW21481   2.785   3.218   2.141
 3002SOL    HW121482   2.853   3.152   2.108
 3002SOL    HW221483   2.694   3.176   2.141
 3003SOL     OW21484   0.515   7.276   7.138
 3003SOL    HW121485   0.557   7.219   7.208
 3003SOL    HW221486   0.584   7.303   7.071
 3004SOL     OW21487   0.604   4.540   5.505
 3004SOL    HW121488   0.557   4.620   5.544
 3004SOL    HW221489   0.547   4.501   5.432
 3005SOL     OW21490   5.102   2.931   4.032
 3005SOL    HW121491   5.027   2.917   3.968
 3005SOL    HW221492   5.066   2.942   4.125
 3006SOL     OW21493   6.117   2.188   0.106
 3006SOL    HW121494   6.077   2.274   0.076
 3006SOL    HW221495   6.214   2.187   0.083
 3007SOL     OW21496   5.391   2.289   1.497
 3007SOL    HW121497   5.468   2.228   1.478
 3007SOL    HW221498   5.408   2.337   1.583
 3008SOL     OW21499   3.678   0.607   6.082
 3008SOL    HW121500   3.715   0.537   6.021
 3008SOL    HW221501   3.629   0.675   6.029
 3009SOL     OW21502   2.059   1.262   1.416
 3009SOL    HW121503   2.005   1.332   1.369
 3009SOL    HW221504   2.024   1.171   1.391
 3010SOL     OW21505   3.852   5.738   5.232
 3010SOL    HW121506   3.909   5.683   5.172
 3010SOL    HW221507   3.896   5.746   5.322
 3011SOL     OW21508   2.224   4.269   4.536
 3011SOL    HW121509   2.157   4.206   4.576
 3011SOL    HW221510   2.195   4.363   4.552
 3012SOL     OW21511   0.308   6.252   6.246
 3012SOL    HW121512   0.380   6.253   6.177
 3012SOL    HW221513   0.286   6.346   6.272
 3013SOL     OW21514   2.260   6.771   6.620
 3013SOL    HW121515   2.356   6.753   6.602
 3013SOL    HW221516   2.209   6.771   6.533
 3014SOL     OW21517   4.832   5.790   3.811
 3014SOL    HW121518   4.839   5.803   3.910
 3014SOL    HW221519   4.739   5.762   3.788
 3015SOL     OW21520   1.219   6.025   5.154
 3015SOL    HW121521   1.217   5.944   5.095
 3015SOL    HW221522   1.135   6.078   5.140
 3016SOL     OW21523   3.150   1.511   6.110
 3016SOL    HW121524   3.077   1.504   6.043
 3016SOL    HW221525   3.160   1.606   6.140
 3017SOL     OW21526   2.039   4.526   4.625
 3017SOL    HW121527   2.030   4.561   4.718
 3017SOL    HW221528   2.120   4.567   4.582
 3018SOL     OW21529   3.003   1.344   7.141
 3018SOL    HW121530   2.923   1.336   7.081
 3018SOL    HW221531   3.084   1.312   7.092
 3019SOL     OW21532   4.857   7.129   3.303
 3019SOL    HW121533   4.919   7.112   3.227
 3019SOL    HW221534   4.767   7.156   3.269
 3020SOL     OW21535   2.478   2.208   3.186
 3020SOL    HW121536   2.483   2.308   3.190
 3020SOL    HW221537   2.384   2.180   3.170
 3021SOL     OW21538   1.989   3.457   4.607
 3021SOL    HW121539   2.027   3.539   4.566
 3021SOL    HW221540   1.941   3.403   4.537
 3022SOL     OW21541   4.269   4.000   0.713
 3022SOL    HW121542   4.349   4.039   0.668
 3022SOL    HW221543   4.209   3.959   0.645
 3023SOL     OW21544   4.594   5.464   4.894
 3023SOL    HW121545   4.677   5.410   4.909
 3023SOL    HW221546   4.521   5.429   4.954
 3024SOL     OW21547   3.925   1.305   6.118
 3024SOL    HW121548   3.884   1.383   6.072
 3024SOL    HW221549   4.024   1.319   6.125
 3025SOL     OW21550   0.151   6.040   6.665
 3025SOL    HW121551   0.160   6.084   6.754
 3025SOL    HW221552   0.178   6.103   6.593
 3026SOL     OW21553   3.669   5.820   0.286
 3026SOL    HW121554   3.768   5.809   0.291
 3026SOL    HW221555   3.624   5.746   0.337
 3027SOL     OW21556   4.091   6.782   6.955
 3027SOL    HW121557   4.172   6.774   6.897
 3027SOL    HW221558   4.043   6.695   6.957
 3028SOL     OW21559   5.891   1.132   0.882
 3028SOL    HW121560   5.913   1.048   0.931
 3028SOL    HW221561   5.974   1.184   0.865
 3029SOL     OW21562   1.512   2.169   1.558
 3029SOL    HW121563   1.582   2.186   1.628
 3029SOL    HW221564   1.436   2.232   1.572
 3030SOL     OW21565   0.752   4.014   6.736
 3030SOL    HW121566   0.825   4.003   6.802
 3030SOL    HW221567   0.771   3.957   6.656
 3031SOL     OW21568   4.576   3.191   2.759
 3031SOL    HW121569   4.501   3.235   2.709
 3031SOL    HW221570   4.581   3.229   2.851
 3032SOL     OW21571   6.252   0.111   3.653
 3032SOL    HW121572   6.192   0.063   3.717
 3032SOL    HW221573   6.268   0.054   3.573
 3033SOL     OW21574   5.821   5.205   4.607
 3033SOL    HW121575   5.781   5.282   4.658
 3033SOL    HW221576   5.768   5.188   4.524
 3034SOL     OW21577   0.931   1.669   3.319
 3034SOL    HW121578   0.915   1.573   3.293
 3034SOL    HW221579   0.861   1.727   3.277
 3035SOL     OW21580   0.343   1.689   3.770
 3035SOL    HW121581   0.328   1.596   3.737
 3035SOL    HW221582   0.425   1.726   3.727
 3036SOL     OW21583   2.891   5.591   6.622
 3036SOL    HW121584   2.878   5.536   6.705
 3036SOL    HW221585   2.949   5.541   6.558
 3037SOL     OW21586   2.321   6.995   6.260
 3037SOL    HW121587   2.301   7.093   6.256
 3037SOL    HW221588   2.394   6.974   6.195
 3038SOL     OW21589   0.620   0.352   3.318
 3038SOL    HW121590   0.634   0.433   3.261
 3038SOL    HW221591   0.686   0.352   3.393
 3039SOL     OW21592   6.209   0.484   7.182
 3039SOL    HW121593   6.298   0.453   7.213
 3039SOL    HW221594   6.144   0.481   7.258
 3040SOL     OW21595   6.408   2.608   5.917
 3040SOL    HW121596   6.340   2.681   5.910
 3040SOL    HW221597   6.454   2.614   6.005
 3041SOL     OW21598   5.408   4.867   0.136
 3041SOL    HW121599   5.433   4.814   0.217
 3041SOL    HW221600   5.491   4.890   0.085
 3042SOL     OW21601   2.773   6.761   7.213
 3042SOL    HW121602   2.684   6.784   7.172
 3042SOL    HW221603   2.829   6.713   7.145
 3043SOL     OW21604   2.045   2.024   5.447
 3043SOL    HW121605   1.951   2.058   5.453
 3043SOL    HW221606   2.049   1.930   5.480
 3044SOL     OW21607   2.987   6.634   7.040
 3044SOL    HW121608   3.045   6.663   7.116
 3044SOL    HW221609   3.009   6.539   7.016
 3045SOL     OW21610   0.153   1.320   3.372
 3045SOL    HW121611   0.137   1.328   3.274
 3045SOL    HW221612   0.066   1.327   3.421
 3046SOL     OW21613   2.947   2.576   0.714
 3046SOL    HW121614   2.978   2.616   0.627
 3046SOL    HW221615   2.991   2.624   0.790
 3047SOL     OW21616   5.861   2.561   2.314
 3047SOL    HW121617   5.868   2.661   2.308
 3047SOL    HW221618   5.879   2.532   2.408
 3048SOL     OW21619   4.287   3.950   2.062
 3048SOL    HW121620   4.246   3.863   2.037
 3048SOL    HW221621   4.215   4.019   2.074
 3049SOL     OW21622   1.511   2.664   5.145
 3049SOL    HW121623   1.434   2.727   5.140
 3049SOL    HW221624   1.579   2.700   5.210
 3050SOL     OW21625   4.840   5.781   6.165
 3050SOL    HW121626   4.792   5.800   6.251
 3050SOL    HW221627   4.814   5.850   6.097
 3051SOL     OW21628   5.624   4.208   3.412
 3051SOL    HW121629   5.576   4.281   3.362
 3051SOL    HW221630   5.689   4.249   3.477
 3052SOL     OW21631   0.948   0.799   6.521
 3052SOL    HW121632   0.875   0.759   6.576
 3052SOL    HW221633   0.943   0.764   6.428
 3053SOL     OW21634   3.556   4.926   3.182
 3053SOL    HW121635   3.580   4.960   3.273
 3053SOL    HW221636   3.517   5.000   3.128
 3054SOL     OW21637   1.931   4.992   4.566
 3054SOL    HW121638   1.855   4.945   4.611
 3054SOL    HW221639   1.998   4.924   4.535
 3055SOL     OW21640   0.790   0.015   7.005
 3055SOL    HW121641   0.802   0.038   6.908
 3055SOL    HW221642   0.812  -0.081   7.020
 3056SOL     OW21643   5.127   1.757   1.359
 3056SOL    HW121644   5.114   1.732   1.455
 3056SOL    HW221645   5.123   1.856   1.349
 3057SOL     OW21646   5.508   0.511   2.717
 3057SOL    HW121647   5.534   0.603   2.686
 3057SOL    HW221648   5.430   0.479   2.663
 3058SOL     OW21649   4.056   3.953   7.343
 3058SOL    HW121650   4.130   4.020   7.336
 3058SOL    HW221651   4.088   3.873   7.394
 3059SOL     OW21652   6.364   4.192   0.585
 3059SOL    HW121653   6.437   4.124   0.576
 3059SOL    HW221654   6.364   4.229   0.677
 3060SOL     OW21655   2.060   3.600   7.226
 3060SOL    HW121656   2.079   3.503   7.208
 3060SOL    HW221657   2.143   3.643   7.263
 3061SOL     OW21658   0.566   0.160   0.697
 3061SOL    HW121659   0.560   0.259   0.680
 3061SOL    HW221660   0.490   0.133   0.756
 3062SOL     OW21661   5.352   7.206   0.507
 3062SOL    HW121662   5.437   7.164   0.476
 3062SOL    HW221663   5.330   7.284   0.449
 3063SOL     OW21664   2.528   3.562   4.524
 3063SOL    HW121665   2.598   3.500   4.489
 3063SOL    HW221666   2.558   3.602   4.610
 3064SOL     OW21667   6.625   4.137   1.054
 3064SOL    HW121668   6.713   4.157   1.011
 3064SOL    HW221669   6.629   4.045   1.094
 3065SOL     OW21670   1.049   0.914   0.765
 3065SOL    HW121671   1.018   1.008   0.756
 3065SOL    HW221672   0.972   0.852   0.752
 3066SOL     OW21673   2.118   4.757   7.056
 3066SOL    HW121674   2.084   4.801   6.974
 3066SOL    HW221675   2.217   4.743   7.048
 3067SOL     OW21676   6.663   3.437   4.760
 3067SOL    HW121677   6.709   3.526   4.763
 3067SOL    HW221678   6.608   3.431   4.677
 3068SOL     OW21679   1.550   2.495   2.497
 3068SOL    HW121680   1.577   2.565   2.431
 3068SOL    HW221681   1.533   2.536   2.586
 3069SOL     OW21682   0.948   3.668   2.163
 3069SOL    HW121683   1.028   3.611   2.184
 3069SOL    HW221684   0.937   3.736   2.236
 3070SOL     OW21685   5.959   3.201   1.204
 3070SOL    HW121686   5.880   3.251   1.240
 3070SOL    HW221687   6.034   3.204   1.270
 3071SOL     OW21688   4.787   0.732   5.228
 3071SOL    HW121689   4.730   0.655   5.257
 3071SOL    HW221690   4.844   0.761   5.305
 3072SOL     OW21691   4.440   0.484   2.048
 3072SOL    HW121692   4.387   0.514   2.127
 3072SOL    HW221693   4.526   0.443   2.078
 3073SOL     OW21694   3.535   4.076   2.991
 3073SOL    HW121695   3.436   4.059   2.994
 3073SOL    HW221696   3.562   4.130   3.071
 3074SOL     OW21697   6.782   0.513   6.209
 3074SOL    HW121698   6.755   0.590   6.151
 3074SOL    HW221699   6.706   0.488   6.270
 3075SOL     OW21700   6.636   6.784   0.983
 3075SOL    HW121701   6.576   6.728   0.927
 3075SOL    HW221702   6.730   6.777   0.948
 3076SOL     OW21703   6.073   0.248   4.487
 3076SOL    HW121704   6.053   0.156   4.453
 3076SOL    HW221705   6.171   0.264   4.483
 3077SOL     OW21706   6.689   4.936   4.698
 3077SOL    HW121707   6.739   4.943   4.784
 3077SOL    HW221708   6.724   4.860   4.645
 3078SOL     OW21709   7.277   6.021   7.131
 3078SOL    HW121710   7.185   6.007   7.169
 3078SOL    HW221711   7.269   6.046   7.034
 3079SOL     OW21712   3.063   5.110   6.881
 3079SOL    HW121713   3.108   5.137   6.966
 3079SOL    HW221714   2.964   5.107   6.895
 3080SOL     OW21715   4.938   5.378   0.726
 3080SOL    HW121716   5.020   5.428   0.698
 3080SOL    HW221717   4.944   5.284   0.695
 3081SOL     OW21718   6.271   6.391   1.629
 3081SOL    HW121719   6.212   6.340   1.567
 3081SOL    HW221720   6.301   6.475   1.584
 3082SOL     OW21721   5.130   0.441   2.166
 3082SOL    HW121722   5.101   0.479   2.078
 3082SOL    HW221723   5.084   0.353   2.181
 3083SOL     OW21724   0.053   1.585   3.223
 3083SOL    HW121725   0.035   1.653   3.295
 3083SOL    HW221726   0.149   1.560   3.224
 3084SOL     OW21727   2.594   1.070   3.203
 3084SOL    HW121728   2.604   1.066   3.302
 3084SOL    HW221729   2.622   0.983   3.163
 3085SOL     OW21730   6.181   0.754   7.126
 3085SOL    HW121731   6.187   0.655   7.139
 3085SOL    HW221732   6.246   0.782   7.055
 3086SOL     OW21733   6.156   0.119   3.170
 3086SOL    HW121734   6.146   0.213   3.203
 3086SOL    HW221735   6.078   0.095   3.114
 3087SOL     OW21736   6.715   2.314   6.266
 3087SOL    HW121737   6.763   2.285   6.183
 3087SOL    HW221738   6.624   2.272   6.267
 3088SOL     OW21739   5.089   6.431   3.816
 3088SOL    HW121740   5.087   6.516   3.764
 3088SOL    HW221741   5.181   6.417   3.854
 3089SOL     OW21742   6.028   2.487   3.629
 3089SOL    HW121743   6.064   2.405   3.673
 3089SOL    HW221744   5.955   2.526   3.685
 3090SOL     OW21745   3.575   4.019   4.709
 3090SOL    HW121746   3.481   4.032   4.677
 3090SOL    HW221747   3.575   3.973   4.797
 3091SOL     OW21748   4.212   1.703   3.715
 3091SOL    HW121749   4.230   1.755   3.631
 3091SOL    HW221750   4.287   1.715   3.779
 3092SOL     OW21751   5.219   6.038   7.353
 3092SOL    HW121752   5.218   5.970   7.427
 3092SOL    HW221753   5.150   6.108   7.372
 3093SOL     OW21754   3.361   2.415   5.773
 3093SOL    HW121755   3.452   2.374   5.764
 3093SOL    HW221756   3.313   2.373   5.849
 3094SOL     OW21757   0.816   1.842   2.979
 3094SOL    HW121758   0.851   1.936   2.973
 3094SOL    HW221759   0.757   1.823   2.900
 3095SOL     OW21760   3.844   1.212   0.473
 3095SOL    HW121761   3.753   1.247   0.499
 3095SOL    HW221762   3.833   1.123   0.428
 3096SOL     OW21763   5.310   2.876   5.149
 3096SOL    HW121764   5.248   2.809   5.190
 3096SOL    HW221765   5.403   2.860   5.182
 3097SOL     OW21766   3.662   4.589   5.511
 3097SOL    HW121767   3.632   4.507   5.463
 3097SOL    HW221768   3.587   4.625   5.566
 3098SOL     OW21769   2.972   4.280   2.220
 3098SOL    HW121770   3.070   4.263   2.232
 3098SOL    HW221771   2.929   4.290   2.310
 3099SOL     OW21772   6.616   2.731   1.212
 3099SOL    HW121773   6.692   2.684   1.167
 3099SOL    HW221774   6.591   2.813   1.159
 3100SOL     OW21775   0.929   2.089   1.851
 3100SOL    HW121776   1.012   2.043   1.822
 3100SOL    HW221777   0.882   2.128   1.772
 3101SOL     OW21778   1.050   2.320   2.595
 3101SOL    HW121779   1.070   2.228   2.562
 3101SOL    HW221780   0.977   2.360   2.539
 3102SOL     OW21781   3.679   6.979   0.418
 3102SOL    HW121782   3.691   6.983   0.318
 3102SOL    HW221783   3.714   6.891   0.452
 3103SOL     OW21784   7.331   6.582   6.726
 3103SOL    HW121785   7.362   6.624   6.811
 3103SOL    HW221786   7.319   6.653   6.656
 3104SOL     OW21787   5.276   0.901   0.095
 3104SOL    HW121788   5.183   0.927   0.122
 3104SOL    HW221789   5.284   0.904  -0.005
 3105SOL     OW21790   6.616   1.486   0.835
 3105SOL    HW121791   6.533   1.431   0.823
 3105SOL    HW221792   6.627   1.509   0.932
 3106SOL     OW21793   6.364   0.436   4.173
 3106SOL    HW121794   6.297   0.486   4.228
 3106SOL    HW221795   6.446   0.492   4.160
 3107SOL     OW21796   4.673   3.956   6.449
 3107SOL    HW121797   4.701   3.923   6.359
 3107SOL    HW221798   4.643   3.879   6.505
 3108SOL     OW21799   3.296   5.845   6.770
 3108SOL    HW121800   3.253   5.898   6.843
 3108SOL    HW221801   3.395   5.859   6.772
 3109SOL     OW21802   4.039   7.185   1.417
 3109SOL    HW121803   4.039   7.277   1.378
 3109SOL    HW221804   4.082   7.122   1.353
 3110SOL     OW21805   0.882   1.507   0.626
 3110SOL    HW121806   0.855   1.487   0.720
 3110SOL    HW221807   0.973   1.471   0.608
 3111SOL     OW21808   3.846   4.778   0.554
 3111SOL    HW121809   3.769   4.716   0.565
 3111SOL    HW221810   3.924   4.728   0.518
 3112SOL     OW21811   1.310   2.156   2.368
 3112SOL    HW121812   1.280   2.124   2.458
 3112SOL    HW221813   1.285   2.088   2.299
 3113SOL     OW21814   7.241   4.437   3.990
 3113SOL    HW121815   7.326   4.384   3.993
 3113SOL    HW221816   7.211   4.446   3.895
 3114SOL     OW21817   0.074   5.480   3.447
 3114SOL    HW121818  -0.016   5.473   3.404
 3114SOL    HW221819   0.073   5.433   3.535
 3115SOL     OW21820   4.098   0.235   6.323
 3115SOL    HW121821   4.091   0.310   6.259
 3115SOL    HW221822   4.006   0.201   6.345
 3116SOL     OW21823   1.491   5.200   5.538
 3116SOL    HW121824   1.539   5.177   5.622
 3116SOL    HW221825   1.558   5.213   5.464
 3117SOL     OW21826   3.196   1.537   1.319
 3117SOL    HW121827   3.198   1.630   1.355
 3117SOL    HW221828   3.244   1.533   1.232
 3118SOL     OW21829   2.846   1.843   2.324
 3118SOL    HW121830   2.865   1.749   2.353
 3118SOL    HW221831   2.789   1.887   2.393
 3119SOL     OW21832   2.842   2.757   3.312
 3119SOL    HW121833   2.868   2.716   3.225
 3119SOL    HW221834   2.906   2.729   3.383
 3120SOL     OW21835   6.217   5.788   2.655
 3120SOL    HW121836   6.249   5.755   2.566
 3120SOL    HW221837   6.152   5.721   2.693
 3121SOL     OW21838   3.342   3.521   5.558
 3121SOL    HW121839   3.312   3.434   5.518
 3121SOL    HW221840   3.392   3.503   5.643
 3122SOL     OW21841   1.985   1.406   2.978
 3122SOL    HW121842   1.979   1.395   2.879
 3122SOL    HW221843   2.077   1.437   3.002
 3123SOL     OW21844   6.264   0.502   1.894
 3123SOL    HW121845   6.216   0.589   1.880
 3123SOL    HW221846   6.354   0.506   1.852
 3124SOL     OW21847   0.279   4.713   6.046
 3124SOL    HW121848   0.195   4.718   6.099
 3124SOL    HW221849   0.263   4.748   5.954
 3125SOL     OW21850   3.780   7.271   3.606
 3125SOL    HW121851   3.709   7.212   3.567
 3125SOL    HW221852   3.838   7.306   3.532
 3126SOL     OW21853   6.247   4.874   1.290
 3126SOL    HW121854   6.249   4.915   1.382
 3126SOL    HW221855   6.187   4.929   1.231
 3127SOL     OW21856   2.328   3.230   3.614
 3127SOL    HW121857   2.398   3.268   3.554
 3127SOL    HW221858   2.277   3.305   3.657
 3128SOL     OW21859   5.461   0.821   0.883
 3128SOL    HW121860   5.543   0.867   0.918
 3128SOL    HW221861   5.421   0.877   0.810
 3129SOL     OW21862   3.871   3.335   1.207
 3129SOL    HW121863   3.780   3.296   1.188
 3129SOL    HW221864   3.860   3.426   1.247
 3130SOL     OW21865   5.877   5.221   6.822
 3130SOL    HW121866   5.841   5.312   6.806
 3130SOL    HW221867   5.975   5.227   6.842
 3131SOL     OW21868   5.821   5.528   7.187
 3131SOL    HW121869   5.811   5.594   7.113
 3131SOL    HW221870   5.880   5.453   7.158
 3132SOL     OW21871   0.552   5.081   4.318
 3132SOL    HW121872   0.474   5.142   4.309
 3132SOL    HW221873   0.543   5.005   4.254
 3133SOL     OW21874   7.076   1.277   2.105
 3133SOL    HW121875   7.139   1.225   2.163
 3133SOL    HW221876   6.987   1.285   2.151
 3134SOL     OW21877   3.681   0.493   0.035
 3134SOL    HW121878   3.695   0.400   0.070
 3134SOL    HW221879   3.664   0.555   0.112
 3135SOL     OW21880   6.902   3.845   1.045
 3135SOL    HW121881   6.814   3.886   1.068
 3135SOL    HW221882   6.960   3.912   0.999
 3136SOL     OW21883   4.236   1.314   6.129
 3136SOL    HW121884   4.249   1.303   6.227
 3136SOL    HW221885   4.309   1.372   6.092
 3137SOL     OW21886   3.415   6.104   1.946
 3137SOL    HW121887   3.397   6.009   1.971
 3137SOL    HW221888   3.491   6.139   2.000
 3138SOL     OW21889   3.559   0.655   1.816
 3138SOL    HW121890   3.529   0.583   1.754
 3138SOL    HW221891   3.493   0.730   1.815
 3139SOL     OW21892   3.002   4.404   3.984
 3139SOL    HW121893   3.027   4.391   3.888
 3139SOL    HW221894   2.910   4.443   3.989
 3140SOL     OW21895   5.904   2.250   2.158
 3140SOL    HW121896   5.975   2.320   2.148
 3140SOL    HW221897   5.815   2.291   2.138
 3141SOL     OW21898   4.586   2.763   5.652
 3141SOL    HW121899   4.623   2.691   5.711
 3141SOL    HW221900   4.625   2.754   5.560
 3142SOL     OW21901   3.305   6.624   6.403
 3142SOL    HW121902   3.366   6.577   6.339
 3142SOL    HW221903   3.211   6.597   6.385
 3143SOL     OW21904   7.051   3.268   2.687
 3143SOL    HW121905   7.081   3.253   2.781
 3143SOL    HW221906   7.075   3.189   2.631
 3144SOL     OW21907   3.493   4.462   3.410
 3144SOL    HW121908   3.534   4.537   3.462
 3144SOL    HW221909   3.550   4.380   3.420
 3145SOL     OW21910   4.970   1.049   4.032
 3145SOL    HW121911   5.040   1.082   3.968
 3145SOL    HW221912   4.879   1.069   3.996
 3146SOL     OW21913   0.696   5.151   2.135
 3146SOL    HW121914   0.615   5.102   2.167
 3146SOL    HW221915   0.762   5.086   2.097
 3147SOL     OW21916   0.975   6.244   5.663
 3147SOL    HW121917   1.019   6.155   5.653
 3147SOL    HW221918   1.003   6.303   5.587
 3148SOL     OW21919   2.505   1.409   7.320
 3148SOL    HW121920   2.504   1.442   7.415
 3148SOL    HW221921   2.461   1.319   7.316
 3149SOL     OW21922   1.213   1.989   3.842
 3149SOL    HW121923   1.161   2.049   3.781
 3149SOL    HW221924   1.311   2.003   3.825
 3150SOL     OW21925   0.736   3.856   0.492
 3150SOL    HW121926   0.835   3.860   0.476
 3150SOL    HW221927   0.704   3.943   0.528
 3151SOL     OW21928   4.108   5.752   6.143
 3151SOL    HW121929   4.182   5.707   6.192
 3151SOL    HW221930   4.045   5.684   6.107
 3152SOL     OW21931   4.396   1.099   5.721
 3152SOL    HW121932   4.342   1.127   5.800
 3152SOL    HW221933   4.464   1.169   5.700
 3153SOL     OW21934   0.877   3.863   3.345
 3153SOL    HW121935   0.953   3.850   3.409
 3153SOL    HW221936   0.835   3.952   3.361
 3154SOL     OW21937   4.401   1.819   4.162
 3154SOL    HW121938   4.477   1.767   4.125
 3154SOL    HW221939   4.380   1.896   4.102
 3155SOL     OW21940   4.367   2.788   0.767
 3155SOL    HW121941   4.398   2.878   0.794
 3155SOL    HW221942   4.310   2.795   0.685
 3156SOL     OW21943   5.687   0.907   0.400
 3156SOL    HW121944   5.744   0.868   0.328
 3156SOL    HW221945   5.592   0.909   0.371
 3157SOL     OW21946   4.360   4.754   2.790
 3157SOL    HW121947   4.457   4.777   2.792
 3157SOL    HW221948   4.311   4.823   2.736
 3158SOL     OW21949   5.736   4.121   6.893
 3158SOL    HW121950   5.766   4.196   6.952
 3158SOL    HW221951   5.815   4.083   6.844
 3159SOL     OW21952   5.052   1.607   7.200
 3159SOL    HW121953   4.972   1.566   7.156
 3159SOL    HW221954   5.075   1.693   7.153
 3160SOL     OW21955   5.209   1.075   1.724
 3160SOL    HW121956   5.258   1.131   1.658
 3160SOL    HW221957   5.116   1.110   1.735
 3161SOL     OW21958   4.045   5.115   0.252
 3161SOL    HW121959   4.045   5.117   0.352
 3161SOL    HW221960   4.132   5.077   0.219
 3162SOL     OW21961   0.304   5.652   6.981
 3162SOL    HW121962   0.313   5.739   7.029
 3162SOL    HW221963   0.291   5.669   6.884
 3163SOL     OW21964   1.583   3.080   1.029
 3163SOL    HW121965   1.519   3.133   0.974
 3163SOL    HW221966   1.677   3.109   1.009
 3164SOL     OW21967   3.972   5.799   0.285
 3164SOL    HW121968   4.029   5.728   0.327
 3164SOL    HW221969   3.976   5.791   0.186
 3165SOL     OW21970   2.485   2.090   0.503
 3165SOL    HW121971   2.438   2.138   0.429
 3165SOL    HW221972   2.528   2.007   0.467
 3166SOL     OW21973   2.104   4.674   2.903
 3166SOL    HW121974   2.084   4.721   2.989
 3166SOL    HW221975   2.194   4.702   2.870
 3167SOL     OW21976   2.620   7.320   4.458
 3167SOL    HW121977   2.690   7.346   4.392
 3167SOL    HW221978   2.664   7.286   4.542
 3168SOL     OW21979   2.555   4.423   5.355
 3168SOL    HW121980   2.635   4.365   5.373
 3168SOL    HW221981   2.526   4.466   5.441
 3169SOL     OW21982   4.370   2.478   3.537
 3169SOL    HW121983   4.351   2.415   3.613
 3169SOL    HW221984   4.376   2.426   3.452
 3170SOL     OW21985   7.262   2.691   0.964
 3170SOL    HW121986   7.204   2.611   0.981
 3170SOL    HW221987   7.347   2.683   1.017
 3171SOL     OW21988   5.526   2.639   2.045
 3171SOL    HW121989   5.535   2.640   2.145
 3171SOL    HW221990   5.577   2.716   2.007
 3172SOL     OW21991   6.318   7.293   6.307
 3172SOL    HW121992   6.368   7.229   6.367
 3172SOL    HW221993   6.269   7.241   6.237
 3173SOL     OW21994   1.941   4.456   5.017
 3173SOL    HW121995   2.015   4.516   5.047
 3173SOL    HW221996   1.886   4.503   4.949
 3174SOL     OW21997   5.477   4.448   5.982
 3174SOL    HW121998   5.572   4.455   6.013
 3174SOL    HW221999   5.474   4.409   5.890
 3175SOL     OW22000   5.976   7.022   2.703
 3175SOL    HW122001   6.056   7.015   2.643
 3175SOL    HW222002   6.005   7.049   2.795
 3176SOL     OW22003   5.313   7.270   4.156
 3176SOL    HW122004   5.362   7.184   4.136
 3176SOL    HW222005   5.376   7.335   4.198
 3177SOL     OW22006   6.350   4.659   7.023
 3177SOL    HW122007   6.438   4.614   7.041
 3177SOL    HW222008   6.289   4.644   7.100
 3178SOL     OW22009   4.591   5.617   2.185
 3178SOL    HW122010   4.630   5.612   2.278
 3178SOL    HW222011   4.493   5.637   2.191
 3179SOL     OW22012   3.773   4.064   2.002
 3179SOL    HW122013   3.844   4.067   2.072
 3179SOL    HW222014   3.692   4.113   2.034
 3180SOL     OW22015   2.355   1.008   0.092
 3180SOL    HW122016   2.389   0.970   0.006
 3180SOL    HW222017   2.302   1.090   0.073
 3181SOL     OW22018   2.151   1.126   7.065
 3181SOL    HW122019   2.206   1.186   7.123
 3181SOL    HW222020   2.059   1.164   7.055
 3182SOL     OW22021   0.787   1.959   3.992
 3182SOL    HW122022   0.819   2.032   3.932
 3182SOL    HW222023   0.692   1.975   4.018
 3183SOL     OW22024   1.979   2.233   3.787
 3183SOL    HW122025   2.060   2.258   3.840
 3183SOL    HW222026   1.897   2.266   3.833
 3184SOL     OW22027   6.130   6.226   3.672
 3184SOL    HW122028   6.129   6.160   3.596
 3184SOL    HW222029   6.056   6.292   3.659
 3185SOL     OW22030   1.751   6.396   1.489
 3185SOL    HW122031   1.688   6.329   1.528
 3185SOL    HW222032   1.845   6.363   1.496
 3186SOL     OW22033   5.590   6.116   0.651
 3186SOL    HW122034   5.595   6.146   0.556
 3186SOL    HW222035   5.660   6.163   0.705
 3187SOL     OW22036   5.306   5.448   6.677
 3187SOL    HW122037   5.274   5.500   6.597
 3187SOL    HW222038   5.354   5.510   6.739
 3188SOL     OW22039   1.723   5.033   5.646
 3188SOL    HW122040   1.675   5.072   5.725
 3188SOL    HW222041   1.816   5.008   5.672
 3189SOL     OW22042   2.126   5.860   2.232
 3189SOL    HW122043   2.217   5.824   2.211
 3189SOL    HW222044   2.057   5.791   2.209
 3190SOL     OW22045   4.554   0.205   6.620
 3190SOL    HW122046   4.618   0.276   6.590
 3190SOL    HW222047   4.599   0.145   6.686
 3191SOL     OW22048   2.296   0.106   7.052
 3191SOL    HW122049   2.386   0.070   7.077
 3191SOL    HW222050   2.306   0.198   7.016
 3192SOL     OW22051   6.429   6.990   7.349
 3192SOL    HW122052   6.332   6.966   7.344
 3192SOL    HW222053   6.446   7.073   7.296
 3193SOL     OW22054   3.347   6.639   7.255
 3193SOL    HW122055   3.340   6.595   7.166
 3193SOL    HW222056   3.399   6.724   7.247
 3194SOL     OW22057   5.059   0.145   2.126
 3194SOL    HW122058   5.129   0.155   2.055
 3194SOL    HW222059   4.985   0.088   2.092
 3195SOL     OW22060   1.903   4.139   3.750
 3195SOL    HW122061   1.855   4.159   3.835
 3195SOL    HW222062   1.846   4.078   3.693
 3196SOL     OW22063   4.497   3.179   2.005
 3196SOL    HW122064   4.411   3.152   1.962
 3196SOL    HW222065   4.558   3.217   1.936
 3197SOL     OW22066   1.279   1.707   2.572
 3197SOL    HW122067   1.354   1.755   2.527
 3197SOL    HW222068   1.296   1.702   2.670
 3198SOL     OW22069   3.477   0.331   2.318
 3198SOL    HW122070   3.451   0.371   2.230
 3198SOL    HW222071   3.396   0.314   2.372
 3199SOL     OW22072   5.273   3.524   0.708
 3199SOL    HW122073   5.306   3.606   0.662
 3199SOL    HW222074   5.242   3.458   0.639
 3200SOL     OW22075   6.048   1.238   1.848
 3200SOL    HW122076   5.996   1.320   1.871
 3200SOL    HW222077   6.145   1.255   1.865
 3201SOL     OW22078   2.049   4.299   3.583
 3201SOL    HW122079   2.120   4.325   3.648
 3201SOL    HW222080   1.979   4.246   3.631
 3202SOL     OW22081   0.518   3.947   2.075
 3202SOL    HW122082   0.559   3.920   1.988
 3202SOL    HW222083   0.570   3.906   2.151
 3203SOL     OW22084   5.066   3.069   6.628
 3203SOL    HW122085   5.062   3.155   6.679
 3203SOL    HW222086   5.059   3.088   6.530
 3204SOL     OW22087   3.794   3.007   6.243
 3204SOL    HW122088   3.770   3.102   6.223
 3204SOL    HW222089   3.892   3.000   6.260
 3205SOL     OW22090   2.427   2.117   6.851
 3205SOL    HW122091   2.495   2.190   6.858
 3205SOL    HW222092   2.454   2.041   6.910
 3206SOL     OW22093   3.711   0.121   0.387
 3206SOL    HW122094   3.741   0.122   0.483
 3206SOL    HW222095   3.694   0.027   0.359
 3207SOL     OW22096   2.992   6.601   2.061
 3207SOL    HW122097   2.950   6.576   1.973
 3207SOL    HW222098   2.972   6.697   2.081
 3208SOL     OW22099   2.903   3.136   2.681
 3208SOL    HW122100   2.914   3.197   2.760
 3208SOL    HW222101   2.955   3.172   2.604
 3209SOL     OW22102   1.735   5.258   6.769
 3209SOL    HW122103   1.661   5.205   6.729
 3209SOL    HW222104   1.751   5.228   6.863
 3210SOL     OW22105   1.558   2.053   1.312
 3210SOL    HW122106   1.543   1.956   1.292
 3210SOL    HW222107   1.553   2.067   1.410
 3211SOL     OW22108   6.683   3.363   6.835
 3211SOL    HW122109   6.729   3.449   6.811
 3211SOL    HW222110   6.585   3.372   6.817
 3212SOL     OW22111   6.361   4.549   3.304
 3212SOL    HW122112   6.427   4.584   3.371
 3212SOL    HW222113   6.294   4.492   3.351
 3213SOL     OW22114   4.698   1.406   1.554
 3213SOL    HW122115   4.613   1.456   1.541
 3213SOL    HW222116   4.774   1.455   1.511
 3214SOL     OW22117   2.302   4.597   5.556
 3214SOL    HW122118   2.208   4.586   5.524
 3214SOL    HW222119   2.335   4.689   5.535
 3215SOL     OW22120   5.983   7.107   6.284
 3215SOL    HW122121   5.953   7.202   6.278
 3215SOL    HW222122   5.946   7.055   6.206
 3216SOL     OW22123   6.665   0.389   7.303
 3216SOL    HW122124   6.684   0.466   7.364
 3216SOL    HW222125   6.609   0.322   7.350
 3217SOL     OW22126   0.014   1.184   1.252
 3217SOL    HW122127   0.041   1.270   1.210
 3217SOL    HW222128  -0.046   1.202   1.330
 3218SOL     OW22129   1.647   5.253   5.038
 3218SOL    HW122130   1.694   5.333   5.003
 3218SOL    HW222131   1.558   5.243   4.993
 3219SOL     OW22132   0.239   3.387   3.905
 3219SOL    HW122133   0.249   3.315   3.974
 3219SOL    HW222134   0.248   3.347   3.814
 3220SOL     OW22135   2.686   2.403   1.521
 3220SOL    HW122136   2.711   2.316   1.478
 3220SOL    HW222137   2.761   2.469   1.508
 3221SOL     OW22138   3.616   2.982   2.783
 3221SOL    HW122139   3.551   3.001   2.709
 3221SOL    HW222140   3.706   2.964   2.744
 3222SOL     OW22141   3.692   5.759   1.559
 3222SOL    HW122142   3.698   5.853   1.592
 3222SOL    HW222143   3.609   5.716   1.597
 3223SOL     OW22144   0.809   3.165   5.663
 3223SOL    HW122145   0.787   3.096   5.593
 3223SOL    HW222146   0.859   3.122   5.738
 3224SOL     OW22147   5.041   3.405   3.789
 3224SOL    HW122148   5.062   3.309   3.771
 3224SOL    HW222149   5.011   3.450   3.705
 3225SOL     OW22150   4.848   0.490   2.959
 3225SOL    HW122151   4.942   0.458   2.976
 3225SOL    HW222152   4.792   0.414   2.926
 3226SOL     OW22153   6.779   1.005   6.301
 3226SOL    HW122154   6.847   1.016   6.228
 3226SOL    HW222155   6.688   1.023   6.264
 3227SOL     OW22156   1.733   3.204   0.235
 3227SOL    HW122157   1.678   3.160   0.165
 3227SOL    HW222158   1.685   3.284   0.271
 3228SOL     OW22159   2.073   4.034   1.086
 3228SOL    HW122160   2.115   3.996   1.168
 3228SOL    HW222161   2.114   4.123   1.065
 3229SOL     OW22162   4.899   4.397   4.718
 3229SOL    HW122163   4.809   4.441   4.718
 3229SOL    HW222164   4.926   4.375   4.624
 3230SOL     OW22165   4.980   3.360   3.252
 3230SOL    HW122166   4.912   3.289   3.234
 3230SOL    HW222167   4.948   3.447   3.214
 3231SOL     OW22168   2.231   2.567   7.260
 3231SOL    HW122169   2.149   2.536   7.212
 3231SOL    HW222170   2.294   2.490   7.272
 3232SOL     OW22171   4.475   3.689   7.048
 3232SOL    HW122172   4.562   3.696   7.001
 3232SOL    HW222173   4.445   3.780   7.078
 3233SOL     OW22174   1.901   2.692   5.964
 3233SOL    HW122175   1.921   2.680   6.061
 3233SOL    HW222176   1.869   2.605   5.926
 3234SOL     OW22177   5.336   6.178   2.961
 3234SOL    HW122178   5.341   6.099   2.900
 3234SOL    HW222179   5.345   6.147   3.056
 3235SOL     OW22180   4.554   3.521   3.137
 3235SOL    HW122181   4.524   3.615   3.124
 3235SOL    HW222182   4.606   3.514   3.222
 3236SOL     OW22183   4.100   1.167   3.619
 3236SOL    HW122184   4.121   1.131   3.528
 3236SOL    HW222185   4.180   1.155   3.678
 3237SOL     OW22186   3.149   2.140   6.409
 3237SOL    HW122187   3.075   2.123   6.474
 3237SOL    HW222188   3.221   2.071   6.422
 3238SOL     OW22189   4.193   4.286   4.896
 3238SOL    HW122190   4.180   4.337   4.811
 3238SOL    HW222191   4.195   4.188   4.875
 3239SOL     OW22192   4.958   3.646   3.190
 3239SOL    HW122193   4.927   3.691   3.106
 3239SOL    HW222194   4.930   3.699   3.269
 3240SOL     OW22195   6.452   4.624   2.936
 3240SOL    HW122196   6.419   4.717   2.954
 3240SOL    HW222197   6.375   4.565   2.914
 3241SOL     OW22198   0.642   1.360   3.481
 3241SOL    HW122199   0.719   1.297   3.468
 3241SOL    HW222200   0.557   1.307   3.491
 3242SOL     OW22201   0.379   1.089   0.624
 3242SOL    HW122202   0.372   1.187   0.604
 3242SOL    HW222203   0.466   1.071   0.670
 3243SOL     OW22204   2.391   3.983   3.128
 3243SOL    HW122205   2.349   3.914   3.187
 3243SOL    HW222206   2.489   3.963   3.119
 3244SOL     OW22207   4.440   3.373   4.823
 3244SOL    HW122208   4.406   3.420   4.905
 3244SOL    HW222209   4.536   3.395   4.810
 3245SOL     OW22210   4.947   6.988   0.640
 3245SOL    HW122211   4.966   7.072   0.690
 3245SOL    HW222212   4.973   6.909   0.696
 3246SOL     OW22213   3.752   6.937   1.221
 3246SOL    HW122214   3.712   6.948   1.130
 3246SOL    HW222215   3.842   6.894   1.213
 3247SOL     OW22216   4.399   7.262   0.718
 3247SOL    HW122217   4.442   7.341   0.675
 3247SOL    HW222218   4.460   7.223   0.786
 3248SOL     OW22219   1.071   2.680   1.353
 3248SOL    HW122220   1.020   2.652   1.271
 3248SOL    HW222221   1.082   2.780   1.353
 3249SOL     OW22222   4.873   1.290   6.376
 3249SOL    HW122223   4.964   1.264   6.344
 3249SOL    HW222224   4.805   1.228   6.337
 3250SOL     OW22225   7.136   1.273   0.791
 3250SOL    HW122226   7.053   1.303   0.745
 3250SOL    HW222227   7.139   1.310   0.884
 3251SOL     OW22228   3.354   2.204   4.697
 3251SOL    HW122229   3.333   2.108   4.679
 3251SOL    HW222230   3.420   2.237   4.629
 3252SOL     OW22231   4.159   3.910   5.513
 3252SOL    HW122232   4.202   3.997   5.490
 3252SOL    HW222233   4.063   3.912   5.484
 3253SOL     OW22234   3.415   0.110   4.201
 3253SOL    HW122235   3.328   0.124   4.248
 3253SOL    HW222236   3.413   0.023   4.152
 3254SOL     OW22237   4.146   6.986   5.824
 3254SOL    HW122238   4.151   6.893   5.861
 3254SOL    HW222239   4.238   7.021   5.808
 3255SOL     OW22240   2.564   7.116   3.325
 3255SOL    HW122241   2.618   7.199   3.336
 3255SOL    HW222242   2.590   7.050   3.395
 3256SOL     OW22243   0.593   4.064   2.728
 3256SOL    HW122244   0.680   4.112   2.727
 3256SOL    HW222245   0.590   4.001   2.806
 3257SOL     OW22246   6.097   3.696   6.946
 3257SOL    HW122247   5.999   3.688   6.965
 3257SOL    HW222248   6.119   3.648   6.862
 3258SOL     OW22249   4.791   4.145   0.257
 3258SOL    HW122250   4.717   4.136   0.323
 3258SOL    HW222251   4.771   4.221   0.194
 3259SOL     OW22252   2.699   4.825   5.686
 3259SOL    HW122253   2.761   4.901   5.707
 3259SOL    HW222254   2.643   4.804   5.767
 3260SOL     OW22255   1.663   6.738   0.543
 3260SOL    HW122256   1.746   6.763   0.593
 3260SOL    HW222257   1.594   6.705   0.608
 3261SOL     OW22258   3.954   1.315   7.211
 3261SOL    HW122259   3.909   1.336   7.299
 3261SOL    HW222260   4.014   1.236   7.222
 3262SOL     OW22261   1.915   4.244   0.075
 3262SOL    HW122262   1.916   4.342   0.096
 3262SOL    HW222263   1.973   4.226  -0.004
 3263SOL     OW22264   6.626   0.439   4.701
 3263SOL    HW122265   6.570   0.401   4.627
 3263SOL    HW222266   6.663   0.528   4.672
 3264SOL     OW22267   6.228   2.580   4.947
 3264SOL    HW122268   6.299   2.637   4.988
 3264SOL    HW222269   6.221   2.494   4.997
 3265SOL     OW22270   4.914   4.250   6.613
 3265SOL    HW122271   4.931   4.209   6.702
 3265SOL    HW222272   4.977   4.212   6.546
 3266SOL     OW22273   3.668   6.931   1.503
 3266SOL    HW122274   3.678   6.851   1.563
 3266SOL    HW222275   3.670   6.902   1.408
 3267SOL     OW22276   6.319   6.748   6.011
 3267SOL    HW122277   6.338   6.846   6.015
 3267SOL    HW222278   6.220   6.732   6.019
 3268SOL     OW22279   0.003   6.865   5.040
 3268SOL    HW122280   0.057   6.860   4.956
 3268SOL    HW222281  -0.094   6.862   5.018
 3269SOL     OW22282   3.474   5.092   0.191
 3269SOL    HW122283   3.568   5.070   0.215
 3269SOL    HW222284   3.423   5.115   0.274
 3270SOL     OW22285   2.402   3.142   2.436
 3270SOL    HW122286   2.332   3.210   2.462
 3270SOL    HW222287   2.382   3.055   2.482
 3271SOL     OW22288   4.665   2.805   1.528
 3271SOL    HW122289   4.697   2.884   1.476
 3271SOL    HW222290   4.594   2.757   1.476
 3272SOL     OW22291   1.644   3.260   2.571
 3272SOL    HW122292   1.602   3.320   2.639
 3272SOL    HW222293   1.686   3.315   2.500
 3273SOL     OW22294   4.734   3.137   2.166
 3273SOL    HW122295   4.641   3.120   2.135
 3273SOL    HW222296   4.799   3.110   2.094
 3274SOL     OW22297   3.734   4.765   6.845
 3274SOL    HW122298   3.767   4.818   6.767
 3274SOL    HW222299   3.700   4.827   6.916
 3275SOL     OW22300   1.293   0.804   0.669
 3275SOL    HW122301   1.312   0.818   0.572
 3275SOL    HW222302   1.201   0.836   0.690
 3276SOL     OW22303   5.066   4.094   0.325
 3276SOL    HW122304   4.973   4.118   0.299
 3276SOL    HW222305   5.124   4.176   0.321
 3277SOL     OW22306   6.713   5.007   3.427
 3277SOL    HW122307   6.659   5.079   3.383
 3277SOL    HW222308   6.809   5.033   3.428
 3278SOL     OW22309   3.779   0.678   3.498
 3278SOL    HW122310   3.693   0.695   3.449
 3278SOL    HW222311   3.855   0.686   3.434
 3279SOL     OW22312   4.247   5.577   6.322
 3279SOL    HW122313   4.190   5.531   6.390
 3279SOL    HW222314   4.343   5.576   6.352
 3280SOL     OW22315   1.506   7.311   7.339
 3280SOL    HW122316   1.430   7.260   7.301
 3280SOL    HW222317   1.534   7.270   7.426
 3281SOL     OW22318   0.152   7.239   6.068
 3281SOL    HW122319   0.149   7.213   6.165
 3281SOL    HW222320   0.134   7.158   6.012
 3282SOL     OW22321   3.020   2.777   1.995
 3282SOL    HW122322   2.945   2.767   1.930
 3282SOL    HW222323   3.027   2.695   2.051
 3283SOL     OW22324   4.238   4.597   2.998
 3283SOL    HW122325   4.221   4.499   2.989
 3283SOL    HW222326   4.271   4.633   2.911
 3284SOL     OW22327   2.152   6.686   1.715
 3284SOL    HW122328   2.248   6.704   1.694
 3284SOL    HW222329   2.096   6.762   1.681
 3285SOL     OW22330   5.162   1.964   5.861
 3285SOL    HW122331   5.222   1.967   5.941
 3285SOL    HW222332   5.116   1.876   5.856
 3286SOL     OW22333   3.902   0.836   3.696
 3286SOL    HW122334   3.857   0.775   3.762
 3286SOL    HW222335   3.892   0.799   3.604
 3287SOL     OW22336   6.005   2.873   1.693
 3287SOL    HW122337   6.026   2.859   1.790
 3287SOL    HW222338   6.031   2.791   1.641
 3288SOL     OW22339   1.395   5.220   4.895
 3288SOL    HW122340   1.369   5.133   4.937
 3288SOL    HW222341   1.411   5.206   4.797
 3289SOL     OW22342   3.547   2.685   2.421
 3289SOL    HW122343   3.632   2.676   2.473
 3289SOL    HW222344   3.533   2.603   2.365
 3290SOL     OW22345   3.821   0.117   6.878
 3290SOL    HW122346   3.899   0.065   6.843
 3290SOL    HW222347   3.828   0.212   6.849
 3291SOL     OW22348   7.036   3.307   7.037
 3291SOL    HW122349   6.937   3.317   7.047
 3291SOL    HW222350   7.062   3.212   7.053
 3292SOL     OW22351   6.400   3.078   0.928
 3292SOL    HW122352   6.419   3.071   0.830
 3292SOL    HW222353   6.307   3.112   0.942
 3293SOL     OW22354   0.399   3.074   3.918
 3293SOL    HW122355   0.489   3.049   3.953
 3293SOL    HW222356   0.340   3.102   3.993
 3294SOL     OW22357   1.179   0.986   6.897
 3294SOL    HW122358   1.093   0.935   6.884
 3294SOL    HW222359   1.180   1.027   6.988
 3295SOL     OW22360   4.009   6.615   6.077
 3295SOL    HW122361   3.935   6.591   6.014
 3295SOL    HW222362   4.028   6.538   6.138
 3296SOL     OW22363   4.472   6.322   5.414
 3296SOL    HW122364   4.376   6.298   5.430
 3296SOL    HW222365   4.480   6.367   5.325
 3297SOL     OW22366   5.784   6.040   5.840
 3297SOL    HW122367   5.856   6.109   5.843
 3297SOL    HW222368   5.707   6.074   5.786
 3298SOL     OW22369   6.946   3.152   5.696
 3298SOL    HW122370   6.958   3.132   5.599
 3298SOL    HW222371   6.974   3.246   5.715
 3299SOL     OW22372   0.020   4.576   2.114
 3299SOL    HW122373   0.117   4.555   2.127
 3299SOL    HW222374  -0.031   4.491   2.106
 3300SOL     OW22375   1.310   1.165   0.641
 3300SOL    HW122376   1.292   1.067   0.642
 3300SOL    HW222377   1.324   1.197   0.734
 3301SOL     OW22378   3.755   2.755   3.249
 3301SOL    HW122379   3.839   2.786   3.295
 3301SOL    HW222380   3.725   2.824   3.183
 3302SOL     OW22381   2.101   5.021   6.007
 3302SOL    HW122382   2.183   4.965   5.999
 3302SOL    HW222383   2.074   5.028   6.103
 3303SOL     OW22384   5.503   3.471   2.239
 3303SOL    HW122385   5.488   3.519   2.153
 3303SOL    HW222386   5.578   3.514   2.289
 3304SOL     OW22387   2.182   6.886   1.363
 3304SOL    HW122388   2.182   6.978   1.324
 3304SOL    HW222389   2.184   6.891   1.463
 3305SOL     OW22390   6.611   1.064   5.732
 3305SOL    HW122391   6.574   0.972   5.722
 3305SOL    HW222392   6.627   1.104   5.642
 3306SOL     OW22393   4.559   4.456   7.304
 3306SOL    HW122394   4.460   4.446   7.316
 3306SOL    HW222395   4.577   4.499   7.215
 3307SOL     OW22396   5.688   6.644   3.034
 3307SOL    HW122397   5.673   6.628   3.131
 3307SOL    HW222398   5.681   6.741   3.014
 3308SOL     OW22399   7.263   2.301   2.718
 3308SOL    HW122400   7.228   2.221   2.766
 3308SOL    HW222401   7.192   2.372   2.714
 3309SOL     OW22402   4.888   0.509   4.341
 3309SOL    HW122403   4.964   0.538   4.398
 3309SOL    HW222404   4.861   0.583   4.279
 3310SOL     OW22405   6.730   0.782   2.187
 3310SOL    HW122406   6.772   0.757   2.274
 3310SOL    HW222407   6.798   0.777   2.114
 3311SOL     OW22408   5.258   2.540   3.164
 3311SOL    HW122409   5.247   2.480   3.084
 3311SOL    HW222410   5.202   2.506   3.239
 3312SOL     OW22411   5.366   2.899   2.743
 3312SOL    HW122412   5.393   2.966   2.675
 3312SOL    HW222413   5.267   2.884   2.737
 3313SOL     OW22414   6.155   3.599   5.979
 3313SOL    HW122415   6.191   3.578   5.888
 3313SOL    HW222416   6.163   3.698   5.996
 3314SOL     OW22417   1.278   5.084   0.462
 3314SOL    HW122418   1.362   5.052   0.506
 3314SOL    HW222419   1.273   5.046   0.369
 3315SOL     OW22420   5.490   2.862   2.413
 3315SOL    HW122421   5.434   2.842   2.334
 3315SOL    HW222422   5.451   2.940   2.463
 3316SOL     OW22423   6.402   2.387   6.202
 3316SOL    HW122424   6.455   2.471   6.194
 3316SOL    HW222425   6.411   2.332   6.119
 3317SOL     OW22426   4.129   5.416   5.420
 3317SOL    HW122427   4.215   5.409   5.469
 3317SOL    HW222428   4.145   5.453   5.329
 3318SOL     OW22429   1.968   2.519   5.559
 3318SOL    HW122430   1.938   2.546   5.468
 3318SOL    HW222431   1.990   2.600   5.613
 3319SOL     OW22432   3.443   0.997   2.918
 3319SOL    HW122433   3.476   0.965   2.830
 3319SOL    HW222434   3.453   1.097   2.923
 3320SOL     OW22435   5.275   5.099   0.067
 3320SOL    HW122436   5.275   5.090  -0.033
 3320SOL    HW222437   5.338   5.033   0.106
 3321SOL     OW22438   7.266   6.390   6.377
 3321SOL    HW122439   7.167   6.400   6.386
 3321SOL    HW222440   7.291   6.295   6.395
 3322SOL     OW22441   6.220   0.731   4.053
 3322SOL    HW122442   6.235   0.709   4.150
 3322SOL    HW222443   6.221   0.830   4.040
 3323SOL     OW22444   7.201   4.350   5.580
 3323SOL    HW122445   7.218   4.424   5.645
 3323SOL    HW222446   7.174   4.268   5.629
 3324SOL     OW22447   5.669   5.540   2.176
 3324SOL    HW122448   5.618   5.603   2.118
 3324SOL    HW222449   5.612   5.513   2.254
 3325SOL     OW22450   3.148   1.560   0.147
 3325SOL    HW122451   3.158   1.619   0.227
 3325SOL    HW222452   3.212   1.589   0.075
 3326SOL     OW22453   7.228   1.670   3.457
 3326SOL    HW122454   7.219   1.571   3.473
 3326SOL    HW222455   7.178   1.720   3.528
 3327SOL     OW22456   1.591   4.057   5.580
 3327SOL    HW122457   1.496   4.033   5.601
 3327SOL    HW222458   1.600   4.074   5.482
 3328SOL     OW22459   2.750   1.678   0.653
 3328SOL    HW122460   2.781   1.770   0.631
 3328SOL    HW222461   2.732   1.671   0.751
 3329SOL     OW22462   2.172   6.284   5.775
 3329SOL    HW122463   2.164   6.384   5.773
 3329SOL    HW222464   2.160   6.247   5.683
 3330SOL     OW22465   4.658   7.227   3.146
 3330SOL    HW122466   4.571   7.269   3.173
 3330SOL    HW222467   4.644   7.168   3.067
 3331SOL     OW22468   1.128   7.323   5.777
 3331SOL    HW122469   1.201   7.261   5.749
 3331SOL    HW222470   1.124   7.401   5.715
 3332SOL     OW22471   5.107   7.272   4.412
 3332SOL    HW122472   5.199   7.281   4.451
 3332SOL    HW222473   5.087   7.351   4.354
 3333SOL     OW22474   1.640   4.474   0.056
 3333SOL    HW122475   1.715   4.429   0.008
 3333SOL    HW222476   1.586   4.405   0.105
 3334SOL     OW22477   4.156   6.324   4.805
 3334SOL    HW122478   4.134   6.398   4.868
 3334SOL    HW222479   4.071   6.280   4.775
 3335SOL     OW22480   6.957   5.586   4.599
 3335SOL    HW122481   7.021   5.516   4.631
 3335SOL    HW222482   6.871   5.543   4.572
 3336SOL     OW22483   5.179   4.766   0.579
 3336SOL    HW122484   5.200   4.782   0.483
 3336SOL    HW222485   5.081   4.749   0.590
 3337SOL     OW22486   2.772   0.510   2.716
 3337SOL    HW122487   2.711   0.583   2.747
 3337SOL    HW222488   2.776   0.511   2.616
 3338SOL     OW22489   1.998   4.292   6.660
 3338SOL    HW122490   2.058   4.215   6.678
 3338SOL    HW222491   1.911   4.259   6.622
 3339SOL     OW22492   5.641   3.059   5.937
 3339SOL    HW122493   5.724   3.005   5.930
 3339SOL    HW222494   5.625   3.107   5.851
 3340SOL     OW22495   5.037   4.618   1.232
 3340SOL    HW122496   5.060   4.715   1.238
 3340SOL    HW222497   4.946   4.602   1.269
 3341SOL     OW22498   5.916   4.974   5.869
 3341SOL    HW122499   5.827   4.948   5.906
 3341SOL    HW222500   5.905   5.049   5.804
 3342SOL     OW22501   2.838   7.075   0.965
 3342SOL    HW122502   2.854   7.033   1.054
 3342SOL    HW222503   2.749   7.121   0.965
 3343SOL     OW22504   3.053   0.330   1.396
 3343SOL    HW122505   3.082   0.358   1.304
 3343SOL    HW222506   3.073   0.233   1.408
 3344SOL     OW22507   1.473   4.208   5.042
 3344SOL    HW122508   1.474   4.305   5.020
 3344SOL    HW222509   1.381   4.172   5.029
 3345SOL     OW22510   6.915   4.151   6.206
 3345SOL    HW122511   6.867   4.157   6.294
 3345SOL    HW222512   6.871   4.081   6.149
 3346SOL     OW22513   1.375   3.713   2.535
 3346SOL    HW122514   1.468   3.736   2.565
 3346SOL    HW222515   1.309   3.740   2.605
 3347SOL     OW22516   2.892   4.373   0.655
 3347SOL    HW122517   2.948   4.320   0.592
 3347SOL    HW222518   2.844   4.445   0.605
 3348SOL     OW22519   3.438   1.526   0.440
 3348SOL    HW122520   3.419   1.579   0.357
 3348SOL    HW222521   3.380   1.559   0.515
 3349SOL     OW22522   5.500   5.196   6.421
 3349SOL    HW122523   5.578   5.222   6.478
 3349SOL    HW222524   5.438   5.274   6.412
 3350SOL     OW22525   4.595   1.248   1.122
 3350SOL    HW122526   4.524   1.318   1.116
 3350SOL    HW222527   4.609   1.221   1.217
 3351SOL     OW22528   6.789   5.297   3.433
 3351SOL    HW122529   6.721   5.249   3.377
 3351SOL    HW222530   6.873   5.308   3.380
 3352SOL     OW22531   0.367   4.473   0.801
 3352SOL    HW122532   0.416   4.513   0.877
 3352SOL    HW222533   0.295   4.536   0.770
 3353SOL     OW22534   2.060   0.383   1.981
 3353SOL    HW122535   2.003   0.445   2.035
 3353SOL    HW222536   2.013   0.295   1.972
 3354SOL     OW22537   1.539   4.432   2.853
 3354SOL    HW122538   1.485   4.426   2.770
 3354SOL    HW222539   1.590   4.519   2.853
 3355SOL     OW22540   4.154   4.684   5.265
 3355SOL    HW122541   4.108   4.759   5.311
 3355SOL    HW222542   4.252   4.686   5.285
 3356SOL     OW22543   3.889   6.499   2.176
 3356SOL    HW122544   3.851   6.506   2.084
 3356SOL    HW222545   3.821   6.459   2.238
 3357SOL     OW22546   3.560   0.266   0.186
 3357SOL    HW122547   3.522   0.327   0.256
 3357SOL    HW222548   3.645   0.226   0.219
 3358SOL     OW22549   1.989   4.201   4.906
 3358SOL    HW122550   1.982   4.300   4.915
 3358SOL    HW222551   1.904   4.159   4.936
 3359SOL     OW22552   1.636   2.093   3.109
 3359SOL    HW122553   1.735   2.080   3.111
 3359SOL    HW222554   1.591   2.013   3.147
 3360SOL     OW22555   5.174   4.374   0.324
 3360SOL    HW122556   5.263   4.332   0.342
 3360SOL    HW222557   5.122   4.381   0.409
 3361SOL     OW22558   6.727   2.209   0.497
 3361SOL    HW122559   6.785   2.283   0.463
 3361SOL    HW222560   6.674   2.241   0.575
 3362SOL     OW22561   0.651   4.631   5.789
 3362SOL    HW122562   0.559   4.631   5.749
 3362SOL    HW222563   0.690   4.539   5.783
 3363SOL     OW22564   2.452   4.756   2.131
 3363SOL    HW122565   2.538   4.759   2.182
 3363SOL    HW222566   2.422   4.660   2.123
 3364SOL     OW22567   2.129   5.430   4.535
 3364SOL    HW122568   2.104   5.519   4.573
 3364SOL    HW222569   2.211   5.440   4.479
 3365SOL     OW22570   2.342   0.424   7.074
 3365SOL    HW122571   2.412   0.379   7.130
 3365SOL    HW222572   2.268   0.455   7.133
 3366SOL     OW22573   4.169   5.594   0.341
 3366SOL    HW122574   4.259   5.617   0.378
 3366SOL    HW222575   4.101   5.599   0.414
 3367SOL     OW22576   6.192   3.238   0.241
 3367SOL    HW122577   6.103   3.204   0.272
 3367SOL    HW222578   6.264   3.186   0.287
 3368SOL     OW22579   4.290   2.854   5.033
 3368SOL    HW122580   4.298   2.782   5.102
 3368SOL    HW222581   4.358   2.839   4.962
 3369SOL     OW22582   6.301   6.893   6.424
 3369SOL    HW122583   6.362   6.964   6.461
 3369SOL    HW222584   6.284   6.911   6.327
 3370SOL     OW22585   0.647   3.575   0.484
 3370SOL    HW122586   0.606   3.600   0.396
 3370SOL    HW222587   0.674   3.658   0.533
 3371SOL     OW22588   5.049   6.729   0.440
 3371SOL    HW122589   4.955   6.745   0.472
 3371SOL    HW222590   5.083   6.812   0.397
 3372SOL     OW22591   0.742   2.861   2.719
 3372SOL    HW122592   0.707   2.871   2.626
 3372SOL    HW222593   0.801   2.780   2.724
 3373SOL     OW22594   0.862   4.008   4.343
 3373SOL    HW122595   0.850   3.917   4.303
 3373SOL    HW222596   0.856   4.077   4.271
 3374SOL     OW22597   5.308   2.303   5.183
 3374SOL    HW122598   5.378   2.372   5.202
 3374SOL    HW222599   5.217   2.344   5.188
 3375SOL     OW22600   1.041   3.066   1.866
 3375SOL    HW122601   0.947   3.102   1.870
 3375SOL    HW222602   1.092   3.100   1.944
 3376SOL     OW22603   5.704   3.230   3.759
 3376SOL    HW122604   5.788   3.269   3.721
 3376SOL    HW222605   5.657   3.177   3.689
 3377SOL     OW22606   4.819   5.365   5.643
 3377SOL    HW122607   4.913   5.361   5.678
 3377SOL    HW222608   4.794   5.461   5.626
 3378SOL     OW22609   3.173   3.292   4.915
 3378SOL    HW122610   3.213   3.269   5.004
 3378SOL    HW222611   3.219   3.373   4.878
 3379SOL     OW22612   6.191   6.859   5.614
 3379SOL    HW122613   6.145   6.770   5.622
 3379SOL    HW222614   6.230   6.867   5.523
 3380SOL     OW22615   3.371   5.381   3.767
 3380SOL    HW122616   3.322   5.305   3.808
 3380SOL    HW222617   3.463   5.351   3.739
 3381SOL     OW22618   6.539   2.654   6.155
 3381SOL    HW122619   6.614   2.707   6.115
 3381SOL    HW222620   6.485   2.714   6.215
 3382SOL     OW22621   3.770   6.962   1.875
 3382SOL    HW122622   3.774   6.945   1.973
 3382SOL    HW222623   3.723   7.049   1.859
 3383SOL     OW22624   5.131   3.047   7.065
 3383SOL    HW122625   5.041   3.066   7.106
 3383SOL    HW222626   5.119   3.000   6.978
 3384SOL     OW22627   3.625   4.566   0.558
 3384SOL    HW122628   3.575   4.528   0.636
 3384SOL    HW222629   3.563   4.576   0.480
 3385SOL     OW22630   0.633   2.790   0.439
 3385SOL    HW122631   0.660   2.855   0.510
 3385SOL    HW222632   0.697   2.713   0.439
 3386SOL     OW22633   6.361   1.131   2.203
 3386SOL    HW122634   6.302   1.199   2.247
 3386SOL    HW222635   6.330   1.039   2.230
 3387SOL     OW22636   6.753   0.670   5.315
 3387SOL    HW122637   6.789   0.579   5.338
 3387SOL    HW222638   6.808   0.710   5.242
 3388SOL     OW22639   1.361   2.585   6.852
 3388SOL    HW122640   1.399   2.675   6.828
 3388SOL    HW222641   1.433   2.516   6.846
 3389SOL     OW22642   4.178   5.730   0.756
 3389SOL    HW122643   4.169   5.817   0.708
 3389SOL    HW222644   4.192   5.748   0.853
 3390SOL     OW22645   3.440   5.053   5.202
 3390SOL    HW122646   3.442   5.018   5.296
 3390SOL    HW222647   3.374   5.128   5.197
 3391SOL     OW22648   1.106   4.184   5.966
 3391SOL    HW122649   1.083   4.141   6.054
 3391SOL    HW222650   1.074   4.279   5.966
 3392SOL     OW22651   6.323   1.448   0.625
 3392SOL    HW122652   6.266   1.372   0.655
 3392SOL    HW222653   6.291   1.532   0.669
 3393SOL     OW22654   2.558   1.942   7.016
 3393SOL    HW122655   2.491   1.869   7.028
 3393SOL    HW222656   2.595   1.969   7.106
 3394SOL     OW22657   2.446   6.286   7.254
 3394SOL    HW122658   2.469   6.374   7.213
 3394SOL    HW222659   2.529   6.233   7.269
 3395SOL     OW22660   2.016   6.010   0.551
 3395SOL    HW122661   2.022   6.035   0.455
 3395SOL    HW222662   1.927   5.968   0.569
 3396SOL     OW22663   5.872   1.787   2.352
 3396SOL    HW122664   5.915   1.850   2.416
 3396SOL    HW222665   5.917   1.698   2.356
 3397SOL     OW22666   0.362   3.786   5.639
 3397SOL    HW122667   0.405   3.874   5.660
 3397SOL    HW222668   0.276   3.802   5.590
 3398SOL     OW22669   6.702   2.627   2.064
 3398SOL    HW122670   6.764   2.704   2.077
 3398SOL    HW222671   6.635   2.626   2.138
 3399SOL     OW22672   4.619   4.167   0.470
 3399SOL    HW122673   4.541   4.218   0.508
 3399SOL    HW222674   4.632   4.083   0.522
 3400SOL     OW22675   5.911   6.483   2.916
 3400SOL    HW122676   5.832   6.497   2.975
 3400SOL    HW222677   5.888   6.417   2.844
 3401SOL     OW22678   0.304   2.424   2.559
 3401SOL    HW122679   0.275   2.490   2.628
 3401SOL    HW222680   0.238   2.348   2.555
 3402SOL     OW22681   3.557   6.256   6.194
 3402SOL    HW122682   3.634   6.225   6.251
 3402SOL    HW222683   3.591   6.281   6.103
 3403SOL     OW22684   6.242   3.908   2.922
 3403SOL    HW122685   6.212   3.890   3.015
 3403SOL    HW222686   6.260   3.821   2.875
 3404SOL     OW22687   0.946   2.391   7.019
 3404SOL    HW122688   0.916   2.317   6.960
 3404SOL    HW222689   1.003   2.455   6.967
 3405SOL     OW22690   6.073   1.406   2.168
 3405SOL    HW122691   6.002   1.390   2.100
 3405SOL    HW222692   6.146   1.463   2.128
 3406SOL     OW22693   5.296   0.050   6.048
 3406SOL    HW122694   5.246  -0.022   6.096
 3406SOL    HW222695   5.350   0.011   5.974
 3407SOL     OW22696   2.438   1.080   0.859
 3407SOL    HW122697   2.432   0.985   0.890
 3407SOL    HW222698   2.481   1.135   0.930
 3408SOL     OW22699   4.575   6.828   7.351
 3408SOL    HW122700   4.576   6.783   7.261
 3408SOL    HW222701   4.668   6.830   7.388
 3409SOL     OW22702   4.782   2.501   4.252
 3409SOL    HW122703   4.881   2.493   4.251
 3409SOL    HW222704   4.752   2.561   4.178
 3410SOL     OW22705   4.988   7.164   7.136
 3410SOL    HW122706   4.940   7.122   7.059
 3410SOL    HW222707   5.069   7.211   7.103
 3411SOL     OW22708   6.333   6.475   4.414
 3411SOL    HW122709   6.400   6.542   4.444
 3411SOL    HW222710   6.254   6.522   4.375
 3412SOL     OW22711   5.218   4.478   4.225
 3412SOL    HW122712   5.124   4.495   4.195
 3412SOL    HW222713   5.230   4.380   4.241
 3413SOL     OW22714   5.724   4.137   1.275
 3413SOL    HW122715   5.695   4.231   1.258
 3413SOL    HW222716   5.821   4.127   1.250
 3414SOL     OW22717   2.720   5.065   4.987
 3414SOL    HW122718   2.712   4.965   4.980
 3414SOL    HW222719   2.768   5.089   5.071
 3415SOL     OW22720   2.752   1.303   6.976
 3415SOL    HW122721   2.764   1.341   7.068
 3415SOL    HW222722   2.661   1.264   6.967
 3416SOL     OW22723   5.423   3.313   6.395
 3416SOL    HW122724   5.387   3.327   6.302
 3416SOL    HW222725   5.347   3.291   6.456
 3417SOL     OW22726   3.132   3.944   5.180
 3417SOL    HW122727   3.103   4.022   5.234
 3417SOL    HW222728   3.161   3.870   5.240
 3418SOL     OW22729   0.062   5.034   6.008
 3418SOL    HW122730  -0.018   5.082   6.044
 3418SOL    HW222731   0.111   5.094   5.944
 3419SOL     OW22732   2.187   2.980   0.436
 3419SOL    HW122733   2.103   2.991   0.384
 3419SOL    HW222734   2.193   2.887   0.472
 3420SOL     OW22735   2.474   0.945   5.724
 3420SOL    HW122736   2.439   0.989   5.806
 3420SOL    HW222737   2.572   0.964   5.714
 3421SOL     OW22738   3.359   1.444   3.015
 3421SOL    HW122739   3.370   1.371   2.947
 3421SOL    HW222740   3.272   1.491   2.999
 3422SOL     OW22741   3.053   2.755   1.563
 3422SOL    HW122742   2.984   2.799   1.620
 3422SOL    HW222743   3.105   2.691   1.618
 3423SOL     OW22744   7.303   1.996   0.668
 3423SOL    HW122745   7.372   2.065   0.648
 3423SOL    HW222746   7.318   1.916   0.611
 3424SOL     OW22747   3.456   5.612   1.596
 3424SOL    HW122748   3.375   5.626   1.538
 3424SOL    HW222749   3.451   5.521   1.638
 3425SOL     OW22750   5.301   4.214   6.632
 3425SOL    HW122751   5.259   4.142   6.576
 3425SOL    HW222752   5.258   4.302   6.611
 3426SOL     OW22753   5.836   2.395   0.222
 3426SOL    HW122754   5.749   2.362   0.186
 3426SOL    HW222755   5.904   2.397   0.148
 3427SOL     OW22756   3.903   4.348   3.946
 3427SOL    HW122757   3.970   4.293   3.997
 3427SOL    HW222758   3.942   4.374   3.858
 3428SOL     OW22759   6.247   6.084   5.277
 3428SOL    HW122760   6.310   6.033   5.335
 3428SOL    HW222761   6.158   6.039   5.278
 3429SOL     OW22762   4.534   1.623   6.375
 3429SOL    HW122763   4.515   1.525   6.379
 3429SOL    HW222764   4.493   1.668   6.454
 3430SOL     OW22765   1.181   0.701   6.623
 3430SOL    HW122766   1.213   0.651   6.543
 3430SOL    HW222767   1.084   0.723   6.613
 3431SOL     OW22768   3.689   4.750   5.293
 3431SOL    HW122769   3.688   4.692   5.375
 3431SOL    HW222770   3.757   4.715   5.228
 3432SOL     OW22771   3.923   5.938   0.943
 3432SOL    HW122772   3.914   5.838   0.950
 3432SOL    HW222773   3.840   5.981   0.979
 3433SOL     OW22774   0.821   5.207   1.556
 3433SOL    HW122775   0.733   5.215   1.510
 3433SOL    HW222776   0.840   5.291   1.608
 3434SOL     OW22777   4.554   0.764   1.804
 3434SOL    HW122778   4.572   0.763   1.903
 3434SOL    HW222779   4.636   0.794   1.756
 3435SOL     OW22780   0.380   2.259   0.819
 3435SOL    HW122781   0.480   2.260   0.824
 3435SOL    HW222782   0.348   2.164   0.824
 3436SOL     OW22783   1.160   3.208   4.446
 3436SOL    HW122784   1.246   3.165   4.418
 3436SOL    HW222785   1.129   3.269   4.373
 3437SOL     OW22786   6.212   6.299   7.063
 3437SOL    HW122787   6.144   6.300   7.136
 3437SOL    HW222788   6.166   6.296   6.975
 3438SOL     OW22789   0.995   2.521   0.099
 3438SOL    HW122790   0.966   2.434   0.140
 3438SOL    HW222791   0.933   2.543   0.024
 3439SOL     OW22792   5.151   6.992   1.020
 3439SOL    HW122793   5.085   6.995   0.945
 3439SOL    HW222794   5.227   7.055   1.001
 3440SOL     OW22795   3.599   1.871   2.058
 3440SOL    HW122796   3.649   1.944   2.105
 3440SOL    HW222797   3.562   1.905   1.972
 3441SOL     OW22798   5.911   2.150   3.972
 3441SOL    HW122799   5.830   2.208   3.961
 3441SOL    HW222800   5.988   2.207   3.999
 3442SOL     OW22801   2.474   5.598   5.864
 3442SOL    HW122802   2.446   5.646   5.781
 3442SOL    HW222803   2.417   5.516   5.876
 3443SOL     OW22804   5.471   7.078   1.891
 3443SOL    HW122805   5.447   7.153   1.829
 3443SOL    HW222806   5.422   6.995   1.864
 3444SOL     OW22807   3.444   5.465   2.605
 3444SOL    HW122808   3.460   5.424   2.516
 3444SOL    HW222809   3.374   5.413   2.654
 3445SOL     OW22810   1.710   4.994   2.779
 3445SOL    HW122811   1.779   4.946   2.833
 3445SOL    HW222812   1.645   5.039   2.840
 3446SOL     OW22813   1.267   7.294   5.435
 3446SOL    HW122814   1.303   7.252   5.518
 3446SOL    HW222815   1.317   7.259   5.355
 3447SOL     OW22816   7.051   4.051   0.938
 3447SOL    HW122817   7.107   4.047   1.021
 3447SOL    HW222818   7.111   4.053   0.858
 3448SOL     OW22819   3.996   0.395   1.422
 3448SOL    HW122820   4.050   0.450   1.360
 3448SOL    HW222821   4.047   0.313   1.449
 3449SOL     OW22822   3.496   2.879   1.898
 3449SOL    HW122823   3.526   2.823   1.975
 3449SOL    HW222824   3.403   2.853   1.871
 3450SOL     OW22825   3.217   2.679   6.345
 3450SOL    HW122826   3.240   2.602   6.286
 3450SOL    HW222827   3.151   2.650   6.414
 3451SOL     OW22828   6.103   3.325   6.446
 3451SOL    HW122829   6.070   3.381   6.370
 3451SOL    HW222830   6.127   3.234   6.412
 3452SOL     OW22831   0.908   5.246   6.393
 3452SOL    HW122832   0.960   5.168   6.429
 3452SOL    HW222833   0.932   5.328   6.445
 3453SOL     OW22834   2.008   4.077   0.711
 3453SOL    HW122835   1.916   4.105   0.739
 3453SOL    HW222836   2.074   4.105   0.781
 3454SOL     OW22837   1.885   2.518   0.434
 3454SOL    HW122838   1.798   2.469   0.441
 3454SOL    HW222839   1.907   2.559   0.522
 3455SOL     OW22840   4.873   0.273   3.974
 3455SOL    HW122841   4.922   0.201   3.925
 3455SOL    HW222842   4.913   0.362   3.951
 3456SOL     OW22843   1.692   3.777   3.690
 3456SOL    HW122844   1.739   3.827   3.762
 3456SOL    HW222845   1.593   3.795   3.696
 3457SOL     OW22846   4.876   4.176   5.687
 3457SOL    HW122847   4.889   4.230   5.604
 3457SOL    HW222848   4.822   4.095   5.666
 3458SOL     OW22849   5.620   4.380   2.790
 3458SOL    HW122850   5.706   4.363   2.742
 3458SOL    HW222851   5.546   4.330   2.746
 3459SOL     OW22852   0.725   5.272   5.110
 3459SOL    HW122853   0.717   5.369   5.087
 3459SOL    HW222854   0.635   5.238   5.140
 3460SOL     OW22855   3.886   5.593   3.550
 3460SOL    HW122856   3.922   5.596   3.457
 3460SOL    HW222857   3.945   5.647   3.610
 3461SOL     OW22858   6.885   0.751   7.252
 3461SOL    HW122859   6.850   0.674   7.198
 3461SOL    HW222860   6.875   0.836   7.199
 3462SOL     OW22861   3.628   5.064   5.728
 3462SOL    HW122862   3.596   5.155   5.703
 3462SOL    HW222863   3.665   5.066   5.821
 3463SOL     OW22864   6.033   4.212   0.864
 3463SOL    HW122865   6.063   4.168   0.779
 3463SOL    HW222866   6.065   4.159   0.942
 3464SOL     OW22867   4.092   2.102   4.895
 3464SOL    HW122868   4.114   2.130   4.989
 3464SOL    HW222869   4.165   2.046   4.858
 3465SOL     OW22870   2.737   5.747   7.352
 3465SOL    HW122871   2.764   5.736   7.448
 3465SOL    HW222872   2.789   5.684   7.295
 3466SOL     OW22873   5.242   6.731   6.280
 3466SOL    HW122874   5.301   6.652   6.264
 3466SOL    HW222875   5.195   6.722   6.368
 3467SOL     OW22876   1.971   1.989   6.414
 3467SOL    HW122877   2.060   1.952   6.392
 3467SOL    HW222878   1.960   1.993   6.513
 3468SOL     OW22879   3.801   4.239   6.740
 3468SOL    HW122880   3.885   4.291   6.756
 3468SOL    HW222881   3.808   4.150   6.784
 3469SOL     OW22882   6.181   4.034   6.360
 3469SOL    HW122883   6.275   4.056   6.390
 3469SOL    HW222884   6.117   4.095   6.407
 3470SOL     OW22885   7.335   5.582   5.997
 3470SOL    HW122886   7.345   5.536   5.909
 3470SOL    HW222887   7.398   5.660   6.002
 3471SOL     OW22888   6.139   1.480   3.003
 3471SOL    HW122889   6.042   1.497   2.983
 3471SOL    HW222890   6.183   1.443   2.921
 3472SOL     OW22891   5.278   0.711   2.465
 3472SOL    HW122892   5.210   0.741   2.531
 3472SOL    HW222893   5.292   0.613   2.473
 3473SOL     OW22894   5.198   7.109   3.764
 3473SOL    HW122895   5.171   7.183   3.825
 3473SOL    HW222896   5.290   7.078   3.788
 3474SOL     OW22897   6.932   6.358   5.928
 3474SOL    HW122898   7.014   6.409   5.955
 3474SOL    HW222899   6.950   6.308   5.843
 3475SOL     OW22900   0.876   4.179   3.820
 3475SOL    HW122901   0.802   4.170   3.886
 3475SOL    HW222902   0.861   4.116   3.744
 3476SOL     OW22903   0.715   2.497   4.735
 3476SOL    HW122904   0.807   2.457   4.732
 3476SOL    HW222905   0.650   2.435   4.691
 3477SOL     OW22906   4.610   2.979   7.244
 3477SOL    HW122907   4.512   2.997   7.234
 3477SOL    HW222908   4.641   3.013   7.332
 3478SOL     OW22909   1.304   3.208   6.411
 3478SOL    HW122910   1.402   3.189   6.401
 3478SOL    HW222911   1.279   3.286   6.354
 3479SOL     OW22912   0.579   4.176   6.602
 3479SOL    HW122913   0.643   4.120   6.654
 3479SOL    HW222914   0.629   4.243   6.548
 3480SOL     OW22915   6.390   2.067   0.745
 3480SOL    HW122916   6.397   2.077   0.645
 3480SOL    HW222917   6.294   2.060   0.771
 3481SOL     OW22918   1.905   4.901   7.245
 3481SOL    HW122919   1.995   4.876   7.210
 3481SOL    HW222920   1.905   4.997   7.273
 3482SOL     OW22921   4.528   5.527   6.682
 3482SOL    HW122922   4.508   5.430   6.670
 3482SOL    HW222923   4.453   5.571   6.731
 3483SOL     OW22924   6.412   6.114   2.632
 3483SOL    HW122925   6.366   6.135   2.545
 3483SOL    HW222926   6.392   6.185   2.698
 3484SOL     OW22927   2.293   3.890   3.738
 3484SOL    HW122928   2.360   3.948   3.693
 3484SOL    HW222929   2.231   3.946   3.793
 3485SOL     OW22930   5.349   5.577   7.152
 3485SOL    HW122931   5.380   5.505   7.214
 3485SOL    HW222932   5.265   5.618   7.187
 3486SOL     OW22933   6.838   4.880   2.173
 3486SOL    HW122934   6.931   4.862   2.206
 3486SOL    HW222935   6.781   4.800   2.188
 3487SOL     OW22936   1.676   5.832   3.464
 3487SOL    HW122937   1.595   5.885   3.438
 3487SOL    HW222938   1.664   5.795   3.556
 3488SOL     OW22939   5.926   1.803   3.379
 3488SOL    HW122940   6.007   1.860   3.396
 3488SOL    HW222941   5.844   1.855   3.403
 3489SOL     OW22942   2.623   5.922   0.364
 3489SOL    HW122943   2.617   6.021   0.358
 3489SOL    HW222944   2.567   5.889   0.440
 3490SOL     OW22945   3.381   0.288   4.539
 3490SOL    HW122946   3.380   0.310   4.636
 3490SOL    HW222947   3.385   0.188   4.527
 3491SOL     OW22948   1.137   3.085   7.182
 3491SOL    HW122949   1.042   3.115   7.183
 3491SOL    HW222950   1.196   3.160   7.211
 3492SOL     OW22951   2.525   3.309   3.222
 3492SOL    HW122952   2.622   3.297   3.202
 3492SOL    HW222953   2.491   3.390   3.174
 3493SOL     OW22954   6.109   7.034   3.260
 3493SOL    HW122955   6.128   7.060   3.355
 3493SOL    HW222956   6.190   7.049   3.204
 3494SOL     OW22957   4.125   2.406   5.344
 3494SOL    HW122958   4.181   2.487   5.365
 3494SOL    HW222959   4.099   2.409   5.247
 3495SOL     OW22960   0.185   5.750   5.474
 3495SOL    HW122961   0.107   5.793   5.429
 3495SOL    HW222962   0.248   5.821   5.506
 3496SOL     OW22963   1.081   2.563   6.828
 3496SOL    HW122964   1.037   2.639   6.778
 3496SOL    HW222965   1.180   2.572   6.821
 3497SOL     OW22966   4.689   5.009   0.880
 3497SOL    HW122967   4.600   5.047   0.854
 3497SOL    HW222968   4.723   4.951   0.805
 3498SOL     OW22969   1.216   0.763   2.267
 3498SOL    HW122970   1.236   0.799   2.359
 3498SOL    HW222971   1.174   0.673   2.275
 3499SOL     OW22972   2.861   4.787   4.708
 3499SOL    HW122973   2.876   4.688   4.704
 3499SOL    HW222974   2.881   4.827   4.619
 3500SOL     OW22975   2.782   5.615   6.304
 3500SOL    HW122976   2.751   5.662   6.386
 3500SOL    HW222977   2.707   5.612   6.237
 3501SOL     OW22978   6.654   1.907   2.157
 3501SOL    HW122979   6.602   1.853   2.223
 3501SOL    HW222980   6.741   1.861   2.137
 3502SOL     OW22981   5.516   4.932   0.784
 3502SOL    HW122982   5.533   4.866   0.711
 3502SOL    HW222983   5.549   5.022   0.755
 3503SOL     OW22984   3.460   5.429   4.818
 3503SOL    HW122985   3.519   5.461   4.892
 3503SOL    HW222986   3.485   5.476   4.733
 3504SOL     OW22987   3.557   0.422   4.366
 3504SOL    HW122988   3.583   0.348   4.303
 3504SOL    HW222989   3.506   0.383   4.443
 3505SOL     OW22990   6.611   2.476   2.594
 3505SOL    HW122991   6.589   2.415   2.519
 3505SOL    HW222992   6.533   2.536   2.613
 3506SOL     OW22993   5.209   2.080   5.373
 3506SOL    HW122994   5.265   2.130   5.308
 3506SOL    HW222995   5.231   1.982   5.368
 3507SOL     OW22996   3.723   2.904   0.215
 3507SOL    HW122997   3.732   2.966   0.138
 3507SOL    HW222998   3.809   2.900   0.266
 3508SOL     OW22999   2.162   2.660   2.875
 3508SOL    HW123000   2.073   2.706   2.886
 3508SOL    HW223001   2.159   2.602   2.793
 3509SOL     OW23002   4.170   3.289   6.917
 3509SOL    HW123003   4.131   3.228   6.848
 3509SOL    HW223004   4.108   3.366   6.932
 3510SOL     OW23005   3.514   4.885   4.212
 3510SOL    HW123006   3.585   4.820   4.240
 3510SOL    HW223007   3.441   4.886   4.280
 3511SOL     OW23008   2.733   5.207   0.239
 3511SOL    HW123009   2.815   5.159   0.269
 3511SOL    HW223010   2.755   5.266   0.161
 3512SOL     OW23011   0.936   5.983   0.047
 3512SOL    HW123012   0.836   5.984   0.050
 3512SOL    HW223013   0.971   5.905   0.100
 3513SOL     OW23014   1.604   2.004   1.925
 3513SOL    HW123015   1.570   1.942   1.854
 3513SOL    HW223016   1.635   2.089   1.882
 3514SOL     OW23017   4.868   1.532   6.528
 3514SOL    HW123018   4.861   1.447   6.476
 3514SOL    HW223019   4.831   1.607   6.474
 3515SOL     OW23020   7.140   4.931   0.487
 3515SOL    HW123021   7.221   4.932   0.545
 3515SOL    HW223022   7.126   4.839   0.451
 3516SOL     OW23023   0.508   5.221   5.288
 3516SOL    HW123024   0.552   5.282   5.355
 3516SOL    HW223025   0.456   5.151   5.337
 3517SOL     OW23026   5.988   7.350   4.336
 3517SOL    HW123027   5.993   7.257   4.299
 3517SOL    HW223028   5.952   7.412   4.266
 3518SOL     OW23029   2.026   6.677   2.016
 3518SOL    HW123030   1.930   6.684   1.992
 3518SOL    HW223031   2.074   6.626   1.944
 3519SOL     OW23032   1.575   3.775   1.579
 3519SOL    HW123033   1.545   3.761   1.673
 3519SOL    HW223034   1.502   3.819   1.527
 3520SOL     OW23035   4.187   5.890   4.661
 3520SOL    HW123036   4.198   5.813   4.724
 3520SOL    HW223037   4.101   5.879   4.610
 3521SOL     OW23038   3.725   1.415   3.150
 3521SOL    HW123039   3.672   1.497   3.129
 3521SOL    HW223040   3.817   1.424   3.114
 3522SOL     OW23041   2.013   5.223   3.308
 3522SOL    HW123042   2.039   5.313   3.272
 3522SOL    HW223043   1.929   5.232   3.362
 3523SOL     OW23044   5.588   7.166   0.775
 3523SOL    HW123045   5.621   7.181   0.682
 3523SOL    HW223046   5.559   7.254   0.814
 3524SOL     OW23047   1.327   4.740   7.238
 3524SOL    HW123048   1.315   4.680   7.160
 3524SOL    HW223049   1.364   4.828   7.207
 3525SOL     OW23050   5.738   4.004   2.370
 3525SOL    HW123051   5.720   4.026   2.274
 3525SOL    HW223052   5.834   3.977   2.380
 3526SOL     OW23053   3.225   2.192   2.012
 3526SOL    HW123054   3.202   2.286   1.985
 3526SOL    HW223055   3.146   2.151   2.058
 3527SOL     OW23056   6.532   1.406   5.665
 3527SOL    HW123057   6.481   1.458   5.596
 3527SOL    HW223058   6.602   1.351   5.619
 3528SOL     OW23059   4.697   4.945   3.150
 3528SOL    HW123060   4.651   4.985   3.071
 3528SOL    HW223061   4.635   4.882   3.197
 3529SOL     OW23062   4.302   4.367   2.260
 3529SOL    HW123063   4.236   4.391   2.331
 3529SOL    HW223064   4.307   4.267   2.252
 3530SOL     OW23065   4.903   6.357   0.209
 3530SOL    HW123066   4.940   6.381   0.299
 3530SOL    HW223067   4.852   6.435   0.173
 3531SOL     OW23068   2.437   4.171   3.911
 3531SOL    HW123069   2.517   4.196   3.856
 3531SOL    HW223070   2.455   4.085   3.957
 3532SOL     OW23071   3.440   2.907   2.576
 3532SOL    HW123072   3.497   2.847   2.521
 3532SOL    HW223073   3.350   2.865   2.589
 3533SOL     OW23074   2.622   4.555   4.877
 3533SOL    HW123075   2.646   4.635   4.931
 3533SOL    HW223076   2.570   4.491   4.934
 3534SOL     OW23077   6.365   3.127   0.423
 3534SOL    HW123078   6.426   3.159   0.496
 3534SOL    HW223079   6.339   3.032   0.441
 3535SOL     OW23080   2.977   2.904   4.492
 3535SOL    HW123081   3.050   2.971   4.502
 3535SOL    HW223082   3.016   2.812   4.488
 3536SOL     OW23083   4.279   3.788   2.877
 3536SOL    HW123084   4.281   3.718   2.947
 3536SOL    HW223085   4.283   3.746   2.787
 3537SOL     OW23086   2.188   6.609   1.375
 3537SOL    HW123087   2.103   6.597   1.427
 3537SOL    HW223088   2.212   6.706   1.375
 3538SOL     OW23089   2.097   5.732   4.234
 3538SOL    HW123090   2.174   5.709   4.294
 3538SOL    HW223091   2.120   5.810   4.177
 3539SOL     OW23092   3.689   7.303   3.004
 3539SOL    HW123093   3.715   7.208   3.017
 3539SOL    HW223094   3.694   7.351   3.092
 3540SOL     OW23095   3.768   4.229   4.723
 3540SOL    HW123096   3.743   4.277   4.807
 3540SOL    HW223097   3.715   4.144   4.717
 3541SOL     OW23098   3.832   6.476   0.878
 3541SOL    HW123099   3.766   6.449   0.948
 3541SOL    HW223100   3.828   6.410   0.802
 3542SOL     OW23101   1.598   4.652   6.854
 3542SOL    HW123102   1.677   4.598   6.824
 3542SOL    HW223103   1.622   4.705   6.935
 3543SOL     OW23104   5.393   7.148   6.826
 3543SOL    HW123105   5.476   7.198   6.848
 3543SOL    HW223106   5.415   7.073   6.763
 3544SOL     OW23107   6.059   2.615   1.516
 3544SOL    HW123108   6.077   2.552   1.440
 3544SOL    HW223109   6.062   2.566   1.602
 3545SOL     OW23110   1.247   5.487   2.063
 3545SOL    HW123111   1.326   5.531   2.020
 3545SOL    HW223112   1.278   5.432   2.141
 3546SOL     OW23113   2.544   4.403   6.422
 3546SOL    HW123114   2.574   4.345   6.346
 3546SOL    HW223115   2.538   4.498   6.391
 3547SOL     OW23116   1.409   2.967   5.622
 3547SOL    HW123117   1.411   3.036   5.550
 3547SOL    HW223118   1.419   3.011   5.711
 3548SOL     OW23119   5.879   6.660   6.075
 3548SOL    HW123120   5.957   6.695   6.126
 3548SOL    HW223121   5.796   6.709   6.103
 3549SOL     OW23122   4.716   1.773   2.891
 3549SOL    HW123123   4.631   1.801   2.846
 3549SOL    HW223124   4.774   1.854   2.905
 3550SOL     OW23125   5.559   0.562   0.196
 3550SOL    HW123126   5.543   0.465   0.178
 3550SOL    HW223127   5.588   0.573   0.291
 3551SOL     OW23128   4.085   4.001   2.493
 3551SOL    HW123129   4.169   4.025   2.445
 3551SOL    HW223130   4.046   3.918   2.453
 3552SOL     OW23131   1.803   3.695   7.309
 3552SOL    HW123132   1.892   3.661   7.277
 3552SOL    HW223133   1.816   3.756   7.387
 3553SOL     OW23134   4.868   5.121   6.148
 3553SOL    HW123135   4.804   5.047   6.127
 3553SOL    HW223136   4.833   5.176   6.224
 3554SOL     OW23137   5.626   2.819   3.570
 3554SOL    HW123138   5.671   2.742   3.613
 3554SOL    HW223139   5.612   2.799   3.473
 3555SOL     OW23140   4.288   7.232   0.032
 3555SOL    HW123141   4.375   7.192   0.005
 3555SOL    HW223142   4.218   7.161   0.036
 3556SOL     OW23143   0.369   4.689   5.710
 3556SOL    HW123144   0.325   4.600   5.699
 3556SOL    HW223145   0.304   4.755   5.748
 3557SOL     OW23146   2.543   6.167   1.045
 3557SOL    HW123147   2.544   6.226   1.126
 3557SOL    HW223148   2.629   6.115   1.041
 3558SOL     OW23149   2.743   2.147   1.123
 3558SOL    HW123150   2.680   2.107   1.056
 3558SOL    HW223151   2.769   2.239   1.094
 3559SOL     OW23152   5.374   3.262   2.820
 3559SOL    HW123153   5.331   3.285   2.732
 3559SOL    HW223154   5.302   3.250   2.889
 3560SOL     OW23155   7.289   5.187   6.204
 3560SOL    HW123156   7.305   5.119   6.275
 3560SOL    HW223157   7.373   5.238   6.187
 3561SOL     OW23158   6.546   6.035   3.878
 3561SOL    HW123159   6.521   5.962   3.941
 3561SOL    HW223160   6.593   5.996   3.799
 3562SOL     OW23161   0.308   4.470   6.839
 3562SOL    HW123162   0.313   4.435   6.746
 3562SOL    HW223163   0.212   4.480   6.866
 3563SOL     OW23164   4.979   4.866   6.005
 3563SOL    HW123165   5.014   4.825   6.090
 3563SOL    HW223166   4.907   4.931   6.027
 3564SOL     OW23167   3.404   0.639   4.233
 3564SOL    HW123168   3.450   0.562   4.277
 3564SOL    HW223169   3.340   0.681   4.297
 3565SOL     OW23170   5.904   0.074   4.904
 3565SOL    HW123171   5.928   0.000   4.842
 3565SOL    HW223172   5.886   0.157   4.852
 3566SOL     OW23173   7.344   5.429   2.911
 3566SOL    HW123174   7.431   5.456   2.952
 3566SOL    HW223175   7.354   5.428   2.811
 3567SOL     OW23176   4.728   7.095   6.971
 3567SOL    HW123177   4.691   7.188   6.980
 3567SOL    HW223178   4.673   7.044   6.905
 3568SOL     OW23179   4.901   3.365   1.468
 3568SOL    HW123180   4.974   3.410   1.417
 3568SOL    HW223181   4.817   3.419   1.462
 3569SOL     OW23182   4.119   2.575   2.675
 3569SOL    HW123183   4.178   2.520   2.733
 3569SOL    HW223184   4.054   2.515   2.627
 3570SOL     OW23185   0.630   4.036   4.586
 3570SOL    HW123186   0.704   4.041   4.654
 3570SOL    HW223187   0.669   4.016   4.496
 3571SOL     OW23188   3.190   2.372   3.208
 3571SOL    HW123189   3.129   2.393   3.132
 3571SOL    HW223190   3.243   2.290   3.187
 3572SOL     OW23191   1.613   4.791   1.158
 3572SOL    HW123192   1.520   4.816   1.185
 3572SOL    HW223193   1.669   4.874   1.150
 3573SOL     OW23194   5.943   0.305   4.712
 3573SOL    HW123195   5.973   0.264   4.626
 3573SOL    HW223196   6.022   0.332   4.766
 3574SOL     OW23197   2.254   4.775   5.970
 3574SOL    HW123198   2.170   4.757   5.919
 3574SOL    HW223199   2.248   4.733   6.061
 3575SOL     OW23200   4.567   1.111   2.093
 3575SOL    HW123201   4.515   1.104   2.008
 3575SOL    HW223202   4.602   1.021   2.119
 3576SOL     OW23203   7.052   3.179   3.071
 3576SOL    HW123204   6.987   3.254   3.063
 3576SOL    HW223205   7.019   3.113   3.137
 3577SOL     OW23206   3.505   5.407   0.225
 3577SOL    HW123207   3.486   5.453   0.139
 3577SOL    HW223208   3.520   5.309   0.208
 3578SOL     OW23209   1.737   5.176   3.163
 3578SOL    HW123210   1.812   5.143   3.220
 3578SOL    HW223211   1.668   5.219   3.222
 3579SOL     OW23212   7.170   5.741   4.538
 3579SOL    HW123213   7.075   5.708   4.537
 3579SOL    HW223214   7.217   5.703   4.617
 3580SOL     OW23215   0.763   1.468   3.698
 3580SOL    HW123216   0.680   1.497   3.746
 3580SOL    HW223217   0.738   1.424   3.612
 3581SOL     OW23218   0.369   4.157   1.093
 3581SOL    HW123219   0.385   4.254   1.113
 3581SOL    HW223220   0.376   4.142   0.994
 3582SOL     OW23221   3.316   4.176   3.553
 3582SOL    HW123222   3.289   4.141   3.642
 3582SOL    HW223223   3.250   4.246   3.524
 3583SOL     OW23224   1.503   6.966   1.112
 3583SOL    HW123225   1.558   6.975   1.029
 3583SOL    HW223226   1.545   6.898   1.173
 3584SOL     OW23227   5.061   3.416   2.417
 3584SOL    HW123228   5.065   3.361   2.334
 3584SOL    HW223229   4.974   3.464   2.422
 3585SOL     OW23230   6.610   2.944   1.510
 3585SOL    HW123231   6.520   2.936   1.467
 3585SOL    HW223232   6.654   2.854   1.513
 3586SOL     OW23233   3.318   4.828   6.668
 3586SOL    HW123234   3.360   4.781   6.590
 3586SOL    HW223235   3.340   4.779   6.752
 3587SOL     OW23236   3.107   3.015   2.327
 3587SOL    HW123237   3.150   2.955   2.395
 3587SOL    HW223238   3.051   3.084   2.374
 3588SOL     OW23239   7.032   5.256   4.125
 3588SOL    HW123240   7.124   5.294   4.138
 3588SOL    HW223241   7.039   5.160   4.097
 3589SOL     OW23242   5.374   6.129   6.976
 3589SOL    HW123243   5.394   6.054   7.040
 3589SOL    HW223244   5.328   6.203   7.024
 3590SOL     OW23245   2.320   6.054   0.144
 3590SOL    HW123246   2.375   6.137   0.145
 3590SOL    HW223247   2.380   5.974   0.138
 3591SOL     OW23248   0.101   2.513   6.801
 3591SOL    HW123249   0.089   2.418   6.829
 3591SOL    HW223250   0.194   2.543   6.821
 3592SOL     OW23251   1.110   4.337   5.413
 3592SOL    HW123252   1.113   4.420   5.358
 3592SOL    HW223253   1.015   4.309   5.426
 3593SOL     OW23254   4.245   3.677   4.425
 3593SOL    HW123255   4.268   3.618   4.347
 3593SOL    HW223256   4.188   3.627   4.489
 3594SOL     OW23257   2.899   7.238   0.283
 3594SOL    HW123258   2.906   7.138   0.279
 3594SOL    HW223259   2.939   7.271   0.368
 3595SOL     OW23260   3.079   2.422   2.795
 3595SOL    HW123261   3.105   2.346   2.736
 3595SOL    HW223262   3.027   2.387   2.873
 3596SOL     OW23263   5.545   1.094   3.482
 3596SOL    HW123264   5.577   1.045   3.402
 3596SOL    HW223265   5.453   1.063   3.506
 3597SOL     OW23266   5.032   2.360   5.158
 3597SOL    HW123267   4.986   2.299   5.094
 3597SOL    HW223268   5.003   2.339   5.251
 3598SOL     OW23269   4.301   7.020   7.145
 3598SOL    HW123270   4.272   7.071   7.064
 3598SOL    HW223271   4.384   7.060   7.182
 3599SOL     OW23272   0.786   4.097   5.897
 3599SOL    HW123273   0.862   4.062   5.842
 3599SOL    HW223274   0.704   4.042   5.879
 3600SOL     OW23275   6.529   6.108   6.662
 3600SOL    HW123276   6.458   6.159   6.612
 3600SOL    HW223277   6.525   6.012   6.636
 3601SOL     OW23278   1.732   2.351   4.224
 3601SOL    HW123279   1.649   2.300   4.201
 3601SOL    HW223280   1.784   2.301   4.292
 3602SOL     OW23281   6.167   3.237   0.986
 3602SOL    HW123282   6.161   3.336   1.004
 3602SOL    HW223283   6.081   3.193   1.014
 3603SOL     OW23284   6.632   6.988   1.169
 3603SOL    HW123285   6.633   6.904   1.115
 3603SOL    HW223286   6.587   6.969   1.257
 3604SOL     OW23287   4.235   6.585   3.923
 3604SOL    HW123288   4.180   6.515   3.876
 3604SOL    HW223289   4.244   6.665   3.863
 3605SOL     OW23290   3.221   6.991   6.479
 3605SOL    HW123291   3.157   6.938   6.536
 3605SOL    HW223292   3.314   6.954   6.491
 3606SOL     OW23293   4.710   2.946   4.964
 3606SOL    HW123294   4.725   3.005   4.884
 3606SOL    HW223295   4.649   2.871   4.940
 3607SOL     OW23296   2.285   6.609   0.309
 3607SOL    HW123297   2.252   6.702   0.321
 3607SOL    HW223298   2.208   6.545   0.316
 3608SOL     OW23299   5.509   4.001   3.562
 3608SOL    HW123300   5.543   4.068   3.497
 3608SOL    HW223301   5.585   3.963   3.615
 3609SOL     OW23302   6.186   5.713   4.289
 3609SOL    HW123303   6.153   5.622   4.265
 3609SOL    HW223304   6.235   5.753   4.211
 3610SOL     OW23305   4.005   3.370   4.847
 3610SOL    HW123306   4.072   3.430   4.802
 3610SOL    HW223307   4.044   3.279   4.859
 3611SOL     OW23308   3.604   4.543   5.055
 3611SOL    HW123309   3.542   4.620   5.066
 3611SOL    HW223310   3.565   4.479   4.988
 3612SOL     OW23311   5.954   4.843   3.146
 3612SOL    HW123312   5.864   4.821   3.183
 3612SOL    HW223313   6.010   4.760   3.141
 3613SOL     OW23314   6.672   2.248   3.067
 3613SOL    HW123315   6.739   2.245   2.993
 3613SOL    HW223316   6.580   2.252   3.029
 3614SOL     OW23317   4.765   5.359   5.991
 3614SOL    HW123318   4.807   5.374   5.901
 3614SOL    HW223319   4.773   5.262   6.015
 3615SOL     OW23320   2.819   1.068   0.956
 3615SOL    HW123321   2.734   1.114   0.981
 3615SOL    HW223322   2.814   0.972   0.981
 3616SOL     OW23323   2.370   4.033   6.524
 3616SOL    HW123324   2.422   4.044   6.440
 3616SOL    HW223325   2.429   4.052   6.602
 3617SOL     OW23326   5.802   6.882   6.746
 3617SOL    HW123327   5.809   6.784   6.763
 3617SOL    HW223328   5.861   6.931   6.810
 3618SOL     OW23329   2.714   2.953   7.103
 3618SOL    HW123330   2.727   3.022   7.174
 3618SOL    HW223331   2.802   2.911   7.081
 3619SOL     OW23332   5.028   3.299   6.775
 3619SOL    HW123333   5.107   3.347   6.736
 3619SOL    HW223334   4.998   3.346   6.857
 3620SOL     OW23335   1.923   1.015   5.410
 3620SOL    HW123336   1.838   0.980   5.449
 3620SOL    HW223337   1.975   1.063   5.480
 3621SOL     OW23338   0.471   6.734   1.312
 3621SOL    HW123339   0.426   6.655   1.353
 3621SOL    HW223340   0.532   6.777   1.379
 3622SOL     OW23341   1.448   4.148   2.414
 3622SOL    HW123342   1.409   4.057   2.398
 3622SOL    HW223343   1.436   4.204   2.332
 3623SOL     OW23344   3.537   0.273   7.064
 3623SOL    HW123345   3.490   0.190   7.036
 3623SOL    HW223346   3.525   0.288   7.162
 3624SOL     OW23347   0.058   5.527   6.333
 3624SOL    HW123348   0.028   5.623   6.331
 3624SOL    HW223349   0.012   5.476   6.260
 3625SOL     OW23350   3.764   3.382   3.067
 3625SOL    HW123351   3.799   3.288   3.070
 3625SOL    HW223352   3.695   3.393   3.140
 3626SOL     OW23353   4.973   6.418   2.281
 3626SOL    HW123354   4.938   6.381   2.195
 3626SOL    HW223355   4.946   6.514   2.290
 3627SOL     OW23356   6.893   1.874   7.333
 3627SOL    HW123357   6.866   1.969   7.348
 3627SOL    HW223358   6.821   1.812   7.364
 3628SOL     OW23359   5.588   1.832   3.080
 3628SOL    HW123360   5.509   1.840   3.142
 3628SOL    HW223361   5.650   1.762   3.115
 3629SOL     OW23362   4.836   0.769   4.244
 3629SOL    HW123363   4.887   0.845   4.284
 3629SOL    HW223364   4.743   0.799   4.222
 3630SOL     OW23365   5.464   1.588   3.415
 3630SOL    HW123366   5.534   1.527   3.379
 3630SOL    HW223367   5.381   1.537   3.435
 3631SOL     OW23368   6.036   5.329   3.321
 3631SOL    HW123369   5.976   5.368   3.251
 3631SOL    HW223370   6.041   5.230   3.308
 3632SOL     OW23371   7.000   4.970   4.772
 3632SOL    HW123372   7.002   5.068   4.788
 3632SOL    HW223373   6.984   4.952   4.674
 3633SOL     OW23374   4.631   1.923   0.023
 3633SOL    HW123375   4.555   1.987   0.005
 3633SOL    HW223376   4.712   1.975   0.049
 3634SOL     OW23377   4.805   1.227   0.021
 3634SOL    HW123378   4.777   1.322   0.013
 3634SOL    HW223379   4.870   1.205  -0.052
 3635SOL     OW23380   1.038   5.020   7.243
 3635SOL    HW123381   1.051   4.971   7.329
 3635SOL    HW223382   0.969   5.092   7.256
 3636SOL     OW23383   3.938   7.230   5.174
 3636SOL    HW123384   4.000   7.304   5.201
 3636SOL    HW223385   3.990   7.145   5.164
 3637SOL     OW23386   2.258   3.731   0.978
 3637SOL    HW123387   2.170   3.684   0.987
 3637SOL    HW223388   2.323   3.672   0.931
 3638SOL     OW23389   5.467   7.044   3.430
 3638SOL    HW123390   5.558   7.037   3.390
 3638SOL    HW223391   5.473   7.080   3.523
 3639SOL     OW23392   6.723   6.753   1.953
 3639SOL    HW123393   6.710   6.674   2.012
 3639SOL    HW223394   6.689   6.731   1.861
 3640SOL     OW23395   4.282   6.451   6.594
 3640SOL    HW123396   4.190   6.490   6.595
 3640SOL    HW223397   4.295   6.399   6.509
 3641SOL     OW23398   3.585   5.834   1.240
 3641SOL    HW123399   3.489   5.843   1.212
 3641SOL    HW223400   3.600   5.743   1.278
 3642SOL     OW23401   3.441   2.294   6.480
 3642SOL    HW123402   3.404   2.275   6.389
 3642SOL    HW223403   3.448   2.209   6.532
 3643SOL     OW23404   3.542   2.859   0.536
 3643SOL    HW123405   3.628   2.894   0.499
 3643SOL    HW223406   3.488   2.935   0.572
 3644SOL     OW23407   4.971   4.161   4.101
 3644SOL    HW123408   4.939   4.252   4.128
 3644SOL    HW223409   4.896   4.095   4.111
 3645SOL     OW23410   5.889   2.502   2.788
 3645SOL    HW123411   5.892   2.474   2.884
 3645SOL    HW223412   5.868   2.424   2.730
 3646SOL     OW23413   1.578   0.055   6.399
 3646SOL    HW123414   1.620   0.138   6.362
 3646SOL    HW223415   1.481   0.054   6.375
 3647SOL     OW23416   3.348   0.571   7.251
 3647SOL    HW123417   3.400   0.486   7.258
 3647SOL    HW223418   3.294   0.584   7.334
 3648SOL     OW23419   5.183   0.726   5.912
 3648SOL    HW123420   5.281   0.715   5.930
 3648SOL    HW223421   5.143   0.787   5.980
 3649SOL     OW23422   1.115   3.607   3.204
 3649SOL    HW123423   1.122   3.601   3.104
 3649SOL    HW223424   1.113   3.515   3.243
 3650SOL     OW23425   3.184   0.123   4.345
 3650SOL    HW123426   3.128   0.042   4.364
 3650SOL    HW223427   3.247   0.138   4.422
 3651SOL     OW23428   3.394   1.622   5.803
 3651SOL    HW123429   3.403   1.655   5.709
 3651SOL    HW223430   3.373   1.698   5.863
 3652SOL     OW23431   1.389   0.048   1.064
 3652SOL    HW123432   1.330   0.081   1.138
 3652SOL    HW223433   1.460   0.116   1.045
 3653SOL     OW23434   4.146   0.075   3.691
 3653SOL    HW123435   4.098   0.020   3.759
 3653SOL    HW223436   4.222   0.023   3.653
 3654SOL     OW23437   4.657   1.278   4.840
 3654SOL    HW123438   4.658   1.348   4.769
 3654SOL    HW223439   4.564   1.268   4.876
 3655SOL     OW23440   1.876   3.171   2.042
 3655SOL    HW123441   1.943   3.237   2.008
 3655SOL    HW223442   1.808   3.154   1.970
 3656SOL     OW23443   0.379   0.460   1.515
 3656SOL    HW123444   0.363   0.491   1.609
 3656SOL    HW223445   0.317   0.509   1.453
 3657SOL     OW23446   5.073   1.657   4.247
 3657SOL    HW123447   5.106   1.671   4.341
 3657SOL    HW223448   5.109   1.729   4.188
 3658SOL     OW23449   3.204   5.082   6.378
 3658SOL    HW123450   3.194   4.991   6.337
 3658SOL    HW223451   3.217   5.073   6.477
 3659SOL     OW23452   1.500   3.515   3.888
 3659SOL    HW123453   1.409   3.549   3.912
 3659SOL    HW223454   1.494   3.463   3.802
 3660SOL     OW23455   4.707   3.881   1.123
 3660SOL    HW123456   4.731   3.978   1.134
 3660SOL    HW223457   4.761   3.842   1.048
 3661SOL     OW23458   3.190   6.834   5.160
 3661SOL    HW123459   3.285   6.814   5.185
 3661SOL    HW223460   3.134   6.753   5.177
 3662SOL     OW23461   0.576   2.494   0.941
 3662SOL    HW123462   0.489   2.455   0.973
 3662SOL    HW223463   0.632   2.421   0.902
 3663SOL     OW23464   4.696   4.953   5.990
 3663SOL    HW123465   4.713   4.864   5.947
 3663SOL    HW223466   4.717   5.026   5.925
 3664SOL     OW23467   1.321   5.694   6.989
 3664SOL    HW123468   1.366   5.680   6.900
 3664SOL    HW223469   1.326   5.610   7.043
 3665SOL     OW23470   5.668   5.961   5.481
 3665SOL    HW123471   5.590   5.904   5.506
 3665SOL    HW223472   5.670   5.973   5.382
 3666SOL     OW23473   2.530   7.186   0.499
 3666SOL    HW123474   2.501   7.182   0.404
 3666SOL    HW223475   2.582   7.270   0.515
 3667SOL     OW23476   5.926   5.213   4.327
 3667SOL    HW123477   5.993   5.204   4.400
 3667SOL    HW223478   5.974   5.219   4.239
 3668SOL     OW23479   5.278   2.793   0.302
 3668SOL    HW123480   5.223   2.849   0.240
 3668SOL    HW223481   5.271   2.697   0.276
 3669SOL     OW23482   6.972   2.373   0.389
 3669SOL    HW123483   7.007   2.282   0.369
 3669SOL    HW223484   6.913   2.403   0.314
 3670SOL     OW23485   0.845   4.254   2.682
 3670SOL    HW123486   0.806   4.341   2.714
 3670SOL    HW223487   0.942   4.268   2.660
 3671SOL     OW23488   6.035   3.618   1.826
 3671SOL    HW123489   6.106   3.586   1.764
 3671SOL    HW223490   5.945   3.590   1.792
 3672SOL     OW23491   0.675   4.229   6.924
 3672SOL    HW123492   0.735   4.214   7.002
 3672SOL    HW223493   0.665   4.144   6.873
 3673SOL     OW23494   5.542   6.131   3.445
 3673SOL    HW123495   5.466   6.121   3.381
 3673SOL    HW223496   5.571   6.226   3.450
 3674SOL     OW23497   3.080   6.364   7.030
 3674SOL    HW123498   3.135   6.340   7.110
 3674SOL    HW223499   3.045   6.280   6.987
 3675SOL     OW23500   2.385   3.421   5.820
 3675SOL    HW123501   2.338   3.359   5.883
 3675SOL    HW223502   2.421   3.368   5.742
 3676SOL     OW23503   1.547   4.060   3.085
 3676SOL    HW123504   1.613   4.135   3.079
 3676SOL    HW223505   1.578   3.984   3.027
 3677SOL     OW23506   3.330   4.618   6.387
 3677SOL    HW123507   3.333   4.519   6.373
 3677SOL    HW223508   3.420   4.649   6.417
 3678SOL     OW23509   0.803   1.386   2.291
 3678SOL    HW123510   0.867   1.429   2.228
 3678SOL    HW223511   0.850   1.364   2.377
 3679SOL     OW23512   3.489   3.063   1.480
 3679SOL    HW123513   3.474   2.966   1.496
 3679SOL    HW223514   3.403   3.106   1.451
 3680SOL     OW23515   6.433   1.554   4.571
 3680SOL    HW123516   6.349   1.517   4.611
 3680SOL    HW223517   6.489   1.596   4.643
 3681SOL     OW23518   0.383   0.329   0.369
 3681SOL    HW123519   0.340   0.401   0.314
 3681SOL    HW223520   0.387   0.245   0.316
 3682SOL     OW23521   3.231   6.941   6.819
 3682SOL    HW123522   3.282   7.017   6.779
 3682SOL    HW223523   3.232   6.864   6.756
 3683SOL     OW23524   0.161   5.805   5.119
 3683SOL    HW123525   0.112   5.816   5.032
 3683SOL    HW223526   0.259   5.802   5.102
 3684SOL     OW23527   3.952   6.033   0.434
 3684SOL    HW123528   4.022   6.031   0.505
 3684SOL    HW223529   3.953   5.946   0.383
 3685SOL     OW23530   3.202   7.023   0.619
 3685SOL    HW123531   3.191   7.014   0.718
 3685SOL    HW223532   3.282   6.971   0.590
 3686SOL     OW23533   4.429   6.830   0.237
 3686SOL    HW123534   4.477   6.832   0.149
 3686SOL    HW223535   4.483   6.879   0.305
 3687SOL     OW23536   1.269   3.713   4.285
 3687SOL    HW123537   1.282   3.810   4.306
 3687SOL    HW223538   1.337   3.659   4.334
 3688SOL     OW23539   5.292   0.678   3.923
 3688SOL    HW123540   5.210   0.699   3.976
 3688SOL    HW223541   5.373   0.698   3.979
 3689SOL     OW23542   4.859   0.267   6.107
 3689SOL    HW123543   4.871   0.195   6.175
 3689SOL    HW223544   4.924   0.253   6.032
 3690SOL     OW23545   6.771   3.250   5.155
 3690SOL    HW123546   6.726   3.219   5.239
 3690SOL    HW223547   6.822   3.175   5.114
 3691SOL     OW23548   4.853   2.858   3.894
 3691SOL    HW123549   4.817   2.947   3.866
 3691SOL    HW223550   4.784   2.809   3.946
 3692SOL     OW23551   3.612   2.636   1.399
 3692SOL    HW123552   3.686   2.622   1.465
 3692SOL    HW223553   3.649   2.663   1.311
 3693SOL     OW23554   2.354   1.970   1.355
 3693SOL    HW123555   2.421   2.035   1.389
 3693SOL    HW223556   2.329   1.993   1.261
 3694SOL     OW23557   4.960   3.079   7.335
 3694SOL    HW123558   4.982   3.174   7.316
 3694SOL    HW223559   4.879   3.075   7.393
 3695SOL     OW23560   1.229   6.290   5.308
 3695SOL    HW123561   1.290   6.243   5.372
 3695SOL    HW223562   1.206   6.228   5.232
 3696SOL     OW23563   3.077   0.257   3.467
 3696SOL    HW123564   3.006   0.300   3.522
 3696SOL    HW223565   3.088   0.162   3.494
 3697SOL     OW23566   5.883   2.416   7.039
 3697SOL    HW123567   5.961   2.390   6.983
 3697SOL    HW223568   5.820   2.339   7.048
 3698SOL     OW23569   4.620   5.549   7.175
 3698SOL    HW123570   4.635   5.476   7.107
 3698SOL    HW223571   4.539   5.601   7.149
 3699SOL     OW23572   2.507   2.127   1.504
 3699SOL    HW123573   2.606   2.111   1.492
 3699SOL    HW223574   2.486   2.138   1.601
 3700SOL     OW23575   1.249   2.010   3.079
 3700SOL    HW123576   1.183   2.043   3.147
 3700SOL    HW223577   1.339   1.998   3.122
 3701SOL     OW23578   5.092   0.749   0.548
 3701SOL    HW123579   5.081   0.836   0.500
 3701SOL    HW223580   5.189   0.726   0.553
 3702SOL     OW23581   4.528   7.116   7.287
 3702SOL    HW123582   4.611   7.172   7.292
 3702SOL    HW223583   4.554   7.020   7.273
 3703SOL     OW23584   2.267   2.671   0.523
 3703SOL    HW123585   2.337   2.602   0.543
 3703SOL    HW223586   2.275   2.699   0.428
 3704SOL     OW23587   6.337   6.270   2.195
 3704SOL    HW123588   6.314   6.281   2.099
 3704SOL    HW223589   6.433   6.242   2.204
 3705SOL     OW23590   3.472   2.046   4.336
 3705SOL    HW123591   3.454   1.959   4.290
 3705SOL    HW223592   3.566   2.048   4.370
 3706SOL     OW23593   0.928   1.403   1.533
 3706SOL    HW123594   0.857   1.406   1.462
 3706SOL    HW223595   0.886   1.382   1.621
 3707SOL     OW23596   2.658   0.123   5.344
 3707SOL    HW123597   2.750   0.103   5.311
 3707SOL    HW223598   2.614   0.190   5.284
 3708SOL     OW23599   6.757   1.427   7.162
 3708SOL    HW123600   6.827   1.380   7.108
 3708SOL    HW223601   6.668   1.419   7.117
 3709SOL     OW23602   4.608   4.655   6.276
 3709SOL    HW123603   4.696   4.611   6.261
 3709SOL    HW223604   4.623   4.747   6.312
 3710SOL     OW23605   3.634   6.810   3.058
 3710SOL    HW123606   3.685   6.823   3.143
 3710SOL    HW223607   3.624   6.712   3.041
 3711SOL     OW23608   2.481   4.672   6.330
 3711SOL    HW123609   2.388   4.689   6.298
 3711SOL    HW223610   2.546   4.688   6.255
 3712SOL     OW23611   4.706   5.209   2.006
 3712SOL    HW123612   4.672   5.203   1.912
 3712SOL    HW223613   4.800   5.243   2.005
 3713SOL     OW23614   2.641   1.696   6.570
 3713SOL    HW123615   2.649   1.598   6.586
 3713SOL    HW223616   2.692   1.746   6.640
 3714SOL     OW23617   3.750   0.477   1.907
 3714SOL    HW123618   3.844   0.496   1.877
 3714SOL    HW223619   3.693   0.556   1.888
 3715SOL     OW23620   2.796   4.618   0.513
 3715SOL    HW123621   2.822   4.593   0.420
 3715SOL    HW223622   2.707   4.663   0.512
 3716SOL     OW23623   0.807   5.858   6.014
 3716SOL    HW123624   0.739   5.906   5.957
 3716SOL    HW223625   0.851   5.923   6.075
 3717SOL     OW23626   0.537   1.648   6.995
 3717SOL    HW123627   0.479   1.729   7.003
 3717SOL    HW223628   0.564   1.617   7.086
 3718SOL     OW23629   3.643   4.209   3.187
 3718SOL    HW123630   3.741   4.189   3.196
 3718SOL    HW223631   3.601   4.211   3.277
 3719SOL     OW23632   6.257   5.576   1.484
 3719SOL    HW123633   6.273   5.659   1.537
 3719SOL    HW223634   6.166   5.579   1.442
 3720SOL     OW23635   6.929   3.121   6.342
 3720SOL    HW123636   6.898   3.040   6.293
 3720SOL    HW223637   6.855   3.155   6.400
 3721SOL     OW23638   4.312   6.382   3.285
 3721SOL    HW123639   4.240   6.448   3.267
 3721SOL    HW223640   4.371   6.416   3.358
 3722SOL     OW23641   4.812   1.729   2.187
 3722SOL    HW123642   4.834   1.706   2.282
 3722SOL    HW223643   4.844   1.821   2.166
 3723SOL     OW23644   2.130   5.522   5.546
 3723SOL    HW123645   2.134   5.422   5.555
 3723SOL    HW223646   2.054   5.557   5.600
 3724SOL     OW23647   3.942   4.683   5.608
 3724SOL    HW123648   3.858   4.631   5.590
 3724SOL    HW223649   4.016   4.649   5.551
 3725SOL     OW23650   6.644   5.864   3.659
 3725SOL    HW123651   6.667   5.774   3.696
 3725SOL    HW223652   6.606   5.854   3.567
 3726SOL     OW23653   2.635   1.427   6.580
 3726SOL    HW123654   2.727   1.386   6.578
 3726SOL    HW223655   2.584   1.400   6.499
 3727SOL     OW23656   0.125   2.391   3.761
 3727SOL    HW123657   0.066   2.468   3.736
 3727SOL    HW223658   0.119   2.321   3.690
 3728SOL     OW23659   5.658   5.788   7.124
 3728SOL    HW123660   5.625   5.723   7.192
 3728SOL    HW223661   5.588   5.856   7.105
 3729SOL     OW23662   1.451   6.030   0.955
 3729SOL    HW123663   1.467   6.106   1.018
 3729SOL    HW223664   1.534   5.976   0.947
 3730SOL     OW23665   0.472   0.788   1.279
 3730SOL    HW123666   0.434   0.827   1.195
 3730SOL    HW223667   0.399   0.780   1.347
 3731SOL     OW23668   2.907   3.609   2.892
 3731SOL    HW123669   2.901   3.648   2.984
 3731SOL    HW223670   2.973   3.660   2.838
 3732SOL     OW23671   6.927   6.923   1.187
 3732SOL    HW123672   6.829   6.937   1.176
 3732SOL    HW223673   6.977   6.997   1.142
 3733SOL     OW23674   0.543   0.890   4.650
 3733SOL    HW123675   0.512   0.842   4.732
 3733SOL    HW223676   0.643   0.895   4.650
 3734SOL     OW23677   2.516   6.999   1.478
 3734SOL    HW123678   2.525   7.093   1.443
 3734SOL    HW223679   2.437   6.994   1.538
 3735SOL     OW23680   3.565   5.025   6.220
 3735SOL    HW123681   3.487   4.964   6.221
 3735SOL    HW223682   3.542   5.110   6.267
 3736SOL     OW23683   3.755   2.639   5.201
 3736SOL    HW123684   3.759   2.607   5.295
 3736SOL    HW223685   3.847   2.639   5.161
 3737SOL     OW23686   0.908   6.178   3.961
 3737SOL    HW123687   0.836   6.218   4.017
 3737SOL    HW223688   0.922   6.235   3.880
 3738SOL     OW23689   6.580   4.382   6.441
 3738SOL    HW123690   6.606   4.423   6.354
 3738SOL    HW223691   6.563   4.455   6.508
 3739SOL     OW23692   3.605   5.994   1.671
 3739SOL    HW123693   3.604   6.024   1.576
 3739SOL    HW223694   3.511   5.973   1.700
 3740SOL     OW23695   2.971   2.873   3.991
 3740SOL    HW123696   3.052   2.928   3.972
 3740SOL    HW223697   2.999   2.782   4.022
 3741SOL     OW23698   6.763   7.220   1.205
 3741SOL    HW123699   6.698   7.146   1.192
 3741SOL    HW223700   6.735   7.277   1.282
 3742SOL     OW23701   2.441   1.431   0.711
 3742SOL    HW123702   2.394   1.471   0.790
 3742SOL    HW223703   2.470   1.338   0.734
 3743SOL     OW23704   6.985   2.715   4.794
 3743SOL    HW123705   6.941   2.803   4.776
 3743SOL    HW223706   6.931   2.642   4.753
 3744SOL     OW23707   1.230   3.265   0.007
 3744SOL    HW123708   1.181   3.328   0.067
 3744SOL    HW223709   1.266   3.189   0.061
 3745SOL     OW23710   6.259   6.424   5.868
 3745SOL    HW123711   6.237   6.418   5.771
 3745SOL    HW223712   6.303   6.512   5.887
 3746SOL     OW23713   2.754   3.736   4.299
 3746SOL    HW123714   2.700   3.676   4.241
 3746SOL    HW223715   2.693   3.788   4.359
 3747SOL     OW23716   0.306   0.956   0.036
 3747SOL    HW123717   0.327   1.000  -0.052
 3747SOL    HW223718   0.274   0.862   0.019
 3748SOL     OW23719   1.471   7.257   3.466
 3748SOL    HW123720   1.567   7.236   3.487
 3748SOL    HW223721   1.438   7.326   3.530
 3749SOL     OW23722   6.592   4.266   0.025
 3749SOL    HW123723   6.642   4.268  -0.062
 3749SOL    HW223724   6.653   4.237   0.098
 3750SOL     OW23725   1.250   4.556   3.233
 3750SOL    HW123726   1.258   4.489   3.158
 3750SOL    HW223727   1.209   4.512   3.313
 3751SOL     OW23728   6.595   0.534   5.895
 3751SOL    HW123729   6.671   0.534   5.829
 3751SOL    HW223730   6.618   0.595   5.971
 3752SOL     OW23731   4.381   5.669   7.092
 3752SOL    HW123732   4.351   5.671   6.997
 3752SOL    HW223733   4.367   5.759   7.134
 3753SOL     OW23734   6.623   1.333   1.562
 3753SOL    HW123735   6.548   1.305   1.502
 3753SOL    HW223736   6.700   1.363   1.507
 3754SOL     OW23737   4.257   3.778   0.117
 3754SOL    HW123738   4.313   3.696   0.126
 3754SOL    HW223739   4.317   3.858   0.109
 3755SOL     OW23740   7.016   3.142   1.282
 3755SOL    HW123741   7.014   3.044   1.263
 3755SOL    HW223742   6.986   3.193   1.202
 3756SOL     OW23743   0.894   5.365   1.820
 3756SOL    HW123744   0.882   5.385   1.917
 3756SOL    HW223745   0.876   5.447   1.766
 3757SOL     OW23746   6.026   3.403   3.139
 3757SOL    HW123747   5.954   3.406   3.070
 3757SOL    HW223748   5.985   3.399   3.230
 3758SOL     OW23749   5.121   4.615   6.080
 3758SOL    HW123750   5.043   4.584   6.026
 3758SOL    HW223751   5.193   4.649   6.019
 3759SOL     OW23752   4.366   0.800   2.275
 3759SOL    HW123753   4.374   0.703   2.299
 3759SOL    HW223754   4.397   0.856   2.352
 3760SOL     OW23755   0.298   1.810   0.349
 3760SOL    HW123756   0.198   1.804   0.339
 3760SOL    HW223757   0.333   1.880   0.287
 3761SOL     OW23758   1.895   5.002   2.283
 3761SOL    HW123759   1.832   4.924   2.288
 3761SOL    HW223760   1.843   5.085   2.262
 3762SOL     OW23761   6.818   0.956   7.110
 3762SOL    HW123762   6.876   1.012   7.051
 3762SOL    HW223763   6.756   1.015   7.161
 3763SOL     OW23764   7.092   2.015   2.515
 3763SOL    HW123765   7.013   1.963   2.483
 3763SOL    HW223766   7.064   2.109   2.535
 3764SOL     OW23767   1.368   0.351   1.268
 3764SOL    HW123768   1.291   0.305   1.223
 3764SOL    HW223769   1.446   0.356   1.206
 3765SOL     OW23770   1.031   3.481   1.025
 3765SOL    HW123771   1.126   3.489   0.994
 3765SOL    HW223772   0.986   3.570   1.016
 3766SOL     OW23773   3.481   0.930   4.810
 3766SOL    HW123774   3.567   0.943   4.761
 3766SOL    HW223775   3.413   0.890   4.749
 3767SOL     OW23776   4.840   6.095   6.568
 3767SOL    HW123777   4.799   6.045   6.644
 3767SOL    HW223778   4.908   6.159   6.603
 3768SOL     OW23779   2.826   4.605   3.729
 3768SOL    HW123780   2.892   4.538   3.695
 3768SOL    HW223781   2.872   4.670   3.789
 3769SOL     OW23782   3.058   0.071   1.902
 3769SOL    HW123783   3.136   0.132   1.891
 3769SOL    HW223784   3.076   0.007   1.978
 3770SOL     OW23785   3.046   3.034   4.762
 3770SOL    HW123786   3.101   3.045   4.679
 3770SOL    HW223787   3.073   3.103   4.829
 3771SOL     OW23788   1.847   0.015   7.253
 3771SOL    HW123789   1.839  -0.069   7.307
 3771SOL    HW223790   1.806   0.001   7.163
 3772SOL     OW23791   6.051   5.095   3.195
 3772SOL    HW123792   6.009   5.007   3.175
 3772SOL    HW223793   6.076   5.140   3.109
 3773SOL     OW23794   6.352   4.370   1.294
 3773SOL    HW123795   6.320   4.293   1.350
 3773SOL    HW223796   6.322   4.456   1.336
 3774SOL     OW23797   3.240   5.906   4.769
 3774SOL    HW123798   3.241   6.005   4.785
 3774SOL    HW223799   3.162   5.882   4.711
 3775SOL     OW23800   0.196   1.948   2.922
 3775SOL    HW123801   0.258   1.901   2.859
 3775SOL    HW223802   0.221   1.924   3.016
 3776SOL     OW23803   7.165   4.311   6.764
 3776SOL    HW123804   7.077   4.351   6.789
 3776SOL    HW223805   7.162   4.281   6.669
 3777SOL     OW23806   5.399   6.494   6.261
 3777SOL    HW123807   5.401   6.487   6.161
 3777SOL    HW223808   5.319   6.447   6.296
 3778SOL     OW23809   3.281   0.708   6.512
 3778SOL    HW123810   3.375   0.724   6.545
 3778SOL    HW223811   3.265   0.610   6.506
 3779SOL     OW23812   5.720   2.850   1.951
 3779SOL    HW123813   5.684   2.855   1.858
 3779SOL    HW223814   5.730   2.942   1.989
 3780SOL     OW23815   4.846   6.048   2.229
 3780SOL    HW123816   4.875   6.124   2.171
 3780SOL    HW223817   4.772   5.999   2.183
 3781SOL     OW23818   1.168   7.205   6.932
 3781SOL    HW123819   1.131   7.289   6.973
 3781SOL    HW223820   1.258   7.223   6.892
 3782SOL     OW23821   0.097   2.642   2.103
 3782SOL    HW123822   0.165   2.705   2.065
 3782SOL    HW223823   0.045   2.601   2.029
 3783SOL     OW23824   4.872   5.320   3.783
 3783SOL    HW123825   4.907   5.302   3.691
 3783SOL    HW223826   4.943   5.365   3.837
 3784SOL     OW23827   2.760   7.139   5.196
 3784SOL    HW123828   2.720   7.048   5.182
 3784SOL    HW223829   2.729   7.175   5.284
 3785SOL     OW23830   4.623   0.646   0.744
 3785SOL    HW123831   4.720   0.626   0.761
 3785SOL    HW223832   4.606   0.743   0.759
 3786SOL     OW23833   2.693   3.158   3.531
 3786SOL    HW123834   2.667   3.065   3.557
 3786SOL    HW223835   2.785   3.157   3.493
 3787SOL     OW23836   5.400   6.216   4.121
 3787SOL    HW123837   5.487   6.250   4.155
 3787SOL    HW223838   5.413   6.123   4.086
 3788SOL     OW23839   1.377   2.992   1.929
 3788SOL    HW123840   1.467   2.951   1.946
 3788SOL    HW223841   1.308   2.943   1.982
 3789SOL     OW23842   0.450   3.695   6.231
 3789SOL    HW123843   0.469   3.633   6.156
 3789SOL    HW223844   0.474   3.652   6.318
 3790SOL     OW23845   0.770   1.063   6.706
 3790SOL    HW123846   0.686   1.078   6.654
 3790SOL    HW223847   0.806   1.151   6.738
 3791SOL     OW23848   4.628   0.502   5.236
 3791SOL    HW123849   4.689   0.436   5.192
 3791SOL    HW223850   4.533   0.484   5.208
 3792SOL     OW23851   6.303   5.222   5.648
 3792SOL    HW123852   6.334   5.147   5.590
 3792SOL    HW223853   6.206   5.211   5.668
 3793SOL     OW23854   7.163   5.762   6.123
 3793SOL    HW123855   7.206   5.692   6.066
 3793SOL    HW223856   7.227   5.789   6.195
 3794SOL     OW23857   2.632   2.622   3.552
 3794SOL    HW123858   2.599   2.601   3.460
 3794SOL    HW223859   2.651   2.536   3.601
 3795SOL     OW23860   0.234   2.496   4.438
 3795SOL    HW123861   0.240   2.476   4.340
 3795SOL    HW223862   0.285   2.426   4.488
 3796SOL     OW23863   6.033   4.758   3.732
 3796SOL    HW123864   6.043   4.696   3.654
 3796SOL    HW223865   6.008   4.849   3.699
 3797SOL     OW23866   4.273   2.260   3.742
 3797SOL    HW123867   4.208   2.284   3.669
 3797SOL    HW223868   4.239   2.295   3.829
 3798SOL     OW23869   7.128   4.388   5.326
 3798SOL    HW123870   7.156   4.380   5.422
 3798SOL    HW223871   7.182   4.324   5.270
 3799SOL     OW23872   0.295   3.573   7.240
 3799SOL    HW123873   0.327   3.569   7.335
 3799SOL    HW223874   0.221   3.508   7.227
 3800SOL     OW23875   7.137   5.272   5.983
 3800SOL    HW123876   7.047   5.308   6.008
 3800SOL    HW223877   7.180   5.230   6.063
 3801SOL     OW23878   0.627   3.226   7.165
 3801SOL    HW123879   0.606   3.221   7.067
 3801SOL    HW223880   0.552   3.185   7.217
 3802SOL     OW23881   2.411   6.297   0.398
 3802SOL    HW123882   2.360   6.254   0.473
 3802SOL    HW223883   2.348   6.348   0.340
 3803SOL     OW23884   4.511   1.096   6.834
 3803SOL    HW123885   4.422   1.136   6.860
 3803SOL    HW223886   4.579   1.119   6.904
 3804SOL     OW23887   5.994   5.424   6.288
 3804SOL    HW123888   6.004   5.466   6.378
 3804SOL    HW223889   6.068   5.453   6.228
 3805SOL     OW23890   2.064   4.515   5.491
 3805SOL    HW123891   1.992   4.448   5.509
 3805SOL    HW223892   2.026   4.607   5.494
 3806SOL     OW23893   5.146   3.694   5.324
 3806SOL    HW123894   5.171   3.786   5.353
 3806SOL    HW223895   5.173   3.679   5.229
 3807SOL     OW23896   3.246   6.349   5.652
 3807SOL    HW123897   3.298   6.312   5.575
 3807SOL    HW223898   3.304   6.351   5.734
 3808SOL     OW23899   1.974   5.963   5.588
 3808SOL    HW123900   1.957   5.867   5.610
 3808SOL    HW223901   1.918   5.990   5.510
 3809SOL     OW23902   0.777   4.757   7.204
 3809SOL    HW123903   0.767   4.793   7.111
 3809SOL    HW223904   0.767   4.658   7.203
 3810SOL     OW23905   1.395   0.851   4.110
 3810SOL    HW123906   1.353   0.804   4.187
 3810SOL    HW223907   1.494   0.848   4.120
 3811SOL     OW23908   6.462   4.388   4.054
 3811SOL    HW123909   6.419   4.418   4.139
 3811SOL    HW223910   6.536   4.324   4.074
 3812SOL     OW23911   7.246   4.720   5.965
 3812SOL    HW123912   7.192   4.802   5.981
 3812SOL    HW223913   7.294   4.694   6.049
 3813SOL     OW23914   5.553   4.090   5.840
 3813SOL    HW123915   5.551   4.044   5.752
 3813SOL    HW223916   5.555   4.189   5.827
 3814SOL     OW23917   4.519   6.847   2.789
 3814SOL    HW123918   4.531   6.861   2.690
 3814SOL    HW223919   4.445   6.783   2.805
 3815SOL     OW23920   4.906   6.760   3.298
 3815SOL    HW123921   4.871   6.831   3.237
 3815SOL    HW223922   4.886   6.785   3.393
 3816SOL     OW23923   1.265   0.455   2.507
 3816SOL    HW123924   1.227   0.436   2.417
 3816SOL    HW223925   1.269   0.370   2.560
 3817SOL     OW23926   1.985   3.662   1.270
 3817SOL    HW123927   1.952   3.637   1.179
 3817SOL    HW223928   2.082   3.638   1.278
 3818SOL     OW23929   4.128   2.630   1.826
 3818SOL    HW123930   4.184   2.572   1.886
 3818SOL    HW223931   4.188   2.692   1.775
 3819SOL     OW23932   0.201   5.300   6.153
 3819SOL    HW123933   0.294   5.264   6.142
 3819SOL    HW223934   0.191   5.384   6.100
 3820SOL     OW23935   2.820   3.319   5.600
 3820SOL    HW123936   2.849   3.373   5.521
 3820SOL    HW223937   2.893   3.256   5.625
 3821SOL     OW23938   1.343   1.519   0.930
 3821SOL    HW123939   1.330   1.420   0.921
 3821SOL    HW223940   1.407   1.551   0.861
 3822SOL     OW23941   6.178   2.082   5.119
 3822SOL    HW123942   6.123   2.006   5.086
 3822SOL    HW223943   6.152   2.104   5.213
 3823SOL     OW23944   7.067   4.056   4.582
 3823SOL    HW123945   7.143   4.107   4.543
 3823SOL    HW223946   7.007   4.024   4.508
 3824SOL     OW23947   4.417   7.207   6.041
 3824SOL    HW123948   4.321   7.233   6.057
 3824SOL    HW223949   4.477   7.272   6.087
 3825SOL     OW23950   3.742   1.520   6.007
 3825SOL    HW123951   3.830   1.502   5.962
 3825SOL    HW223952   3.734   1.617   6.027
 3826SOL     OW23953   0.721   3.526   1.927
 3826SOL    HW123954   0.725   3.602   1.992
 3826SOL    HW223955   0.770   3.447   1.965
 3827SOL     OW23956   6.907   3.633   4.505
 3827SOL    HW123957   6.987   3.581   4.477
 3827SOL    HW223958   6.854   3.661   4.425
 3828SOL     OW23959   3.248   6.582   2.009
 3828SOL    HW123960   3.228   6.542   1.919
 3828SOL    HW223961   3.162   6.600   2.057
 3829SOL     OW23962   1.630   5.038   3.430
 3829SOL    HW123963   1.574   5.033   3.348
 3829SOL    HW223964   1.699   5.110   3.420
 3830SOL     OW23965   5.736   6.437   6.146
 3830SOL    HW123966   5.675   6.403   6.075
 3830SOL    HW223967   5.770   6.527   6.121
 3831SOL     OW23968   5.118   4.197   3.854
 3831SOL    HW123969   5.213   4.166   3.851
 3831SOL    HW223970   5.080   4.178   3.944
 3832SOL     OW23971   6.081   7.125   3.880
 3832SOL    HW123972   6.130   7.045   3.845
 3832SOL    HW223973   6.049   7.181   3.803
 3833SOL     OW23974   2.368   6.800   6.005
 3833SOL    HW123975   2.310   6.869   5.962
 3833SOL    HW223976   2.400   6.735   5.935
 3834SOL     OW23977   4.157   2.373   0.661
 3834SOL    HW123978   4.117   2.441   0.600
 3834SOL    HW223979   4.207   2.420   0.735
 3835SOL     OW23980   1.618   2.786   1.101
 3835SOL    HW123981   1.686   2.736   1.049
 3835SOL    HW223982   1.569   2.849   1.040
 3836SOL     OW23983   7.046   1.745   4.273
 3836SOL    HW123984   7.030   1.721   4.177
 3836SOL    HW223985   6.977   1.810   4.303
 3837SOL     OW23986   4.403   4.366   3.298
 3837SOL    HW123987   4.344   4.446   3.313
 3837SOL    HW223988   4.412   4.350   3.200
 3838SOL     OW23989   3.027   7.244   6.433
 3838SOL    HW123990   3.091   7.186   6.483
 3838SOL    HW223991   3.077   7.306   6.374
 3839SOL     OW23992   0.955   3.966   7.135
 3839SOL    HW123993   0.871   3.919   7.162
 3839SOL    HW223994   1.032   3.902   7.139
 3840SOL     OW23995   5.196   5.367   5.021
 3840SOL    HW123996   5.152   5.327   4.940
 3840SOL    HW223997   5.215   5.295   5.087
 3841SOL     OW23998   2.466   2.829   0.314
 3841SOL    HW123999   2.529   2.829   0.236
 3841SOL    HW224000   2.518   2.826   0.399
 3842SOL     OW24001   4.769   3.154   2.575
 3842SOL    HW124002   4.853   3.108   2.604
 3842SOL    HW224003   4.702   3.150   2.649
 3843SOL     OW24004   3.432   3.931   5.611
 3843SOL    HW124005   3.352   3.897   5.563
 3843SOL    HW224006   3.513   3.918   5.554
 3844SOL     OW24007   0.563   0.912   0.871
 3844SOL    HW124008   0.476   0.956   0.895
 3844SOL    HW224009   0.622   0.978   0.824
 3845SOL     OW24010   0.221   5.043   1.564
 3845SOL    HW124011   0.230   4.964   1.623
 3845SOL    HW224012   0.203   5.125   1.619
 3846SOL     OW24013   2.854   4.996   1.564
 3846SOL    HW124014   2.794   4.950   1.629
 3846SOL    HW224015   2.833   4.965   1.471
 3847SOL     OW24016   4.877   5.651   6.533
 3847SOL    HW124017   4.896   5.594   6.453
 3847SOL    HW224018   4.942   5.629   6.606
 3848SOL     OW24019   6.850   1.387   0.741
 3848SOL    HW124020   6.768   1.417   0.791
 3848SOL    HW224021   6.824   1.319   0.673
 3849SOL     OW24022   4.647   6.380   3.424
 3849SOL    HW124023   4.705   6.407   3.502
 3849SOL    HW224024   4.685   6.419   3.340
 3850SOL     OW24025   3.882   2.385   2.525
 3850SOL    HW124026   3.842   2.469   2.564
 3850SOL    HW224027   3.822   2.352   2.452
 3851SOL     OW24028   3.143   0.425   4.009
 3851SOL    HW124029   3.109   0.519   4.007
 3851SOL    HW224030   3.239   0.424   3.980
 3852SOL     OW24031   5.383   4.878   6.356
 3852SOL    HW124032   5.440   4.803   6.390
 3852SOL    HW224033   5.429   4.965   6.375
 3853SOL     OW24034   2.865   4.091   0.437
 3853SOL    HW124035   2.890   4.049   0.525
 3853SOL    HW224036   2.875   4.024   0.364
 3854SOL     OW24037   2.248   1.498   0.360
 3854SOL    HW124038   2.240   1.564   0.436
 3854SOL    HW224039   2.318   1.430   0.383
 3855SOL     OW24040   6.686   2.475   1.068
 3855SOL    HW124041   6.754   2.466   1.141
 3855SOL    HW224042   6.685   2.391   1.013
 3856SOL     OW24043   1.205   4.056   0.889
 3856SOL    HW124044   1.175   3.987   0.823
 3856SOL    HW224045   1.138   4.129   0.894
 3857SOL     OW24046   6.002   2.559   3.083
 3857SOL    HW124047   5.940   2.481   3.085
 3857SOL    HW224048   6.058   2.559   3.166
 3858SOL     OW24049   4.172   2.986   3.656
 3858SOL    HW124050   4.126   2.913   3.606
 3858SOL    HW224051   4.271   2.969   3.657
 3859SOL     OW24052   2.974   2.488   5.940
 3859SOL    HW124053   3.001   2.402   5.898
 3859SOL    HW224054   2.932   2.471   6.029
 3860SOL     OW24055   2.786   4.295   5.296
 3860SOL    HW124056   2.798   4.323   5.200
 3860SOL    HW224057   2.859   4.231   5.321
 3861SOL     OW24058   3.354   1.151   5.518
 3861SOL    HW124059   3.289   1.100   5.574
 3861SOL    HW224060   3.389   1.229   5.569
 3862SOL     OW24061   6.136   4.980   2.158
 3862SOL    HW124062   6.108   5.073   2.133
 3862SOL    HW224063   6.206   4.985   2.229
 3863SOL     OW24064   6.181   4.108   1.852
 3863SOL    HW124065   6.108   4.053   1.811
 3863SOL    HW224066   6.270   4.074   1.820
 3864SOL     OW24067   3.413   3.495   3.913
 3864SOL    HW124068   3.373   3.404   3.925
 3864SOL    HW224069   3.410   3.544   4.000
 3865SOL     OW24070   5.257   1.818   2.710
 3865SOL    HW124071   5.253   1.720   2.692
 3865SOL    HW224072   5.340   1.840   2.760
 3866SOL     OW24073   0.369   4.922   2.463
 3866SOL    HW124074   0.353   4.948   2.559
 3866SOL    HW224075   0.318   4.839   2.443
 3867SOL     OW24076   4.126   0.086   2.195
 3867SOL    HW124077   4.105   0.177   2.159
 3867SOL    HW224078   4.061   0.020   2.159
 3868SOL     OW24079   2.937   0.089   6.654
 3868SOL    HW124080   3.011   0.085   6.587
 3868SOL    HW224081   2.910  -0.003   6.680
 3869SOL     OW24082   2.721   6.830   1.511
 3869SOL    HW124083   2.643   6.887   1.484
 3869SOL    HW224084   2.723   6.821   1.610
 3870SOL     OW24085   0.525   0.435   0.599
 3870SOL    HW124086   0.473   0.502   0.653
 3870SOL    HW224087   0.469   0.403   0.523
 3871SOL     OW24088   3.317   7.092   7.274
 3871SOL    HW124089   3.273   7.038   7.345
 3871SOL    HW224090   3.276   7.183   7.270
 3872SOL     OW24091   1.736   3.765   5.884
 3872SOL    HW124092   1.770   3.726   5.798
 3872SOL    HW224093   1.639   3.746   5.893
 3873SOL     OW24094   1.675   3.473   1.544
 3873SOL    HW124095   1.771   3.457   1.525
 3873SOL    HW224096   1.658   3.571   1.553
 3874SOL     OW24097   4.611   1.714   6.128
 3874SOL    HW124098   4.632   1.808   6.103
 3874SOL    HW224099   4.568   1.711   6.219
 3875SOL     OW24100   4.967   3.637   6.791
 3875SOL    HW124101   4.933   3.712   6.736
 3875SOL    HW224102   5.065   3.648   6.806
 3876SOL     OW24103   4.036   1.550   5.963
 3876SOL    HW124104   4.077   1.547   5.872
 3876SOL    HW224105   4.042   1.643   5.999
 3877SOL     OW24106   1.359   3.995   2.133
 3877SOL    HW124107   1.279   4.048   2.103
 3877SOL    HW224108   1.329   3.918   2.189
 3878SOL     OW24109   3.201   3.235   0.752
 3878SOL    HW124110   3.203   3.266   0.657
 3878SOL    HW224111   3.200   3.315   0.813
 3879SOL     OW24112   1.246   3.966   7.355
 3879SOL    HW124113   1.325   3.954   7.295
 3879SOL    HW224114   1.257   4.049   7.409
 3880SOL     OW24115   6.786   3.142   4.490
 3880SOL    HW124116   6.785   3.177   4.584
 3880SOL    HW224117   6.820   3.048   4.489
 3881SOL     OW24118   6.815   4.170   5.095
 3881SOL    HW124119   6.884   4.233   5.058
 3881SOL    HW224120   6.745   4.154   5.026
 3882SOL     OW24121   0.172   3.008   7.151
 3882SOL    HW124122   0.213   3.068   7.219
 3882SOL    HW224123   0.142   2.923   7.195
 3883SOL     OW24124   5.718   6.886   0.337
 3883SOL    HW124125   5.749   6.890   0.242
 3883SOL    HW224126   5.681   6.796   0.357
 3884SOL     OW24127   3.254   5.845   3.188
 3884SOL    HW124128   3.349   5.849   3.221
 3884SOL    HW224129   3.223   5.750   3.187
 3885SOL     OW24130   6.538   7.247   2.454
 3885SOL    HW124131   6.457   7.246   2.513
 3885SOL    HW224132   6.528   7.179   2.382
 3886SOL     OW24133   3.732   5.482   0.608
 3886SOL    HW124134   3.655   5.524   0.560
 3886SOL    HW224135   3.814   5.537   0.595
 3887SOL     OW24136   4.540   6.462   3.770
 3887SOL    HW124137   4.566   6.527   3.841
 3887SOL    HW224138   4.540   6.370   3.808
 3888SOL     OW24139   5.289   0.247   3.343
 3888SOL    HW124140   5.248   0.191   3.415
 3888SOL    HW224141   5.220   0.266   3.273
 3889SOL     OW24142   3.315   1.617   0.912
 3889SOL    HW124143   3.393   1.665   0.871
 3889SOL    HW224144   3.259   1.682   0.963
 3890SOL     OW24145   5.857   5.391   3.130
 3890SOL    HW124146   5.791   5.316   3.123
 3890SOL    HW224147   5.826   5.468   3.074
 3891SOL     OW24148   5.236   3.141   5.018
 3891SOL    HW124149   5.244   3.048   5.055
 3891SOL    HW224150   5.179   3.139   4.936
 3892SOL     OW24151   5.103   4.012   3.191
 3892SOL    HW124152   5.029   4.080   3.196
 3892SOL    HW224153   5.126   3.982   3.284
 3893SOL     OW24154   0.487   0.267   5.359
 3893SOL    HW124155   0.400   0.307   5.388
 3893SOL    HW224156   0.521   0.206   5.430
 3894SOL     OW24157   4.806   3.310   5.044
 3894SOL    HW124158   4.846   3.261   5.122
 3894SOL    HW224159   4.815   3.408   5.059
 3895SOL     OW24160   6.845   3.212   3.612
 3895SOL    HW124161   6.831   3.114   3.595
 3895SOL    HW224162   6.876   3.256   3.527
 3896SOL     OW24163   6.914   0.219   6.243
 3896SOL    HW124164   6.971   0.295   6.212
 3896SOL    HW224165   6.827   0.219   6.193
 3897SOL     OW24166   4.580   0.891   0.845
 3897SOL    HW124167   4.501   0.940   0.808
 3897SOL    HW224168   4.645   0.956   0.882
 3898SOL     OW24169   1.978   4.446   2.528
 3898SOL    HW124170   1.952   4.473   2.621
 3898SOL    HW224171   1.999   4.528   2.475
 3899SOL     OW24172   4.704   6.270   6.811
 3899SOL    HW124173   4.719   6.306   6.718
 3899SOL    HW224174   4.721   6.171   6.811
 3900SOL     OW24175   7.287   7.355   2.375
 3900SOL    HW124176   7.374   7.371   2.421
 3900SOL    HW224177   7.303   7.345   2.276
 3901SOL     OW24178   1.747   2.606   0.955
 3901SOL    HW124179   1.772   2.673   0.885
 3901SOL    HW224180   1.687   2.537   0.915
 3902SOL     OW24181   5.344   0.150   2.869
 3902SOL    HW124182   5.389   0.180   2.785
 3902SOL    HW224183   5.364   0.053   2.885
 3903SOL     OW24184   0.187   2.160   5.960
 3903SOL    HW124185   0.091   2.131   5.965
 3903SOL    HW224186   0.215   2.199   6.047
 3904SOL     OW24187   5.743   1.355   4.307
 3904SOL    HW124188   5.677   1.351   4.232
 3904SOL    HW224189   5.800   1.273   4.307
 3905SOL     OW24190   3.455   2.928   5.856
 3905SOL    HW124191   3.357   2.941   5.847
 3905SOL    HW224192   3.474   2.836   5.890
 3906SOL     OW24193   6.795   5.978   2.130
 3906SOL    HW124194   6.868   5.949   2.068
 3906SOL    HW224195   6.816   5.946   2.222
 3907SOL     OW24196   0.923   3.498   5.275
 3907SOL    HW124197   0.829   3.489   5.243
 3907SOL    HW224198   0.960   3.586   5.245
 3908SOL     OW24199   1.258   0.197   2.607
 3908SOL    HW124200   1.176   0.142   2.621
 3908SOL    HW224201   1.327   0.142   2.560
 3909SOL     OW24202   3.196   2.847   7.085
 3909SOL    HW124203   3.102   2.855   7.054
 3909SOL    HW224204   3.235   2.761   7.052
 3910SOL     OW24205   2.696   7.351   0.850
 3910SOL    HW124206   2.701   7.276   0.784
 3910SOL    HW224207   2.724   7.437   0.805
 3911SOL     OW24208   2.913   0.401   2.445
 3911SOL    HW124209   2.992   0.347   2.472
 3911SOL    HW224210   2.884   0.376   2.353
 3912SOL     OW24211   5.084   4.614   4.658
 3912SOL    HW124212   5.008   4.554   4.682
 3912SOL    HW224213   5.164   4.591   4.712
 3913SOL     OW24214   7.305   3.048   6.541
 3913SOL    HW124215   7.235   3.113   6.512
 3913SOL    HW224216   7.385   3.056   6.482
 3914SOL     OW24217   3.218   3.272   0.490
 3914SOL    HW124218   3.162   3.352   0.469
 3914SOL    HW224219   3.310   3.302   0.516
 3915SOL     OW24220   2.419   4.380   6.688
 3915SOL    HW124221   2.441   4.394   6.591
 3915SOL    HW224222   2.497   4.409   6.744
 3916SOL     OW24223   0.581   1.086   1.663
 3916SOL    HW124224   0.515   1.072   1.589
 3916SOL    HW224225   0.657   1.022   1.653
 3917SOL     OW24226   3.640   3.926   5.400
 3917SOL    HW124227   3.639   4.015   5.354
 3917SOL    HW224228   3.734   3.902   5.425
 3918SOL     OW24229   4.057   4.396   3.643
 3918SOL    HW124230   4.006   4.358   3.566
 3918SOL    HW224231   4.124   4.330   3.675
 3919SOL     OW24232   3.284   1.554   0.643
 3919SOL    HW124233   3.282   1.580   0.739
 3919SOL    HW224234   3.214   1.484   0.626
 3920SOL     OW24235   5.423   3.619   6.630
 3920SOL    HW124236   5.496   3.575   6.578
 3920SOL    HW224237   5.375   3.683   6.571
 3921SOL     OW24238   3.409   2.774   3.908
 3921SOL    HW124239   3.449   2.683   3.903
 3921SOL    HW224240   3.475   2.841   3.874
 3922SOL     OW24241   4.429   0.281   2.415
 3922SOL    HW124242   4.416   0.250   2.509
 3922SOL    HW224243   4.449   0.202   2.357
 3923SOL     OW24244   5.666   2.234   0.797
 3923SOL    HW124245   5.606   2.306   0.834
 3923SOL    HW224246   5.724   2.199   0.870
 3924SOL     OW24247   0.974   3.002   4.502
 3924SOL    HW124248   1.052   3.064   4.495
 3924SOL    HW224249   0.902   3.031   4.440
 3925SOL     OW24250   4.822   2.893   6.562
 3925SOL    HW124251   4.910   2.915   6.604
 3925SOL    HW224252   4.783   2.812   6.606
 3926SOL     OW24253   1.119   0.750   4.041
 3926SOL    HW124254   1.198   0.801   4.074
 3926SOL    HW224255   1.037   0.806   4.051
 3927SOL     OW24256   3.978   5.701   6.544
 3927SOL    HW124257   3.958   5.763   6.468
 3927SOL    HW224258   4.022   5.619   6.510
 3928SOL     OW24259   3.972   6.065   2.944
 3928SOL    HW124260   3.994   5.971   2.972
 3928SOL    HW224261   4.028   6.091   2.866
 3929SOL     OW24262   4.119   6.472   0.369
 3929SOL    HW124263   4.138   6.511   0.278
 3929SOL    HW224264   4.174   6.520   0.437
 3930SOL     OW24265   3.399   3.481   0.244
 3930SOL    HW124266   3.441   3.390   0.235
 3930SOL    HW224267   3.461   3.540   0.296
 3931SOL     OW24268   5.369   2.466   0.003
 3931SOL    HW124269   5.321   2.405  -0.060
 3931SOL    HW224270   5.454   2.498  -0.039
 3932SOL     OW24271   1.588   3.301   7.272
 3932SOL    HW124272   1.564   3.218   7.321
 3932SOL    HW224273   1.652   3.280   7.198
 3933SOL     OW24274   5.036   5.578   3.057
 3933SOL    HW124275   4.982   5.535   3.130
 3933SOL    HW224276   5.121   5.527   3.044
 3934SOL     OW24277   2.574   3.524   5.346
 3934SOL    HW124278   2.620   3.435   5.348
 3934SOL    HW224279   2.475   3.510   5.346
 3935SOL     OW24280   6.130   4.897   1.763
 3935SOL    HW124281   6.043   4.851   1.744
 3935SOL    HW224282   6.116   4.996   1.762
 3936SOL     OW24283   2.800   5.057   3.527
 3936SOL    HW124284   2.852   4.994   3.470
 3936SOL    HW224285   2.776   5.012   3.613
 3937SOL     OW24286   6.198   0.672   5.647
 3937SOL    HW124287   6.195   0.742   5.576
 3937SOL    HW224288   6.110   0.625   5.651
 3938SOL     OW24289   5.700   5.642   1.191
 3938SOL    HW124290   5.708   5.734   1.151
 3938SOL    HW224291   5.779   5.587   1.163
 3939SOL     OW24292   1.816   6.418   6.851
 3939SOL    HW124293   1.885   6.480   6.889
 3939SOL    HW224294   1.802   6.341   6.913
 3940SOL     OW24295   3.080   6.009   1.171
 3940SOL    HW124296   3.061   6.105   1.188
 3940SOL    HW224297   3.058   5.956   1.254
 3941SOL     OW24298   5.228   5.901   6.543
 3941SOL    HW124299   5.201   5.997   6.543
 3941SOL    HW224300   5.303   5.886   6.607
 3942SOL     OW24301   3.321   0.159   1.858
 3942SOL    HW124302   3.390   0.125   1.921
 3942SOL    HW224303   3.339   0.255   1.837
 3943SOL     OW24304   6.562   6.382   1.196
 3943SOL    HW124305   6.527   6.475   1.203
 3943SOL    HW224306   6.648   6.381   1.146
 3944SOL     OW24307   2.192   1.788   6.737
 3944SOL    HW124308   2.262   1.792   6.665
 3944SOL    HW224309   2.214   1.713   6.800
 3945SOL     OW24310   2.510   2.851   4.124
 3945SOL    HW124311   2.430   2.871   4.068
 3945SOL    HW224312   2.523   2.924   4.191
 3946SOL     OW24313   3.540   6.025   5.369
 3946SOL    HW124314   3.498   5.987   5.286
 3946SOL    HW224315   3.478   6.091   5.411
 3947SOL     OW24316   2.197   4.683   1.292
 3947SOL    HW124317   2.274   4.631   1.329
 3947SOL    HW224318   2.142   4.623   1.233
 3948SOL     OW24319   5.234   6.557   6.784
 3948SOL    HW124320   5.206   6.568   6.879
 3948SOL    HW224321   5.278   6.468   6.773
 3949SOL     OW24322   4.004   3.093   6.799
 3949SOL    HW124323   3.907   3.067   6.799
 3949SOL    HW224324   4.054   3.033   6.861
 3950SOL     OW24325   4.209   1.150   5.292
 3950SOL    HW124326   4.261   1.098   5.361
 3950SOL    HW224327   4.232   1.247   5.300
 3951SOL     OW24328   3.495   2.732   1.068
 3951SOL    HW124329   3.448   2.814   1.100
 3951SOL    HW224330   3.524   2.745   0.973
 3952SOL     OW24331   0.284   5.297   3.772
 3952SOL    HW124332   0.192   5.272   3.744
 3952SOL    HW224333   0.328   5.220   3.818
 3953SOL     OW24334   2.582   2.868   3.279
 3953SOL    HW124335   2.676   2.835   3.288
 3953SOL    HW224336   2.549   2.901   3.368
 3954SOL     OW24337   6.147   6.927   0.461
 3954SOL    HW124338   6.166   6.867   0.539
 3954SOL    HW224339   6.234   6.951   0.417
 3955SOL     OW24340   3.581   5.700   1.917
 3955SOL    HW124341   3.678   5.721   1.912
 3955SOL    HW224342   3.543   5.697   1.824
 3956SOL     OW24343   2.627   6.514   4.199
 3956SOL    HW124344   2.635   6.457   4.281
 3956SOL    HW224345   2.629   6.611   4.225
 3957SOL     OW24346   0.003   3.827   7.109
 3957SOL    HW124347  -0.078   3.802   7.056
 3957SOL    HW224348  -0.025   3.864   7.197
 3958SOL     OW24349   1.328   4.782   6.715
 3958SOL    HW124350   1.275   4.730   6.782
 3958SOL    HW224351   1.414   4.735   6.696
 3959SOL     OW24352   1.530   6.306   0.291
 3959SOL    HW124353   1.627   6.283   0.286
 3959SOL    HW224354   1.519   6.389   0.346
 3960SOL     OW24355   5.308   4.608   1.368
 3960SOL    HW124356   5.214   4.640   1.357
 3960SOL    HW224357   5.313   4.510   1.350
 3961SOL     OW24358   0.377   0.284   3.242
 3961SOL    HW124359   0.342   0.376   3.226
 3961SOL    HW224360   0.474   0.289   3.266
 3962SOL     OW24361   5.532   3.969   5.358
 3962SOL    HW124362   5.568   3.910   5.286
 3962SOL    HW224363   5.433   3.977   5.349
 3963SOL     OW24364   5.496   5.715   1.971
 3963SOL    HW124365   5.406   5.682   2.000
 3963SOL    HW224366   5.511   5.807   2.009
 3964SOL     OW24367   2.787   0.445   6.920
 3964SOL    HW124368   2.847   0.500   6.977
 3964SOL    HW224369   2.719   0.505   6.876
 3965SOL     OW24370   4.738   4.721   1.584
 3965SOL    HW124371   4.735   4.681   1.492
 3965SOL    HW224372   4.694   4.811   1.582
 3966SOL     OW24373   5.574   6.568   2.565
 3966SOL    HW124374   5.575   6.663   2.595
 3966SOL    HW224375   5.491   6.523   2.598
 3967SOL     OW24376   2.388   3.541   0.434
 3967SOL    HW124377   2.320   3.544   0.362
 3967SOL    HW224378   2.420   3.447   0.447
 3968SOL     OW24379   3.063   3.758   0.760
 3968SOL    HW124380   3.154   3.800   0.752
 3968SOL    HW224381   2.999   3.806   0.701
 3969SOL     OW24382   1.468   6.635   6.622
 3969SOL    HW124383   1.505   6.554   6.577
 3969SOL    HW224384   1.426   6.695   6.553
 3970SOL     OW24385   2.644   5.483   0.296
 3970SOL    HW124386   2.626   5.567   0.347
 3970SOL    HW224387   2.742   5.464   0.295
 3971SOL     OW24388   1.801   1.764   0.349
 3971SOL    HW124389   1.728   1.713   0.305
 3971SOL    HW224390   1.854   1.703   0.408
 3972SOL     OW24391   0.372   4.418   6.351
 3972SOL    HW124392   0.302   4.432   6.281
 3972SOL    HW224393   0.458   4.460   6.320
 3973SOL     OW24394   6.488   6.817   2.132
 3973SOL    HW124395   6.555   6.868   2.077
 3973SOL    HW224396   6.521   6.723   2.144
 3974SOL     OW24397   5.338   3.853   1.541
 3974SOL    HW124398   5.264   3.892   1.486
 3974SOL    HW224399   5.426   3.886   1.507
 3975SOL     OW24400   7.257   0.265   2.621
 3975SOL    HW124401   7.243   0.212   2.537
 3975SOL    HW224402   7.354   0.266   2.644
 3976SOL     OW24403   5.041   5.205   6.967
 3976SOL    HW124404   5.012   5.272   7.035
 3976SOL    HW224405   5.140   5.211   6.953
 3977SOL     OW24406   3.167   3.531   2.143
 3977SOL    HW124407   3.127   3.518   2.234
 3977SOL    HW224408   3.153   3.626   2.115
 3978SOL     OW24409   7.118   1.198   7.177
 3978SOL    HW124410   7.087   1.188   7.272
 3978SOL    HW224411   7.212   1.165   7.169
 3979SOL     OW24412   3.024   2.239   5.783
 3979SOL    HW124413   3.082   2.202   5.856
 3979SOL    HW224414   3.071   2.229   5.695
 3980SOL     OW24415   7.039   2.443   2.778
 3980SOL    HW124416   7.057   2.542   2.781
 3980SOL    HW224417   6.945   2.426   2.805
 3981SOL     OW24418   5.241   5.953   1.924
 3981SOL    HW124419   5.164   5.917   1.975
 3981SOL    HW224420   5.326   5.936   1.974
 3982SOL     OW24421   0.506   3.035   4.431
 3982SOL    HW124422   0.492   2.949   4.383
 3982SOL    HW224423   0.419   3.066   4.469
 3983SOL     OW24424   5.797   5.282   2.105
 3983SOL    HW124425   5.756   5.367   2.138
 3983SOL    HW224426   5.767   5.205   2.162
 3984SOL     OW24427   5.922   4.712   1.181
 3984SOL    HW124428   5.969   4.633   1.144
 3984SOL    HW224429   5.954   4.795   1.134
 3985SOL     OW24430   5.732   1.315   7.324
 3985SOL    HW124431   5.670   1.390   7.349
 3985SOL    HW224432   5.713   1.235   7.380
 3986SOL     OW24433   3.150   3.328   5.701
 3986SOL    HW124434   3.101   3.415   5.698
 3986SOL    HW224435   3.113   3.267   5.631
 3987SOL     OW24436   4.378   1.234   4.176
 3987SOL    HW124437   4.443   1.256   4.248
 3987SOL    HW224438   4.403   1.283   4.093
 3988SOL     OW24439   2.835   5.130   1.021
 3988SOL    HW124440   2.757   5.180   0.982
 3988SOL    HW224441   2.920   5.179   0.999
 3989SOL     OW24442   7.249   0.340   0.357
 3989SOL    HW124443   7.259   0.300   0.448
 3989SOL    HW224444   7.230   0.438   0.365
 3990SOL     OW24445   4.153   6.805   0.196
 3990SOL    HW124446   4.243   6.797   0.238
 3990SOL    HW224447   4.143   6.896   0.155
 3991SOL     OW24448   7.298   2.607   1.811
 3991SOL    HW124449   7.283   2.613   1.712
 3991SOL    HW224450   7.335   2.517   1.834
 3992SOL     OW24451   2.655   6.636   2.376
 3992SOL    HW124452   2.735   6.582   2.350
 3992SOL    HW224453   2.614   6.599   2.459
 3993SOL     OW24454   6.221   3.784   3.159
 3993SOL    HW124455   6.146   3.795   3.223
 3993SOL    HW224456   6.308   3.798   3.207
 3994SOL     OW24457   0.027   1.731   2.842
 3994SOL    HW124458   0.066   1.684   2.763
 3994SOL    HW224459   0.080   1.813   2.862
 3995SOL     OW24460   4.101   0.891   4.164
 3995SOL    HW124461   4.109   0.905   4.065
 3995SOL    HW224462   4.064   0.800   4.182
 3996SOL     OW24463   5.533   0.773   0.039
 3996SOL    HW124464   5.455   0.827   0.069
 3996SOL    HW224465   5.562   0.712   0.112
 3997SOL     OW24466   6.761   2.649   4.497
 3997SOL    HW124467   6.836   2.583   4.500
 3997SOL    HW224468   6.718   2.646   4.406
 3998SOL     OW24469   0.197   1.969   1.808
 3998SOL    HW124470   0.131   1.951   1.880
 3998SOL    HW224471   0.228   1.882   1.768
 3999SOL     OW24472   7.117   3.044   0.062
 3999SOL    HW124473   7.072   2.963   0.100
 3999SOL    HW224474   7.082   3.126   0.107
 4000SOL     OW24475   1.300   2.726   7.104
 4000SOL    HW124476   1.342   2.675   7.179
 4000SOL    HW224477   1.284   2.664   7.026
 4001SOL     OW24478   1.236   3.517   0.295
 4001SOL    HW124479   1.289   3.432   0.284
 4001SOL    HW224480   1.221   3.559   0.205
 4002SOL     OW24481   3.750   6.752   1.712
 4002SOL    HW124482   3.750   6.839   1.761
 4002SOL    HW224483   3.664   6.704   1.730
 4003SOL     OW24484   6.664   1.675   4.405
 4003SOL    HW124485   6.575   1.646   4.438
 4003SOL    HW224486   6.716   1.596   4.373
 4004SOL     OW24487   0.920   7.015   0.607
 4004SOL    HW124488   0.925   7.055   0.516
 4004SOL    HW224489   1.012   7.012   0.647
 4005SOL     OW24490   4.067   3.500   1.682
 4005SOL    HW124491   3.987   3.459   1.725
 4005SOL    HW224492   4.039   3.578   1.626
 4006SOL     OW24493   0.880   5.341   2.884
 4006SOL    HW124494   0.929   5.259   2.911
 4006SOL    HW224495   0.927   5.422   2.919
 4007SOL     OW24496   2.032   7.217   6.049
 4007SOL    HW124497   1.965   7.269   5.996
 4007SOL    HW224498   1.985   7.173   6.126
 4008SOL     OW24499   3.428   4.680   5.601
 4008SOL    HW124500   3.391   4.706   5.511
 4008SOL    HW224501   3.353   4.666   5.665
 4009SOL     OW24502   4.751   0.152   6.820
 4009SOL    HW124503   4.697   0.231   6.849
 4009SOL    HW224504   4.836   0.148   6.873
 4010SOL     OW24505   2.205   0.763   0.430
 4010SOL    HW124506   2.301   0.787   0.444
 4010SOL    HW224507   2.168   0.721   0.513
 4011SOL     OW24508   2.916   1.509   1.040
 4011SOL    HW124509   2.998   1.459   1.011
 4011SOL    HW224510   2.862   1.451   1.101
 4012SOL     OW24511   2.732   7.174   7.127
 4012SOL    HW124512   2.776   7.113   7.193
 4012SOL    HW224513   2.799   7.239   7.091
 4013SOL     OW24514   5.761   0.830   3.889
 4013SOL    HW124515   5.801   0.896   3.952
 4013SOL    HW224516   5.728   0.878   3.807
 4014SOL     OW24517   3.626   1.166   1.028
 4014SOL    HW124518   3.634   1.103   0.950
 4014SOL    HW224519   3.681   1.247   1.010
 4015SOL     OW24520   5.525   4.097   3.069
 4015SOL    HW124521   5.560   4.063   2.982
 4015SOL    HW224522   5.566   4.045   3.144
 4016SOL     OW24523   6.728   4.421   4.495
 4016SOL    HW124524   6.632   4.414   4.468
 4016SOL    HW224525   6.786   4.402   4.415
 4017SOL     OW24526   3.868   1.780   2.779
 4017SOL    HW124527   3.916   1.704   2.822
 4017SOL    HW224528   3.770   1.763   2.782
 4018SOL     OW24529   2.129   5.304   0.170
 4018SOL    HW124530   2.071   5.371   0.122
 4018SOL    HW224531   2.225   5.322   0.149
 4019SOL     OW24532   3.698   4.978   5.962
 4019SOL    HW124533   3.691   4.972   6.062
 4019SOL    HW224534   3.793   4.997   5.937
 4020SOL     OW24535   2.875   5.695   2.484
 4020SOL    HW124536   2.809   5.626   2.512
 4020SOL    HW224537   2.842   5.785   2.513
 4021SOL     OW24538   7.319   2.010   4.002
 4021SOL    HW124539   7.221   2.024   3.987
 4021SOL    HW224540   7.333   1.960   4.087
 4022SOL     OW24541   2.956   4.231   7.236
 4022SOL    HW124542   2.941   4.135   7.260
 4022SOL    HW224543   3.035   4.266   7.285
 4023SOL     OW24544   4.610   4.587   2.194
 4023SOL    HW124545   4.617   4.487   2.187
 4023SOL    HW224546   4.639   4.616   2.285
 4024SOL     OW24547   0.260   6.948   7.009
 4024SOL    HW124548   0.225   6.920   7.099
 4024SOL    HW224549   0.187   6.943   6.941
 4025SOL     OW24550   3.814   5.058   0.544
 4025SOL    HW124551   3.813   4.965   0.579
 4025SOL    HW224552   3.803   5.056   0.444
 4026SOL     OW24553   3.199   0.657   0.882
 4026SOL    HW124554   3.109   0.689   0.851
 4026SOL    HW224555   3.256   0.736   0.905
 4027SOL     OW24556   1.502   4.262   2.648
 4027SOL    HW124557   1.485   4.204   2.568
 4027SOL    HW224558   1.599   4.257   2.673
 4028SOL     OW24559   0.276   0.429   5.487
 4028SOL    HW124560   0.183   0.392   5.495
 4028SOL    HW224561   0.271   0.522   5.451
 4029SOL     OW24562   0.110   4.354   5.901
 4029SOL    HW124563   0.156   4.404   5.975
 4029SOL    HW224564   0.142   4.388   5.813
 4030SOL     OW24565   3.828   4.949   1.277
 4030SOL    HW124566   3.894   4.983   1.210
 4030SOL    HW224567   3.853   4.857   1.305
 4031SOL     OW24568   1.244   5.371   6.582
 4031SOL    HW124569   1.238   5.471   6.589
 4031SOL    HW224570   1.274   5.346   6.490
 4032SOL     OW24571   3.489   4.171   4.194
 4032SOL    HW124572   3.544   4.174   4.277
 4032SOL    HW224573   3.392   4.166   4.218
 4033SOL     OW24574   5.155   3.917   6.934
 4033SOL    HW124575   5.180   3.823   6.911
 4033SOL    HW224576   5.237   3.974   6.934
 4034SOL     OW24577   6.069   7.195   6.548
 4034SOL    HW124578   6.163   7.225   6.532
 4034SOL    HW224579   6.017   7.202   6.462
 4035SOL     OW24580   5.728   3.282   6.684
 4035SOL    HW124581   5.633   3.276   6.713
 4035SOL    HW224582   5.733   3.327   6.595
 4036SOL     OW24583   0.448   3.994   1.293
 4036SOL    HW124584   0.487   3.915   1.246
 4036SOL    HW224585   0.399   4.052   1.227
 4037SOL     OW24586   3.506   2.678   0.770
 4037SOL    HW124587   3.511   2.600   0.707
 4037SOL    HW224588   3.521   2.762   0.719
 4038SOL     OW24589   5.878   3.799   0.981
 4038SOL    HW124590   5.804   3.770   0.920
 4038SOL    HW224591   5.965   3.765   0.947
 4039SOL     OW24592   5.279   0.400   2.571
 4039SOL    HW124593   5.265   0.324   2.509
 4039SOL    HW224594   5.217   0.393   2.649
 4040SOL     OW24595   0.839   0.468   1.868
 4040SOL    HW124596   0.888   0.473   1.955
 4040SOL    HW224597   0.778   0.546   1.860
 4041SOL     OW24598   2.130   4.504   6.363
 4041SOL    HW124599   2.155   4.407   6.368
 4041SOL    HW224600   2.091   4.533   6.450
 4042SOL     OW24601   3.524   3.325   2.370
 4042SOL    HW124602   3.458   3.366   2.434
 4042SOL    HW224603   3.499   3.348   2.276
 4043SOL     OW24604   6.354   5.268   4.302
 4043SOL    HW124605   6.402   5.293   4.386
 4043SOL    HW224606   6.378   5.174   4.277
 4044SOL     OW24607   4.373   7.001   4.312
 4044SOL    HW124608   4.319   7.084   4.329
 4044SOL    HW224609   4.312   6.926   4.287
 4045SOL     OW24610   5.720   6.744   4.363
 4045SOL    HW124611   5.633   6.762   4.317
 4045SOL    HW224612   5.758   6.658   4.330
 4046SOL     OW24613   1.848   4.397   2.243
 4046SOL    HW124614   1.834   4.302   2.273
 4046SOL    HW224615   1.794   4.414   2.161
 4047SOL     OW24616   3.477   6.201   2.430
 4047SOL    HW124617   3.500   6.184   2.525
 4047SOL    HW224618   3.462   6.114   2.382
 4048SOL     OW24619   2.830   2.288   4.455
 4048SOL    HW124620   2.768   2.332   4.390
 4048SOL    HW224621   2.781   2.217   4.505
 4049SOL     OW24622   1.171   2.852   7.322
 4049SOL    HW124623   1.205   2.775   7.268
 4049SOL    HW224624   1.155   2.930   7.261
 4050SOL     OW24625   4.416   1.491   6.036
 4050SOL    HW124626   4.496   1.435   6.014
 4050SOL    HW224627   4.442   1.558   6.106
 4051SOL     OW24628   2.753   6.352   5.390
 4051SOL    HW124629   2.662   6.339   5.351
 4051SOL    HW224630   2.744   6.391   5.481
 4052SOL     OW24631   5.577   3.516   6.431
 4052SOL    HW124632   5.664   3.490   6.388
 4052SOL    HW224633   5.508   3.447   6.411
 4053SOL     OW24634   6.562   6.481   5.630
 4053SOL    HW124635   6.523   6.542   5.700
 4053SOL    HW224636   6.581   6.533   5.547
 4054SOL     OW24637   1.484   2.945   4.949
 4054SOL    HW124638   1.476   3.012   4.875
 4054SOL    HW224639   1.505   2.855   4.911
 4055SOL     OW24640   3.524   4.053   0.719
 4055SOL    HW124641   3.491   4.147   0.718
 4055SOL    HW224642   3.601   4.045   0.783
 4056SOL     OW24643   6.902   1.415   1.536
 4056SOL    HW124644   7.000   1.408   1.551
 4056SOL    HW224645   6.861   1.474   1.605
 4057SOL     OW24646   3.995   6.160   3.197
 4057SOL    HW124647   3.979   6.088   3.265
 4057SOL    HW224648   3.986   6.121   3.105
 4058SOL     OW24649   5.048   0.328   6.633
 4058SOL    HW124650   5.131   0.348   6.581
 4058SOL    HW224651   5.059   0.359   6.727
 4059SOL     OW24652   5.612   0.721   6.972
 4059SOL    HW124653   5.534   0.694   7.029
 4059SOL    HW224654   5.603   0.817   6.947
 4060SOL     OW24655   6.623   6.249   2.178
 4060SOL    HW124656   6.688   6.182   2.143
 4060SOL    HW224657   6.650   6.277   2.270
 4061SOL     OW24658   5.842   6.892   2.979
 4061SOL    HW124659   5.907   6.967   2.995
 4061SOL    HW224660   5.887   6.822   2.923
 4062SOL     OW24661   0.002   6.593   2.898
 4062SOL    HW124662   0.044   6.669   2.947
 4062SOL    HW224663   0.037   6.507   2.936
 4063SOL     OW24664   0.396   3.339   4.279
 4063SOL    HW124665   0.359   3.398   4.351
 4063SOL    HW224666   0.488   3.308   4.304
 4064SOL     OW24667   5.075   2.575   3.617
 4064SOL    HW124668   5.141   2.649   3.615
 4064SOL    HW224669   5.107   2.503   3.679
 4065SOL     OW24670   6.752   5.804   0.715
 4065SOL    HW124671   6.726   5.775   0.807
 4065SOL    HW224672   6.681   5.778   0.650
 4066SOL     OW24673   5.592   0.236   1.374
 4066SOL    HW124674   5.527   0.220   1.449
 4066SOL    HW224675   5.541   0.264   1.293
 4067SOL     OW24676   0.569   4.582   6.293
 4067SOL    HW124677   0.592   4.614   6.201
 4067SOL    HW224678   0.589   4.654   6.359
 4068SOL     OW24679   3.794   1.050   2.475
 4068SOL    HW124680   3.843   1.133   2.448
 4068SOL    HW224681   3.830   1.017   2.562
 4069SOL     OW24682   5.603   3.068   1.165
 4069SOL    HW124683   5.531   3.074   1.234
 4069SOL    HW224684   5.664   2.991   1.187
 4070SOL     OW24685   6.447   7.073   2.215
 4070SOL    HW124686   6.444   6.973   2.217
 4070SOL    HW224687   6.526   7.103   2.161
 4071SOL     OW24688   5.915   1.236   0.524
 4071SOL    HW124689   5.903   1.139   0.548
 4071SOL    HW224690   6.013   1.258   0.524
 4072SOL     OW24691   7.260   5.755   2.578
 4072SOL    HW124692   7.245   5.801   2.491
 4072SOL    HW224693   7.253   5.822   2.652
 4073SOL     OW24694   3.310   2.005   6.649
 4073SOL    HW124695   3.238   1.994   6.717
 4073SOL    HW224696   3.283   1.959   6.564
 4074SOL     OW24697   0.686   4.904   1.590
 4074SOL    HW124698   0.593   4.936   1.577
 4074SOL    HW224699   0.730   4.892   1.500
 4075SOL     OW24700   4.930   1.282   5.403
 4075SOL    HW124701   4.883   1.357   5.356
 4075SOL    HW224702   5.021   1.270   5.362
 4076SOL     OW24703   1.327   3.838   0.984
 4076SOL    HW124704   1.290   3.926   0.954
 4076SOL    HW224705   1.426   3.836   0.969
 4077SOL     OW24706   1.638   3.643   7.088
 4077SOL    HW124707   1.696   3.646   7.170
 4077SOL    HW224708   1.575   3.565   7.095
 4078SOL     OW24709   2.524   1.584   3.658
 4078SOL    HW124710   2.606   1.640   3.649
 4078SOL    HW224711   2.444   1.644   3.663
 4079SOL     OW24712   1.392   5.063   3.581
 4079SOL    HW124713   1.378   5.061   3.680
 4079SOL    HW224714   1.487   5.039   3.560
 4080SOL     OW24715   4.219   5.266   3.669
 4080SOL    HW124716   4.290   5.223   3.614
 4080SOL    HW224717   4.151   5.198   3.696
 4081SOL     OW24718   4.258   5.495   3.531
 4081SOL    HW124719   4.209   5.500   3.444
 4081SOL    HW224720   4.217   5.424   3.588
 4082SOL     OW24721   0.351   4.832   1.748
 4082SOL    HW124722   0.439   4.835   1.795
 4082SOL    HW224723   0.324   4.737   1.734
 4083SOL     OW24724   7.017   3.636   6.786
 4083SOL    HW124725   6.919   3.627   6.770
 4083SOL    HW224726   7.058   3.546   6.797
 4084SOL     OW24727   5.064   4.914   1.293
 4084SOL    HW124728   5.163   4.925   1.286
 4084SOL    HW224729   5.039   4.892   1.387
 4085SOL     OW24730   1.339   3.501   6.251
 4085SOL    HW124731   1.428   3.463   6.223
 4085SOL    HW224732   1.353   3.579   6.311
 4086SOL     OW24733   5.787   5.996   4.729
 4086SOL    HW124734   5.703   5.965   4.686
 4086SOL    HW224735   5.850   5.918   4.739
 4087SOL     OW24736   3.766   2.708   2.055
 4087SOL    HW124737   3.675   2.712   2.096
 4087SOL    HW224738   3.791   2.613   2.037
 4088SOL     OW24739   5.320   3.260   7.049
 4088SOL    HW124740   5.234   3.213   7.027
 4088SOL    HW224741   5.318   3.289   7.144
 4089SOL     OW24742   3.655   6.502   7.133
 4089SOL    HW124743   3.654   6.566   7.209
 4089SOL    HW224744   3.683   6.550   7.049
 4090SOL     OW24745   1.518   4.597   3.300
 4090SOL    HW124746   1.585   4.531   3.266
 4090SOL    HW224747   1.427   4.571   3.267
 4091SOL     OW24748   0.569   3.747   0.906
 4091SOL    HW124749   0.644   3.703   0.856
 4091SOL    HW224750   0.531   3.821   0.851
 4092SOL     OW24751   1.567   4.695   0.247
 4092SOL    HW124752   1.644   4.698   0.312
 4092SOL    HW224753   1.589   4.632   0.173
 4093SOL     OW24754   2.609   0.835   1.286
 4093SOL    HW124755   2.666   0.820   1.367
 4093SOL    HW224756   2.658   0.803   1.204
 4094SOL     OW24757   3.946   2.436   7.096
 4094SOL    HW124758   3.925   2.441   7.193
 4094SOL    HW224759   3.989   2.348   7.076
 4095SOL     OW24760   3.207   0.773   2.356
 4095SOL    HW124761   3.213   0.746   2.260
 4095SOL    HW224762   3.130   0.726   2.400
 4096SOL     OW24763   0.623   5.659   1.339
 4096SOL    HW124764   0.552   5.634   1.273
 4096SOL    HW224765   0.703   5.692   1.289
 4097SOL     OW24766   0.131   1.896   5.393
 4097SOL    HW124767   0.130   1.797   5.378
 4097SOL    HW224768   0.214   1.921   5.443
 4098SOL     OW24769   1.219   2.059   3.495
 4098SOL    HW124770   1.312   2.087   3.520
 4098SOL    HW224771   1.217   1.961   3.478
 4099SOL     OW24772   3.099   2.994   7.314
 4099SOL    HW124773   3.135   2.911   7.271
 4099SOL    HW224774   3.066   3.056   7.243
 4100SOL     OW24775   5.935   4.957   2.428
 4100SOL    HW124776   6.027   4.982   2.398
 4100SOL    HW224777   5.940   4.890   2.502
 4101SOL     OW24778   1.458   5.971   5.301
 4101SOL    HW124779   1.531   5.926   5.249
 4101SOL    HW224780   1.378   5.984   5.242
 4102SOL     OW24781   2.228   3.740   0.629
 4102SOL    HW124782   2.246   3.800   0.551
 4102SOL    HW224783   2.279   3.655   0.618
 4103SOL     OW24784   0.919   1.983   1.283
 4103SOL    HW124785   0.960   2.067   1.246
 4103SOL    HW224786   0.855   1.945   1.216
 4104SOL     OW24787   1.828   5.639   4.254
 4104SOL    HW124788   1.925   5.648   4.276
 4104SOL    HW224789   1.795   5.549   4.283
 4105SOL     OW24790   0.148   3.172   0.800
 4105SOL    HW124791   0.212   3.095   0.793
 4105SOL    HW224792   0.067   3.154   0.744
 4106SOL     OW24793   2.876   2.669   0.439
 4106SOL    HW124794   2.975   2.675   0.446
 4106SOL    HW224795   2.850   2.643   0.346
 4107SOL     OW24796   5.808   2.492   0.482
 4107SOL    HW124797   5.834   2.458   0.391
 4107SOL    HW224798   5.776   2.587   0.474
 4108SOL     OW24799   4.196   2.769   7.277
 4108SOL    HW124800   4.108   2.780   7.230
 4108SOL    HW224801   4.182   2.725   7.365
 4109SOL     OW24802   5.371   4.547   0.589
 4109SOL    HW124803   5.329   4.634   0.615
 4109SOL    HW224804   5.299   4.482   0.565
 4110SOL     OW24805   0.646   3.590   1.657
 4110SOL    HW124806   0.658   3.670   1.598
 4110SOL    HW224807   0.682   3.611   1.749
 4111SOL     OW24808   1.909   0.842   3.300
 4111SOL    HW124809   1.911   0.845   3.400
 4111SOL    HW224810   1.999   0.864   3.264
 4112SOL     OW24811   4.968   3.795   1.235
 4112SOL    HW124812   4.966   3.759   1.141
 4112SOL    HW224813   4.875   3.798   1.271
 4113SOL     OW24814   1.221   2.602   5.629
 4113SOL    HW124815   1.126   2.613   5.658
 4113SOL    HW224816   1.240   2.664   5.553
 4114SOL     OW24817   3.402   4.316   0.267
 4114SOL    HW124818   3.331   4.250   0.291
 4114SOL    HW224819   3.452   4.284   0.186
 4115SOL     OW24820   3.450   5.073   2.999
 4115SOL    HW124821   3.413   5.165   2.989
 4115SOL    HW224822   3.420   5.016   2.922
 4116SOL     OW24823   1.322   5.309   0.321
 4116SOL    HW124824   1.310   5.235   0.388
 4116SOL    HW224825   1.362   5.389   0.366
 4117SOL     OW24826   3.734   1.730   4.909
 4117SOL    HW124827   3.667   1.782   4.856
 4117SOL    HW224828   3.736   1.635   4.876
 4118SOL     OW24829   2.694   3.992   3.105
 4118SOL    HW124830   2.706   3.939   3.021
 4118SOL    HW224831   2.724   4.086   3.090
 4119SOL     OW24832   2.242   3.338   2.491
 4119SOL    HW124833   2.144   3.348   2.472
 4119SOL    HW224834   2.272   3.411   2.553
 4120SOL     OW24835   3.201   5.978   7.018
 4120SOL    HW124836   3.127   6.007   6.957
 4120SOL    HW224837   3.204   6.039   7.098
 4121SOL     OW24838   3.241   4.210   2.315
 4121SOL    HW124839   3.297   4.201   2.232
 4121SOL    HW224840   3.266   4.295   2.362
 4122SOL     OW24841   0.968   5.968   3.816
 4122SOL    HW124842   1.000   5.887   3.866
 4122SOL    HW224843   0.940   6.038   3.882
 4123SOL     OW24844   3.534   2.345   1.384
 4123SOL    HW124845   3.449   2.372   1.429
 4123SOL    HW224846   3.597   2.423   1.381
 4124SOL     OW24847   3.389   1.298   0.975
 4124SOL    HW124848   3.470   1.248   1.006
 4124SOL    HW224849   3.414   1.393   0.957
 4125SOL     OW24850   4.799   2.843   6.151
 4125SOL    HW124851   4.843   2.757   6.179
 4125SOL    HW224852   4.745   2.827   6.069
 4126SOL     OW24853   2.553   2.007   0.972
 4126SOL    HW124854   2.537   2.064   0.891
 4126SOL    HW224855   2.489   1.930   0.970
 4127SOL     OW24856   2.614   6.246   2.062
 4127SOL    HW124857   2.551   6.199   2.123
 4127SOL    HW224858   2.568   6.324   2.019
 4128SOL     OW24859   6.318   3.578   5.398
 4128SOL    HW124860   6.230   3.608   5.362
 4128SOL    HW224861   6.383   3.655   5.397
 4129SOL     OW24862   5.672   3.035   4.935
 4129SOL    HW124863   5.594   2.992   4.890
 4129SOL    HW224864   5.725   2.966   4.983
 4130SOL     OW24865   3.270   7.021   4.208
 4130SOL    HW124866   3.231   6.943   4.160
 4130SOL    HW224867   3.202   7.095   4.212
 4131SOL     OW24868   3.574   4.476   3.130
 4131SOL    HW124869   3.527   4.484   3.218
 4131SOL    HW224870   3.585   4.380   3.106
 4132SOL     OW24871   1.431   4.056   3.501
 4132SOL    HW124872   1.524   4.071   3.536
 4132SOL    HW224873   1.370   4.127   3.534
 4133SOL     OW24874   3.941   3.382   3.428
 4133SOL    HW124875   3.930   3.283   3.428
 4133SOL    HW224876   3.992   3.410   3.346
 4134SOL     OW24877   5.171   1.353   3.815
 4134SOL    HW124878   5.165   1.419   3.890
 4134SOL    HW224879   5.262   1.359   3.773
 4135SOL     OW24880   2.897   6.386   0.763
 4135SOL    HW124881   2.916   6.420   0.854
 4135SOL    HW224882   2.979   6.393   0.706
 4136SOL     OW24883   2.176   3.716   6.814
 4136SOL    HW124884   2.228   3.754   6.889
 4136SOL    HW224885   2.118   3.641   6.848
 4137SOL     OW24886   4.944   2.652   2.412
 4137SOL    HW124887   4.927   2.747   2.439
 4137SOL    HW224888   4.996   2.605   2.483
 4138SOL     OW24889   5.137   0.679   1.927
 4138SOL    HW124890   5.219   0.692   1.984
 4138SOL    HW224891   5.151   0.720   1.838
 4139SOL     OW24892   2.300   0.028   0.546
 4139SOL    HW124893   2.222   0.032   0.608
 4139SOL    HW224894   2.267   0.003   0.454
 4140SOL     OW24895   3.208   1.575   1.721
 4140SOL    HW124896   3.148   1.550   1.797
 4140SOL    HW224897   3.303   1.565   1.749
 4141SOL     OW24898   4.003   3.279   0.758
 4141SOL    HW124899   3.918   3.315   0.796
 4141SOL    HW224900   3.984   3.232   0.671
 4142SOL     OW24901   2.238   3.248   6.622
 4142SOL    HW124902   2.282   3.333   6.650
 4142SOL    HW224903   2.139   3.254   6.636
 4143SOL     OW24904   6.574   2.563   5.232
 4143SOL    HW124905   6.519   2.606   5.160
 4143SOL    HW224906   6.518   2.494   5.279
 4144SOL     OW24907   7.274   6.208   0.408
 4144SOL    HW124908   7.215   6.282   0.376
 4144SOL    HW224909   7.243   6.176   0.497
 4145SOL     OW24910   4.223   1.534   2.192
 4145SOL    HW124911   4.254   1.551   2.286
 4145SOL    HW224912   4.302   1.513   2.134
 4146SOL     OW24913   3.950   2.209   1.513
 4146SOL    HW124914   4.025   2.245   1.457
 4146SOL    HW224915   3.983   2.134   1.569
 4147SOL     OW24916   1.419   7.245   6.823
 4147SOL    HW124917   1.453   7.325   6.773
 4147SOL    HW224918   1.427   7.164   6.765
 4148SOL     OW24919   7.052   5.709   6.567
 4148SOL    HW124920   7.057   5.798   6.613
 4148SOL    HW224921   7.141   5.663   6.574
 4149SOL     OW24922   1.454   0.765   1.873
 4149SOL    HW124923   1.358   0.764   1.902
 4149SOL    HW224924   1.483   0.673   1.850
 4150SOL     OW24925   0.909   5.421   0.673
 4150SOL    HW124926   0.904   5.486   0.748
 4150SOL    HW224927   0.933   5.331   0.708
 4151SOL     OW24928   4.225   0.116   1.696
 4151SOL    HW124929   4.295   0.062   1.743
 4151SOL    HW224930   4.145   0.124   1.755
 4152SOL     OW24931   7.033   0.861   2.876
 4152SOL    HW124932   7.085   0.895   2.954
 4152SOL    HW224933   7.060   0.767   2.856
 4153SOL     OW24934   2.536   6.754   6.559
 4153SOL    HW124935   2.624   6.749   6.512
 4153SOL    HW224936   2.496   6.845   6.547
 4154SOL     OW24937   6.499   1.304   0.466
 4154SOL    HW124938   6.436   1.333   0.539
 4154SOL    HW224939   6.548   1.384   0.432
 4155SOL     OW24940   5.580   3.571   7.103
 4155SOL    HW124941   5.581   3.609   7.011
 4155SOL    HW224942   5.642   3.624   7.161
 4156SOL     OW24943   4.861   5.019   3.354
 4156SOL    HW124944   4.823   4.970   3.275
 4156SOL    HW224945   4.788   5.042   3.418
 4157SOL     OW24946   4.162   2.233   5.097
 4157SOL    HW124947   4.236   2.288   5.058
 4157SOL    HW224948   4.146   2.261   5.192
 4158SOL     OW24949   4.576   7.105   2.903
 4158SOL    HW124950   4.629   7.152   2.833
 4158SOL    HW224951   4.580   7.006   2.886
 4159SOL     OW24952   2.430   2.103   6.578
 4159SOL    HW124953   2.527   2.115   6.554
 4159SOL    HW224954   2.421   2.099   6.678
 4160SOL     OW24955   4.835   6.938   4.218
 4160SOL    HW124956   4.899   6.968   4.289
 4160SOL    HW224957   4.879   6.868   4.162
 4161SOL     OW24958   1.279   7.145   7.216
 4161SOL    HW124959   1.230   7.173   7.133
 4161SOL    HW224960   1.251   7.053   7.241
 4162SOL     OW24961   7.181   2.344   4.781
 4162SOL    HW124962   7.276   2.374   4.772
 4162SOL    HW224963   7.165   2.315   4.876
 4163SOL     OW24964   4.631   3.324   0.099
 4163SOL    HW124965   4.604   3.384   0.024
 4163SOL    HW224966   4.549   3.287   0.143
 4164SOL     OW24967   7.117   1.900   2.062
 4164SOL    HW124968   7.194   1.837   2.071
 4164SOL    HW224969   7.131   1.978   2.124
 4165SOL     OW24970   0.835   0.517   7.112
 4165SOL    HW124971   0.902   0.475   7.051
 4165SOL    HW224972   0.774   0.447   7.148
 4166SOL     OW24973   6.537   0.532   1.850
 4166SOL    HW124974   6.550   0.624   1.812
 4166SOL    HW224975   6.626   0.491   1.866
 4167SOL     OW24976   3.312   3.269   5.444
 4167SOL    HW124977   3.395   3.216   5.458
 4167SOL    HW224978   3.232   3.209   5.458
 4168SOL     OW24979   6.588   3.213   0.268
 4168SOL    HW124980   6.518   3.267   0.314
 4168SOL    HW224981   6.567   3.116   0.276
 4169SOL     OW24982   7.337   2.186   2.049
 4169SOL    HW124983   7.267   2.184   2.121
 4169SOL    HW224984   7.393   2.104   2.055
 4170SOL     OW24985   2.280   2.181   5.574
 4170SOL    HW124986   2.206   2.169   5.508
 4170SOL    HW224987   2.319   2.272   5.562
 4171SOL     OW24988   6.081   0.741   6.409
 4171SOL    HW124989   6.144   0.677   6.454
 4171SOL    HW224990   6.134   0.803   6.351
 4172SOL     OW24991   3.502   2.590   6.710
 4172SOL    HW124992   3.582   2.545   6.671
 4172SOL    HW224993   3.526   2.685   6.733
 4173SOL     OW24994   2.830   6.446   0.362
 4173SOL    HW124995   2.746   6.469   0.411
 4173SOL    HW224996   2.907   6.497   0.401
 4174SOL     OW24997   5.835   5.894   5.117
 4174SOL    HW124998   5.869   5.978   5.074
 4174SOL    HW224999   5.815   5.827   5.046
 4175SOL     OW25000   3.234   0.875   1.535
 4175SOL    HW125001   3.179   0.795   1.511
 4175SOL    HW225002   3.179   0.958   1.520
 4176SOL     OW25003   1.892   5.157   0.818
 4176SOL    HW125004   1.929   5.185   0.906
 4176SOL    HW225005   1.962   5.166   0.748
 4177SOL     OW25006   5.912   6.746   4.013
 4177SOL    HW125007   5.900   6.700   4.101
 4177SOL    HW225008   5.968   6.689   3.953
 4178SOL     OW25009   5.634   7.284   2.710
 4178SOL    HW125010   5.685   7.333   2.781
 4178SOL    HW225011   5.636   7.186   2.731
 4179SOL     OW25012   5.004   0.374   1.506
 4179SOL    HW125013   4.933   0.402   1.441
 4179SOL    HW225014   4.978   0.286   1.546
 4180SOL     OW25015   4.711   3.528   2.918
 4180SOL    HW125016   4.658   3.525   3.003
 4180SOL    HW225017   4.784   3.596   2.927
 4181SOL     OW25018   3.868   4.120   5.310
 4181SOL    HW125019   3.936   4.182   5.351
 4181SOL    HW225020   3.890   4.106   5.214
 4182SOL     OW25021   1.985   2.800   1.759
 4182SOL    HW125022   1.923   2.850   1.699
 4182SOL    HW225023   2.038   2.735   1.705
 4183SOL     OW25024   3.670   2.435   4.405
 4183SOL    HW125025   3.683   2.507   4.474
 4183SOL    HW225026   3.573   2.408   4.403
 4184SOL     OW25027   6.260   5.005   7.119
 4184SOL    HW125028   6.161   5.014   7.132
 4184SOL    HW225029   6.307   5.053   7.193
 4185SOL     OW25030   6.670   0.416   5.546
 4185SOL    HW125031   6.582   0.462   5.541
 4185SOL    HW225032   6.724   0.454   5.621
 4186SOL     OW25033   3.178   0.025   2.197
 4186SOL    HW125034   3.140  -0.050   2.251
 4186SOL    HW225035   3.262  -0.006   2.151
 4187SOL     OW25036   1.369   2.838   6.451
 4187SOL    HW125037   1.331   2.865   6.362
 4187SOL    HW225038   1.367   2.738   6.460
 4188SOL     OW25039   4.558   1.306   5.677
 4188SOL    HW125040   4.610   1.336   5.757
 4188SOL    HW225041   4.558   1.379   5.608
 4189SOL     OW25042   0.232   5.897   1.353
 4189SOL    HW125043   0.142   5.870   1.386
 4189SOL    HW225044   0.238   5.883   1.254
 4190SOL     OW25045   3.652   5.302   5.399
 4190SOL    HW125046   3.655   5.216   5.349
 4190SOL    HW225047   3.586   5.364   5.356
 4191SOL     OW25048   0.745   3.157   1.864
 4191SOL    HW125049   0.720   3.178   1.958
 4191SOL    HW225050   0.705   3.226   1.803
 4192SOL     OW25051   6.568   6.539   2.091
 4192SOL    HW125052   6.621   6.474   2.146
 4192SOL    HW225053   6.511   6.488   2.026
 4193SOL     OW25054   2.161   6.056   4.338
 4193SOL    HW125055   2.108   5.982   4.380
 4193SOL    HW225056   2.227   6.018   4.274
 4194SOL     OW25057   2.501   2.819   1.809
 4194SOL    HW125058   2.487   2.734   1.759
 4194SOL    HW225059   2.577   2.808   1.874
 4195SOL     OW25060   1.639   1.092   0.084
 4195SOL    HW125061   1.699   1.056   0.155
 4195SOL    HW225062   1.634   1.192   0.090
 4196SOL     OW25063   6.464   5.947   6.365
 4196SOL    HW125064   6.554   5.991   6.359
 4196SOL    HW225065   6.393   6.014   6.342
 4197SOL     OW25066   4.874   3.014   4.235
 4197SOL    HW125067   4.780   3.034   4.207
 4197SOL    HW225068   4.932   3.094   4.219
 4198SOL     OW25069   0.884   6.940   7.136
 4198SOL    HW125070   0.929   6.967   7.051
 4198SOL    HW225071   0.935   6.865   7.179
 4199SOL     OW25072   1.645   4.454   2.049
 4199SOL    HW125073   1.654   4.456   1.950
 4199SOL    HW225074   1.588   4.531   2.079
 4200SOL     OW25075   4.546   6.077   5.535
 4200SOL    HW125076   4.612   6.086   5.609
 4200SOL    HW225077   4.529   6.167   5.495
 4201SOL     OW25078   2.118   5.313   2.107
 4201SOL    HW125079   2.212   5.322   2.076
 4201SOL    HW225080   2.113   5.334   2.205
 4202SOL     OW25081   3.442   1.437   6.900
 4202SOL    HW125082   3.385   1.484   6.834
 4202SOL    HW225083   3.519   1.393   6.853
 4203SOL     OW25084   3.766   4.536   4.575
 4203SOL    HW125085   3.841   4.585   4.530
 4203SOL    HW225086   3.789   4.439   4.581
 4204SOL     OW25087   5.755   7.010   5.793
 4204SOL    HW125088   5.740   7.108   5.780
 4204SOL    HW225089   5.824   6.978   5.728
 4205SOL     OW25090   4.752   5.714   4.909
 4205SOL    HW125091   4.688   5.641   4.885
 4205SOL    HW225092   4.842   5.676   4.927
 4206SOL     OW25093   2.147   2.308   4.565
 4206SOL    HW125094   2.176   2.254   4.486
 4206SOL    HW225095   2.182   2.266   4.649
 4207SOL     OW25096   3.016   4.302   0.394
 4207SOL    HW125097   3.048   4.311   0.300
 4207SOL    HW225098   2.958   4.221   0.402
 4208SOL     OW25099   3.872   7.342   4.913
 4208SOL    HW125100   3.892   7.290   4.997
 4208SOL    HW225101   3.809   7.416   4.935
 4209SOL     OW25102   0.055   4.572   3.175
 4209SOL    HW125103   0.136   4.521   3.147
 4209SOL    HW225104  -0.017   4.560   3.107
 4210SOL     OW25105   6.233   0.589   2.769
 4210SOL    HW125106   6.295   0.666   2.758
 4210SOL    HW225107   6.175   0.581   2.688
 4211SOL     OW25108   0.269   1.710   1.745
 4211SOL    HW125109   0.234   1.667   1.662
 4211SOL    HW225110   0.368   1.698   1.749
 4212SOL     OW25111   1.157   3.669   6.486
 4212SOL    HW125112   1.187   3.617   6.566
 4212SOL    HW225113   1.222   3.743   6.468
 4213SOL     OW25114   5.244   6.615   1.305
 4213SOL    HW125115   5.258   6.713   1.291
 4213SOL    HW225116   5.328   6.566   1.282
 4214SOL     OW25117   4.547   0.840   6.747
 4214SOL    HW125118   4.601   0.839   6.662
 4214SOL    HW225119   4.527   0.935   6.772
 4215SOL     OW25120   6.777   6.806   0.346
 4215SOL    HW125121   6.711   6.735   0.324
 4215SOL    HW225122   6.732   6.876   0.402
 4216SOL     OW25123   3.753   3.152   2.501
 4216SOL    HW125124   3.663   3.159   2.457
 4216SOL    HW225125   3.777   3.240   2.542
 4217SOL     OW25126   5.457   5.827   4.390
 4217SOL    HW125127   5.473   5.753   4.455
 4217SOL    HW225128   5.544   5.867   4.361
 4218SOL     OW25129   0.640   3.898   2.325
 4218SOL    HW125130   0.559   3.936   2.369
 4218SOL    HW225131   0.723   3.932   2.370
 4219SOL     OW25132   1.950   3.963   2.916
 4219SOL    HW125133   1.946   4.034   2.986
 4219SOL    HW225134   1.930   3.874   2.957
 4220SOL     OW25135   3.973   2.402   1.785
 4220SOL    HW125136   3.910   2.403   1.708
 4220SOL    HW225137   4.021   2.490   1.789
 4221SOL     OW25138   0.696   3.044   6.578
 4221SOL    HW125139   0.680   3.092   6.492
 4221SOL    HW225140   0.651   3.093   6.653
 4222SOL     OW25141   1.425   0.712   6.258
 4222SOL    HW125142   1.424   0.791   6.197
 4222SOL    HW225143   1.447   0.630   6.206
 4223SOL     OW25144   3.956   6.309   1.185
 4223SOL    HW125145   3.978   6.229   1.128
 4223SOL    HW225146   4.039   6.362   1.201
 4224SOL     OW25147   3.562   3.606   5.396
 4224SOL    HW125148   3.490   3.587   5.462
 4224SOL    HW225149   3.531   3.675   5.331
 4225SOL     OW25150   0.027   1.741   0.596
 4225SOL    HW125151  -0.029   1.658   0.598
 4225SOL    HW225152   0.051   1.767   0.689
 4226SOL     OW25153   0.511   5.565   5.442
 4226SOL    HW125154   0.559   5.544   5.356
 4226SOL    HW225155   0.570   5.619   5.501
 4227SOL     OW25156   7.067   0.773   5.422
 4227SOL    HW125157   7.142   0.839   5.427
 4227SOL    HW225158   7.034   0.769   5.327
 4228SOL     OW25159   6.553   1.918   7.146
 4228SOL    HW125160   6.617   1.993   7.130
 4228SOL    HW225161   6.605   1.834   7.163
 4229SOL     OW25162   7.036   3.205   6.612
 4229SOL    HW125163   7.047   3.246   6.522
 4229SOL    HW225164   7.092   3.254   6.678
 4230SOL     OW25165   0.547   0.056   5.561
 4230SOL    HW125166   0.509   0.073   5.652
 4230SOL    HW225167   0.620  -0.011   5.568
 4231SOL     OW25168   0.353   1.138   5.324
 4231SOL    HW125169   0.284   1.184   5.269
 4231SOL    HW225170   0.443   1.178   5.306
 4232SOL     OW25171   6.092   6.898   7.082
 4232SOL    HW125172   5.994   6.878   7.093
 4232SOL    HW225173   6.134   6.908   7.172
 4233SOL     OW25174   2.260   1.275   0.024
 4233SOL    HW125175   2.301   1.354   0.070
 4233SOL    HW225176   2.175   1.303  -0.020
 4234SOL     OW25177   5.765   0.678   3.016
 4234SOL    HW125178   5.816   0.613   3.071
 4234SOL    HW225179   5.821   0.708   2.939
 4235SOL     OW25180   5.861   0.431   4.160
 4235SOL    HW125181   5.886   0.334   4.161
 4235SOL    HW225182   5.876   0.468   4.068
 4236SOL     OW25183   5.848   1.151   3.368
 4236SOL    HW125184   5.913   1.155   3.443
 4236SOL    HW225185   5.846   1.059   3.329
 4237SOL     OW25186   7.058   0.571   4.971
 4237SOL    HW125187   7.054   0.614   4.881
 4237SOL    HW225188   6.991   0.496   4.975
 4238SOL     OW25189   3.301   1.459   6.393
 4238SOL    HW125190   3.331   1.364   6.397
 4238SOL    HW225191   3.207   1.463   6.359
 4239SOL     OW25192   7.073   7.181   1.534
 4239SOL    HW125193   6.980   7.145   1.527
 4239SOL    HW225194   7.069   7.276   1.566
 4240SOL     OW25195   1.927   3.051   6.113
 4240SOL    HW125196   1.922   2.995   6.196
 4240SOL    HW225197   1.852   3.027   6.052
 4241SOL     OW25198   2.548   7.247   3.653
 4241SOL    HW125199   2.457   7.246   3.612
 4241SOL    HW225200   2.617   7.265   3.583
 4242SOL     OW25201   4.453   5.463   5.990
 4242SOL    HW125202   4.394   5.404   5.936
 4242SOL    HW225203   4.549   5.444   5.968
 4243SOL     OW25204   0.163   0.237   2.702
 4243SOL    HW125205   0.162   0.262   2.799
 4243SOL    HW225206   0.245   0.274   2.659
 4244SOL     OW25207   2.441   0.037   2.935
 4244SOL    HW125208   2.439  -0.057   2.968
 4244SOL    HW225209   2.464   0.038   2.837
 4245SOL     OW25210   6.552   2.705   7.317
 4245SOL    HW125211   6.463   2.751   7.318
 4245SOL    HW225212   6.572   2.669   7.409
 4246SOL     OW25213   4.366   3.282   7.130
 4246SOL    HW125214   4.313   3.290   7.046
 4246SOL    HW225215   4.312   3.235   7.200
 4247SOL     OW25216   7.148   4.674   4.048
 4247SOL    HW125217   7.188   4.738   3.982
 4247SOL    HW225218   7.185   4.582   4.030
 4248SOL     OW25219   0.858   1.337   6.764
 4248SOL    HW125220   0.939   1.369   6.814
 4248SOL    HW225221   0.778   1.343   6.824
 4249SOL     OW25222   2.635   2.741   2.066
 4249SOL    HW125223   2.695   2.805   2.114
 4249SOL    HW225224   2.544   2.743   2.106
 4250SOL     OW25225   0.518   2.036   4.000
 4250SOL    HW125226   0.478   2.126   3.981
 4250SOL    HW225227   0.446   1.968   4.006
 4251SOL     OW25228   4.809   6.567   0.618
 4251SOL    HW125229   4.780   6.499   0.685
 4251SOL    HW225230   4.812   6.657   0.661
 4252SOL     OW25231   3.920   3.952   2.726
 4252SOL    HW125232   3.824   3.978   2.720
 4252SOL    HW225233   3.972   4.000   2.656
 4253SOL     OW25234   0.580   5.983   5.932
 4253SOL    HW125235   0.546   6.063   5.982
 4253SOL    HW225236   0.508   5.913   5.928
 4254SOL     OW25237   4.564   3.126   1.574
 4254SOL    HW125238   4.526   3.215   1.548
 4254SOL    HW225239   4.654   3.115   1.532
 4255SOL     OW25240   0.694   7.271   0.740
 4255SOL    HW125241   0.666   7.362   0.710
 4255SOL    HW225242   0.670   7.259   0.837
 4256SOL     OW25243   5.029   1.056   1.317
 4256SOL    HW125244   5.038   1.021   1.224
 4256SOL    HW225245   4.938   1.034   1.352
 4257SOL     OW25246   3.971   2.174   3.535
 4257SOL    HW125247   3.883   2.168   3.488
 4257SOL    HW225248   3.993   2.086   3.577
 4258SOL     OW25249   1.604   4.297   3.541
 4258SOL    HW125250   1.606   4.268   3.637
 4258SOL    HW225251   1.688   4.269   3.496
 4259SOL     OW25252   0.345   3.010   3.575
 4259SOL    HW125253   0.329   2.947   3.652
 4259SOL    HW225254   0.417   3.075   3.599
 4260SOL     OW25255   3.843   6.333   2.919
 4260SOL    HW125256   3.925   6.277   2.909
 4260SOL    HW225257   3.817   6.370   2.830
 4261SOL     OW25258   3.244   3.113   6.810
 4261SOL    HW125259   3.230   3.023   6.769
 4261SOL    HW225260   3.189   3.181   6.761
 4262SOL     OW25261   1.387   2.062   1.047
 4262SOL    HW125262   1.370   1.979   1.100
 4262SOL    HW225263   1.336   2.138   1.087
 4263SOL     OW25264   4.791   5.500   6.213
 4263SOL    HW125265   4.780   5.458   6.123
 4263SOL    HW225266   4.818   5.595   6.202
 4264SOL     OW25267   3.686   0.738   0.548
 4264SOL    HW125268   3.640   0.827   0.550
 4264SOL    HW225269   3.732   0.726   0.460
 4265SOL     OW25270   2.013   0.199   0.462
 4265SOL    HW125271   1.978   0.105   0.456
 4265SOL    HW225272   2.055   0.225   0.375
 4266SOL     OW25273   6.872   2.894   4.583
 4266SOL    HW125274   6.822   2.934   4.660
 4266SOL    HW225275   6.835   2.803   4.564
 4267SOL     OW25276   4.324   2.600   3.984
 4267SOL    HW125277   4.287   2.640   3.901
 4267SOL    HW225278   4.345   2.672   4.050
 4268SOL     OW25279   0.315   4.067   2.271
 4268SOL    HW125280   0.373   4.037   2.347
 4268SOL    HW225281   0.363   4.053   2.185
 4269SOL     OW25282   3.694   6.738   0.549
 4269SOL    HW125283   3.734   6.657   0.505
 4269SOL    HW225284   3.596   6.739   0.534
 4270SOL     OW25285   2.038   6.061   1.923
 4270SOL    HW125286   2.083   5.973   1.938
 4270SOL    HW225287   1.969   6.075   1.994
 4271SOL     OW25288   1.954   4.158   2.451
 4271SOL    HW125289   1.958   4.255   2.473
 4271SOL    HW225290   2.024   4.109   2.504
 4272SOL     OW25291   4.433   1.482   1.197
 4272SOL    HW125292   4.489   1.564   1.207
 4272SOL    HW225293   4.403   1.451   1.287
 4273SOL     OW25294   7.198   1.782   2.638
 4273SOL    HW125295   7.240   1.785   2.729
 4273SOL    HW225296   7.205   1.872   2.595
 4274SOL     OW25297   7.289   0.251   2.145
 4274SOL    HW125298   7.336   0.166   2.123
 4274SOL    HW225299   7.190   0.235   2.147
 4275SOL     OW25300   3.129   1.335   0.988
 4275SOL    HW125301   3.095   1.304   1.077
 4275SOL    HW225302   3.228   1.321   0.984
 4276SOL     OW25303   5.624   4.572   4.041
 4276SOL    HW125304   5.567   4.515   3.982
 4276SOL    HW225305   5.676   4.636   3.986
 4277SOL     OW25306   1.357   7.271   6.296
 4277SOL    HW125307   1.373   7.209   6.373
 4277SOL    HW225308   1.285   7.234   6.238
 4278SOL     OW25309   3.570   1.623   3.034
 4278SOL    HW125310   3.492   1.561   3.031
 4278SOL    HW225311   3.579   1.671   2.947
 4279SOL     OW25312   2.155   0.624   0.153
 4279SOL    HW125313   2.099   0.561   0.208
 4279SOL    HW225314   2.178   0.704   0.207
 4280SOL     OW25315   3.514   2.169   5.790
 4280SOL    HW125316   3.434   2.138   5.738
 4280SOL    HW225317   3.493   2.164   5.888
 4281SOL     OW25318   5.899   6.020   3.671
 4281SOL    HW125319   5.927   6.070   3.753
 4281SOL    HW225320   5.849   5.938   3.698
 4282SOL     OW25321   1.369   3.815   6.351
 4282SOL    HW125322   1.423   3.857   6.278
 4282SOL    HW225323   1.429   3.790   6.427
 4283SOL     OW25324   4.336   0.985   4.267
 4283SOL    HW125325   4.242   0.954   4.250
 4283SOL    HW225326   4.348   1.078   4.232
 4284SOL     OW25327   2.383   5.348   6.238
 4284SOL    HW125328   2.397   5.249   6.242
 4284SOL    HW225329   2.395   5.388   6.329
 4285SOL     OW25330   2.373   6.209   2.193
 4285SOL    HW125331   2.301   6.153   2.234
 4285SOL    HW225332   2.337   6.254   2.112
 4286SOL     OW25333   7.354   7.197   1.087
 4286SOL    HW125334   7.390   7.284   1.120
 4286SOL    HW225335   7.308   7.149   1.162
 4287SOL     OW25336   7.356   3.482   3.366
 4287SOL    HW125337   7.370   3.478   3.465
 4287SOL    HW225338   7.348   3.390   3.329
 4288SOL     OW25339   0.897   5.684   4.775
 4288SOL    HW125340   0.866   5.602   4.727
 4288SOL    HW225341   0.866   5.765   4.726
 4289SOL     OW25342   0.046   3.977   4.361
 4289SOL    HW125343   0.074   3.948   4.269
 4289SOL    HW225344  -0.006   3.904   4.405
 4290SOL     OW25345   1.237   2.311   3.165
 4290SOL    HW125346   1.205   2.282   3.075
 4290SOL    HW225347   1.337   2.321   3.164
 4291SOL     OW25348   6.024   0.127   6.629
 4291SOL    HW125349   6.090   0.150   6.701
 4291SOL    HW225350   6.001   0.030   6.635
 4292SOL     OW25351   4.880   6.193   2.876
 4292SOL    HW125352   4.953   6.261   2.887
 4292SOL    HW225353   4.791   6.239   2.881
 4293SOL     OW25354   5.432   1.477   0.236
 4293SOL    HW125355   5.356   1.414   0.218
 4293SOL    HW225356   5.441   1.491   0.334
 4294SOL     OW25357   4.422   5.905   4.186
 4294SOL    HW125358   4.440   6.003   4.186
 4294SOL    HW225359   4.445   5.867   4.276
 4295SOL     OW25360   5.193   2.006   2.242
 4295SOL    HW125361   5.170   1.910   2.226
 4295SOL    HW225362   5.198   2.023   2.340
 4296SOL     OW25363   3.372   4.793   4.556
 4296SOL    HW125364   3.347   4.775   4.460
 4296SOL    HW225365   3.295   4.835   4.603
 4297SOL     OW25366   4.725   6.387   7.062
 4297SOL    HW125367   4.663   6.452   7.105
 4297SOL    HW225368   4.706   6.382   6.964
 4298SOL     OW25369   5.330   4.968   1.231
 4298SOL    HW125370   5.315   4.935   1.137
 4298SOL    HW225371   5.421   4.941   1.262
 4299SOL     OW25372   0.802   1.739   1.919
 4299SOL    HW125373   0.789   1.835   1.944
 4299SOL    HW225374   0.891   1.729   1.874
 4300SOL     OW25375   7.329   2.021   5.830
 4300SOL    HW125376   7.391   1.955   5.874
 4300SOL    HW225377   7.353   2.029   5.733
 4301SOL     OW25378   5.442   3.535   1.980
 4301SOL    HW125379   5.477   3.600   1.913
 4301SOL    HW225380   5.344   3.548   1.991
 4302SOL     OW25381   2.197   7.012   5.935
 4302SOL    HW125382   2.156   7.070   6.005
 4302SOL    HW225383   2.231   7.070   5.860
 4303SOL     OW25384   5.091   3.678   2.742
 4303SOL    HW125385   5.136   3.594   2.711
 4303SOL    HW225386   5.146   3.757   2.716
 4304SOL     OW25387   3.925   5.186   6.485
 4304SOL    HW125388   3.876   5.235   6.412
 4304SOL    HW225389   3.934   5.089   6.459
 4305SOL     OW25390   6.923   5.779   0.023
 4305SOL    HW125391   6.918   5.744  -0.070
 4305SOL    HW225392   6.852   5.735   0.078
 4306SOL     OW25393   5.301   1.044   4.836
 4306SOL    HW125394   5.394   1.013   4.858
 4306SOL    HW225395   5.235   0.976   4.866
 4307SOL     OW25396   4.985   1.734   5.838
 4307SOL    HW125397   4.951   1.696   5.923
 4307SOL    HW225398   4.975   1.667   5.765
 4308SOL     OW25399   1.231   1.438   0.093
 4308SOL    HW125400   1.267   1.531   0.094
 4308SOL    HW225401   1.147   1.435   0.038
 4309SOL     OW25402   3.827   2.942   6.952
 4309SOL    HW125403   3.739   2.901   6.929
 4309SOL    HW225404   3.896   2.871   6.966
 4310SOL     OW25405   6.915   5.861   6.875
 4310SOL    HW125406   7.008   5.843   6.906
 4310SOL    HW225407   6.873   5.931   6.932
 4311SOL     OW25408   4.181   1.115   3.328
 4311SOL    HW125409   4.098   1.111   3.272
 4311SOL    HW225410   4.219   1.207   3.326
 4312SOL     OW25411   1.683   2.415   5.418
 4312SOL    HW125412   1.674   2.401   5.319
 4312SOL    HW225413   1.631   2.344   5.466
 4313SOL     OW25414   2.354   3.847   1.732
 4313SOL    HW125415   2.256   3.838   1.718
 4313SOL    HW225416   2.396   3.883   1.648
 4314SOL     OW25417   1.893   5.684   6.241
 4314SOL    HW125418   1.976   5.718   6.196
 4314SOL    HW225419   1.850   5.614   6.184
 4315SOL     OW25420   2.043   2.140   2.249
 4315SOL    HW125421   2.003   2.226   2.216
 4315SOL    HW225422   2.120   2.114   2.191
 4316SOL     OW25423   1.444   4.099   7.032
 4316SOL    HW125424   1.454   4.168   7.104
 4316SOL    HW225425   1.468   4.009   7.069
 4317SOL     OW25426   0.978   4.764   4.019
 4317SOL    HW125427   0.935   4.780   3.931
 4317SOL    HW225428   1.048   4.834   4.036
 4318SOL     OW25429   4.710   5.038   2.209
 4318SOL    HW125430   4.680   5.115   2.152
 4318SOL    HW225431   4.806   5.050   2.234
 4319SOL     OW25432   6.262   2.211   4.609
 4319SOL    HW125433   6.257   2.311   4.615
 4319SOL    HW225434   6.174   2.171   4.632
 4320SOL     OW25435   3.651   6.400   2.270
 4320SOL    HW125436   3.600   6.416   2.186
 4320SOL    HW225437   3.588   6.367   2.341
 4321SOL     OW25438   5.623   5.029   5.101
 4321SOL    HW125439   5.635   5.120   5.141
 4321SOL    HW225440   5.662   4.960   5.161
 4322SOL     OW25441   1.886   5.423   2.007
 4322SOL    HW125442   1.975   5.383   2.027
 4322SOL    HW225443   1.847   5.380   1.926
 4323SOL     OW25444   0.925   2.430   6.368
 4323SOL    HW125445   0.911   2.382   6.281
 4323SOL    HW225446   0.989   2.378   6.425
 4324SOL     OW25447   2.301   6.955   0.896
 4324SOL    HW125448   2.287   7.041   0.946
 4324SOL    HW225449   2.378   6.965   0.833
 4325SOL     OW25450   3.295   1.749   1.497
 4325SOL    HW125451   3.276   1.679   1.566
 4325SOL    HW225452   3.295   1.839   1.540
 4326SOL     OW25453   1.451   3.812   0.588
 4326SOL    HW125454   1.434   3.910   0.597
 4326SOL    HW225455   1.543   3.791   0.620
 4327SOL     OW25456   5.620   5.246   6.116
 4327SOL    HW125457   5.639   5.251   6.214
 4327SOL    HW225458   5.697   5.284   6.065
 4328SOL     OW25459   1.930   0.754   6.823
 4328SOL    HW125460   1.890   0.680   6.769
 4328SOL    HW225461   2.029   0.743   6.827
 4329SOL     OW25462   0.482   4.810   2.080
 4329SOL    HW125463   0.421   4.732   2.094
 4329SOL    HW225464   0.513   4.812   1.985
 4330SOL     OW25465   3.791   6.496   6.805
 4330SOL    HW125466   3.791   6.590   6.772
 4330SOL    HW225467   3.701   6.455   6.790
 4331SOL     OW25468   2.994   0.657   2.567
 4331SOL    HW125469   2.963   0.566   2.538
 4331SOL    HW225470   2.914   0.713   2.589
 4332SOL     OW25471   7.052   4.662   0.452
 4332SOL    HW125472   6.987   4.621   0.387
 4332SOL    HW225473   7.018   4.652   0.545
 4333SOL     OW25474   0.162   6.144   7.095
 4333SOL    HW125475   0.185   6.210   7.167
 4333SOL    HW225476   0.068   6.113   7.107
 4334SOL     OW25477   6.267   5.936   3.233
 4334SOL    HW125478   6.244   5.885   3.150
 4334SOL    HW225479   6.318   5.878   3.296
 4335SOL     OW25480   5.380   5.181   4.719
 4335SOL    HW125481   5.357   5.126   4.639
 4335SOL    HW225482   5.455   5.138   4.769
 4336SOL     OW25483   5.146   1.285   0.442
 4336SOL    HW125484   5.128   1.317   0.535
 4336SOL    HW225485   5.080   1.325   0.379
 4337SOL     OW25486   2.067   6.743   0.494
 4337SOL    HW125487   2.033   6.790   0.575
 4337SOL    HW225488   2.082   6.809   0.421
 4338SOL     OW25489   1.114   3.802   0.195
 4338SOL    HW125490   1.049   3.738   0.156
 4338SOL    HW225491   1.148   3.863   0.123
 4339SOL     OW25492   5.103   4.143   2.890
 4339SOL    HW125493   5.171   4.078   2.926
 4339SOL    HW225494   5.150   4.215   2.839
 4340SOL     OW25495   6.584   4.529   7.134
 4340SOL    HW125496   6.617   4.442   7.098
 4340SOL    HW225497   6.661   4.583   7.166
 4341SOL     OW25498   4.374   3.955   0.419
 4341SOL    HW125499   4.275   3.963   0.416
 4341SOL    HW225500   4.400   3.895   0.495
 4342SOL     OW25501   1.420   1.101   2.929
 4342SOL    HW125502   1.516   1.077   2.942
 4342SOL    HW225503   1.363   1.036   2.979
 4343SOL     OW25504   1.201   3.074   6.851
 4343SOL    HW125505   1.278   3.029   6.896
 4343SOL    HW225506   1.137   3.108   6.921
 4344SOL     OW25507   6.836   1.910   1.711
 4344SOL    HW125508   6.820   1.974   1.786
 4344SOL    HW225509   6.749   1.889   1.666
 4345SOL     OW25510   5.793   5.032   6.996
 4345SOL    HW125511   5.839   4.949   6.964
 4345SOL    HW225512   5.815   5.108   6.934
 4346SOL     OW25513   1.642   2.740   2.387
 4346SOL    HW125514   1.675   2.805   2.318
 4346SOL    HW225515   1.602   2.791   2.463
 4347SOL     OW25516   6.151   5.120   0.619
 4347SOL    HW125517   6.245   5.089   0.604
 4347SOL    HW225518   6.104   5.126   0.531
 4348SOL     OW25519   3.855   0.779   2.385
 4348SOL    HW125520   3.869   0.876   2.405
 4348SOL    HW225521   3.772   0.767   2.329
 4349SOL     OW25522   2.653   2.009   5.855
 4349SOL    HW125523   2.682   1.927   5.807
 4349SOL    HW225524   2.554   2.007   5.868
 4350SOL     OW25525   5.588   0.242   6.513
 4350SOL    HW125526   5.639   0.159   6.492
 4350SOL    HW225527   5.632   0.321   6.470
 4351SOL     OW25528   2.522   1.943   4.266
 4351SOL    HW125529   2.479   1.933   4.356
 4351SOL    HW225530   2.545   1.853   4.229
 4352SOL     OW25531   0.324   3.844   4.954
 4352SOL    HW125532   0.397   3.871   5.016
 4352SOL    HW225533   0.238   3.887   4.984
 4353SOL     OW25534   1.444   4.342   4.504
 4353SOL    HW125535   1.412   4.248   4.519
 4353SOL    HW225536   1.395   4.382   4.427
 4354SOL     OW25537   2.222   7.321   0.257
 4354SOL    HW125538   2.137   7.268   0.266
 4354SOL    HW225539   2.212   7.387   0.183
 4355SOL     OW25540   0.372   3.973   7.092
 4355SOL    HW125541   0.314   4.051   7.067
 4355SOL    HW225542   0.390   3.918   7.010
 4356SOL     OW25543   4.224   1.436   5.338
 4356SOL    HW125544   4.172   1.520   5.322
 4356SOL    HW225545   4.320   1.451   5.315
 4357SOL     OW25546   2.400   3.697   4.321
 4357SOL    HW125547   2.451   3.672   4.403
 4357SOL    HW225548   2.445   3.659   4.240
 4358SOL     OW25549   5.244   2.747   3.891
 4358SOL    HW125550   5.258   2.807   3.813
 4358SOL    HW225551   5.188   2.795   3.960
 4359SOL     OW25552   3.519   3.082   5.483
 4359SOL    HW125553   3.595   3.103   5.545
 4359SOL    HW225554   3.483   2.992   5.503
 4360SOL     OW25555   5.732   3.190   0.164
 4360SOL    HW125556   5.716   3.193   0.065
 4360SOL    HW225557   5.687   3.267   0.208
 4361SOL     OW25558   4.020   4.185   3.246
 4361SOL    HW125559   4.003   4.123   3.169
 4361SOL    HW225560   4.047   4.131   3.326
 4362SOL     OW25561   5.234   0.954   4.125
 4362SOL    HW125562   5.150   1.007   4.116
 4362SOL    HW225563   5.212   0.856   4.129
 4363SOL     OW25564   6.133   5.377   0.868
 4363SOL    HW125565   6.157   5.415   0.779
 4363SOL    HW225566   6.170   5.435   0.940
 4364SOL     OW25567   7.078   3.799   7.074
 4364SOL    HW125568   7.060   3.760   6.984
 4364SOL    HW225569   7.038   3.741   7.145
 4365SOL     OW25570   6.115   1.237   3.583
 4365SOL    HW125571   6.119   1.294   3.500
 4365SOL    HW225572   6.177   1.159   3.573
 4366SOL     OW25573   1.884   3.788   4.580
 4366SOL    HW125574   1.858   3.780   4.484
 4366SOL    HW225575   1.977   3.756   4.592
 4367SOL     OW25576   3.647   2.476   6.454
 4367SOL    HW125577   3.569   2.415   6.465
 4367SOL    HW225578   3.616   2.565   6.421
 4368SOL     OW25579   7.235   0.797   2.506
 4368SOL    HW125580   7.202   0.703   2.513
 4368SOL    HW225581   7.334   0.798   2.515
 4369SOL     OW25582   5.963   5.626   2.217
 4369SOL    HW125583   6.055   5.597   2.190
 4369SOL    HW225584   5.897   5.556   2.189
 4370SOL     OW25585   6.903   3.472   4.988
 4370SOL    HW125586   6.858   3.418   5.059
 4370SOL    HW225587   7.001   3.478   5.007
 4371SOL     OW25588   0.766   3.682   3.161
 4371SOL    HW125589   0.672   3.677   3.194
 4371SOL    HW225590   0.826   3.709   3.237
 4372SOL     OW25591   7.071   3.062   5.051
 4372SOL    HW125592   7.052   3.006   5.131
 4372SOL    HW225593   7.166   3.047   5.022
 4373SOL     OW25594   2.858   5.430   1.343
 4373SOL    HW125595   2.931   5.366   1.368
 4373SOL    HW225596   2.791   5.382   1.286
 4374SOL     OW25597   5.595   6.254   6.291
 4374SOL    HW125598   5.505   6.257   6.249
 4374SOL    HW225599   5.653   6.326   6.253
 4375SOL     OW25600   3.021   2.534   3.380
 4375SOL    HW125601   2.944   2.477   3.349
 4375SOL    HW225602   3.106   2.502   3.338
 4376SOL     OW25603   1.659   0.667   5.480
 4376SOL    HW125604   1.688   0.633   5.390
 4376SOL    HW225605   1.712   0.621   5.551
 4377SOL     OW25606   1.753   3.395   2.323
 4377SOL    HW125607   1.693   3.340   2.265
 4377SOL    HW225608   1.778   3.479   2.275
 4378SOL     OW25609   1.941   1.633   7.356
 4378SOL    HW125610   2.030   1.633   7.310
 4378SOL    HW225611   1.949   1.589   7.445
 4379SOL     OW25612   3.685   0.152   3.770
 4379SOL    HW125613   3.743   0.093   3.714
 4379SOL    HW225614   3.655   0.230   3.716
 4380SOL     OW25615   0.520   3.444   3.958
 4380SOL    HW125616   0.433   3.424   3.912
 4380SOL    HW225617   0.593   3.451   3.891
 4381SOL     OW25618   4.260   4.582   3.405
 4381SOL    HW125619   4.208   4.564   3.489
 4381SOL    HW225620   4.336   4.644   3.426
 4382SOL     OW25621   5.309   0.455   6.965
 4382SOL    HW125622   5.282   0.467   7.061
 4382SOL    HW225623   5.382   0.387   6.959
 4383SOL     OW25624   3.101   5.203   4.690
 4383SOL    HW125625   3.112   5.108   4.719
 4383SOL    HW225626   3.188   5.237   4.654
 4384SOL     OW25627   3.570   6.313   0.724
 4384SOL    HW125628   3.506   6.259   0.669
 4384SOL    HW225629   3.586   6.401   0.681
 4385SOL     OW25630   3.698   2.132   4.432
 4385SOL    HW125631   3.732   2.103   4.521
 4385SOL    HW225632   3.681   2.230   4.432
 4386SOL     OW25633   1.185   1.642   2.241
 4386SOL    HW125634   1.167   1.584   2.320
 4386SOL    HW225635   1.226   1.728   2.271
 4387SOL     OW25636   2.919   3.643   4.818
 4387SOL    HW125637   2.934   3.552   4.856
 4387SOL    HW225638   2.871   3.699   4.885
 4388SOL     OW25639   6.346   2.605   2.546
 4388SOL    HW125640   6.381   2.594   2.453
 4388SOL    HW225641   6.255   2.565   2.553
 4389SOL     OW25642   0.549   3.463   3.142
 4389SOL    HW125643   0.497   3.388   3.101
 4389SOL    HW225644   0.641   3.466   3.102
 4390SOL     OW25645   1.477   1.050   1.892
 4390SOL    HW125646   1.470   0.952   1.909
 4390SOL    HW225647   1.399   1.080   1.837
 4391SOL     OW25648   2.230   0.625   2.090
 4391SOL    HW125649   2.192   0.716   2.075
 4391SOL    HW225650   2.155   0.558   2.094
 4392SOL     OW25651   1.783   4.207   3.980
 4392SOL    HW125652   1.696   4.222   4.028
 4392SOL    HW225653   1.858   4.234   4.039
 4393SOL     OW25654   7.268   3.136   2.910
 4393SOL    HW125655   7.184   3.144   2.963
 4393SOL    HW225656   7.347   3.153   2.970
 4394SOL     OW25657   6.237   6.076   6.265
 4394SOL    HW125658   6.276   6.028   6.186
 4394SOL    HW225659   6.138   6.064   6.265
 4395SOL     OW25660   3.393   5.243   4.618
 4395SOL    HW125661   3.416   5.275   4.709
 4395SOL    HW225662   3.374   5.321   4.558
 4396SOL     OW25663   3.045   6.486   2.814
 4396SOL    HW125664   3.126   6.466   2.759
 4396SOL    HW225665   3.012   6.578   2.793
 4397SOL     OW25666   6.936   0.851   1.978
 4397SOL    HW125667   7.036   0.856   1.978
 4397SOL    HW225668   6.898   0.943   1.987
 4398SOL     OW25669   4.725   3.075   0.107
 4398SOL    HW125670   4.752   3.030   0.192
 4398SOL    HW225671   4.697   3.169   0.126
 4399SOL     OW25672   2.427   4.666   7.017
 4399SOL    HW125673   2.405   4.579   7.060
 4399SOL    HW225674   2.526   4.675   7.007
 4400SOL     OW25675   2.714   1.264   4.621
 4400SOL    HW125676   2.772   1.227   4.549
 4400SOL    HW225677   2.771   1.314   4.686
 4401SOL     OW25678   5.085   4.572   2.231
 4401SOL    HW125679   5.059   4.579   2.134
 4401SOL    HW225680   5.003   4.577   2.288
 4402SOL     OW25681   0.685   5.277   4.566
 4402SOL    HW125682   0.701   5.194   4.513
 4402SOL    HW225683   0.607   5.327   4.526
 4403SOL     OW25684   2.319   4.584   4.179
 4403SOL    HW125685   2.368   4.614   4.097
 4403SOL    HW225686   2.350   4.493   4.204
 4404SOL     OW25687   6.579   1.321   3.064
 4404SOL    HW125688   6.504   1.351   3.123
 4404SOL    HW225689   6.616   1.234   3.099
 4405SOL     OW25690   2.862   7.133   0.686
 4405SOL    HW125691   2.889   7.106   0.779
 4405SOL    HW225692   2.849   7.051   0.630
 4406SOL     OW25693   4.285   5.610   2.612
 4406SOL    HW125694   4.350   5.659   2.671
 4406SOL    HW225695   4.211   5.572   2.669
 4407SOL     OW25696   4.875   1.963   4.779
 4407SOL    HW125697   4.946   1.906   4.818
 4407SOL    HW225698   4.916   2.030   4.717
 4408SOL     OW25699   1.450   5.063   6.908
 4408SOL    HW125700   1.351   5.047   6.915
 4408SOL    HW225701   1.478   5.058   6.812
 4409SOL     OW25702   3.881   0.526   3.039
 4409SOL    HW125703   3.919   0.492   3.125
 4409SOL    HW225704   3.936   0.604   3.007
 4410SOL     OW25705   1.975   4.586   0.355
 4410SOL    HW125706   1.898   4.619   0.408
 4410SOL    HW225707   1.993   4.650   0.279
 4411SOL     OW25708   6.446   5.409   4.086
 4411SOL    HW125709   6.403   5.359   4.162
 4411SOL    HW225710   6.499   5.486   4.123
 4412SOL     OW25711   4.610   1.726   4.784
 4412SOL    HW125712   4.639   1.761   4.695
 4412SOL    HW225713   4.594   1.802   4.847
 4413SOL     OW25714   4.294   6.090   2.834
 4413SOL    HW125715   4.285   6.079   2.933
 4413SOL    HW225716   4.334   6.179   2.813
 4414SOL     OW25717   5.541   1.843   3.974
 4414SOL    HW125718   5.547   1.860   4.073
 4414SOL    HW225719   5.631   1.814   3.940
 4415SOL     OW25720   4.757   2.763   0.975
 4415SOL    HW125721   4.797   2.679   1.013
 4415SOL    HW225722   4.819   2.840   0.992
 4416SOL     OW25723   6.861   1.581   1.752
 4416SOL    HW125724   6.869   1.563   1.850
 4416SOL    HW225725   6.945   1.623   1.719
 4417SOL     OW25726   1.423   2.448   1.452
 4417SOL    HW125727   1.423   2.548   1.452
 4417SOL    HW225728   1.468   2.414   1.370
 4418SOL     OW25729   6.500   4.457   0.277
 4418SOL    HW125730   6.538   4.447   0.185
 4418SOL    HW225731   6.542   4.536   0.322
 4419SOL     OW25732   4.358   1.570   2.429
 4419SOL    HW125733   4.324   1.646   2.483
 4419SOL    HW225734   4.457   1.566   2.435
 4420SOL     OW25735   6.410   7.075   3.410
 4420SOL    HW125736   6.436   7.021   3.330
 4420SOL    HW225737   6.490   7.091   3.468
 4421SOL     OW25738   5.954   2.385   4.599
 4421SOL    HW125739   6.046   2.417   4.621
 4421SOL    HW225740   5.918   2.332   4.675
 4422SOL     OW25741   0.767   3.583   0.766
 4422SOL    HW125742   0.794   3.533   0.684
 4422SOL    HW225743   0.786   3.527   0.847
 4423SOL     OW25744   6.078   2.414   4.326
 4423SOL    HW125745   6.087   2.511   4.305
 4423SOL    HW225746   6.018   2.403   4.406
 4424SOL     OW25747   3.486   6.636   1.176
 4424SOL    HW125748   3.503   6.550   1.130
 4424SOL    HW225749   3.472   6.620   1.274
 4425SOL     OW25750   5.350   4.138   2.162
 4425SOL    HW125751   5.382   4.206   2.227
 4425SOL    HW225752   5.351   4.047   2.204
 4426SOL     OW25753   6.123   3.837   0.441
 4426SOL    HW125754   6.051   3.862   0.376
 4426SOL    HW225755   6.204   3.807   0.390
 4427SOL     OW25756   2.975   6.076   7.342
 4427SOL    HW125757   2.956   6.174   7.339
 4427SOL    HW225758   2.928   6.035   7.420
 4428SOL     OW25759   0.718   4.163   4.048
 4428SOL    HW125760   0.681   4.078   4.009
 4428SOL    HW225761   0.646   4.210   4.099
 4429SOL     OW25762   6.651   5.652   0.970
 4429SOL    HW125763   6.675   5.670   1.065
 4429SOL    HW225764   6.643   5.553   0.956
 4430SOL     OW25765   4.182   5.180   6.761
 4430SOL    HW125766   4.230   5.213   6.680
 4430SOL    HW225767   4.083   5.178   6.743
 4431SOL     OW25768   3.224   2.245   5.985
 4431SOL    HW125769   3.155   2.251   6.057
 4431SOL    HW225770   3.295   2.180   6.013
 4432SOL     OW25771   6.420   1.983   1.183
 4432SOL    HW125772   6.322   1.977   1.168
 4432SOL    HW225773   6.468   1.937   1.108
 4433SOL     OW25774   4.694   2.333   0.158
 4433SOL    HW125775   4.641   2.249   0.155
 4433SOL    HW225776   4.637   2.407   0.196
 4434SOL     OW25777   2.041   0.372   0.049
 4434SOL    HW125778   1.962   0.398  -0.006
 4434SOL    HW225779   2.054   0.438   0.122
 4435SOL     OW25780   2.082   6.593   0.985
 4435SOL    HW125781   2.059   6.655   0.910
 4435SOL    HW225782   2.180   6.599   1.004
 4436SOL     OW25783   5.073   2.060   1.353
 4436SOL    HW125784   5.119   2.097   1.272
 4436SOL    HW225785   5.052   2.134   1.416
 4437SOL     OW25786   3.335   3.852   0.674
 4437SOL    HW125787   3.380   3.770   0.638
 4437SOL    HW225788   3.402   3.925   0.683
 4438SOL     OW25789   3.530   6.181   0.958
 4438SOL    HW125790   3.568   6.196   0.867
 4438SOL    HW225791   3.432   6.162   0.950
 4439SOL     OW25792   0.363   4.445   1.189
 4439SOL    HW125793   0.275   4.470   1.230
 4439SOL    HW225794   0.415   4.390   1.254
 4440SOL     OW25795   4.174   1.972   1.487
 4440SOL    HW125796   4.192   2.066   1.461
 4440SOL    HW225797   4.204   1.910   1.415
 4441SOL     OW25798   3.939   3.922   0.913
 4441SOL    HW125799   3.952   3.823   0.905
 4441SOL    HW225800   3.853   3.940   0.961
 4442SOL     OW25801   2.026   0.882   1.500
 4442SOL    HW125802   2.028   0.804   1.436
 4442SOL    HW225803   1.932   0.908   1.517
 4443SOL     OW25804   1.782   5.552   6.020
 4443SOL    HW125805   1.682   5.555   6.025
 4443SOL    HW225806   1.814   5.622   5.956
 4444SOL     OW25807   2.319   0.326   1.953
 4444SOL    HW125808   2.229   0.367   1.944
 4444SOL    HW225809   2.345   0.325   2.050
 4445SOL     OW25810   1.837   3.347   4.409
 4445SOL    HW125811   1.795   3.260   4.436
 4445SOL    HW225812   1.770   3.402   4.360
 4446SOL     OW25813   4.633   1.681   4.040
 4446SOL    HW125814   4.670   1.588   4.040
 4446SOL    HW225815   4.698   1.744   3.998
 4447SOL     OW25816   2.199   2.741   0.185
 4447SOL    HW125817   2.275   2.802   0.209
 4447SOL    HW225818   2.159   2.770   0.098
 4448SOL     OW25819   4.875   6.957   1.314
 4448SOL    HW125820   4.964   6.945   1.359
 4448SOL    HW225821   4.807   6.900   1.360
 4449SOL     OW25822   6.052   4.941   1.057
 4449SOL    HW125823   6.065   5.022   1.114
 4449SOL    HW225824   6.039   4.968   0.962
 4450SOL     OW25825   5.330   6.155   6.255
 4450SOL    HW125826   5.248   6.157   6.197
 4450SOL    HW225827   5.305   6.125   6.347
 4451SOL     OW25828   3.782   7.085   6.353
 4451SOL    HW125829   3.711   7.153   6.374
 4451SOL    HW225830   3.772   7.007   6.415
 4452SOL     OW25831   3.617   4.414   6.596
 4452SOL    HW125832   3.555   4.393   6.520
 4452SOL    HW225833   3.663   4.330   6.626
 4453SOL     OW25834   3.200   4.290   0.019
 4453SOL    HW125835   3.223   4.211   0.076
 4453SOL    HW225836   3.282   4.323  -0.027
 4454SOL     OW25837   6.850   4.391   7.105
 4454SOL    HW125838   6.882   4.360   7.016
 4454SOL    HW225839   6.915   4.364   7.176
 4455SOL     OW25840   5.867   3.387   0.471
 4455SOL    HW125841   5.917   3.310   0.432
 4455SOL    HW225842   5.799   3.354   0.537
 4456SOL     OW25843   6.413   6.589   6.381
 4456SOL    HW125844   6.364   6.671   6.352
 4456SOL    HW225845   6.426   6.528   6.303
 4457SOL     OW25846   6.951   0.845   6.492
 4457SOL    HW125847   6.887   0.777   6.526
 4457SOL    HW225848   6.902   0.915   6.439
 4458SOL     OW25849   6.360   0.258   5.669
 4458SOL    HW125850   6.356   0.301   5.759
 4458SOL    HW225851   6.381   0.327   5.599
 4459SOL     OW25852   3.125   4.914   7.221
 4459SOL    HW125853   3.214   4.908   7.266
 4459SOL    HW225854   3.113   5.007   7.185
 4460SOL     OW25855   4.889   5.682   2.298
 4460SOL    HW125856   4.939   5.596   2.312
 4460SOL    HW225857   4.944   5.744   2.242
 4461SOL     OW25858   5.451   0.337   1.896
 4461SOL    HW125859   5.429   0.369   1.804
 4461SOL    HW225860   5.437   0.412   1.962
 4462SOL     OW25861   0.503   6.526   4.146
 4462SOL    HW125862   0.536   6.475   4.066
 4462SOL    HW225863   0.406   6.509   4.160
 4463SOL     OW25864   5.689   4.914   3.447
 4463SOL    HW125865   5.663   4.967   3.367
 4463SOL    HW225866   5.625   4.932   3.522
 4464SOL     OW25867   6.582   4.732   3.762
 4464SOL    HW125868   6.568   4.686   3.674
 4464SOL    HW225869   6.531   4.818   3.763
 4465SOL     OW25870   5.583   5.272   5.186
 4465SOL    HW125871   5.610   5.350   5.130
 4465SOL    HW225872   5.495   5.290   5.229
 4466SOL     OW25873   0.346   5.857   5.816
 4466SOL    HW125874   0.428   5.809   5.785
 4466SOL    HW225875   0.346   5.950   5.779
 4467SOL     OW25876   2.654   6.433   1.729
 4467SOL    HW125877   2.614   6.405   1.816
 4467SOL    HW225878   2.581   6.457   1.665
 4468SOL     OW25879   5.992   1.976   2.182
 4468SOL    HW125880   5.919   1.919   2.218
 4468SOL    HW225881   5.961   2.071   2.175
 4469SOL     OW25882   3.404   2.293   4.381
 4469SOL    HW125883   3.345   2.330   4.309
 4469SOL    HW225884   3.436   2.202   4.353
 4470SOL     OW25885   4.608   1.140   5.320
 4470SOL    HW125886   4.664   1.101   5.394
 4470SOL    HW225887   4.524   1.087   5.310
 4471SOL     OW25888   6.583   0.844   1.829
 4471SOL    HW125889   6.600   0.932   1.785
 4471SOL    HW225890   6.500   0.850   1.885
 4472SOL     OW25891   2.928   5.966   6.628
 4472SOL    HW125892   2.967   5.910   6.555
 4472SOL    HW225893   2.839   5.929   6.655
 4473SOL     OW25894   2.793   6.383   3.323
 4473SOL    HW125895   2.773   6.471   3.367
 4473SOL    HW225896   2.841   6.400   3.237
 4474SOL     OW25897   5.542   2.494   5.278
 4474SOL    HW125898   5.550   2.485   5.377
 4474SOL    HW225899   5.621   2.451   5.234
 4475SOL     OW25900   0.608   1.569   1.911
 4475SOL    HW125901   0.528   1.597   1.965
 4475SOL    HW225902   0.685   1.629   1.932
 4476SOL     OW25903   0.932   1.581   1.169
 4476SOL    HW125904   0.950   1.579   1.267
 4476SOL    HW225905   1.017   1.600   1.119
 4477SOL     OW25906   7.262   1.093   2.220
 4477SOL    HW125907   7.210   1.012   2.247
 4477SOL    HW225908   7.288   1.145   2.301
 4478SOL     OW25909   6.050   7.082   5.267
 4478SOL    HW125910   5.982   7.119   5.203
 4478SOL    HW225911   6.129   7.143   5.271
 4479SOL     OW25912   1.837   1.705   6.943
 4479SOL    HW125913   1.842   1.661   6.853
 4479SOL    HW225914   1.835   1.635   7.014
 4480SOL     OW25915   3.708   2.227   2.354
 4480SOL    HW125916   3.761   2.172   2.290
 4480SOL    HW225917   3.650   2.168   2.410
 4481SOL     OW25918   4.516   4.459   2.987
 4481SOL    HW125919   4.422   4.483   3.012
 4481SOL    HW225920   4.521   4.439   2.889
 4482SOL     OW25921   5.554   4.161   4.470
 4482SOL    HW125922   5.548   4.226   4.545
 4482SOL    HW225923   5.567   4.211   4.384
 4483SOL     OW25924   5.348   1.774   5.656
 4483SOL    HW125925   5.319   1.850   5.714
 4483SOL    HW225926   5.305   1.782   5.567
 4484SOL     OW25927   3.226   4.006   4.921
 4484SOL    HW125928   3.240   4.104   4.907
 4484SOL    HW225929   3.204   3.988   5.017
 4485SOL     OW25930   3.752   6.146   7.017
 4485SOL    HW125931   3.798   6.211   7.078
 4485SOL    HW225932   3.812   6.067   7.003
 4486SOL     OW25933   4.107   0.519   2.525
 4486SOL    HW125934   4.025   0.499   2.472
 4486SOL    HW225935   4.113   0.617   2.541
 4487SOL     OW25936   0.563   5.498   6.185
 4487SOL    HW125937   0.500   5.527   6.258
 4487SOL    HW225938   0.538   5.407   6.153
 4488SOL     OW25939   1.163   7.147   6.132
 4488SOL    HW125940   1.224   7.069   6.121
 4488SOL    HW225941   1.076   7.128   6.086
 4489SOL     OW25942   2.612   4.927   0.307
 4489SOL    HW125943   2.663   5.012   0.322
 4489SOL    HW225944   2.615   4.903   0.210
 4490SOL     OW25945   1.150   0.069   4.058
 4490SOL    HW125946   1.096   0.044   4.139
 4490SOL    HW225947   1.238   0.106   4.088
 4491SOL     OW25948   7.078   0.982   6.692
 4491SOL    HW125949   7.020   0.926   6.633
 4491SOL    HW225950   7.171   0.945   6.691
 4492SOL     OW25951   2.869   4.074   0.877
 4492SOL    HW125952   2.835   4.159   0.918
 4492SOL    HW225953   2.874   4.003   0.947
 4493SOL     OW25954   2.736   0.073   1.260
 4493SOL    HW125955   2.655   0.085   1.203
 4493SOL    HW225956   2.769   0.163   1.289
 4494SOL     OW25957   0.674   3.675   5.843
 4494SOL    HW125958   0.690   3.581   5.812
 4494SOL    HW225959   0.754   3.730   5.823
 4495SOL     OW25960   3.435   7.126   6.726
 4495SOL    HW125961   3.393   7.193   6.787
 4495SOL    HW225962   3.529   7.154   6.707
 4496SOL     OW25963   0.001   7.351   6.333
 4496SOL    HW125964  -0.082   7.359   6.278
 4496SOL    HW225965   0.066   7.422   6.306
 4497SOL     OW25966   0.821   4.002   4.779
 4497SOL    HW125967   0.855   4.087   4.820
 4497SOL    HW225968   0.853   3.924   4.834
 4498SOL     OW25969   3.672   7.155   4.773
 4498SOL    HW125970   3.717   7.094   4.708
 4498SOL    HW225971   3.736   7.228   4.799
 4499SOL     OW25972   0.945   7.192   3.794
 4499SOL    HW125973   0.933   7.144   3.707
 4499SOL    HW225974   0.873   7.166   3.857
 4500SOL     OW25975   6.465   1.648   1.488
 4500SOL    HW125976   6.367   1.641   1.470
 4500SOL    HW225977   6.501   1.731   1.447
 4501SOL     OW25978   4.021   4.328   4.681
 4501SOL    HW125979   3.933   4.292   4.711
 4501SOL    HW225980   4.028   4.321   4.581
 4502SOL     OW25981   4.935   7.168   6.687
 4502SOL    HW125982   4.842   7.155   6.654
 4502SOL    HW225983   4.972   7.254   6.652
 4503SOL     OW25984   4.948   2.645   2.139
 4503SOL    HW125985   4.935   2.649   2.238
 4503SOL    HW225986   4.991   2.730   2.107
 4504SOL     OW25987   6.679   7.065   0.820
 4504SOL    HW125988   6.608   7.022   0.876
 4504SOL    HW225989   6.715   6.997   0.755
 4505SOL     OW25990   2.358   1.372   1.150
 4505SOL    HW125991   2.381   1.431   1.228
 4505SOL    HW225992   2.296   1.300   1.180
 4506SOL     OW25993   6.386   4.676   0.933
 4506SOL    HW125994   6.372   4.766   0.891
 4506SOL    HW225995   6.406   4.609   0.862
 4507SOL     OW25996   1.773   0.216   5.755
 4507SOL    HW125997   1.731   0.147   5.814
 4507SOL    HW225998   1.783   0.179   5.663
 4508SOL     OW25999   0.943   1.179   0.718
 4508SOL    HW126000   0.958   1.233   0.801
 4508SOL    HW226001   0.977   1.229   0.639
 4509SOL     OW26002   1.637   4.726   5.110
 4509SOL    HW126003   1.656   4.746   5.206
 4509SOL    HW226004   1.698   4.781   5.052
 4510SOL     OW26005   6.909   0.029   6.696
 4510SOL    HW126006   6.938  -0.014   6.782
 4510SOL    HW226007   6.976   0.099   6.670
 4511SOL     OW26008   4.234   6.346   3.032
 4511SOL    HW126009   4.299   6.354   3.108
 4511SOL    HW226010   4.160   6.283   3.058
 4512SOL     OW26011   3.966   4.831   6.101
 4512SOL    HW126012   3.982   4.812   6.004
 4512SOL    HW226013   3.983   4.748   6.155
 4513SOL     OW26014   6.055   6.637   3.785
 4513SOL    HW126015   5.984   6.585   3.739
 4513SOL    HW226016   6.110   6.577   3.843
 4514SOL     OW26017   4.178   5.354   6.099
 4514SOL    HW126018   4.208   5.411   6.175
 4514SOL    HW226019   4.157   5.262   6.132
 4515SOL     OW26020   0.403   0.900   5.885
 4515SOL    HW126021   0.491   0.946   5.898
 4515SOL    HW226022   0.368   0.871   5.974
 4516SOL     OW26023   0.430   2.190   0.446
 4516SOL    HW126024   0.515   2.203   0.498
 4516SOL    HW226025   0.375   2.274   0.451
 4517SOL     OW26026   6.374   3.750   3.565
 4517SOL    HW126027   6.402   3.734   3.660
 4517SOL    HW226028   6.313   3.677   3.536
 4518SOL     OW26029   6.343   6.456   3.414
 4518SOL    HW126030   6.248   6.424   3.418
 4518SOL    HW226031   6.366   6.502   3.500
 4519SOL     OW26032   5.618   1.945   5.303
 4519SOL    HW126033   5.694   1.884   5.280
 4519SOL    HW226034   5.600   1.940   5.401
 4520SOL     OW26035   5.087   5.223   6.026
 4520SOL    HW126036   5.178   5.187   6.044
 4520SOL    HW226037   5.020   5.174   6.083
 4521SOL     OW26038   5.700   4.645   1.342
 4521SOL    HW126039   5.795   4.656   1.313
 4521SOL    HW226040   5.697   4.611   1.435
 4522SOL     OW26041   2.298   1.339   6.415
 4522SOL    HW126042   2.294   1.339   6.315
 4522SOL    HW226043   2.250   1.258   6.450
 4523SOL     OW26044   1.443   0.762   6.721
 4523SOL    HW126045   1.348   0.757   6.689
 4523SOL    HW226046   1.447   0.816   6.805
 4524SOL     OW26047   4.083   0.697   0.455
 4524SOL    HW126048   4.130   0.732   0.536
 4524SOL    HW226049   4.052   0.603   0.472
 4525SOL     OW26050   1.709   4.809   5.357
 4525SOL    HW126051   1.783   4.869   5.327
 4525SOL    HW226052   1.730   4.774   5.448
 4526SOL     OW26053   0.165   6.394   6.719
 4526SOL    HW126054   0.086   6.453   6.704
 4526SOL    HW226055   0.181   6.383   6.817
 4527SOL     OW26056   6.401   6.275   4.580
 4527SOL    HW126057   6.371   6.355   4.528
 4527SOL    HW226058   6.330   6.204   4.575
 4528SOL     OW26059   2.145   6.325   3.118
 4528SOL    HW126060   2.081   6.314   3.041
 4528SOL    HW226061   2.156   6.422   3.139
 4529SOL     OW26062   7.205   4.633   0.034
 4529SOL    HW126063   7.230   4.667   0.125
 4529SOL    HW226064   7.234   4.699  -0.035
 4530SOL     OW26065   0.331   2.678   0.003
 4530SOL    HW126066   0.395   2.732   0.058
 4530SOL    HW226067   0.242   2.678   0.047
 4531SOL     OW26068   1.737   7.029   5.871
 4531SOL    HW126069   1.831   6.999   5.883
 4531SOL    HW226070   1.677   6.949   5.862
 4532SOL     OW26071   5.682   1.995   2.677
 4532SOL    HW126072   5.629   2.057   2.618
 4532SOL    HW226073   5.775   1.987   2.642
 4533SOL     OW26074   7.137   4.047   3.717
 4533SOL    HW126075   7.115   4.087   3.806
 4533SOL    HW226076   7.093   3.958   3.708
 4534SOL     OW26077   4.846   6.865   4.982
 4534SOL    HW126078   4.770   6.909   4.933
 4534SOL    HW226079   4.811   6.823   5.065
 4535SOL     OW26080   2.705   4.917   3.786
 4535SOL    HW126081   2.768   4.950   3.856
 4535SOL    HW226082   2.618   4.894   3.828
 4536SOL     OW26083   1.243   4.648   1.030
 4536SOL    HW126084   1.270   4.678   1.122
 4536SOL    HW226085   1.288   4.561   1.009
 4537SOL     OW26086   3.836   6.343   1.793
 4537SOL    HW126087   3.749   6.368   1.750
 4537SOL    HW226088   3.842   6.243   1.800
 4538SOL     OW26089   3.784   0.218   5.393
 4538SOL    HW126090   3.839   0.221   5.476
 4538SOL    HW226091   3.761   0.123   5.372
 4539SOL     OW26092   6.131   2.119   2.407
 4539SOL    HW126093   6.090   2.101   2.318
 4539SOL    HW226094   6.198   2.193   2.399
 4540SOL     OW26095   5.520   4.408   3.273
 4540SOL    HW126096   5.493   4.499   3.306
 4540SOL    HW226097   5.447   4.371   3.216
 4541SOL     OW26098   5.390   2.009   6.070
 4541SOL    HW126099   5.460   1.972   6.131
 4541SOL    HW226100   5.430   2.031   5.981
 4542SOL     OW26101   2.423   0.737   0.088
 4542SOL    HW126102   2.422   0.810   0.157
 4542SOL    HW226103   2.363   0.663   0.117
 4543SOL     OW26104   2.639   3.878   4.496
 4543SOL    HW126105   2.544   3.898   4.474
 4543SOL    HW226106   2.659   3.907   4.590
 4544SOL     OW26107   0.227   5.708   3.581
 4544SOL    HW126108   0.206   5.792   3.531
 4544SOL    HW226109   0.173   5.632   3.544
 4545SOL     OW26110   2.706   6.999   5.645
 4545SOL    HW126111   2.786   6.990   5.704
 4545SOL    HW226112   2.729   6.967   5.553
 4546SOL     OW26113   2.436   1.024   1.736
 4546SOL    HW126114   2.450   1.032   1.835
 4546SOL    HW226115   2.339   1.014   1.716
 4547SOL     OW26116   6.851   5.330   6.064
 4547SOL    HW126117   6.883   5.310   6.156
 4547SOL    HW226118   6.763   5.285   6.048
 4548SOL     OW26119   7.286   0.500   5.091
 4548SOL    HW126120   7.242   0.416   5.123
 4548SOL    HW226121   7.217   0.560   5.050
 4549SOL     OW26122   5.862   1.661   6.493
 4549SOL    HW126123   5.894   1.691   6.403
 4549SOL    HW226124   5.913   1.579   6.520
 4550SOL     OW26125   2.907   0.176   7.286
 4550SOL    HW126126   2.864   0.094   7.322
 4550SOL    HW226127   2.841   0.251   7.284
 4551SOL     OW26128   1.790   4.856   4.911
 4551SOL    HW126129   1.872   4.823   4.865
 4551SOL    HW226130   1.712   4.854   4.848
 4552SOL     OW26131   4.785   1.661   4.316
 4552SOL    HW126132   4.879   1.641   4.288
 4552SOL    HW226133   4.727   1.673   4.235
 4553SOL     OW26134   6.061   5.542   6.511
 4553SOL    HW126135   6.079   5.638   6.490
 4553SOL    HW226136   6.112   5.515   6.593
 4554SOL     OW26137   6.412   2.854   6.290
 4554SOL    HW126138   6.344   2.927   6.294
 4554SOL    HW226139   6.418   2.809   6.379
 4555SOL     OW26140   2.721   0.997   5.648
 4555SOL    HW126141   2.787   0.941   5.698
 4555SOL    HW226142   2.760   1.022   5.559
 4556SOL     OW26143   2.749   2.174   6.079
 4556SOL    HW126144   2.659   2.215   6.093
 4556SOL    HW226145   2.741   2.095   6.018
 4557SOL     OW26146   7.182   0.441   5.615
 4557SOL    HW126147   7.090   0.422   5.581
 4557SOL    HW226148   7.244   0.453   5.538
 4558SOL     OW26149   4.751   1.074   0.967
 4558SOL    HW126150   4.696   1.132   1.026
 4558SOL    HW226151   4.784   1.128   0.889
 4559SOL     OW26152   1.826   0.572   3.733
 4559SOL    HW126153   1.818   0.473   3.743
 4559SOL    HW226154   1.921   0.597   3.715
 4560SOL     OW26155   2.365   4.223   2.736
 4560SOL    HW126156   2.326   4.180   2.817
 4560SOL    HW226157   2.457   4.189   2.720
 4561SOL     OW26158   4.346   5.650   5.092
 4561SOL    HW126159   4.414   5.718   5.063
 4561SOL    HW226160   4.316   5.670   5.185
 4562SOL     OW26161   5.969   5.041   0.805
 4562SOL    HW126162   5.921   4.975   0.746
 4562SOL    HW226163   6.050   5.074   0.757
 4563SOL     OW26164   6.883   3.749   3.950
 4563SOL    HW126165   6.958   3.758   3.885
 4563SOL    HW226166   6.882   3.656   3.987
 4564SOL     OW26167   5.693   1.303   3.190
 4564SOL    HW126168   5.639   1.235   3.141
 4564SOL    HW226169   5.752   1.257   3.257
 4565SOL     OW26170   3.235   1.238   2.602
 4565SOL    HW126171   3.324   1.266   2.568
 4565SOL    HW226172   3.225   1.139   2.593
 4566SOL     OW26173   1.691   4.599   5.866
 4566SOL    HW126174   1.784   4.588   5.899
 4566SOL    HW226175   1.689   4.669   5.794
 4567SOL     OW26176   7.232   5.021   3.026
 4567SOL    HW126177   7.269   5.074   3.102
 4567SOL    HW226178   7.240   4.924   3.046
 4568SOL     OW26179   7.021   2.305   5.049
 4568SOL    HW126180   6.975   2.393   5.058
 4568SOL    HW226181   7.111   2.309   5.093
 4569SOL     OW26182   2.885   3.387   0.523
 4569SOL    HW126183   2.852   3.320   0.589
 4569SOL    HW226184   2.963   3.436   0.561
 4570SOL     OW26185   5.516   0.754   3.503
 4570SOL    HW126186   5.440   0.738   3.566
 4570SOL    HW226187   5.529   0.673   3.445
 4571SOL     OW26188   0.068   3.002   5.582
 4571SOL    HW126189  -0.010   2.941   5.571
 4571SOL    HW226190   0.055   3.083   5.524
 4572SOL     OW26191   3.722   2.656   1.154
 4572SOL    HW126192   3.751   2.585   1.089
 4572SOL    HW226193   3.626   2.678   1.137
 4573SOL     OW26194   1.267   4.978   1.423
 4573SOL    HW126195   1.337   5.029   1.474
 4573SOL    HW226196   1.185   4.969   1.478
 4574SOL     OW26197   4.016   1.435   0.589
 4574SOL    HW126198   4.001   1.511   0.526
 4574SOL    HW226199   3.941   1.369   0.581
 4575SOL     OW26200   6.148   1.380   1.571
 4575SOL    HW126201   6.049   1.368   1.575
 4575SOL    HW226202   6.177   1.441   1.644
 4576SOL     OW26203   2.421   1.474   2.823
 4576SOL    HW126204   2.433   1.565   2.863
 4576SOL    HW226205   2.478   1.467   2.740
 4577SOL     OW26206   2.175   6.704   2.413
 4577SOL    HW126207   2.238   6.630   2.388
 4577SOL    HW226208   2.142   6.690   2.506
 4578SOL     OW26209   0.037   5.011   0.568
 4578SOL    HW126210   0.077   5.065   0.643
 4578SOL    HW226211   0.011   5.072   0.494
 4579SOL     OW26212   5.143   5.151   1.615
 4579SOL    HW126213   5.182   5.070   1.658
 4579SOL    HW226214   5.180   5.160   1.522
 4580SOL     OW26215   6.864   4.762   3.875
 4580SOL    HW126216   6.838   4.828   3.945
 4580SOL    HW226217   6.782   4.731   3.827
 4581SOL     OW26218   0.056   1.158   7.114
 4581SOL    HW126219   0.117   1.108   7.052
 4581SOL    HW226220   0.090   1.252   7.125
 4582SOL     OW26221   1.226   1.200   3.247
 4582SOL    HW126222   1.250   1.275   3.308
 4582SOL    HW226223   1.304   1.139   3.235
 4583SOL     OW26224   6.867   1.808   5.155
 4583SOL    HW126225   6.786   1.829   5.100
 4583SOL    HW226226   6.839   1.768   5.242
 4584SOL     OW26227   1.500   2.341   3.189
 4584SOL    HW126228   1.557   2.324   3.109
 4584SOL    HW226229   1.520   2.273   3.260
 4585SOL     OW26230   3.319   5.515   7.352
 4585SOL    HW126231   3.374   5.490   7.273
 4585SOL    HW226232   3.297   5.612   7.349
 4586SOL     OW26233   4.888   5.107   0.599
 4586SOL    HW126234   4.861   5.011   0.607
 4586SOL    HW226235   4.809   5.162   0.572
 4587SOL     OW26236   3.386   2.520   3.798
 4587SOL    HW126237   3.292   2.551   3.810
 4587SOL    HW226238   3.388   2.421   3.789
 4588SOL     OW26239   5.682   1.722   4.659
 4588SOL    HW126240   5.753   1.727   4.729
 4588SOL    HW226241   5.720   1.686   4.574
 4589SOL     OW26242   5.931   6.953   5.590
 4589SOL    HW126243   5.880   6.874   5.554
 4589SOL    HW226244   6.025   6.925   5.610
 4590SOL     OW26245   3.892   4.691   1.352
 4590SOL    HW126246   3.948   4.716   1.431
 4590SOL    HW226247   3.929   4.608   1.309
 4591SOL     OW26248   1.453   2.650   7.332
 4591SOL    HW126249   1.513   2.579   7.370
 4591SOL    HW226250   1.418   2.707   7.406
 4592SOL     OW26251   2.370   4.267   5.239
 4592SOL    HW126252   2.301   4.234   5.304
 4592SOL    HW226253   2.398   4.360   5.265
 4593SOL     OW26254   0.397   4.835   3.484
 4593SOL    HW126255   0.483   4.785   3.472
 4593SOL    HW226256   0.345   4.834   3.399
 4594SOL     OW26257   7.253   6.194   6.896
 4594SOL    HW126258   7.206   6.232   6.816
 4594SOL    HW226259   7.238   6.253   6.975
 4595SOL     OW26260   5.446   6.575   2.091
 4595SOL    HW126261   5.502   6.569   2.009
 4595SOL    HW226262   5.505   6.580   2.172
 4596SOL     OW26263   2.383   2.015   5.798
 4596SOL    HW126264   2.359   2.069   5.718
 4596SOL    HW226265   2.325   1.934   5.803
 4597SOL     OW26266   1.830   2.809   4.531
 4597SOL    HW126267   1.908   2.802   4.593
 4597SOL    HW226268   1.830   2.731   4.469
 4598SOL     OW26269   5.137   7.069   1.750
 4598SOL    HW126270   5.103   7.148   1.800
 4598SOL    HW226271   5.136   7.088   1.652
 4599SOL     OW26272   4.755   5.631   5.618
 4599SOL    HW126273   4.751   5.708   5.682
 4599SOL    HW226274   4.676   5.636   5.555
 4600SOL     OW26275   3.628   5.433   6.755
 4600SOL    HW126276   3.668   5.455   6.844
 4600SOL    HW226277   3.627   5.515   6.698
 4601SOL     OW26278   1.389   2.561   6.108
 4601SOL    HW126279   1.314   2.618   6.143
 4601SOL    HW226280   1.407   2.585   6.013
 4602SOL     OW26281   0.284   4.663   5.408
 4602SOL    HW126282   0.344   4.683   5.486
 4602SOL    HW226283   0.328   4.692   5.323
 4603SOL     OW26284   5.868   6.802   5.034
 4603SOL    HW126285   5.920   6.879   4.997
 4603SOL    HW226286   5.874   6.725   4.971
 4604SOL     OW26287   5.099   7.215   6.898
 4604SOL    HW126288   5.038   7.185   6.824
 4604SOL    HW226289   5.194   7.206   6.869
 4605SOL     OW26290   4.329   2.340   5.692
 4605SOL    HW126291   4.310   2.437   5.680
 4605SOL    HW226292   4.253   2.286   5.654
 4606SOL     OW26293   5.012   5.615   4.924
 4606SOL    HW126294   5.072   5.604   5.003
 4606SOL    HW226295   5.068   5.629   4.842
 4607SOL     OW26296   0.645   5.343   2.345
 4607SOL    HW126297   0.704   5.423   2.360
 4607SOL    HW226298   0.670   5.300   2.259
 4608SOL     OW26299   1.414   5.342   6.870
 4608SOL    HW126300   1.501   5.295   6.887
 4608SOL    HW226301   1.339   5.276   6.872
 4609SOL     OW26302   2.690   0.613   0.082
 4609SOL    HW126303   2.600   0.653   0.068
 4609SOL    HW226304   2.682   0.525   0.128
 4610SOL     OW26305   5.115   4.632   5.371
 4610SOL    HW126306   5.134   4.538   5.340
 4610SOL    HW226307   5.081   4.686   5.294
 4611SOL     OW26308   5.541   2.368   5.545
 4611SOL    HW126309   5.566   2.459   5.578
 4611SOL    HW226310   5.444   2.352   5.563
 4612SOL     OW26311   3.979   6.839   6.220
 4612SOL    HW126312   3.919   6.889   6.157
 4612SOL    HW226313   4.009   6.754   6.176
 4613SOL     OW26314   2.773   2.904   4.749
 4613SOL    HW126315   2.855   2.946   4.787
 4613SOL    HW226316   2.769   2.921   4.651
 4614SOL     OW26317   4.798   0.946   3.420
 4614SOL    HW126318   4.835   0.937   3.512
 4614SOL    HW226319   4.713   0.894   3.413
 4615SOL     OW26320   4.580   1.837   6.772
 4615SOL    HW126321   4.627   1.884   6.697
 4615SOL    HW226322   4.646   1.816   6.844
 4616SOL     OW26323   3.734   3.154   3.799
 4616SOL    HW126324   3.722   3.249   3.768
 4616SOL    HW226325   3.811   3.150   3.863
 4617SOL     OW26326   5.661   0.917   1.244
 4617SOL    HW126327   5.750   0.904   1.287
 4617SOL    HW226328   5.605   0.835   1.258
 4618SOL     OW26329   5.919   1.524   3.362
 4618SOL    HW126330   5.863   1.476   3.294
 4618SOL    HW226331   5.900   1.622   3.358
 4619SOL     OW26332   4.847   4.325   2.127
 4619SOL    HW126333   4.849   4.239   2.076
 4619SOL    HW226334   4.896   4.396   2.076
 4620SOL     OW26335   1.533   1.536   0.022
 4620SOL    HW126336   1.581   1.454   0.051
 4620SOL    HW226337   1.585   1.584  -0.048
 4621SOL     OW26338   4.929   5.159   1.297
 4621SOL    HW126339   4.995   5.084   1.300
 4621SOL    HW226340   4.974   5.243   1.265
 4622SOL     OW26341   5.286   0.041   0.312
 4622SOL    HW126342   5.209   0.103   0.315
 4622SOL    HW226343   5.264  -0.037   0.253
 4623SOL     OW26344   1.604   3.919   2.226
 4623SOL    HW126345   1.513   3.953   2.202
 4623SOL    HW226346   1.673   3.971   2.176
 4624SOL     OW26347   1.559   1.633   3.673
 4624SOL    HW126348   1.631   1.579   3.629
 4624SOL    HW226349   1.487   1.651   3.606
 4625SOL     OW26350   7.039   6.070   6.333
 4625SOL    HW126351   6.960   6.012   6.350
 4625SOL    HW226352   7.021   6.130   6.256
 4626SOL     OW26353   6.160   3.917   7.314
 4626SOL    HW126354   6.117   3.839   7.358
 4626SOL    HW226355   6.192   3.982   7.383
 4627SOL     OW26356   4.422   0.164   2.663
 4627SOL    HW126357   4.372   0.243   2.698
 4627SOL    HW226358   4.367   0.081   2.676
 4628SOL     OW26359   3.209   3.045   4.508
 4628SOL    HW126360   3.229   3.143   4.497
 4628SOL    HW226361   3.289   2.991   4.480
 4629SOL     OW26362   6.188   6.885   3.798
 4629SOL    HW126363   6.271   6.881   3.742
 4629SOL    HW226364   6.134   6.802   3.784
 4630SOL     OW26365   7.060   6.843   0.431
 4630SOL    HW126366   7.022   6.850   0.523
 4630SOL    HW226367   6.992   6.805   0.370
 4631SOL     OW26368   4.532   4.122   2.423
 4631SOL    HW126369   4.562   4.064   2.499
 4631SOL    HW226370   4.603   4.189   2.403
 4632SOL     OW26371   3.359   5.740   7.060
 4632SOL    HW126372   3.440   5.767   7.009
 4632SOL    HW226373   3.279   5.784   7.021
 4633SOL     OW26374   1.854   5.988   0.122
 4633SOL    HW126375   1.765   6.012   0.083
 4633SOL    HW226376   1.903   5.928   0.059
 4634SOL     OW26377   3.547   3.216   1.078
 4634SOL    HW126378   3.463   3.267   1.098
 4634SOL    HW226379   3.534   3.120   1.103
 4635SOL     OW26380   3.121   6.606   5.298
 4635SOL    HW126381   3.117   6.619   5.397
 4635SOL    HW226382   3.177   6.526   5.278
 4636SOL     OW26383   1.714   2.125   3.393
 4636SOL    HW126384   1.794   2.135   3.453
 4636SOL    HW226385   1.743   2.086   3.306
 4637SOL     OW26386   3.311   6.414   5.224
 4637SOL    HW126387   3.364   6.464   5.156
 4637SOL    HW226388   3.276   6.329   5.184
 4638SOL     OW26389   0.377   1.703   2.832
 4638SOL    HW126390   0.373   1.614   2.877
 4638SOL    HW226391   0.353   1.694   2.736
 4639SOL     OW26392   1.767   4.114   4.606
 4639SOL    HW126393   1.759   4.209   4.636
 4639SOL    HW226394   1.742   4.054   4.682
 4640SOL     OW26395   4.440   3.360   1.568
 4640SOL    HW126396   4.432   3.421   1.646
 4640SOL    HW226397   4.351   3.316   1.551
 4641SOL     OW26398   0.976   4.628   5.364
 4641SOL    HW126399   0.900   4.613   5.427
 4641SOL    HW226400   1.059   4.647   5.416
 4642SOL     OW26401   6.292   6.082   1.322
 4642SOL    HW126402   6.244   5.994   1.321
 4642SOL    HW226403   6.299   6.117   1.228
 4643SOL     OW26404   0.169   1.454   7.070
 4643SOL    HW126405   0.082   1.491   7.102
 4643SOL    HW226406   0.195   1.499   6.984
 4644SOL     OW26407   5.614   4.015   2.791
 4644SOL    HW126408   5.609   3.939   2.727
 4644SOL    HW226409   5.700   4.012   2.841
 4645SOL     OW26410   5.971   5.392   3.620
 4645SOL    HW126411   5.950   5.488   3.599
 4645SOL    HW226412   6.005   5.346   3.538
 4646SOL     OW26413   2.614   5.644   3.293
 4646SOL    HW126414   2.570   5.592   3.366
 4646SOL    HW226415   2.580   5.738   3.293
 4647SOL     OW26416   0.964   2.984   1.609
 4647SOL    HW126417   0.871   3.018   1.599
 4647SOL    HW226418   0.992   2.988   1.705
 4648SOL     OW26419   0.145   2.224   6.308
 4648SOL    HW126420   0.205   2.276   6.369
 4648SOL    HW226421   0.054   2.267   6.306
 4649SOL     OW26422   7.308   5.457   0.067
 4649SOL    HW126423   7.360   5.471   0.151
 4649SOL    HW226424   7.372   5.450  -0.010
 4650SOL     OW26425   6.088   5.574   1.774
 4650SOL    HW126426   6.126   5.507   1.710
 4650SOL    HW226427   5.988   5.578   1.761
 4651SOL     OW26428   3.784   1.472   5.717
 4651SOL    HW126429   3.714   1.400   5.720
 4651SOL    HW226430   3.869   1.434   5.682
 4652SOL     OW26431   7.192   7.358   0.727
 4652SOL    HW126432   7.255   7.290   0.764
 4652SOL    HW226433   7.103   7.316   0.710
 4653SOL     OW26434   1.485   3.858   7.179
 4653SOL    HW126435   1.526   3.780   7.133
 4653SOL    HW226436   1.518   3.864   7.273
 4654SOL     OW26437   5.054   5.937   7.158
 4654SOL    HW126438   5.128   5.992   7.198
 4654SOL    HW226439   4.970   5.954   7.210
 4655SOL     OW26440   3.845   3.972   0.654
 4655SOL    HW126441   3.790   4.045   0.613
 4655SOL    HW226442   3.855   3.990   0.752
 4656SOL     OW26443   3.466   5.455   7.123
 4656SOL    HW126444   3.406   5.529   7.092
 4656SOL    HW226445   3.554   5.463   7.077
 4657SOL     OW26446   6.305   1.987   0.482
 4657SOL    HW126447   6.364   1.997   0.403
 4657SOL    HW226448   6.211   2.010   0.457
 4658SOL     OW26449   4.511   5.598   4.039
 4658SOL    HW126450   4.556   5.573   4.125
 4658SOL    HW226451   4.515   5.697   4.026
 4659SOL     OW26452   1.778   1.286   7.135
 4659SOL    HW126453   1.773   1.300   7.036
 4659SOL    HW226454   1.702   1.228   7.163
 4660SOL     OW26455   1.556   4.140   3.779
 4660SOL    HW126456   1.608   4.152   3.864
 4660SOL    HW226457   1.459   4.152   3.798
 4661SOL     OW26458   6.601   5.199   6.087
 4661SOL    HW126459   6.586   5.130   6.158
 4661SOL    HW226460   6.534   5.187   6.014
 4662SOL     OW26461   1.816   1.814   5.474
 4662SOL    HW126462   1.737   1.767   5.434
 4662SOL    HW226463   1.900   1.767   5.448
 4663SOL     OW26464   1.840   0.632   7.039
 4663SOL    HW126465   1.923   0.620   7.093
 4663SOL    HW226466   1.864   0.674   6.951
 4664SOL     OW26467   2.740   1.718   0.942
 4664SOL    HW126468   2.800   1.650   0.983
 4664SOL    HW226469   2.661   1.734   1.002
 4665SOL     OW26470   0.366   6.347   2.592
 4665SOL    HW126471   0.438   6.311   2.651
 4665SOL    HW226472   0.312   6.415   2.642
 4666SOL     OW26473   1.912   0.136   6.689
 4666SOL    HW126474   1.848   0.167   6.759
 4666SOL    HW226475   2.001   0.117   6.731
 4667SOL     OW26476   2.288   4.586   4.514
 4667SOL    HW126477   2.378   4.624   4.536
 4667SOL    HW226478   2.273   4.592   4.415
 4668SOL     OW26479   4.956   3.892   0.761
 4668SOL    HW126480   4.980   3.883   0.665
 4668SOL    HW226481   5.024   3.949   0.808
 4669SOL     OW26482   0.964   4.541   2.006
 4669SOL    HW126483   0.889   4.590   2.049
 4669SOL    HW226484   0.932   4.496   1.923
 4670SOL     OW26485   6.305   5.307   4.736
 4670SOL    HW126486   6.238   5.349   4.797
 4670SOL    HW226487   6.301   5.208   4.746
 4671SOL     OW26488   0.596   3.089   6.268
 4671SOL    HW126489   0.656   3.170   6.275
 4671SOL    HW226490   0.515   3.113   6.214
 4672SOL     OW26491   6.495   0.754   5.331
 4672SOL    HW126492   6.469   0.731   5.237
 4672SOL    HW226493   6.589   0.726   5.347
 4673SOL     OW26494   1.037   4.834   0.740
 4673SOL    HW126495   1.131   4.801   0.748
 4673SOL    HW226496   0.986   4.773   0.679
 4674SOL     OW26497   3.049   5.800   7.292
 4674SOL    HW126498   3.019   5.891   7.321
 4674SOL    HW226499   3.144   5.805   7.261
 4675SOL     OW26500   0.322   4.338   6.614
 4675SOL    HW126501   0.397   4.272   6.624
 4675SOL    HW226502   0.321   4.373   6.520
 4676SOL     OW26503   0.739   1.561   0.403
 4676SOL    HW126504   0.648   1.590   0.432
 4676SOL    HW226505   0.799   1.556   0.483
 4677SOL     OW26506   3.523   6.507   6.791
 4677SOL    HW126507   3.544   6.604   6.781
 4677SOL    HW226508   3.482   6.491   6.881
 4678SOL     OW26509   3.642   2.899   4.312
 4678SOL    HW126510   3.638   2.995   4.283
 4678SOL    HW226511   3.692   2.892   4.398
 4679SOL     OW26512   0.731   6.593   6.157
 4679SOL    HW126513   0.681   6.670   6.118
 4679SOL    HW226514   0.680   6.556   6.235
 4680SOL     OW26515   5.140   1.098   3.824
 4680SOL    HW126516   5.142   1.194   3.797
 4680SOL    HW226517   5.233   1.061   3.820
 4681SOL     OW26518   2.380   6.215   6.267
 4681SOL    HW126519   2.433   6.139   6.306
 4681SOL    HW226520   2.297   6.179   6.224
 4682SOL     OW26521   3.492   6.508   6.242
 4682SOL    HW126522   3.532   6.417   6.232
 4682SOL    HW226523   3.513   6.564   6.162
 4683SOL     OW26524   6.065   5.233   2.064
 4683SOL    HW126525   6.046   5.204   1.970
 4683SOL    HW226526   5.983   5.275   2.103
 4684SOL     OW26527   0.738   3.293   2.883
 4684SOL    HW126528   0.781   3.361   2.942
 4684SOL    HW226529   0.792   3.209   2.885
 4685SOL     OW26530   0.286   3.164   5.158
 4685SOL    HW126531   0.311   3.134   5.066
 4685SOL    HW226532   0.368   3.173   5.214
 4686SOL     OW26533   0.897   5.533   0.952
 4686SOL    HW126534   0.815   5.492   0.913
 4686SOL    HW226535   0.871   5.604   1.018
 4687SOL     OW26536   5.422   0.159   1.582
 4687SOL    HW126537   5.444   0.253   1.610
 4687SOL    HW226538   5.337   0.160   1.529
 4688SOL     OW26539   5.656   0.272   3.982
 4688SOL    HW126540   5.656   0.343   3.912
 4688SOL    HW226541   5.593   0.297   4.055
 4689SOL     OW26542   0.245   5.850   1.075
 4689SOL    HW126543   0.330   5.797   1.086
 4689SOL    HW226544   0.254   5.911   0.997
 4690SOL     OW26545   5.479   0.057   3.274
 4690SOL    HW126546   5.410  -0.002   3.231
 4690SOL    HW226547   5.433   0.124   3.332
 4691SOL     OW26548   4.590   5.700   3.080
 4691SOL    HW126549   4.624   5.794   3.076
 4691SOL    HW226550   4.574   5.675   3.176
 4692SOL     OW26551   5.276   0.940   2.299
 4692SOL    HW126552   5.285   1.032   2.339
 4692SOL    HW226553   5.271   0.873   2.373
 4693SOL     OW26554   2.020   3.021   0.969
 4693SOL    HW126555   1.984   2.951   0.908
 4693SOL    HW226556   2.061   2.978   1.050
 4694SOL     OW26557   3.983   4.215   0.513
 4694SOL    HW126558   3.893   4.193   0.475
 4694SOL    HW226559   4.035   4.131   0.525
 4695SOL     OW26560   0.848   3.102   5.177
 4695SOL    HW126561   0.794   3.186   5.174
 4695SOL    HW226562   0.893   3.088   5.089
 4696SOL     OW26563   2.057   7.330   3.221
 4696SOL    HW126564   2.102   7.330   3.310
 4696SOL    HW226565   1.958   7.344   3.233
 4697SOL     OW26566   6.322   5.392   3.851
 4697SOL    HW126567   6.250   5.451   3.814
 4697SOL    HW226568   6.371   5.441   3.923
 4698SOL     OW26569   7.156   2.046   2.818
 4698SOL    HW126570   7.147   2.073   2.914
 4698SOL    HW226571   7.070   2.008   2.786
 4699SOL     OW26572   4.659   4.263   4.997
 4699SOL    HW126573   4.664   4.178   4.944
 4699SOL    HW226574   4.714   4.334   4.953
 4700SOL     OW26575   1.162   4.295   0.577
 4700SOL    HW126576   1.143   4.264   0.484
 4700SOL    HW226577   1.223   4.375   0.574
 4701SOL     OW26578   1.962   1.076   0.153
 4701SOL    HW126579   1.923   0.995   0.110
 4701SOL    HW226580   2.035   1.048   0.216
 4702SOL     OW26581   1.160   0.178   1.184
 4702SOL    HW126582   1.104   0.187   1.102
 4702SOL    HW226583   1.101   0.182   1.265
 4703SOL     OW26584   4.349   3.542   6.859
 4703SOL    HW126585   4.320   3.456   6.901
 4703SOL    HW226586   4.400   3.596   6.927
 4704SOL     OW26587   6.521   2.414   3.248
 4704SOL    HW126588   6.570   2.350   3.189
 4704SOL    HW226589   6.559   2.506   3.238
 4705SOL     OW26590   5.884   0.619   2.200
 4705SOL    HW126591   5.793   0.660   2.199
 4705SOL    HW226592   5.877   0.524   2.231
 4706SOL     OW26593   5.917   6.383   5.908
 4706SOL    HW126594   5.934   6.445   5.985
 4706SOL    HW226595   5.992   6.317   5.901
 4707SOL     OW26596   2.968   3.554   5.675
 4707SOL    HW126597   3.024   3.618   5.727
 4707SOL    HW226598   2.872   3.563   5.702
 4708SOL     OW26599   3.043   5.631   4.491
 4708SOL    HW126600   3.018   5.612   4.586
 4708SOL    HW226601   2.960   5.647   4.438
 4709SOL     OW26602   1.814   1.515   6.717
 4709SOL    HW126603   1.842   1.436   6.771
 4709SOL    HW226604   1.754   1.485   6.642
 4710SOL     OW26605   1.584   5.813   0.316
 4710SOL    HW126606   1.670   5.763   0.327
 4710SOL    HW226607   1.601   5.911   0.330
 4711SOL     OW26608   2.800   2.920   2.230
 4711SOL    HW126609   2.761   2.931   2.322
 4711SOL    HW226610   2.898   2.941   2.233
 4712SOL     OW26611   4.331   7.248   2.792
 4712SOL    HW126612   4.398   7.235   2.865
 4712SOL    HW226613   4.282   7.163   2.775
 4713SOL     OW26614   1.715   0.731   6.599
 4713SOL    HW126615   1.645   0.731   6.670
 4713SOL    HW226616   1.708   0.815   6.545
 4714SOL     OW26617   6.222   5.129   3.838
 4714SOL    HW126618   6.127   5.142   3.866
 4714SOL    HW226619   6.275   5.211   3.861
 4715SOL     OW26620   6.435   3.536   2.576
 4715SOL    HW126621   6.456   3.454   2.630
 4715SOL    HW226622   6.358   3.584   2.617
 4716SOL     OW26623   5.740   5.014   2.241
 4716SOL    HW126624   5.655   4.992   2.287
 4716SOL    HW226625   5.817   4.987   2.299
 4717SOL     OW26626   4.924   3.601   0.375
 4717SOL    HW126627   4.876   3.575   0.291
 4717SOL    HW226628   4.950   3.519   0.425
 4718SOL     OW26629   3.984   0.988   0.656
 4718SOL    HW126630   3.940   1.070   0.621
 4718SOL    HW226631   4.050   1.013   0.727
 4719SOL     OW26632   5.857   2.787   3.170
 4719SOL    HW126633   5.824   2.849   3.098
 4719SOL    HW226634   5.882   2.699   3.130
 4720SOL     OW26635   2.207   2.864   6.167
 4720SOL    HW126636   2.233   2.797   6.097
 4720SOL    HW226637   2.279   2.933   6.174
 4721SOL     OW26638   6.815   2.159   0.025
 4721SOL    HW126639   6.792   2.128   0.117
 4721SOL    HW226640   6.788   2.254   0.014
 4722SOL     OW26641   5.913   6.649   2.605
 4722SOL    HW126642   5.922   6.696   2.693
 4722SOL    HW226643   5.927   6.715   2.531
 4723SOL     OW26644   5.744   7.118   1.904
 4723SOL    HW126645   5.651   7.084   1.918
 4723SOL    HW226646   5.809   7.042   1.914
 4724SOL     OW26647   2.694   5.230   3.766
 4724SOL    HW126648   2.727   5.214   3.859
 4724SOL    HW226649   2.763   5.280   3.714
 4725SOL     OW26650   7.313   1.313   1.715
 4725SOL    HW126651   7.258   1.258   1.778
 4725SOL    HW226652   7.387   1.256   1.678
 4726SOL     OW26653   0.970   5.349   4.421
 4726SOL    HW126654   0.892   5.411   4.411
 4726SOL    HW226655   0.946   5.260   4.384
 4727SOL     OW26656   1.824   2.111   0.617
 4727SOL    HW126657   1.737   2.158   0.608
 4727SOL    HW226658   1.829   2.065   0.706
 4728SOL     OW26659   3.907   5.580   4.874
 4728SOL    HW126660   3.955   5.660   4.840
 4728SOL    HW226661   3.812   5.603   4.892
 4729SOL     OW26662   7.175   2.707   4.354
 4729SOL    HW126663   7.111   2.783   4.339
 4729SOL    HW226664   7.131   2.639   4.412
 4730SOL     OW26665   6.068   6.738   0.269
 4730SOL    HW126666   6.090   6.817   0.326
 4730SOL    HW226667   6.133   6.664   0.287
 4731SOL     OW26668   3.411   7.090   1.299
 4731SOL    HW126669   3.506   7.105   1.273
 4731SOL    HW226670   3.352   7.149   1.245
 4732SOL     OW26671   2.356   0.172   3.382
 4732SOL    HW126672   2.412   0.229   3.443
 4732SOL    HW226673   2.396   0.174   3.290
 4733SOL     OW26674   4.022   1.615   0.397
 4733SOL    HW126675   3.967   1.695   0.373
 4733SOL    HW226676   4.068   1.581   0.316
 4734SOL     OW26677   1.311   4.733   1.561
 4734SOL    HW126678   1.250   4.748   1.639
 4734SOL    HW226679   1.334   4.821   1.520
 4735SOL     OW26680   6.111   5.169   0.346
 4735SOL    HW126681   6.049   5.098   0.312
 4735SOL    HW226682   6.204   5.132   0.352
 4736SOL     OW26683   0.061   1.089   2.645
 4736SOL    HW126684   0.150   1.050   2.624
 4736SOL    HW226685   0.002   1.018   2.684
 4737SOL     OW26686   0.188   4.861   5.819
 4737SOL    HW126687   0.148   4.924   5.885
 4737SOL    HW226688   0.132   4.860   5.736
 4738SOL     OW26689   3.623   6.379   1.585
 4738SOL    HW126690   3.554   6.430   1.533
 4738SOL    HW226691   3.673   6.319   1.523
 4739SOL     OW26692   6.318   6.498   6.617
 4739SOL    HW126693   6.397   6.453   6.658
 4739SOL    HW226694   6.341   6.528   6.525
 4740SOL     OW26695   0.045   3.758   2.989
 4740SOL    HW126696  -0.012   3.742   2.908
 4740SOL    HW226697   0.059   3.856   3.000
 4741SOL     OW26698   0.202   2.458   7.138
 4741SOL    HW126699   0.186   2.406   7.054
 4741SOL    HW226700   0.296   2.493   7.138
 4742SOL     OW26701   5.675   6.638   3.303
 4742SOL    HW126702   5.633   6.564   3.357
 4742SOL    HW226703   5.770   6.616   3.285
 4743SOL     OW26704   1.133   1.852   0.779
 4743SOL    HW126705   1.041   1.829   0.745
 4743SOL    HW226706   1.194   1.864   0.701
 4744SOL     OW26707   1.811   7.348   3.309
 4744SOL    HW126708   1.786   7.279   3.377
 4744SOL    HW226709   1.728   7.388   3.270
 4745SOL     OW26710   1.134   1.522   3.667
 4745SOL    HW126711   1.178   1.608   3.642
 4745SOL    HW226712   1.117   1.520   3.765
 4746SOL     OW26713   5.480   0.318   0.142
 4746SOL    HW126714   5.381   0.305   0.140
 4746SOL    HW226715   5.519   0.287   0.055
 4747SOL     OW26716   2.662   6.458   0.041
 4747SOL    HW126717   2.599   6.528   0.074
 4747SOL    HW226718   2.640   6.371   0.086
 4748SOL     OW26719   2.239   3.258   5.967
 4748SOL    HW126720   2.169   3.206   5.918
 4748SOL    HW226721   2.198   3.302   6.047
 4749SOL     OW26722   4.599   0.600   4.363
 4749SOL    HW126723   4.513   0.563   4.328
 4749SOL    HW226724   4.671   0.531   4.357
 4750SOL     OW26725   6.758   2.329   1.713
 4750SOL    HW126726   6.780   2.425   1.734
 4750SOL    HW226727   6.670   2.326   1.665
 4751SOL     OW26728   1.880   2.789   2.095
 4751SOL    HW126729   1.881   2.767   1.998
 4751SOL    HW226730   1.807   2.854   2.114
 4752SOL     OW26731   2.144   5.416   6.118
 4752SOL    HW126732   2.222   5.417   6.180
 4752SOL    HW226733   2.064   5.382   6.166
 4753SOL     OW26734   6.041   4.605   3.506
 4753SOL    HW126735   6.052   4.511   3.472
 4753SOL    HW226736   6.119   4.660   3.477
 4754SOL     OW26737   2.058   2.572   0.681
 4754SOL    HW126738   2.047   2.474   0.663
 4754SOL    HW226739   2.112   2.613   0.607
 4755SOL     OW26740   4.826   4.168   3.697
 4755SOL    HW126741   4.915   4.199   3.729
 4755SOL    HW226742   4.830   4.148   3.599
 4756SOL     OW26743   4.746   6.472   2.584
 4756SOL    HW126744   4.768   6.383   2.545
 4756SOL    HW226745   4.658   6.467   2.631
 4757SOL     OW26746   4.456   1.876   4.450
 4757SOL    HW126747   4.553   1.857   4.466
 4757SOL    HW226748   4.428   1.841   4.361
 4758SOL     OW26749   3.984   0.095   5.603
 4758SOL    HW126750   3.997   0.015   5.661
 4758SOL    HW226751   4.043   0.087   5.522
 4759SOL     OW26752   6.610   3.848   1.153
 4759SOL    HW126753   6.623   3.757   1.192
 4759SOL    HW226754   6.628   3.917   1.223
 4760SOL     OW26755   1.539   2.192   6.156
 4760SOL    HW126756   1.468   2.233   6.213
 4760SOL    HW226757   1.588   2.123   6.208
 4761SOL     OW26758   1.827   4.322   5.969
 4761SOL    HW126759   1.799   4.227   5.980
 4761SOL    HW226760   1.756   4.372   5.918
 4762SOL     OW26761   5.935   4.404   3.215
 4762SOL    HW126762   5.841   4.430   3.194
 4762SOL    HW226763   5.998   4.474   3.181
 4763SOL     OW26764   1.324   1.826   0.594
 4763SOL    HW126765   1.393   1.856   0.528
 4763SOL    HW226766   1.357   1.745   0.642
 4764SOL     OW26767   7.321   2.963   6.788
 4764SOL    HW126768   7.326   3.043   6.847
 4764SOL    HW226769   7.329   2.991   6.692
 4765SOL     OW26770   6.296   1.718   3.560
 4765SOL    HW126771   6.385   1.693   3.598
 4765SOL    HW226772   6.304   1.805   3.511
 4766SOL     OW26773   2.368   4.635   0.164
 4766SOL    HW126774   2.300   4.571   0.126
 4766SOL    HW226775   2.459   4.595   0.155
 4767SOL     OW26776   1.512   5.204   4.642
 4767SOL    HW126777   1.516   5.164   4.550
 4767SOL    HW226778   1.490   5.302   4.635
 4768SOL     OW26779   1.571   2.352   0.194
 4768SOL    HW126780   1.507   2.279   0.170
 4768SOL    HW226781   1.640   2.361   0.121
 4769SOL     OW26782   5.313   5.645   6.449
 4769SOL    HW126783   5.296   5.725   6.505
 4769SOL    HW226784   5.360   5.672   6.365
 4770SOL     OW26785   1.543   2.267   5.592
 4770SOL    HW126786   1.453   2.309   5.579
 4770SOL    HW226787   1.553   2.239   5.688
 4771SOL     OW26788   5.845   7.061   2.375
 4771SOL    HW126789   5.882   7.019   2.457
 4771SOL    HW226790   5.816   7.154   2.395
 4772SOL     OW26791   4.290   0.399   6.922
 4772SOL    HW126792   4.286   0.306   6.959
 4772SOL    HW226793   4.281   0.465   6.997
 4773SOL     OW26794   4.151   0.147   7.249
 4773SOL    HW126795   4.058   0.113   7.232
 4773SOL    HW226796   4.195   0.089   7.317
 4774SOL     OW26797   4.965   1.916   6.864
 4774SOL    HW126798   4.889   1.938   6.925
 4774SOL    HW226799   4.931   1.906   6.771
 4775SOL     OW26800   4.091   0.880   3.878
 4775SOL    HW126801   4.148   0.958   3.849
 4775SOL    HW226802   4.032   0.852   3.803
 4776SOL     OW26803   2.433   6.233   2.493
 4776SOL    HW126804   2.478   6.222   2.405
 4776SOL    HW226805   2.354   6.172   2.498
 4777SOL     OW26806   5.913   2.579   3.975
 4777SOL    HW126807   5.913   2.661   3.918
 4777SOL    HW226808   5.855   2.509   3.932
 4778SOL     OW26809   4.051   2.906   4.897
 4778SOL    HW126810   4.123   2.929   4.962
 4778SOL    HW226811   4.092   2.885   4.808
 4779SOL     OW26812   6.811   4.097   2.211
 4779SOL    HW126813   6.774   4.122   2.121
 4779SOL    HW226814   6.907   4.071   2.201
 4780SOL     OW26815   2.164   5.814   3.495
 4780SOL    HW126816   2.126   5.898   3.534
 4780SOL    HW226817   2.247   5.789   3.544
 4781SOL     OW26818   2.386   2.443   6.752
 4781SOL    HW126819   2.457   2.411   6.814
 4781SOL    HW226820   2.302   2.390   6.768
 4782SOL     OW26821   0.166   5.575   2.018
 4782SOL    HW126822   0.073   5.585   2.054
 4782SOL    HW226823   0.228   5.632   2.071
 4783SOL     OW26824   4.645   7.351   5.520
 4783SOL    HW126825   4.721   7.342   5.456
 4783SOL    HW226826   4.655   7.437   5.572
 4784SOL     OW26827   5.616   3.849   2.543
 4784SOL    HW126828   5.660   3.922   2.491
 4784SOL    HW226829   5.684   3.802   2.599
 4785SOL     OW26830   0.112   2.456   5.057
 4785SOL    HW126831   0.204   2.445   5.095
 4785SOL    HW226832   0.075   2.544   5.085
 4786SOL     OW26833   7.229   2.342   4.399
 4786SOL    HW126834   7.150   2.296   4.440
 4786SOL    HW226835   7.281   2.388   4.471
 4787SOL     OW26836   3.339   0.781   1.219
 4787SOL    HW126837   3.355   0.684   1.200
 4787SOL    HW226838   3.282   0.791   1.301
 4788SOL     OW26839   2.768   4.323   3.271
 4788SOL    HW126840   2.791   4.416   3.300
 4788SOL    HW226841   2.851   4.276   3.240
 4789SOL     OW26842   1.142   0.024   3.794
 4789SOL    HW126843   1.066  -0.037   3.774
 4789SOL    HW226844   1.151   0.036   3.893
 4790SOL     OW26845   4.832   2.518   1.120
 4790SOL    HW126846   4.823   2.465   1.204
 4790SOL    HW226847   4.912   2.578   1.126
 4791SOL     OW26848   0.411   1.036   1.463
 4791SOL    HW126849   0.358   0.952   1.449
 4791SOL    HW226850   0.427   1.080   1.374
 4792SOL     OW26851   5.498   0.678   4.936
 4792SOL    HW126852   5.543   0.738   5.001
 4792SOL    HW226853   5.443   0.611   4.985
 4793SOL     OW26854   1.885   6.920   0.654
 4793SOL    HW126855   1.937   6.916   0.740
 4793SOL    HW226856   1.934   6.977   0.588
 4794SOL     OW26857   1.991   2.598   1.156
 4794SOL    HW126858   1.947   2.546   1.229
 4794SOL    HW226859   1.930   2.603   1.077
 4795SOL     OW26860   7.339   1.860   3.759
 4795SOL    HW126861   7.315   1.945   3.712
 4795SOL    HW226862   7.370   1.881   3.851
 4796SOL     OW26863   2.629   4.559   6.751
 4796SOL    HW126864   2.716   4.527   6.714
 4796SOL    HW226865   2.598   4.639   6.700
 4797SOL     OW26866   1.201   5.006   0.956
 4797SOL    HW126867   1.141   4.947   0.902
 4797SOL    HW226868   1.235   5.080   0.898
 4798SOL     OW26869   7.265   4.667   0.290
 4798SOL    HW126870   7.315   4.581   0.289
 4798SOL    HW226871   7.202   4.669   0.367
 4799SOL     OW26872   3.236   6.189   4.802
 4799SOL    HW126873   3.199   6.264   4.747
 4799SOL    HW226874   3.236   6.215   4.899
 4800SOL     OW26875   3.553   2.011   2.510
 4800SOL    HW126876   3.546   1.924   2.462
 4800SOL    HW226877   3.568   1.994   2.608
 4801SOL     OW26878   0.186   4.178   0.233
 4801SOL    HW126879   0.194   4.199   0.135
 4801SOL    HW226880   0.164   4.081   0.244
 4802SOL     OW26881   5.846   0.854   0.601
 4802SOL    HW126882   5.937   0.859   0.561
 4802SOL    HW226883   5.777   0.863   0.530
 4803SOL     OW26884   0.120   3.616   0.194
 4803SOL    HW126885   0.130   3.715   0.181
 4803SOL    HW226886   0.030   3.587   0.163
 4804SOL     OW26887   4.330   0.240   6.026
 4804SOL    HW126888   4.340   0.236   6.125
 4804SOL    HW226889   4.400   0.300   5.988
 4805SOL     OW26890   3.757   0.431   2.821
 4805SOL    HW126891   3.799   0.477   2.898
 4805SOL    HW226892   3.771   0.332   2.829
 4806SOL     OW26893   2.254   2.505   3.069
 4806SOL    HW126894   2.288   2.579   3.127
 4806SOL    HW226895   2.226   2.542   2.981
 4807SOL     OW26896   1.425   4.280   2.167
 4807SOL    HW126897   1.435   4.199   2.110
 4807SOL    HW226898   1.464   4.359   2.119
 4808SOL     OW26899   5.461   2.612   2.596
 4808SOL    HW126900   5.454   2.660   2.684
 4808SOL    HW226901   5.483   2.678   2.524
 4809SOL     OW26902   1.746   3.972   2.495
 4809SOL    HW126903   1.666   4.008   2.447
 4809SOL    HW226904   1.827   4.027   2.472
 4810SOL     OW26905   7.104   2.592   7.316
 4810SOL    HW126906   7.107   2.673   7.257
 4810SOL    HW226907   7.169   2.524   7.281
 4811SOL     OW26908   3.442   5.964   2.301
 4811SOL    HW126909   3.500   5.888   2.331
 4811SOL    HW226910   3.365   5.927   2.248
 4812SOL     OW26911   6.164   1.806   4.559
 4812SOL    HW126912   6.171   1.806   4.459
 4812SOL    HW226913   6.237   1.750   4.597
 4813SOL     OW26914   6.414   2.542   2.274
 4813SOL    HW126915   6.370   2.618   2.226
 4813SOL    HW226916   6.424   2.465   2.211
 4814SOL     OW26917   4.461   0.577   0.190
 4814SOL    HW126918   4.465   0.538   0.282
 4814SOL    HW226919   4.464   0.676   0.195
 4815SOL     OW26920   6.002   6.079   3.927
 4815SOL    HW126921   6.076   6.032   3.878
 4815SOL    HW226922   5.994   6.042   4.019
 4816SOL     OW26923   0.138   2.252   6.951
 4816SOL    HW126924   0.076   2.197   7.007
 4816SOL    HW226925   0.232   2.224   6.967
 4817SOL     OW26926   1.047   5.714   0.377
 4817SOL    HW126927   1.017   5.730   0.283
 4817SOL    HW226928   1.039   5.616   0.398
 4818SOL     OW26929   0.226   4.829   3.284
 4818SOL    HW126930   0.182   4.749   3.243
 4818SOL    HW226931   0.164   4.906   3.282
 4819SOL     OW26932   1.710   3.643   2.207
 4819SOL    HW126933   1.660   3.727   2.227
 4819SOL    HW226934   1.789   3.664   2.149
 4820SOL     OW26935   5.540   6.340   4.624
 4820SOL    HW126936   5.471   6.400   4.582
 4820SOL    HW226937   5.627   6.389   4.630
 4821SOL     OW26938   6.094   2.695   4.271
 4821SOL    HW126939   6.149   2.683   4.188
 4821SOL    HW226940   6.016   2.754   4.251
 4822SOL     OW26941   0.489   5.741   1.059
 4822SOL    HW126942   0.523   5.669   0.998
 4822SOL    HW226943   0.552   5.819   1.058
 4823SOL     OW26944   2.005   1.277   7.297
 4823SOL    HW126945   1.982   1.230   7.383
 4823SOL    HW226946   1.922   1.288   7.242
 4824SOL     OW26947   2.976   3.708   7.246
 4824SOL    HW126948   3.031   3.654   7.182
 4824SOL    HW226949   2.973   3.660   7.334
 4825SOL     OW26950   0.702   1.760   6.801
 4825SOL    HW126951   0.630   1.700   6.838
 4825SOL    HW226952   0.709   1.746   6.703
 4826SOL     OW26953   3.004   1.284   1.228
 4826SOL    HW126954   3.061   1.363   1.255
 4826SOL    HW226955   2.911   1.298   1.261
 4827SOL     OW26956   6.918   3.984   0.602
 4827SOL    HW126957   6.829   3.995   0.646
 4827SOL    HW226958   6.907   3.928   0.519
 4828SOL     OW26959   2.728   5.979   1.350
 4828SOL    HW126960   2.652   5.922   1.380
 4828SOL    HW226961   2.738   5.973   1.251
 4829SOL     OW26962   5.009   2.990   4.887
 4829SOL    HW126963   5.012   3.084   4.854
 4829SOL    HW226964   4.915   2.966   4.912
 4830SOL     OW26965   2.397   1.636   1.900
 4830SOL    HW126966   2.324   1.705   1.895
 4830SOL    HW226967   2.369   1.556   1.848
 4831SOL     OW26968   6.175   3.180   4.529
 4831SOL    HW126969   6.133   3.090   4.532
 4831SOL    HW226970   6.274   3.172   4.544
 4832SOL     OW26971   7.208   0.958   3.047
 4832SOL    HW126972   7.231   0.944   3.144
 4832SOL    HW226973   7.217   1.055   3.024
 4833SOL     OW26974   4.768   0.871   3.000
 4833SOL    HW126975   4.830   0.925   3.058
 4833SOL    HW226976   4.822   0.810   2.942
 4834SOL     OW26977   6.327   5.137   3.292
 4834SOL    HW126978   6.305   5.160   3.387
 4834SOL    HW226979   6.243   5.135   3.238
 4835SOL     OW26980   6.962   5.363   1.896
 4835SOL    HW126981   6.899   5.366   1.818
 4835SOL    HW226982   6.990   5.269   1.912
 4836SOL     OW26983   0.231   6.350   7.263
 4836SOL    HW126984   0.175   6.399   7.330
 4836SOL    HW226985   0.246   6.408   7.183
 4837SOL     OW26986   6.188   5.482   6.085
 4837SOL    HW126987   6.189   5.386   6.058
 4837SOL    HW226988   6.266   5.529   6.044
 4838SOL     OW26989   5.199   6.218   1.999
 4838SOL    HW126990   5.217   6.148   1.930
 4838SOL    HW226991   5.243   6.192   2.085
 4839SOL     OW26992   2.109   2.453   6.097
 4839SOL    HW126993   2.128   2.384   6.027
 4839SOL    HW226994   2.125   2.544   6.058
 4840SOL     OW26995   5.418   5.949   3.982
 4840SOL    HW126996   5.422   6.014   3.906
 4840SOL    HW226997   5.491   5.881   3.972
 4841SOL     OW26998   4.708   7.324   3.669
 4841SOL    HW126999   4.758   7.273   3.738
 4841SOL    HW227000   4.764   7.333   3.586
 4842SOL     OW27001   5.987   0.476   0.011
 4842SOL    HW127002   5.956   0.566  -0.021
 4842SOL    HW227003   5.909   0.421   0.038
 4843SOL     OW27004   2.397   6.495   5.869
 4843SOL    HW127005   2.434   6.409   5.833
 4843SOL    HW227006   2.330   6.475   5.940
 4844SOL     OW27007   1.663   4.666   2.894
 4844SOL    HW127008   1.701   4.756   2.874
 4844SOL    HW227009   1.686   4.640   2.987
 4845SOL     OW27010   0.322   6.722   7.158
 4845SOL    HW127011   0.305   6.721   7.257
 4845SOL    HW227012   0.355   6.812   7.131
 4846SOL     OW27013   3.261   4.452   4.442
 4846SOL    HW127014   3.326   4.483   4.510
 4846SOL    HW227015   3.175   4.425   4.487
 4847SOL     OW27016   6.726   1.155   2.659
 4847SOL    HW127017   6.762   1.240   2.620
 4847SOL    HW227018   6.729   1.083   2.590
 4848SOL     OW27019   2.532   1.205   0.165
 4848SOL    HW127020   2.466   1.131   0.157
 4848SOL    HW227021   2.624   1.169   0.145
 4849SOL     OW27022   3.059   4.810   0.432
 4849SOL    HW127023   3.070   4.880   0.502
 4849SOL    HW227024   2.979   4.754   0.452
 4850SOL     OW27025   6.606   1.669   4.763
 4850SOL    HW127026   6.700   1.666   4.729
 4850SOL    HW227027   6.603   1.722   4.847
 4851SOL     OW27028   4.355   2.642   5.221
 4851SOL    HW127029   4.438   2.595   5.193
 4851SOL    HW227030   4.350   2.645   5.321
 4852SOL     OW27031   3.978   0.649   4.228
 4852SOL    HW127032   4.014   0.592   4.301
 4852SOL    HW227033   3.879   0.657   4.237
 4853SOL     OW27034   4.120   7.033   0.029
 4853SOL    HW127035   4.174   7.016  -0.054
 4853SOL    HW227036   4.028   7.064   0.003
 4854SOL     OW27037   0.773   5.502   0.151
 4854SOL    HW127038   0.682   5.525   0.116
 4854SOL    HW227039   0.767   5.485   0.250
 4855SOL     OW27040   0.239   3.385   5.310
 4855SOL    HW127041   0.183   3.405   5.391
 4855SOL    HW227042   0.240   3.286   5.294
 4856SOL     OW27043   5.965   6.782   3.527
 4856SOL    HW127044   5.932   6.696   3.565
 4856SOL    HW227045   5.968   6.776   3.427
 4857SOL     OW27046   2.128   1.566   2.105
 4857SOL    HW127047   2.156   1.650   2.058
 4857SOL    HW227048   2.037   1.579   2.145
 4858SOL     OW27049   1.362   0.393   7.225
 4858SOL    HW127050   1.366   0.352   7.134
 4858SOL    HW227051   1.307   0.335   7.286
 4859SOL     OW27052   0.347   6.390   0.274
 4859SOL    HW127053   0.405   6.309   0.280
 4859SOL    HW227054   0.371   6.442   0.192
 4860SOL     OW27055   2.442   5.286   0.156
 4860SOL    HW127056   2.523   5.341   0.181
 4860SOL    HW227057   2.415   5.230   0.234
 4861SOL     OW27058   5.317   4.031   4.439
 4861SOL    HW127059   5.289   4.088   4.361
 4861SOL    HW227060   5.409   4.058   4.468
 4862SOL     OW27061   6.242   0.896   6.266
 4862SOL    HW127062   6.312   0.824   6.264
 4862SOL    HW227063   6.252   0.950   6.349
 4863SOL     OW27064   3.402   2.801   1.454
 4863SOL    HW127065   3.479   2.740   1.435
 4863SOL    HW227066   3.335   2.793   1.380
 4864SOL     OW27067   2.285   4.909   4.751
 4864SOL    HW127068   2.306   5.004   4.728
 4864SOL    HW227069   2.289   4.898   4.851
 4865SOL     OW27070   1.951   1.122   5.920
 4865SOL    HW127071   1.963   1.040   5.863
 4865SOL    HW227072   1.854   1.134   5.942
 4866SOL     OW27073   7.323   3.459   2.080
 4866SOL    HW127074   7.308   3.368   2.040
 4866SOL    HW227075   7.240   3.514   2.068
 4867SOL     OW27076   0.912   1.767   6.295
 4867SOL    HW127077   0.864   1.828   6.357
 4867SOL    HW227078   0.888   1.790   6.201
 4868SOL     OW27079   3.171   4.122   3.782
 4868SOL    HW127080   3.108   4.080   3.717
 4868SOL    HW227081   3.124   4.140   3.868
 4869SOL     OW27082   4.535   3.368   5.460
 4869SOL    HW127083   4.445   3.408   5.476
 4869SOL    HW227084   4.528   3.294   5.393
 4870SOL     OW27085   4.895   0.758   1.275
 4870SOL    HW127086   4.819   0.694   1.282
 4870SOL    HW227087   4.878   0.837   1.334
 4871SOL     OW27088   0.124   1.512   1.592
 4871SOL    HW127089   0.178   1.481   1.514
 4871SOL    HW227090   0.071   1.435   1.628
 4872SOL     OW27091   2.639   1.546   2.028
 4872SOL    HW127092   2.639   1.447   2.011
 4872SOL    HW227093   2.549   1.584   2.005
 4873SOL     OW27094   6.965   4.545   6.828
 4873SOL    HW127095   7.031   4.566   6.900
 4873SOL    HW227096   6.897   4.618   6.823
 4874SOL     OW27097   4.019   2.598   3.405
 4874SOL    HW127098   3.941   2.539   3.386
 4874SOL    HW227099   3.995   2.693   3.386
 4875SOL     OW27100   0.197   0.670   5.407
 4875SOL    HW127101   0.162   0.736   5.473
 4875SOL    HW227102   0.265   0.714   5.349
 4876SOL     OW27103   1.237   6.467   0.672
 4876SOL    HW127104   1.165   6.440   0.607
 4876SOL    HW227105   1.195   6.514   0.750
 4877SOL     OW27106   3.117   6.059   2.282
 4877SOL    HW127107   3.071   6.145   2.260
 4877SOL    HW227108   3.195   6.046   2.221
 4878SOL     OW27109   4.275   5.926   3.355
 4878SOL    HW127110   4.335   5.861   3.401
 4878SOL    HW227111   4.274   6.012   3.407
 4879SOL     OW27112   1.314   2.421   2.291
 4879SOL    HW127113   1.316   2.321   2.296
 4879SOL    HW227114   1.375   2.460   2.359
 4880SOL     OW27115   6.171   4.734   0.254
 4880SOL    HW127116   6.143   4.638   0.261
 4880SOL    HW227117   6.094   4.793   0.278
 4881SOL     OW27118   0.629   7.316   1.907
 4881SOL    HW127119   0.679   7.344   1.989
 4881SOL    HW227120   0.663   7.368   1.828
 4882SOL     OW27121   5.930   2.376   5.046
 4882SOL    HW127122   5.858   2.330   5.097
 4882SOL    HW227123   5.896   2.465   5.014
 4883SOL     OW27124   0.424   6.635   4.962
 4883SOL    HW127125   0.513   6.589   4.968
 4883SOL    HW227126   0.393   6.660   5.053
 4884SOL     OW27127   0.895   1.564   7.077
 4884SOL    HW127128   0.834   1.485   7.087
 4884SOL    HW227129   0.989   1.537   7.101
 4885SOL     OW27130   3.047   1.781   6.166
 4885SOL    HW127131   3.021   1.821   6.254
 4885SOL    HW227132   2.966   1.748   6.118
 4886SOL     OW27133   5.799   4.210   6.187
 4886SOL    HW127134   5.745   4.133   6.153
 4886SOL    HW227135   5.765   4.238   6.277
 4887SOL     OW27136   1.600   2.413   0.460
 4887SOL    HW127137   1.590   2.384   0.365
 4887SOL    HW227138   1.512   2.449   0.493
 4888SOL     OW27139   2.204   4.780   6.523
 4888SOL    HW127140   2.143   4.706   6.551
 4888SOL    HW227141   2.298   4.746   6.520
 4889SOL     OW27142   6.963   0.561   0.901
 4889SOL    HW127143   6.992   0.579   0.995
 4889SOL    HW227144   6.875   0.605   0.884
 4890SOL     OW27145   6.438   7.198   0.599
 4890SOL    HW127146   6.431   7.213   0.698
 4890SOL    HW227147   6.377   7.260   0.551
 4891SOL     OW27148   7.332   2.887   1.976
 4891SOL    HW127149   7.263   2.849   1.915
 4891SOL    HW227150   7.423   2.872   1.937
 4892SOL     OW27151   3.480   6.631   5.517
 4892SOL    HW127152   3.388   6.600   5.497
 4892SOL    HW227153   3.483   6.667   5.611
 4893SOL     OW27154   4.478   1.868   1.838
 4893SOL    HW127155   4.519   1.949   1.796
 4893SOL    HW227156   4.385   1.855   1.803
 4894SOL     OW27157   3.042   3.176   7.135
 4894SOL    HW127158   3.007   3.179   7.041
 4894SOL    HW227159   3.099   3.256   7.152
 4895SOL     OW27160   0.799   4.305   0.706
 4895SOL    HW127161   0.755   4.358   0.779
 4895SOL    HW227162   0.886   4.268   0.739
 4896SOL     OW27163   6.226   3.543   0.167
 4896SOL    HW127164   6.245   3.447   0.187
 4896SOL    HW227165   6.142   3.570   0.214
 4897SOL     OW27166   0.200   0.853   0.608
 4897SOL    HW127167   0.262   0.932   0.609
 4897SOL    HW227168   0.106   0.885   0.619
 4898SOL     OW27169   6.889   1.770   2.154
 4898SOL    HW127170   6.916   1.675   2.140
 4898SOL    HW227171   6.940   1.829   2.092
 4899SOL     OW27172   3.432   2.830   0.137
 4899SOL    HW127173   3.403   2.862   0.046
 4899SOL    HW227174   3.529   2.850   0.150
 4900SOL     OW27175   1.628   4.427   1.784
 4900SOL    HW127176   1.655   4.495   1.716
 4900SOL    HW227177   1.530   4.435   1.802
 4901SOL     OW27178   6.311   0.413   5.086
 4901SOL    HW127179   6.268   0.503   5.076
 4901SOL    HW227180   6.303   0.384   5.181
 4902SOL     OW27181   1.440   2.041   7.042
 4902SOL    HW127182   1.386   2.032   7.125
 4902SOL    HW227183   1.489   1.955   7.024
 4903SOL     OW27184   6.802   1.986   1.415
 4903SOL    HW127185   6.832   2.034   1.497
 4903SOL    HW227186   6.823   2.042   1.334
 4904SOL     OW27187   5.417   6.138   5.884
 4904SOL    HW127188   5.454   6.071   5.948
 4904SOL    HW227189   5.468   6.135   5.798
 4905SOL     OW27190   5.936   4.002   4.513
 4905SOL    HW127191   5.893   3.914   4.491
 4905SOL    HW227192   6.025   3.984   4.556
 4906SOL     OW27193   4.332   4.865   3.098
 4906SOL    HW127194   4.305   4.777   3.059
 4906SOL    HW227195   4.334   4.934   3.026
 4907SOL     OW27196   3.918   1.111   3.200
 4907SOL    HW127197   3.838   1.120   3.260
 4907SOL    HW227198   3.910   1.029   3.144
 4908SOL     OW27199   1.074   2.076   0.023
 4908SOL    HW127200   1.082   2.144  -0.050
 4908SOL    HW227201   1.125   1.994  -0.002
 4909SOL     OW27202   3.286   5.966   5.619
 4909SOL    HW127203   3.287   6.027   5.540
 4909SOL    HW227204   3.242   6.012   5.697
 4910SOL     OW27205   3.036   2.270   6.173
 4910SOL    HW127206   3.057   2.238   6.266
 4910SOL    HW227207   2.961   2.216   6.135
 4911SOL     OW27208   0.935   3.810   0.798
 4911SOL    HW127209   0.884   3.744   0.742
 4911SOL    HW227210   1.023   3.829   0.755
 4912SOL     OW27211   3.775   3.390   3.638
 4912SOL    HW127212   3.843   3.414   3.569
 4912SOL    HW227213   3.696   3.347   3.593
 4913SOL     OW27214   1.090   4.754   1.748
 4913SOL    HW127215   1.138   4.832   1.789
 4913SOL    HW227216   1.015   4.726   1.807
 4914SOL     OW27217   4.859   1.210   0.722
 4914SOL    HW127218   4.854   1.309   0.729
 4914SOL    HW227219   4.831   1.181   0.630
 4915SOL     OW27220   5.244   6.184   6.551
 4915SOL    HW127221   5.222   6.251   6.481
 4915SOL    HW227222   5.270   6.232   6.635
 4916SOL     OW27223   0.585   2.237   6.652
 4916SOL    HW127224   0.592   2.295   6.733
 4916SOL    HW227225   0.661   2.171   6.652
 4917SOL     OW27226   4.935   4.529   2.547
 4917SOL    HW127227   5.025   4.574   2.543
 4917SOL    HW227228   4.937   4.456   2.615
 4918SOL     OW27229   0.783   4.211   7.183
 4918SOL    HW127230   0.826   4.123   7.161
 4918SOL    HW227231   0.689   4.195   7.211
 4919SOL     OW27232   2.031   4.878   1.165
 4919SOL    HW127233   1.994   4.804   1.109
 4919SOL    HW227234   2.095   4.840   1.231
 4920SOL     OW27235   6.194   1.861   4.283
 4920SOL    HW127236   6.095   1.861   4.298
 4920SOL    HW227237   6.213   1.896   4.191
 4921SOL     OW27238   1.006   3.661   6.111
 4921SOL    HW127239   0.966   3.638   6.200
 4921SOL    HW227240   1.105   3.645   6.114
 4922SOL     OW27241   2.196   4.810   1.605
 4922SOL    HW127242   2.176   4.837   1.511
 4922SOL    HW227243   2.156   4.878   1.668
 4923SOL     OW27244   0.101   4.112   5.314
 4923SOL    HW127245   0.087   4.185   5.381
 4923SOL    HW227246   0.191   4.071   5.327
 4924SOL     OW27247   5.487   3.564   0.061
 4924SOL    HW127248   5.445   3.653   0.077
 4924SOL    HW227249   5.574   3.576   0.014
 4925SOL     OW27250   5.025   1.628   3.479
 4925SOL    HW127251   5.009   1.676   3.565
 4925SOL    HW227252   5.001   1.688   3.402
 4926SOL     OW27253   6.360   2.977   3.494
 4926SOL    HW127254   6.412   3.062   3.483
 4926SOL    HW227255   6.422   2.904   3.520
 4927SOL     OW27256   6.337   5.170   1.322
 4927SOL    HW127257   6.380   5.200   1.408
 4927SOL    HW227258   6.408   5.139   1.259
 4928SOL     OW27259   4.309   1.603   3.411
 4928SOL    HW127260   4.299   1.702   3.411
 4928SOL    HW227261   4.397   1.578   3.372
 4929SOL     OW27262   4.113   6.293   0.756
 4929SOL    HW127263   4.164   6.373   0.724
 4929SOL    HW227264   4.029   6.285   0.703
 4930SOL     OW27265   2.854   4.497   4.739
 4930SOL    HW127266   2.893   4.429   4.801
 4930SOL    HW227267   2.759   4.515   4.764
 4931SOL     OW27268   4.389   4.370   1.170
 4931SOL    HW127269   4.345   4.432   1.104
 4931SOL    HW227270   4.370   4.275   1.143
 4932SOL     OW27271   3.412   6.453   2.802
 4932SOL    HW127272   3.440   6.363   2.769
 4932SOL    HW227273   3.413   6.518   2.726
 4933SOL     OW27274   0.203   5.233   5.847
 4933SOL    HW127275   0.207   5.183   5.760
 4933SOL    HW227276   0.239   5.325   5.834
 4934SOL     OW27277   6.007   6.514   7.065
 4934SOL    HW127278   6.018   6.446   7.137
 4934SOL    HW227279   6.095   6.559   7.048
 4935SOL     OW27280   3.310   7.064   3.854
 4935SOL    HW127281   3.358   7.019   3.778
 4935SOL    HW227282   3.289   6.996   3.924
 4936SOL     OW27283   6.241   6.190   3.119
 4936SOL    HW127284   6.314   6.257   3.137
 4936SOL    HW227285   6.263   6.104   3.164
 4937SOL     OW27286   3.876   4.050   4.346
 4937SOL    HW127287   3.808   4.121   4.362
 4937SOL    HW227288   3.884   4.033   4.247
 4938SOL     OW27289   6.765   3.450   4.230
 4938SOL    HW127290   6.727   3.539   4.257
 4938SOL    HW227291   6.805   3.406   4.310
 4939SOL     OW27292   6.183   1.657   5.778
 4939SOL    HW127293   6.122   1.584   5.747
 4939SOL    HW227294   6.173   1.670   5.876
 4940SOL     OW27295   1.956   0.884   5.775
 4940SOL    HW127296   1.990   0.791   5.762
 4940SOL    HW227297   1.979   0.940   5.695
 4941SOL     OW27298   4.184   7.094   4.941
 4941SOL    HW127299   4.242   7.121   4.864
 4941SOL    HW227300   4.110   7.035   4.908
 4942SOL     OW27301   6.659   6.402   5.907
 4942SOL    HW127302   6.756   6.391   5.932
 4942SOL    HW227303   6.652   6.441   5.815
 4943SOL     OW27304   6.020   0.229   7.242
 4943SOL    HW127305   6.112   0.191   7.233
 4943SOL    HW227306   6.026   0.318   7.289
 4944SOL     OW27307   6.307   5.085   0.951
 4944SOL    HW127308   6.304   5.063   1.049
 4944SOL    HW227309   6.313   5.185   0.940
 4945SOL     OW27310   5.370   5.634   6.859
 4945SOL    HW127311   5.281   5.674   6.840
 4945SOL    HW227312   5.379   5.617   6.958
 4946SOL     OW27313   0.722   3.652   4.924
 4946SOL    HW127314   0.651   3.699   4.870
 4946SOL    HW227315   0.742   3.563   4.884
 4947SOL     OW27316   6.749   3.756   7.047
 4947SOL    HW127317   6.679   3.743   6.976
 4947SOL    HW227318   6.757   3.854   7.068
 4948SOL     OW27319   0.835   1.884   1.042
 4948SOL    HW127320   0.891   1.802   1.054
 4948SOL    HW227321   0.878   1.944   0.974
 4949SOL     OW27322   1.122   4.600   2.406
 4949SOL    HW127323   1.101   4.524   2.345
 4949SOL    HW227324   1.218   4.626   2.396
 4950SOL     OW27325   3.768   6.730   7.000
 4950SOL    HW127326   3.686   6.778   6.968
 4950SOL    HW227327   3.834   6.797   7.034
 4951SOL     OW27328   5.514   5.532   1.667
 4951SOL    HW127329   5.561   5.596   1.607
 4951SOL    HW227330   5.432   5.575   1.705
 4952SOL     OW27331   6.469   3.448   1.490
 4952SOL    HW127332   6.517   3.361   1.501
 4952SOL    HW227333   6.508   3.515   1.553
 4953SOL     OW27334   3.260   2.173   0.280
 4953SOL    HW127335   3.171   2.199   0.318
 4953SOL    HW227336   3.290   2.087   0.320
 4954SOL     OW27337   2.802   7.275   6.288
 4954SOL    HW127338   2.752   7.352   6.329
 4954SOL    HW227339   2.877   7.248   6.349
 4955SOL     OW27340   7.014   0.724   5.697
 4955SOL    HW127341   7.087   0.771   5.747
 4955SOL    HW227342   7.026   0.738   5.599
 4956SOL     OW27343   2.245   2.208   7.286
 4956SOL    HW127344   2.167   2.238   7.340
 4956SOL    HW227345   2.318   2.276   7.292
 4957SOL     OW27346   2.615   4.220   0.489
 4957SOL    HW127347   2.626   4.254   0.582
 4957SOL    HW227348   2.698   4.170   0.462
 4958SOL     OW27349   6.073   0.039   1.971
 4958SOL    HW127350   5.997  -0.005   2.020
 4958SOL    HW227351   6.076   0.136   1.995
 4959SOL     OW27352   5.930   0.747   6.675
 4959SOL    HW127353   5.948   0.744   6.576
 4959SOL    HW227354   5.895   0.837   6.700
 4960SOL     OW27355   3.693   0.124   2.339
 4960SOL    HW127356   3.620   0.186   2.311
 4960SOL    HW227357   3.747   0.167   2.412
 4961SOL     OW27358   5.618   0.814   5.147
 4961SOL    HW127359   5.557   0.778   5.218
 4961SOL    HW227360   5.711   0.819   5.183
 4962SOL     OW27361   6.741   5.414   4.481
 4962SOL    HW127362   6.752   5.469   4.399
 4962SOL    HW227363   6.644   5.401   4.500
 4963SOL     OW27364   5.558   2.719   0.162
 4963SOL    HW127365   5.488   2.665   0.209
 4963SOL    HW227366   5.600   2.782   0.226
 4964SOL     OW27367   4.714   1.677   0.275
 4964SOL    HW127368   4.805   1.683   0.234
 4964SOL    HW227369   4.680   1.769   0.294
 4965SOL     OW27370   4.312   6.405   4.119
 4965SOL    HW127371   4.300   6.468   4.043
 4965SOL    HW227372   4.324   6.457   4.204
 4966SOL     OW27373   7.239   7.157   5.422
 4966SOL    HW127374   7.177   7.208   5.482
 4966SOL    HW227375   7.307   7.219   5.383
 4967SOL     OW27376   0.328   1.419   2.845
 4967SOL    HW127377   0.254   1.460   2.793
 4967SOL    HW227378   0.399   1.386   2.782
 4968SOL     OW27379   0.679   6.945   0.664
 4968SOL    HW127380   0.632   7.001   0.733
 4968SOL    HW227381   0.776   6.969   0.662
 4969SOL     OW27382   3.520   4.874   0.928
 4969SOL    HW127383   3.518   4.845   0.832
 4969SOL    HW227384   3.584   4.816   0.978
 4970SOL     OW27385   3.227   0.054   0.613
 4970SOL    HW127386   3.191  -0.007   0.543
 4970SOL    HW227387   3.179   0.039   0.699
 4971SOL     OW27388   5.380   4.900   7.056
 4971SOL    HW127389   5.343   4.808   7.072
 4971SOL    HW227390   5.383   4.918   6.958
 4972SOL     OW27391   5.465   0.554   1.016
 4972SOL    HW127392   5.529   0.492   0.971
 4972SOL    HW227393   5.444   0.630   0.955
 4973SOL     OW27394   2.864   5.803   1.936
 4973SOL    HW127395   2.890   5.711   1.907
 4973SOL    HW227396   2.903   5.821   2.027
 4974SOL     OW27397   6.035   4.507   5.862
 4974SOL    HW127398   6.062   4.603   5.861
 4974SOL    HW227399   6.095   4.455   5.801
 4975SOL     OW27400   6.875   3.445   2.559
 4975SOL    HW127401   6.826   3.499   2.628
 4975SOL    HW227402   6.945   3.389   2.604
 4976SOL     OW27403   7.022   0.222   2.183
 4976SOL    HW127404   7.031   0.215   2.282
 4976SOL    HW227405   6.929   0.198   2.156
 4977SOL     OW27406   2.435   1.333   5.684
 4977SOL    HW127407   2.371   1.303   5.613
 4977SOL    HW227408   2.421   1.279   5.767
 4978SOL     OW27409   5.353   1.237   1.543
 4978SOL    HW127410   5.406   1.153   1.537
 4978SOL    HW227411   5.414   1.316   1.547
 4979SOL     OW27412   4.620   5.929   7.038
 4979SOL    HW127413   4.533   5.975   7.055
 4979SOL    HW227414   4.681   5.944   7.116
 4980SOL     OW27415   5.411   6.804   1.778
 4980SOL    HW127416   5.318   6.768   1.774
 4980SOL    HW227417   5.473   6.731   1.808
 4981SOL     OW27418   2.442   3.029   1.138
 4981SOL    HW127419   2.541   3.045   1.133
 4981SOL    HW227420   2.421   2.967   1.213
 4982SOL     OW27421   6.136   2.827   2.448
 4982SOL    HW127422   6.096   2.792   2.533
 4982SOL    HW227423   6.208   2.893   2.470
 4983SOL     OW27424   3.526   6.108   3.080
 4983SOL    HW127425   3.470   6.047   3.137
 4983SOL    HW227426   3.466   6.166   3.024
 4984SOL     OW27427   1.642   0.979   2.441
 4984SOL    HW127428   1.729   1.022   2.418
 4984SOL    HW227429   1.600   0.943   2.358
 4985SOL     OW27430   5.963   4.124   6.486
 4985SOL    HW127431   5.932   4.030   6.479
 4985SOL    HW227432   5.884   4.185   6.485
 4986SOL     OW27433   5.208   3.679   4.351
 4986SOL    HW127434   5.226   3.693   4.449
 4986SOL    HW227435   5.139   3.744   4.320
 4987SOL     OW27436   4.298   4.075   2.907
 4987SOL    HW127437   4.394   4.106   2.908
 4987SOL    HW227438   4.295   3.975   2.910
 4988SOL     OW27439   3.902   5.366   6.676
 4988SOL    HW127440   3.805   5.389   6.681
 4988SOL    HW227441   3.918   5.305   6.599
 4989SOL     OW27442   7.022   2.621   5.059
 4989SOL    HW127443   7.021   2.627   4.959
 4989SOL    HW227444   7.116   2.634   5.092
 4990SOL     OW27445   5.894   1.975   5.077
 4990SOL    HW127446   5.823   2.002   5.012
 4990SOL    HW227447   5.855   1.909   5.142
 4991SOL     OW27448   1.427   1.915   7.349
 4991SOL    HW127449   1.522   1.945   7.345
 4991SOL    HW227450   1.417   1.827   7.302
 4992SOL     OW27451   5.746   5.906   1.113
 4992SOL    HW127452   5.798   5.955   1.182
 4992SOL    HW227453   5.667   5.960   1.086
 4993SOL     OW27454   1.678   6.235   7.032
 4993SOL    HW127455   1.630   6.202   7.113
 4993SOL    HW227456   1.673   6.167   6.960
 4994SOL     OW27457   3.545   5.580   0.435
 4994SOL    HW127458   3.540   5.487   0.400
 4994SOL    HW227459   3.457   5.626   0.420
 4995SOL     OW27460   3.542   1.251   2.927
 4995SOL    HW127461   3.578   1.290   3.012
 4995SOL    HW227462   3.606   1.271   2.853
 4996SOL     OW27463   3.327   0.836   4.446
 4996SOL    HW127464   3.412   0.886   4.459
 4996SOL    HW227465   3.284   0.819   4.535
 4997SOL     OW27466   6.094   0.167   1.109
 4997SOL    HW127467   6.066   0.166   1.205
 4997SOL    HW227468   6.189   0.136   1.102
 4998SOL     OW27469   0.171   7.204   2.730
 4998SOL    HW127470   0.182   7.233   2.825
 4998SOL    HW227471   0.143   7.108   2.727
 4999SOL     OW27472   1.802   7.249   1.660
 4999SOL    HW127473   1.759   7.165   1.691
 4999SOL    HW227474   1.774   7.325   1.719
 5000SOL     OW27475   4.187   0.525   0.183
 5000SOL    HW127476   4.132   0.608   0.169
 5000SOL    HW227477   4.283   0.550   0.191
 5001SOL     OW27478   5.053   6.254   4.418
 5001SOL    HW127479   4.994   6.247   4.337
 5001SOL    HW227480   5.025   6.186   4.486
 5002SOL     OW27481   5.202   3.610   2.065
 5002SOL    HW127482   5.156   3.683   2.014
 5002SOL    HW227483   5.205   3.635   2.162
 5003SOL     OW27484   5.303   5.025   4.480
 5003SOL    HW127485   5.308   4.977   4.393
 5003SOL    HW227486   5.236   4.981   4.540
 5004SOL     OW27487   4.858   1.594   6.805
 5004SOL    HW127488   4.866   1.561   6.711
 5004SOL    HW227489   4.935   1.655   6.825
 5005SOL     OW27490   2.115   4.727   3.702
 5005SOL    HW127491   2.051   4.708   3.628
 5005SOL    HW227492   2.163   4.814   3.685
 5006SOL     OW27493   4.080   4.886   7.013
 5006SOL    HW127494   4.012   4.925   6.952
 5006SOL    HW227495   4.172   4.914   6.984
 5007SOL     OW27496   3.596   5.016   6.563
 5007SOL    HW127497   3.626   5.097   6.512
 5007SOL    HW227498   3.587   5.040   6.660
 5008SOL     OW27499   5.063   5.517   5.381
 5008SOL    HW127500   5.093   5.422   5.392
 5008SOL    HW227501   5.006   5.524   5.299
 5009SOL     OW27502   2.379   1.563   3.273
 5009SOL    HW127503   2.416   1.470   3.276
 5009SOL    HW227504   2.437   1.623   3.329
 5010SOL     OW27505   4.116   5.262   7.015
 5010SOL    HW127506   4.139   5.225   6.925
 5010SOL    HW227507   4.045   5.205   7.057
 5011SOL     OW27508   2.190   3.562   0.254
 5011SOL    HW127509   2.122   3.531   0.321
 5011SOL    HW227510   2.175   3.659   0.233
 5012SOL     OW27511   5.172   2.264   5.816
 5012SOL    HW127512   5.124   2.253   5.903
 5012SOL    HW227513   5.254   2.207   5.816
 5013SOL     OW27514   1.649   3.638   4.604
 5013SOL    HW127515   1.656   3.566   4.674
 5013SOL    HW227516   1.736   3.685   4.595
 5014SOL     OW27517   5.016   7.224   5.486
 5014SOL    HW127518   4.997   7.191   5.578
 5014SOL    HW227519   5.115   7.235   5.474
 5015SOL     OW27520   3.693   7.184   1.232
 5015SOL    HW127521   3.739   7.096   1.246
 5015SOL    HW227522   3.689   7.204   1.134
 5016SOL     OW27523   2.214   4.439   0.068
 5016SOL    HW127524   2.255   4.384  -0.005
 5016SOL    HW227525   2.140   4.494   0.031
 5017SOL     OW27526   3.393   6.256   5.451
 5017SOL    HW127527   3.493   6.258   5.451
 5017SOL    HW227528   3.358   6.322   5.386
 5018SOL     OW27529   1.082   3.317   3.862
 5018SOL    HW127530   1.137   3.319   3.945
 5018SOL    HW227531   1.078   3.409   3.823
 5019SOL     OW27532   6.255   0.656   4.313
 5019SOL    HW127533   6.169   0.607   4.325
 5019SOL    HW227534   6.282   0.699   4.400
 5020SOL     OW27535   5.047   3.333   7.270
 5020SOL    HW127536   5.142   3.330   7.301
 5020SOL    HW227537   5.040   3.394   7.191
 5021SOL     OW27538   3.556   5.168   4.216
 5021SOL    HW127539   3.506   5.249   4.245
 5021SOL    HW227540   3.510   5.086   4.251
 5022SOL     OW27541   4.966   1.243   7.082
 5022SOL    HW127542   4.962   1.172   7.152
 5022SOL    HW227543   5.061   1.270   7.068
 5023SOL     OW27544   1.312   4.192   1.083
 5023SOL    HW127545   1.264   4.138   1.014
 5023SOL    HW227546   1.387   4.138   1.121
 5024SOL     OW27547   0.197   4.737   1.226
 5024SOL    HW127548   0.212   4.716   1.129
 5024SOL    HW227549   0.099   4.744   1.244
 5025SOL     OW27550   1.282   4.222   0.056
 5025SOL    HW127551   1.343   4.260  -0.014
 5025SOL    HW227552   1.336   4.196   0.136
 5026SOL     OW27553   1.094   5.778   7.235
 5026SOL    HW127554   1.043   5.721   7.171
 5026SOL    HW227555   1.132   5.857   7.186
 5027SOL     OW27556   2.193   1.478   1.584
 5027SOL    HW127557   2.232   1.414   1.649
 5027SOL    HW227558   2.121   1.432   1.530
 5028SOL     OW27559   2.070   4.439   3.359
 5028SOL    HW127560   2.073   4.394   3.448
 5028SOL    HW227561   2.105   4.377   3.289
 5029SOL     OW27562   3.708   5.496   7.014
 5029SOL    HW127563   3.708   5.592   7.040
 5029SOL    HW227564   3.802   5.466   6.997
 5030SOL     OW27565   6.442   7.129   6.506
 5030SOL    HW127566   6.537   7.100   6.513
 5030SOL    HW227567   6.418   7.183   6.587
 5031SOL     OW27568   6.524   4.665   4.254
 5031SOL    HW127569   6.437   4.686   4.208
 5031SOL    HW227570   6.581   4.612   4.192
 5032SOL     OW27571   7.319   0.454   0.902
 5032SOL    HW127572   7.324   0.375   0.840
 5032SOL    HW227573   7.285   0.533   0.851
 5033SOL     OW27574   2.713   5.265   0.547
 5033SOL    HW127575   2.675   5.312   0.467
 5033SOL    HW227576   2.669   5.176   0.558
 5034SOL     OW27577   7.341   0.242   0.732
 5034SOL    HW127578   7.422   0.231   0.675
 5034SOL    HW227579   7.288   0.157   0.731
 5035SOL     OW27580   6.431   3.425   1.096
 5035SOL    HW127581   6.393   3.354   1.155
 5035SOL    HW227582   6.527   3.440   1.119
 5036SOL     OW27583   7.342   4.960   0.137
 5036SOL    HW127584   7.357   5.031   0.206
 5036SOL    HW227585   7.327   4.872   0.183
 5037SOL     OW27586   4.813   0.956   1.453
 5037SOL    HW127587   4.748   1.032   1.450
 5037SOL    HW227588   4.831   0.932   1.549
 5038SOL     OW27589   4.438   2.928   3.637
 5038SOL    HW127590   4.514   2.971   3.588
 5038SOL    HW227591   4.394   2.861   3.578
 5039SOL     OW27592   4.001   1.380   3.079
 5039SOL    HW127593   4.096   1.386   3.110
 5039SOL    HW227594   3.956   1.305   3.126
 5040SOL     OW27595   2.933   4.103   3.625
 5040SOL    HW127596   2.854   4.145   3.579
 5040SOL    HW227597   2.901   4.038   3.693
 5041SOL     OW27598   4.702   6.600   4.495
 5041SOL    HW127599   4.694   6.699   4.501
 5041SOL    HW227600   4.645   6.557   4.565
 5042SOL     OW27601   0.444   4.405   7.292
 5042SOL    HW127602   0.470   4.309   7.283
 5042SOL    HW227603   0.495   4.447   7.367
 5043SOL     OW27604   3.030   6.403   2.522
 5043SOL    HW127605   2.996   6.429   2.432
 5043SOL    HW227606   2.957   6.412   2.590
 5044SOL     OW27607   5.714   3.664   7.307
 5044SOL    HW127608   5.729   3.745   7.364
 5044SOL    HW227609   5.802   3.622   7.283
 5045SOL     OW27610   2.626   0.158   3.696
 5045SOL    HW127611   2.593   0.064   3.691
 5045SOL    HW227612   2.725   0.158   3.714
 5046SOL     OW27613   1.389   2.373   6.319
 5046SOL    HW127614   1.398   2.451   6.257
 5046SOL    HW227615   1.335   2.401   6.399
 5047SOL     OW27616   3.702   5.021   3.504
 5047SOL    HW127617   3.753   5.106   3.523
 5047SOL    HW227618   3.746   4.945   3.553
 5048SOL     OW27619   2.933   1.598   0.459
 5048SOL    HW127620   3.022   1.628   0.493
 5048SOL    HW227621   2.867   1.599   0.534
 5049SOL     OW27622   2.723   1.882   1.254
 5049SOL    HW127623   2.637   1.831   1.256
 5049SOL    HW227624   2.705   1.975   1.222
 5050SOL     OW27625   5.874   2.931   1.183
 5050SOL    HW127626   5.917   3.021   1.191
 5050SOL    HW227627   5.924   2.866   1.240
 5051SOL     OW27628   0.934   5.292   4.819
 5051SOL    HW127629   0.974   5.263   4.733
 5051SOL    HW227630   0.948   5.222   4.889
 5052SOL     OW27631   0.954   6.291   6.699
 5052SOL    HW127632   0.997   6.360   6.641
 5052SOL    HW227633   0.995   6.295   6.791
 5053SOL     OW27634   1.712   4.098   7.355
 5053SOL    HW127635   1.672   4.028   7.414
 5053SOL    HW227636   1.797   4.133   7.397
 5054SOL     OW27637   5.745   2.790   5.067
 5054SOL    HW127638   5.701   2.816   5.153
 5054SOL    HW227639   5.723   2.695   5.045
 5055SOL     OW27640   6.156   6.106   3.447
 5055SOL    HW127641   6.231   6.056   3.403
 5055SOL    HW227642   6.076   6.105   3.387
 5056SOL     OW27643   0.967   5.397   7.351
 5056SOL    HW127644   1.049   5.393   7.409
 5056SOL    HW227645   0.893   5.443   7.400
 5057SOL     OW27646   3.173   5.263   5.506
 5057SOL    HW127647   3.247   5.260   5.572
 5057SOL    HW227648   3.210   5.260   5.413
 5058SOL     OW27649   1.776   3.450   0.567
 5058SOL    HW127650   1.714   3.477   0.494
 5058SOL    HW227651   1.765   3.352   0.586
 5059SOL     OW27652   0.058   4.832   4.680
 5059SOL    HW127653   0.037   4.806   4.586
 5059SOL    HW227654   0.062   4.750   4.737
 5060SOL     OW27655   5.135   0.857   4.968
 5060SOL    HW127656   5.173   0.825   5.055
 5060SOL    HW227657   5.035   0.861   4.975
 5061SOL     OW27658   5.639   2.248   0.491
 5061SOL    HW127659   5.624   2.242   0.589
 5061SOL    HW227660   5.657   2.343   0.466
 5062SOL     OW27661   5.437   2.986   0.739
 5062SOL    HW127662   5.358   2.934   0.772
 5062SOL    HW227663   5.434   2.990   0.639
 5063SOL     OW27664   1.916   2.602   6.813
 5063SOL    HW127665   1.979   2.605   6.735
 5063SOL    HW227666   1.918   2.510   6.853
 5064SOL     OW27667   1.382   0.621   2.681
 5064SOL    HW127668   1.328   0.565   2.619
 5064SOL    HW227669   1.396   0.573   2.767
 5065SOL     OW27670   0.007   3.592   2.380
 5065SOL    HW127671  -0.071   3.561   2.434
 5065SOL    HW227672   0.006   3.546   2.291
 5066SOL     OW27673   2.076   0.630   5.762
 5066SOL    HW127674   2.156   0.668   5.716
 5066SOL    HW227675   2.098   0.612   5.858
 5067SOL     OW27676   4.750   5.618   6.821
 5067SOL    HW127677   4.654   5.611   6.847
 5067SOL    HW227678   4.758   5.604   6.722
 5068SOL     OW27679   3.604   4.210   2.138
 5068SOL    HW127680   3.618   4.227   2.235
 5068SOL    HW227681   3.506   4.205   2.118
 5069SOL     OW27682   2.224   2.158   2.038
 5069SOL    HW127683   2.275   2.213   2.105
 5069SOL    HW227684   2.166   2.219   1.983
 5070SOL     OW27685   6.213   0.106   0.757
 5070SOL    HW127686   6.201   0.089   0.659
 5070SOL    HW227687   6.129   0.081   0.805
 5071SOL     OW27688   0.949   1.309   6.497
 5071SOL    HW127689   0.975   1.397   6.456
 5071SOL    HW227690   0.926   1.323   6.594
 5072SOL     OW27691   3.583   2.626   3.592
 5072SOL    HW127692   3.643   2.677   3.654
 5072SOL    HW227693   3.493   2.617   3.634
 5073SOL     OW27694   1.368   2.086   0.753
 5073SOL    HW127695   1.372   2.080   0.853
 5073SOL    HW227696   1.363   1.994   0.714
 5074SOL     OW27697   3.072   4.711   0.864
 5074SOL    HW127698   2.977   4.743   0.870
 5074SOL    HW227699   3.134   4.785   0.892
 5075SOL     OW27700   0.761   6.530   6.863
 5075SOL    HW127701   0.834   6.544   6.796
 5075SOL    HW227702   0.741   6.616   6.910
 5076SOL     OW27703   2.897   6.966   1.842
 5076SOL    HW127704   2.895   7.064   1.822
 5076SOL    HW227705   2.961   6.949   1.917
 5077SOL     OW27706   6.071   5.252   4.102
 5077SOL    HW127707   6.101   5.343   4.131
 5077SOL    HW227708   6.015   5.259   4.020
 5078SOL     OW27709   0.660   4.977   6.874
 5078SOL    HW127710   0.630   4.892   6.918
 5078SOL    HW227711   0.731   4.957   6.807
 5079SOL     OW27712   6.117   2.565   3.370
 5079SOL    HW127713   6.069   2.552   3.458
 5079SOL    HW227714   6.134   2.662   3.356
 5080SOL     OW27715   1.318   6.947   6.739
 5080SOL    HW127716   1.413   6.932   6.767
 5080SOL    HW227717   1.259   6.884   6.790
 5081SOL     OW27718   6.541   5.740   3.957
 5081SOL    HW127719   6.596   5.716   3.877
 5081SOL    HW227720   6.578   5.695   4.038
 5082SOL     OW27721   3.967   2.580   5.737
 5082SOL    HW127722   4.065   2.595   5.720
 5082SOL    HW227723   3.946   2.602   5.832
 5083SOL     OW27724   5.474   4.439   3.855
 5083SOL    HW127725   5.471   4.510   3.785
 5083SOL    HW227726   5.510   4.355   3.816
 5084SOL     OW27727   2.928   7.353   1.061
 5084SOL    HW127728   2.873   7.281   1.020
 5084SOL    HW227729   2.905   7.361   1.158
 5085SOL     OW27730   3.309   3.711   5.029
 5085SOL    HW127731   3.309   3.720   5.128
 5085SOL    HW227732   3.403   3.700   4.996
 5086SOL     OW27733   7.166   2.693   3.814
 5086SOL    HW127734   7.114   2.617   3.853
 5086SOL    HW227735   7.181   2.763   3.884
 5087SOL     OW27736   4.963   6.221   5.440
 5087SOL    HW127737   4.974   6.142   5.379
 5087SOL    HW227738   4.879   6.270   5.416
 5088SOL     OW27739   5.767   1.526   5.162
 5088SOL    HW127740   5.732   1.448   5.214
 5088SOL    HW227741   5.705   1.547   5.087
 5089SOL     OW27742   5.292   7.228   3.161
 5089SOL    HW127743   5.271   7.145   3.214
 5089SOL    HW227744   5.302   7.203   3.065
 5090SOL     OW27745   5.068   1.249   4.398
 5090SOL    HW127746   5.163   1.276   4.382
 5090SOL    HW227747   5.055   1.228   4.495
 5091SOL     OW27748   5.229   1.468   3.514
 5091SOL    HW127749   5.233   1.396   3.584
 5091SOL    HW227750   5.151   1.528   3.533
 5092SOL     OW27751   2.592   2.920   2.974
 5092SOL    HW127752   2.497   2.930   2.943
 5092SOL    HW227753   2.594   2.917   3.074
 5093SOL     OW27754   7.316   5.689   2.157
 5093SOL    HW127755   7.332   5.765   2.221
 5093SOL    HW227756   7.244   5.715   2.092
 5094SOL     OW27757   1.729   4.129   4.990
 5094SOL    HW127758   1.635   4.163   4.989
 5094SOL    HW227759   1.729   4.032   4.965
 5095SOL     OW27760   0.817   4.065   2.458
 5095SOL    HW127761   0.864   4.104   2.538
 5095SOL    HW227762   0.789   4.139   2.397
 5096SOL     OW27763   1.570   2.827   6.626
 5096SOL    HW127764   1.648   2.882   6.596
 5096SOL    HW227765   1.493   2.842   6.564
 5097SOL     OW27766   1.024   1.715   1.409
 5097SOL    HW127767   0.991   1.679   1.496
 5097SOL    HW227768   0.992   1.809   1.397
 5098SOL     OW27769   7.218   7.076   1.313
 5098SOL    HW127770   7.194   7.126   1.397
 5098SOL    HW227771   7.152   7.099   1.242
 5099SOL     OW27772   5.187   0.885   5.264
 5099SOL    HW127773   5.283   0.855   5.269
 5099SOL    HW227774   5.184   0.983   5.245
 5100SOL     OW27775   0.739   2.860   6.310
 5100SOL    HW127776   0.705   2.953   6.295
 5100SOL    HW227777   0.713   2.829   6.401
 5101SOL     OW27778   6.013   0.804   7.336
 5101SOL    HW127779   6.078   0.790   7.261
 5101SOL    HW227780   5.922   0.823   7.298
 5102SOL     OW27781   5.490   2.928   3.033
 5102SOL    HW127782   5.457   2.836   3.052
 5102SOL    HW227783   5.443   2.965   2.953
 5103SOL     OW27784   1.947   0.125   1.940
 5103SOL    HW127785   1.864   0.099   1.891
 5103SOL    HW227786   2.025   0.075   1.903
 5104SOL     OW27787   2.633   1.146   4.858
 5104SOL    HW127788   2.654   1.206   4.780
 5104SOL    HW227789   2.615   1.054   4.825
 5105SOL     OW27790   2.879   4.921   5.346
 5105SOL    HW127791   2.944   4.947   5.417
 5105SOL    HW227792   2.850   5.002   5.295
 5106SOL     OW27793   5.618   0.200   6.797
 5106SOL    HW127794   5.611   0.263   6.719
 5106SOL    HW227795   5.616   0.106   6.765
 5107SOL     OW27796   1.541   3.364   3.589
 5107SOL    HW127797   1.517   3.298   3.659
 5107SOL    HW227798   1.624   3.334   3.541
 5108SOL     OW27799   4.305   4.970   6.215
 5108SOL    HW127800   4.292   4.938   6.309
 5108SOL    HW227801   4.372   4.911   6.170
 5109SOL     OW27802   6.505   0.697   5.038
 5109SOL    HW127803   6.544   0.605   5.033
 5109SOL    HW227804   6.573   0.763   5.006
 5110SOL     OW27805   0.722   2.918   1.363
 5110SOL    HW127806   0.703   2.997   1.421
 5110SOL    HW227807   0.820   2.898   1.364
 5111SOL     OW27808   3.803   3.714   2.733
 5111SOL    HW127809   3.841   3.807   2.727
 5111SOL    HW227810   3.872   3.653   2.771
 5112SOL     OW27811   0.876   2.852   6.621
 5112SOL    HW127812   0.816   2.928   6.596
 5112SOL    HW227813   0.971   2.884   6.622
 5113SOL     OW27814   1.642   5.231   5.309
 5113SOL    HW127815   1.631   5.238   5.209
 5113SOL    HW227816   1.667   5.320   5.346
 5114SOL     OW27817   1.079   2.577   2.927
 5114SOL    HW127818   1.143   2.605   2.998
 5114SOL    HW227819   1.002   2.530   2.968
 5115SOL     OW27820   4.047   4.330   4.416
 5115SOL    HW127821   4.093   4.243   4.397
 5115SOL    HW227822   3.973   4.343   4.350
 5116SOL     OW27823   3.400   3.602   3.621
 5116SOL    HW127824   3.412   3.588   3.719
 5116SOL    HW227825   3.440   3.524   3.572
 5117SOL     OW27826   6.344   6.025   4.413
 5117SOL    HW127827   6.284   6.043   4.334
 5117SOL    HW227828   6.439   6.035   4.385
 5118SOL     OW27829   6.453   0.482   1.489
 5118SOL    HW127830   6.399   0.546   1.544
 5118SOL    HW227831   6.395   0.441   1.419
 5119SOL     OW27832   2.580   6.931   2.025
 5119SOL    HW127833   2.611   6.940   2.119
 5119SOL    HW227834   2.652   6.886   1.971
 5120SOL     OW27835   1.728   5.809   6.665
 5120SOL    HW127836   1.719   5.881   6.596
 5120SOL    HW227837   1.703   5.846   6.754
 5121SOL     OW27838   5.767   1.624   1.200
 5121SOL    HW127839   5.696   1.561   1.231
 5121SOL    HW227840   5.787   1.607   1.103
 5122SOL     OW27841   0.226   5.136   5.581
 5122SOL    HW127842   0.222   5.070   5.506
 5122SOL    HW227843   0.321   5.164   5.595
 5123SOL     OW27844   2.453   0.643   1.940
 5123SOL    HW127845   2.507   0.563   1.965
 5123SOL    HW227846   2.368   0.643   1.994
 5124SOL     OW27847   2.636   6.219   2.696
 5124SOL    HW127848   2.641   6.120   2.712
 5124SOL    HW227849   2.572   6.238   2.622
 5125SOL     OW27850   6.578   4.702   0.343
 5125SOL    HW127851   6.525   4.729   0.423
 5125SOL    HW227852   6.553   4.760   0.265
 5126SOL     OW27853   5.222   5.582   1.724
 5126SOL    HW127854   5.215   5.680   1.707
 5126SOL    HW227855   5.165   5.557   1.802
 5127SOL     OW27856   0.552   1.869   2.214
 5127SOL    HW127857   0.585   1.881   2.308
 5127SOL    HW227858   0.628   1.880   2.150
 5128SOL     OW27859   4.998   0.942   0.179
 5128SOL    HW127860   4.983   0.843   0.173
 5128SOL    HW227861   4.911   0.990   0.162
 5129SOL     OW27862   1.156   3.353   5.251
 5129SOL    HW127863   1.063   3.387   5.267
 5129SOL    HW227864   1.164   3.319   5.158
 5130SOL     OW27865   5.655   3.820   2.151
 5130SOL    HW127866   5.567   3.833   2.197
 5130SOL    HW227867   5.720   3.777   2.215
 5131SOL     OW27868   3.618   0.791   1.165
 5131SOL    HW127869   3.524   0.806   1.195
 5131SOL    HW227870   3.618   0.760   1.070
 5132SOL     OW27871   0.053   4.140   2.240
 5132SOL    HW127872  -0.020   4.077   2.266
 5132SOL    HW227873   0.141   4.093   2.248
 5133SOL     OW27874   4.963   2.777   3.168
 5133SOL    HW127875   4.983   2.809   3.075
 5133SOL    HW227876   4.866   2.788   3.187
 5134SOL     OW27877   1.081   5.702   1.603
 5134SOL    HW127878   1.086   5.757   1.686
 5134SOL    HW227879   1.160   5.642   1.598
 5135SOL     OW27880   3.698   6.700   5.772
 5135SOL    HW127881   3.785   6.668   5.735
 5135SOL    HW227882   3.692   6.799   5.761
 5136SOL     OW27883   3.078   5.643   1.750
 5136SOL    HW127884   3.100   5.662   1.846
 5136SOL    HW227885   3.106   5.549   1.728
 5137SOL     OW27886   3.242   5.275   5.230
 5137SOL    HW127887   3.225   5.306   5.136
 5137SOL    HW227888   3.295   5.344   5.279
 5138SOL     OW27889   1.671   5.566   0.705
 5138SOL    HW127890   1.620   5.650   0.724
 5138SOL    HW227891   1.607   5.494   0.676
 5139SOL     OW27892   6.192   5.895   3.793
 5139SOL    HW127893   6.288   5.879   3.771
 5139SOL    HW227894   6.139   5.905   3.708
 5140SOL     OW27895   5.923   5.872   3.192
 5140SOL    HW127896   5.875   5.938   3.250
 5140SOL    HW227897   5.969   5.920   3.117
 5141SOL     OW27898   1.989   5.245   1.057
 5141SOL    HW127899   1.967   5.304   1.134
 5141SOL    HW227900   2.082   5.211   1.066
 5142SOL     OW27901   1.103   0.649   3.773
 5142SOL    HW127902   1.015   0.673   3.732
 5142SOL    HW227903   1.091   0.632   3.871
 5143SOL     OW27904   1.360   2.914   5.199
 5143SOL    HW127905   1.399   2.941   5.110
 5143SOL    HW227906   1.262   2.934   5.200
 5144SOL     OW27907   3.725   3.142   5.067
 5144SOL    HW127908   3.799   3.186   5.117
 5144SOL    HW227909   3.701   3.056   5.113
 5145SOL     OW27910   1.309   1.913   2.826
 5145SOL    HW127911   1.360   1.831   2.853
 5145SOL    HW227912   1.277   1.960   2.908
 5146SOL     OW27913   2.082   0.635   0.655
 5146SOL    HW127914   2.043   0.550   0.619
 5146SOL    HW227915   2.139   0.615   0.734
 5147SOL     OW27916   7.225   6.424   5.968
 5147SOL    HW127917   7.290   6.495   5.942
 5147SOL    HW227918   7.246   6.339   5.919
 5148SOL     OW27919   5.864   0.579   3.893
 5148SOL    HW127920   5.833   0.674   3.890
 5148SOL    HW227921   5.808   0.524   3.831
 5149SOL     OW27922   5.464   6.798   4.228
 5149SOL    HW127923   5.413   6.758   4.153
 5149SOL    HW227924   5.404   6.809   4.308
 5150SOL     OW27925   5.561   1.521   7.355
 5150SOL    HW127926   5.605   1.610   7.365
 5150SOL    HW227927   5.508   1.501   7.437
 5151SOL     OW27928   4.216   2.134   2.524
 5151SOL    HW127929   4.196   2.120   2.427
 5151SOL    HW227930   4.193   2.051   2.575
 5152SOL     OW27931   2.384   1.832   6.551
 5152SOL    HW127932   2.411   1.928   6.541
 5152SOL    HW227933   2.464   1.774   6.540
 5153SOL     OW27934   6.572   5.583   6.618
 5153SOL    HW127935   6.667   5.599   6.645
 5153SOL    HW227936   6.559   5.485   6.603
 5154SOL     OW27937   4.324   2.927   5.480
 5154SOL    HW127938   4.398   2.985   5.448
 5154SOL    HW227939   4.339   2.904   5.576
 5155SOL     OW27940   4.340   5.974   3.081
 5155SOL    HW127941   4.304   5.950   3.171
 5155SOL    HW227942   4.411   5.908   3.056
 5156SOL     OW27943   5.684   1.362   3.531
 5156SOL    HW127944   5.782   1.360   3.549
 5156SOL    HW227945   5.652   1.270   3.509
 5157SOL     OW27946   5.397   0.926   0.347
 5157SOL    HW127947   5.368   0.953   0.256
 5157SOL    HW227948   5.387   1.003   0.410
 5158SOL     OW27949   3.871   0.047   6.273
 5158SOL    HW127950   3.832   0.100   6.197
 5158SOL    HW227951   3.879  -0.049   6.245
 5159SOL     OW27952   3.659   1.414   3.411
 5159SOL    HW127953   3.586   1.347   3.424
 5159SOL    HW227954   3.679   1.423   3.314
 5160SOL     OW27955   0.826   1.721   3.568
 5160SOL    HW127956   0.799   1.630   3.600
 5160SOL    HW227957   0.853   1.717   3.472
 5161SOL     OW27958   4.840   7.164   4.089
 5161SOL    HW127959   4.825   7.073   4.128
 5161SOL    HW227960   4.752   7.210   4.076
 5162SOL     OW27961   5.820   4.004   2.987
 5162SOL    HW127962   5.823   3.913   3.029
 5162SOL    HW227963   5.861   4.070   3.049
 5163SOL     OW27964   1.517   1.107   7.166
 5163SOL    HW127965   1.561   1.057   7.241
 5163SOL    HW227966   1.470   1.187   7.202
 5164SOL     OW27967   6.323   3.393   3.202
 5164SOL    HW127968   6.224   3.398   3.186
 5164SOL    HW227969   6.372   3.423   3.120
 5165SOL     OW27970   4.286   3.150   6.373
 5165SOL    HW127971   4.240   3.072   6.329
 5165SOL    HW227972   4.384   3.144   6.356
 5166SOL     OW27973   0.791   1.431   2.727
 5166SOL    HW127974   0.833   1.455   2.815
 5166SOL    HW227975   0.771   1.514   2.675
 5167SOL     OW27976   7.186   5.721   6.965
 5167SOL    HW127977   7.207   5.813   6.933
 5167SOL    HW227978   7.267   5.681   7.007
 5168SOL     OW27979   5.292   0.546   6.141
 5168SOL    HW127980   5.380   0.503   6.158
 5168SOL    HW227981   5.306   0.633   6.093
 5169SOL     OW27982   2.231   6.240   7.011
 5169SOL    HW127983   2.305   6.240   7.078
 5169SOL    HW227984   2.167   6.314   7.032
 5170SOL     OW27985   5.090   7.235   3.989
 5170SOL    HW127986   5.159   7.232   4.061
 5170SOL    HW227987   4.999   7.220   4.030
 5171SOL     OW27988   4.212   1.310   6.676
 5171SOL    HW127989   4.242   1.304   6.580
 5171SOL    HW227990   4.259   1.387   6.720
 5172SOL     OW27991   0.630   1.877   0.839
 5172SOL    HW127992   0.681   1.884   0.925
 5172SOL    HW227993   0.671   1.937   0.770
 5173SOL     OW27994   2.955   5.420   5.479
 5173SOL    HW127995   3.022   5.356   5.515
 5173SOL    HW227996   2.889   5.444   5.551
 5174SOL     OW27997   2.145   0.707   6.445
 5174SOL    HW127998   2.129   0.731   6.541
 5174SOL    HW227999   2.229   0.751   6.412
 5175SOL     OW28000   4.273   1.731   1.398
 5175SOL    HW128001   4.221   1.691   1.474
 5175SOL    HW228002   4.370   1.717   1.415
 5176SOL     OW28003   6.952   7.339   0.549
 5176SOL    HW128004   6.853   7.343   0.567
 5176SOL    HW228005   6.970   7.267   0.481
 5177SOL     OW28006   5.288   0.948   6.318
 5177SOL    HW128007   5.203   0.942   6.265
 5177SOL    HW228008   5.352   0.879   6.284
 5178SOL     OW28009   4.825   1.235   2.033
 5178SOL    HW128010   4.790   1.326   2.057
 5178SOL    HW228011   4.757   1.166   2.055
 5179SOL     OW28012   2.590   1.238   1.697
 5179SOL    HW128013   2.674   1.215   1.649
 5179SOL    HW228014   2.530   1.159   1.702
 5180SOL     OW28015   1.938   2.026   6.701
 5180SOL    HW128016   1.920   1.928   6.700
 5180SOL    HW228017   1.907   2.065   6.788
 5181SOL     OW28018   6.738   5.597   3.067
 5181SOL    HW128019   6.666   5.541   3.108
 5181SOL    HW228020   6.804   5.538   3.021
 5182SOL     OW28021   1.014   0.408   6.926
 5182SOL    HW128022   1.099   0.459   6.929
 5182SOL    HW228023   1.028   0.321   6.878
 5183SOL     OW28024   6.480   0.103   6.471
 5183SOL    HW128025   6.564   0.133   6.425
 5183SOL    HW228026   6.443   0.023   6.425
 5184SOL     OW28027   2.629   3.059   0.649
 5184SOL    HW128028   2.653   2.966   0.621
 5184SOL    HW228029   2.545   3.057   0.704
 5185SOL     OW28030   5.324   2.626   1.555
 5185SOL    HW128031   5.241   2.633   1.500
 5185SOL    HW228032   5.325   2.538   1.603
 5186SOL     OW28033   3.252   4.546   2.928
 5186SOL    HW128034   3.333   4.586   2.971
 5186SOL    HW228035   3.258   4.560   2.829
 5187SOL     OW28036   3.939   0.390   5.648
 5187SOL    HW128037   3.975   0.297   5.653
 5187SOL    HW228038   3.941   0.422   5.554
 5188SOL     OW28039   3.635   2.159   7.068
 5188SOL    HW128040   3.565   2.115   7.012
 5188SOL    HW228041   3.645   2.255   7.040
 5189SOL     OW28042   4.433   2.348   4.605
 5189SOL    HW128043   4.529   2.331   4.585
 5189SOL    HW228044   4.410   2.308   4.694
 5190SOL     OW28045   5.340   5.965   5.311
 5190SOL    HW128046   5.316   5.871   5.336
 5190SOL    HW228047   5.430   5.965   5.267
 5191SOL     OW28048   5.784   0.117   7.036
 5191SOL    HW128049   5.723   0.104   6.957
 5191SOL    HW228050   5.809   0.213   7.043
 5192SOL     OW28051   0.742   5.577   5.988
 5192SOL    HW128052   0.675   5.544   6.055
 5192SOL    HW228053   0.758   5.674   6.002
 5193SOL     OW28054   3.922   2.486   6.471
 5193SOL    HW128055   3.948   2.393   6.446
 5193SOL    HW228056   3.824   2.498   6.458
 5194SOL     OW28057   6.594   3.787   0.470
 5194SOL    HW128058   6.544   3.752   0.549
 5194SOL    HW228059   6.654   3.715   0.433
 5195SOL     OW28060   4.564   5.813   6.580
 5195SOL    HW128061   4.611   5.850   6.500
 5195SOL    HW228062   4.553   5.714   6.569
 5196SOL     OW28063   3.929   3.078   5.650
 5196SOL    HW128064   3.944   2.994   5.599
 5196SOL    HW228065   3.833   3.085   5.676
 5197SOL     OW28066   3.286   3.936   5.856
 5197SOL    HW128067   3.217   4.003   5.826
 5197SOL    HW228068   3.355   3.926   5.785
 5198SOL     OW28069   5.049   5.219   2.737
 5198SOL    HW128070   4.980   5.152   2.764
 5198SOL    HW228071   5.011   5.282   2.670
 5199SOL     OW28072   2.998   5.139   6.163
 5199SOL    HW128073   2.924   5.184   6.213
 5199SOL    HW228074   3.084   5.152   6.212
 5200SOL     OW28075   1.707   2.411   4.643
 5200SOL    HW128076   1.636   2.342   4.647
 5200SOL    HW228077   1.683   2.489   4.701
 5201SOL     OW28078   6.966   2.786   0.414
 5201SOL    HW128079   7.053   2.746   0.443
 5201SOL    HW228080   6.898   2.774   0.486
 5202SOL     OW28081   4.445   0.697   5.389
 5202SOL    HW128082   4.529   0.644   5.376
 5202SOL    HW228083   4.403   0.715   5.300
 5203SOL     OW28084   2.921   6.231   1.592
 5203SOL    HW128085   2.949   6.191   1.679
 5203SOL    HW228086   2.823   6.215   1.577
 5204SOL     OW28087   4.829   0.847   1.728
 5204SOL    HW128088   4.926   0.832   1.708
 5204SOL    HW228089   4.820   0.896   1.814
 5205SOL     OW28090   3.231   4.116   0.497
 5205SOL    HW128091   3.152   4.171   0.470
 5205SOL    HW228092   3.217   4.080   0.590
 5206SOL     OW28093   2.797   4.158   4.991
 5206SOL    HW128094   2.704   4.192   5.009
 5206SOL    HW228095   2.795   4.059   4.980
 5207SOL     OW28096   2.945   1.336   0.389
 5207SOL    HW128097   2.953   1.436   0.393
 5207SOL    HW228098   2.906   1.310   0.300
 5208SOL     OW28099   1.328   0.812   5.599
 5208SOL    HW128100   1.396   0.817   5.672
 5208SOL    HW228101   1.345   0.732   5.541
 5209SOL     OW28102   1.446   4.468   5.914
 5209SOL    HW128103   1.515   4.536   5.891
 5209SOL    HW228104   1.466   4.382   5.867
 5210SOL     OW28105   1.539   6.513   6.956
 5210SOL    HW128106   1.526   6.531   6.858
 5210SOL    HW228107   1.595   6.431   6.968
 5211SOL     OW28108   0.318   6.971   5.031
 5211SOL    HW128109   0.394   6.958   4.966
 5211SOL    HW228110   0.329   6.907   5.107
 5212SOL     OW28111   5.270   4.518   6.317
 5212SOL    HW128112   5.365   4.496   6.295
 5212SOL    HW228113   5.225   4.556   6.237
 5213SOL     OW28114   3.281   1.897   6.409
 5213SOL    HW128115   3.207   1.831   6.394
 5213SOL    HW228116   3.367   1.858   6.376
 5214SOL     OW28117   2.083   4.518   0.635
 5214SOL    HW128118   2.049   4.544   0.545
 5214SOL    HW228119   2.006   4.508   0.698
 5215SOL     OW28120   3.873   0.152   0.092
 5215SOL    HW128121   3.867   0.141  -0.007
 5215SOL    HW228122   3.843   0.067   0.137
 5216SOL     OW28123   6.511   3.142   4.433
 5216SOL    HW128124   6.601   3.132   4.477
 5216SOL    HW228125   6.462   3.055   4.439
 5217SOL     OW28126   3.478   1.974   0.652
 5217SOL    HW128127   3.491   2.030   0.734
 5217SOL    HW228128   3.510   1.881   0.670
 5218SOL     OW28129   3.158   3.089   0.999
 5218SOL    HW128130   3.158   3.105   0.900
 5218SOL    HW228131   3.068   3.111   1.036
 5219SOL     OW28132   1.206   4.643   6.961
 5219SOL    HW128133   1.188   4.551   6.998
 5219SOL    HW228134   1.119   4.686   6.939
 5220SOL     OW28135   0.030   0.910   6.163
 5220SOL    HW128136  -0.060   0.874   6.189
 5220SOL    HW228137   0.034   0.921   6.064
 5221SOL     OW28138   4.807   1.155   5.972
 5221SOL    HW128139   4.784   1.089   5.900
 5221SOL    HW228140   4.906   1.155   5.987
 5222SOL     OW28141   1.889   3.428   6.468
 5222SOL    HW128142   1.966   3.486   6.491
 5222SOL    HW228143   1.810   3.485   6.444
 5223SOL     OW28144   1.074   5.953   1.151
 5223SOL    HW128145   1.140   5.944   1.077
 5223SOL    HW228146   1.092   6.037   1.201
 5224SOL     OW28147   0.697   3.199   1.446
 5224SOL    HW128148   0.655   3.266   1.384
 5224SOL    HW228149   0.698   3.236   1.539
 5225SOL     OW28150   6.126   0.452   6.898
 5225SOL    HW128151   6.134   0.477   6.995
 5225SOL    HW228152   6.164   0.524   6.841
 5226SOL     OW28153   5.582   0.208   7.263
 5226SOL    HW128154   5.608   0.291   7.213
 5226SOL    HW228155   5.654   0.139   7.252
 5227SOL     OW28156   2.790   6.509   6.270
 5227SOL    HW128157   2.701   6.468   6.290
 5227SOL    HW228158   2.786   6.607   6.287
 5228SOL     OW28159   5.881   0.136   3.619
 5228SOL    HW128160   5.923   0.203   3.680
 5228SOL    HW228161   5.876   0.173   3.527
 5229SOL     OW28162   0.384   6.085   5.673
 5229SOL    HW128163   0.329   6.166   5.652
 5229SOL    HW228164   0.480   6.111   5.679
 5230SOL     OW28165   3.014   7.270   4.339
 5230SOL    HW128166   3.015   7.171   4.348
 5230SOL    HW228167   2.930   7.298   4.291
 5231SOL     OW28168   5.163   6.672   3.187
 5231SOL    HW128169   5.075   6.704   3.224
 5231SOL    HW228170   5.235   6.689   3.255
 5232SOL     OW28171   5.652   0.267   3.174
 5232SOL    HW128172   5.585   0.196   3.194
 5232SOL    HW228173   5.608   0.340   3.122
 5233SOL     OW28174   5.849   1.731   4.899
 5233SOL    HW128175   5.937   1.682   4.898
 5233SOL    HW228176   5.866   1.829   4.889
 5234SOL     OW28177   1.997   6.284   1.443
 5234SOL    HW128178   2.056   6.203   1.449
 5234SOL    HW228179   1.993   6.316   1.348
 5235SOL     OW28180   2.236   4.723   6.221
 5235SOL    HW128181   2.193   4.635   6.242
 5235SOL    HW228182   2.227   4.784   6.300
 5236SOL     OW28183   5.067   2.160   4.315
 5236SOL    HW128184   5.132   2.233   4.291
 5236SOL    HW228185   4.974   2.190   4.295
 5237SOL     OW28186   7.129   2.679   3.072
 5237SOL    HW128187   7.203   2.666   3.138
 5237SOL    HW228188   7.168   2.691   2.981
 5238SOL     OW28189   6.763   5.684   6.033
 5238SOL    HW128190   6.818   5.670   6.115
 5238SOL    HW228191   6.796   5.625   5.959
 5239SOL     OW28192   0.663   3.950   2.999
 5239SOL    HW128193   0.694   3.870   3.050
 5239SOL    HW228194   0.721   4.029   3.021
 5240SOL     OW28195   1.590   1.505   1.265
 5240SOL    HW128196   1.594   1.471   1.359
 5240SOL    HW228197   1.507   1.471   1.221
 5241SOL     OW28198   5.673   0.900   4.770
 5241SOL    HW128199   5.630   0.831   4.829
 5241SOL    HW228200   5.638   0.891   4.677
 5242SOL     OW28201   4.404   0.855   7.102
 5242SOL    HW128202   4.355   0.936   7.068
 5242SOL    HW228203   4.500   0.861   7.076
 5243SOL     OW28204   7.352   3.143   7.013
 5243SOL    HW128205   7.416   3.108   7.082
 5243SOL    HW228206   7.262   3.104   7.029
 5244SOL     OW28207   1.955   4.558   4.331
 5244SOL    HW128208   1.993   4.548   4.423
 5244SOL    HW228209   1.992   4.640   4.288
 5245SOL     OW28210   7.272   3.857   5.896
 5245SOL    HW128211   7.369   3.858   5.870
 5245SOL    HW228212   7.248   3.946   5.934
 5246SOL     OW28213   3.456   4.564   0.363
 5246SOL    HW128214   3.464   4.483   0.304
 5246SOL    HW228215   3.404   4.635   0.315
 5247SOL     OW28216   4.104   6.760   2.004
 5247SOL    HW128217   4.030   6.705   1.964
 5247SOL    HW228218   4.114   6.844   1.952
 5248SOL     OW28219   0.112   6.494   0.348
 5248SOL    HW128220   0.199   6.446   0.340
 5248SOL    HW228221   0.066   6.466   0.432
 5249SOL     OW28222   2.188   4.249   6.354
 5249SOL    HW128223   2.281   4.236   6.388
 5249SOL    HW228224   2.127   4.183   6.397
 5250SOL     OW28225   3.765   2.976   2.217
 5250SOL    HW128226   3.673   3.009   2.234
 5250SOL    HW228227   3.761   2.895   2.159
 5251SOL     OW28228   3.322   0.833   1.833
 5251SOL    HW128229   3.272   0.748   1.850
 5251SOL    HW228230   3.303   0.866   1.741
 5252SOL     OW28231   1.486   2.344   2.719
 5252SOL    HW128232   1.524   2.354   2.627
 5252SOL    HW228233   1.387   2.355   2.716
 5253SOL     OW28234   2.452   2.682   6.597
 5253SOL    HW128235   2.534   2.647   6.553
 5253SOL    HW228236   2.425   2.620   6.671
 5254SOL     OW28237   1.797   3.836   1.352
 5254SOL    HW128238   1.863   3.764   1.326
 5254SOL    HW228239   1.736   3.800   1.422
 5255SOL     OW28240   1.318   4.469   4.279
 5255SOL    HW128241   1.224   4.434   4.277
 5255SOL    HW228242   1.322   4.557   4.232
 5256SOL     OW28243   1.266   3.188   4.741
 5256SOL    HW128244   1.219   3.226   4.662
 5256SOL    HW228245   1.356   3.155   4.715
 5257SOL     OW28246   6.335   6.144   0.625
 5257SOL    HW128247   6.365   6.053   0.657
 5257SOL    HW228248   6.344   6.149   0.526
 5258SOL     OW28249   2.187   1.227   0.525
 5258SOL    HW128250   2.277   1.236   0.483
 5258SOL    HW228251   2.130   1.166   0.470
 5259SOL     OW28252   6.455   6.703   0.800
 5259SOL    HW128253   6.481   6.760   0.722
 5259SOL    HW228254   6.384   6.639   0.771
 5260SOL     OW28255   4.803   0.115   6.349
 5260SOL    HW128256   4.854   0.060   6.415
 5260SOL    HW228257   4.757   0.191   6.396
 5261SOL     OW28258   6.477   0.673   2.106
 5261SOL    HW128259   6.482   0.593   2.046
 5261SOL    HW228260   6.570   0.699   2.134
 5262SOL     OW28261   6.792   2.336   4.214
 5262SOL    HW128262   6.740   2.262   4.256
 5262SOL    HW228263   6.736   2.418   4.210
 5263SOL     OW28264   1.385   4.967   1.185
 5263SOL    HW128265   1.325   4.965   1.105
 5263SOL    HW228266   1.329   4.976   1.268
 5264SOL     OW28267   5.582   4.223   3.750
 5264SOL    HW128268   5.547   4.147   3.696
 5264SOL    HW228269   5.659   4.266   3.702
 5265SOL     OW28270   7.093   4.987   4.117
 5265SOL    HW128271   7.042   4.917   4.168
 5265SOL    HW228272   7.134   4.946   4.036
 5266SOL     OW28273   2.946   4.874   6.163
 5266SOL    HW128274   2.940   4.969   6.133
 5266SOL    HW228275   3.026   4.862   6.222
 5267SOL     OW28276   5.182   4.696   7.350
 5267SOL    HW128277   5.214   4.782   7.389
 5267SOL    HW228278   5.218   4.685   7.258
 5268SOL     OW28279   6.218   6.091   4.183
 5268SOL    HW128280   6.194   6.151   4.107
 5268SOL    HW228281   6.146   6.023   4.196
 5269SOL     OW28282   6.623   7.332   3.282
 5269SOL    HW128283   6.630   7.423   3.322
 5269SOL    HW228284   6.532   7.320   3.242
 5270SOL     OW28285   4.353   1.305   3.628
 5270SOL    HW128286   4.422   1.338   3.691
 5270SOL    HW228287   4.319   1.381   3.572
 5271SOL     OW28288   5.909   0.523   2.637
 5271SOL    HW128289   6.000   0.511   2.596
 5271SOL    HW228290   5.839   0.499   2.571
 5272SOL     OW28291   0.223   7.102   1.297
 5272SOL    HW128292   0.130   7.138   1.310
 5272SOL    HW228293   0.219   7.002   1.292
 5273SOL     OW28294   6.015   4.593   7.108
 5273SOL    HW128295   5.942   4.652   7.074
 5273SOL    HW228296   6.054   4.634   7.191
 5274SOL     OW28297   3.264   0.959   2.608
 5274SOL    HW128298   3.261   0.901   2.689
 5274SOL    HW228299   3.293   0.905   2.529
 5275SOL     OW28300   4.426   2.681   4.376
 5275SOL    HW128301   4.350   2.652   4.434
 5275SOL    HW228302   4.394   2.748   4.310
 5276SOL     OW28303   0.531   4.241   5.146
 5276SOL    HW128304   0.509   4.304   5.221
 5276SOL    HW228305   0.454   4.237   5.083
 5277SOL     OW28306   0.518   2.905   7.164
 5277SOL    HW128307   0.481   2.894   7.072
 5277SOL    HW228308   0.481   2.988   7.206
 5278SOL     OW28309   1.681   2.503   1.765
 5278SOL    HW128310   1.759   2.556   1.732
 5278SOL    HW228311   1.602   2.518   1.705
 5279SOL     OW28312   2.374   5.452   0.483
 5279SOL    HW128313   2.351   5.357   0.461
 5279SOL    HW228314   2.381   5.504   0.398
 5280SOL     OW28315   2.356   3.394   1.063
 5280SOL    HW128316   2.341   3.297   1.046
 5280SOL    HW228317   2.380   3.440   0.978
 5281SOL     OW28318   3.330   6.293   6.901
 5281SOL    HW128319   3.264   6.295   6.826
 5281SOL    HW228320   3.389   6.213   6.891
 5282SOL     OW28321   7.117   2.470   1.024
 5282SOL    HW128322   7.148   2.402   0.957
 5282SOL    HW228323   7.031   2.440   1.063
 5283SOL     OW28324   0.887   3.188   7.240
 5283SOL    HW128325   0.793   3.216   7.218
 5283SOL    HW228326   0.911   3.220   7.331
 5284SOL     OW28327   6.770   6.000   6.392
 5284SOL    HW128328   6.798   6.013   6.487
 5284SOL    HW228329   6.714   6.078   6.363
 5285SOL     OW28330   1.811   7.142   0.040
 5285SOL    HW128331   1.814   7.048   0.073
 5285SOL    HW228332   1.733   7.189   0.080
 5286SOL     OW28333   6.360   0.891   6.520
 5286SOL    HW128334   6.459   0.897   6.508
 5286SOL    HW228335   6.330   0.797   6.501
 5287SOL     OW28336   5.586   3.089   3.564
 5287SOL    HW128337   5.602   2.991   3.569
 5287SOL    HW228338   5.542   3.112   3.478
 5288SOL     OW28339   3.501   1.290   2.549
 5288SOL    HW128340   3.492   1.199   2.508
 5288SOL    HW228341   3.569   1.342   2.497
 5289SOL     OW28342   2.895   6.042   6.246
 5289SOL    HW128343   2.967   6.101   6.212
 5289SOL    HW228344   2.934   5.973   6.307
 5290SOL     OW28345   6.922   4.626   5.086
 5290SOL    HW128346   6.855   4.652   5.156
 5290SOL    HW228347   6.950   4.531   5.101
 5291SOL     OW28348   4.294   4.017   2.326
 5291SOL    HW128349   4.383   4.056   2.348
 5291SOL    HW228350   4.294   3.986   2.231
 5292SOL     OW28351   6.381   1.442   6.162
 5292SOL    HW128352   6.312   1.374   6.139
 5292SOL    HW228353   6.441   1.457   6.083
 5293SOL     OW28354   0.499   1.346   2.618
 5293SOL    HW128355   0.458   1.280   2.554
 5293SOL    HW228356   0.535   1.424   2.567
 5294SOL     OW28357   4.444   6.147   4.906
 5294SOL    HW128358   4.363   6.205   4.898
 5294SOL    HW228359   4.477   6.124   4.814
 5295SOL     OW28360   2.317   3.456   5.430
 5295SOL    HW128361   2.373   3.410   5.499
 5295SOL    HW228362   2.243   3.506   5.475
 5296SOL     OW28363   2.939   4.551   5.082
 5296SOL    HW128364   2.845   4.557   5.117
 5296SOL    HW228365   2.998   4.612   5.135
 5297SOL     OW28366   6.212   4.464   5.046
 5297SOL    HW128367   6.199   4.529   4.972
 5297SOL    HW228368   6.181   4.373   5.018
 5298SOL     OW28369   1.937   5.892   4.458
 5298SOL    HW128370   1.950   5.861   4.552
 5298SOL    HW228371   1.960   5.818   4.394
 5299SOL     OW28372   3.228   3.713   6.951
 5299SOL    HW128373   3.141   3.723   6.902
 5299SOL    HW228374   3.304   3.733   6.888
 5300SOL     OW28375   5.420   5.919   6.771
 5300SOL    HW128376   5.394   5.988   6.838
 5300SOL    HW228377   5.430   5.830   6.816
 5301SOL     OW28378   7.128   4.851   1.910
 5301SOL    HW128379   7.164   4.761   1.886
 5301SOL    HW228380   7.135   4.865   2.008
 5302SOL     OW28381   2.347   1.351   1.795
 5302SOL    HW128382   2.359   1.313   1.887
 5302SOL    HW228383   2.433   1.345   1.745
 5303SOL     OW28384   4.012   6.743   4.126
 5303SOL    HW128385   3.957   6.809   4.177
 5303SOL    HW228386   3.974   6.652   4.138
 5304SOL     OW28387   1.616   0.616   5.880
 5304SOL    HW128388   1.657   0.662   5.958
 5304SOL    HW228389   1.687   0.576   5.823
 5305SOL     OW28390   5.467   6.465   3.398
 5305SOL    HW128391   5.371   6.443   3.417
 5305SOL    HW228392   5.489   6.438   3.304
 5306SOL     OW28393   4.551   0.791   3.393
 5306SOL    HW128394   4.482   0.821   3.459
 5306SOL    HW228395   4.553   0.691   3.388
 5307SOL     OW28396   3.914   6.676   5.247
 5307SOL    HW128397   3.994   6.698   5.302
 5307SOL    HW228398   3.843   6.636   5.306
 5308SOL     OW28399   3.040   3.004   6.235
 5308SOL    HW128400   3.005   2.949   6.159
 5308SOL    HW228401   3.127   2.967   6.267
 5309SOL     OW28402   3.487   4.566   4.624
 5309SOL    HW128403   3.583   4.575   4.597
 5309SOL    HW228404   3.442   4.655   4.618
 5310SOL     OW28405   1.054   4.215   1.441
 5310SOL    HW128406   1.093   4.273   1.369
 5310SOL    HW228407   1.082   4.249   1.531
 5311SOL     OW28408   5.053   0.110   1.605
 5311SOL    HW128409   5.043   0.014   1.578
 5311SOL    HW228410   5.117   0.115   1.682
 5312SOL     OW28411   1.187   1.366   1.587
 5312SOL    HW128412   1.091   1.394   1.583
 5312SOL    HW228413   1.243   1.444   1.613
 5313SOL     OW28414   7.292   5.189   0.352
 5313SOL    HW128415   7.207   5.221   0.309
 5313SOL    HW228416   7.348   5.268   0.377
 5314SOL     OW28417   1.028   5.005   1.588
 5314SOL    HW128418   1.056   5.004   1.684
 5314SOL    HW228419   0.971   5.086   1.571
 5315SOL     OW28420   1.951   7.047   1.054
 5315SOL    HW128421   1.860   7.075   1.026
 5315SOL    HW228422   1.945   6.991   1.137
 5316SOL     OW28423   6.989   2.522   3.924
 5316SOL    HW128424   6.982   2.447   3.858
 5316SOL    HW228425   7.001   2.484   4.016
 5317SOL     OW28426   1.990   7.126   6.960
 5317SOL    HW128427   1.905   7.110   7.011
 5317SOL    HW228428   2.058   7.165   7.022
 5318SOL     OW28429   5.754   3.917   6.523
 5318SOL    HW128430   5.781   3.860   6.446
 5318SOL    HW228431   5.799   3.885   6.606
 5319SOL     OW28432   5.826   4.780   3.942
 5319SOL    HW128433   5.883   4.817   4.016
 5319SOL    HW228434   5.882   4.763   3.861
 5320SOL     OW28435   1.126   2.480   5.245
 5320SOL    HW128436   1.220   2.505   5.268
 5320SOL    HW228437   1.069   2.562   5.243
 5321SOL     OW28438   3.291   5.034   2.351
 5321SOL    HW128439   3.373   5.092   2.350
 5321SOL    HW228440   3.210   5.092   2.348
 5322SOL     OW28441   2.794   6.871   5.416
 5322SOL    HW128442   2.870   6.933   5.402
 5322SOL    HW228443   2.807   6.788   5.361
 5323SOL     OW28444   5.576   6.313   5.230
 5323SOL    HW128445   5.554   6.394   5.284
 5323SOL    HW228446   5.598   6.340   5.136
 5324SOL     OW28447   5.759   5.764   5.870
 5324SOL    HW128448   5.826   5.737   5.939
 5324SOL    HW228449   5.756   5.864   5.865
 5325SOL     OW28450   3.218   4.414   3.450
 5325SOL    HW128451   3.313   4.445   3.457
 5325SOL    HW228452   3.187   4.421   3.355
 5326SOL     OW28453   4.129   4.640   0.748
 5326SOL    HW128454   4.125   4.542   0.726
 5326SOL    HW228455   4.144   4.651   0.847
 5327SOL     OW28456   1.841   6.435   1.051
 5327SOL    HW128457   1.912   6.504   1.038
 5327SOL    HW228458   1.873   6.347   1.014
 5328SOL     OW28459   3.059   3.782   2.097
 5328SOL    HW128460   3.020   3.776   2.005
 5328SOL    HW228461   2.986   3.797   2.163
 5329SOL     OW28462   6.757   3.367   5.815
 5329SOL    HW128463   6.843   3.411   5.790
 5329SOL    HW228464   6.769   3.316   5.900
 5330SOL     OW28465   0.702   3.553   4.342
 5330SOL    HW128466   0.678   3.473   4.287
 5330SOL    HW228467   0.624   3.616   4.343
 5331SOL     OW28468   1.091   3.238   5.945
 5331SOL    HW128469   1.010   3.288   5.976
 5331SOL    HW228470   1.155   3.302   5.903
 5332SOL     OW28471   0.569   5.486   0.964
 5332SOL    HW128472   0.511   5.431   0.904
 5332SOL    HW228473   0.636   5.426   1.009
 5333SOL     OW28474   4.507   2.864   3.917
 5333SOL    HW128475   4.440   2.893   3.984
 5333SOL    HW228476   4.471   2.876   3.825
 5334SOL     OW28477   2.118   6.825   6.356
 5334SOL    HW128478   2.059   6.819   6.275
 5334SOL    HW228479   2.181   6.901   6.345
 5335SOL     OW28480   2.651   1.119   1.264
 5335SOL    HW128481   2.609   1.143   1.176
 5335SOL    HW228482   2.617   1.030   1.294
 5336SOL     OW28483   4.572   3.756   6.191
 5336SOL    HW128484   4.542   3.705   6.271
 5336SOL    HW228485   4.546   3.707   6.108
 5337SOL     OW28486   5.541   5.630   3.056
 5337SOL    HW128487   5.486   5.714   3.059
 5337SOL    HW228488   5.498   5.560   3.112
 5338SOL     OW28489   3.463   2.843   7.221
 5338SOL    HW128490   3.390   2.893   7.173
 5338SOL    HW228491   3.505   2.778   7.158
 5339SOL     OW28492   1.394   3.757   6.723
 5339SOL    HW128493   1.348   3.827   6.777
 5339SOL    HW228494   1.348   3.669   6.737
 5340SOL     OW28495   5.620   1.316   4.070
 5340SOL    HW128496   5.598   1.345   3.977
 5340SOL    HW228497   5.541   1.270   4.110
 5341SOL     OW28498   1.643   4.170   0.457
 5341SOL    HW128499   1.606   4.238   0.394
 5341SOL    HW228500   1.734   4.143   0.426
 5342SOL     OW28501   4.629   1.261   6.620
 5342SOL    HW128502   4.598   1.195   6.688
 5342SOL    HW228503   4.648   1.348   6.664
 5343SOL     OW28504   2.206   2.671   5.953
 5343SOL    HW128505   2.133   2.631   5.898
 5343SOL    HW228506   2.275   2.711   5.893
 5344SOL     OW28507   3.581   2.069   6.667
 5344SOL    HW128508   3.628   2.034   6.748
 5344SOL    HW228509   3.492   2.025   6.659
 5345SOL     OW28510   5.724   1.122   2.964
 5345SOL    HW128511   5.636   1.098   2.921
 5345SOL    HW228512   5.776   1.181   2.902
 5346SOL     OW28513   5.350   2.203   0.242
 5346SOL    HW128514   5.278   2.247   0.189
 5346SOL    HW228515   5.309   2.145   0.313
 5347SOL     OW28516   2.485   3.383   4.868
 5347SOL    HW128517   2.399   3.370   4.819
 5347SOL    HW228518   2.466   3.400   4.965
 5348SOL     OW28519   0.915   0.893   6.875
 5348SOL    HW128520   0.913   0.796   6.852
 5348SOL    HW228521   0.874   0.946   6.801
 5349SOL     OW28522   5.295   0.869   2.966
 5349SOL    HW128523   5.217   0.931   2.952
 5349SOL    HW228524   5.335   0.886   3.056
 5350SOL     OW28525   3.870   0.731   6.304
 5350SOL    HW128526   3.799   0.694   6.245
 5350SOL    HW228527   3.894   0.664   6.374
 5351SOL     OW28528   6.713   0.565   0.629
 5351SOL    HW128529   6.807   0.592   0.648
 5351SOL    HW228530   6.665   0.545   0.714
 5352SOL     OW28531   6.531   1.231   6.774
 5352SOL    HW128532   6.551   1.284   6.692
 5352SOL    HW228533   6.445   1.183   6.763
 5353SOL     OW28534   4.427   2.260   5.932
 5353SOL    HW128535   4.341   2.253   5.981
 5353SOL    HW228536   4.410   2.292   5.839
 5354SOL     OW28537   3.674   0.035   4.356
 5354SOL    HW128538   3.674   0.073   4.448
 5354SOL    HW228539   3.584   0.049   4.314
 5355SOL     OW28540   2.173   1.111   6.501
 5355SOL    HW128541   2.117   1.056   6.439
 5355SOL    HW228542   2.222   1.050   6.564
 5356SOL     OW28543   2.800   5.084   6.901
 5356SOL    HW128544   2.794   5.045   6.993
 5356SOL    HW228545   2.728   5.045   6.844
 5357SOL     OW28546   5.044   5.643   6.004
 5357SOL    HW128547   5.047   5.682   5.911
 5357SOL    HW228548   4.967   5.683   6.054
 5358SOL     OW28549   1.848   0.504   5.324
 5358SOL    HW128550   1.867   0.413   5.359
 5358SOL    HW228551   1.919   0.568   5.355
 5359SOL     OW28552   4.962   0.901   1.976
 5359SOL    HW128553   4.969   0.924   2.073
 5359SOL    HW228554   5.016   0.819   1.957
 5360SOL     OW28555   0.590   5.159   3.787
 5360SOL    HW128556   0.576   5.184   3.883
 5360SOL    HW228557   0.601   5.242   3.732
 5361SOL     OW28558   6.227   5.017   4.721
 5361SOL    HW128559   6.283   4.939   4.693
 5361SOL    HW228560   6.209   5.076   4.642
 5362SOL     OW28561   4.529   3.255   3.014
 5362SOL    HW128562   4.549   3.330   3.077
 5362SOL    HW228563   4.497   3.176   3.066
 5363SOL     OW28564   0.010   0.368   7.176
 5363SOL    HW128565  -0.005   0.463   7.146
 5363SOL    HW228566  -0.045   0.307   7.120
 5364SOL     OW28567   6.308   7.253   6.701
 5364SOL    HW128568   6.304   7.340   6.751
 5364SOL    HW228569   6.237   7.191   6.737
 5365SOL     OW28570   3.243   0.378   3.296
 5365SOL    HW128571   3.184   0.331   3.361
 5365SOL    HW228572   3.223   0.345   3.203
 5366SOL     OW28573   3.391   3.034   0.727
 5366SOL    HW128574   3.479   3.073   0.754
 5366SOL    HW228575   3.317   3.088   0.766
 5367SOL     OW28576   4.723   0.695   0.341
 5367SOL    HW128577   4.749   0.695   0.245
 5367SOL    HW228578   4.653   0.765   0.357
 5368SOL     OW28579   3.493   7.134   0.823
 5368SOL    HW128580   3.535   7.224   0.837
 5368SOL    HW228581   3.403   7.145   0.781
 5369SOL     OW28582   1.574   0.061   6.682
 5369SOL    HW128583   1.642   0.130   6.709
 5369SOL    HW228584   1.603   0.018   6.596
 5370SOL     OW28585   6.515   1.893   0.929
 5370SOL    HW128586   6.480   1.972   0.878
 5370SOL    HW228587   6.560   1.830   0.865
 5371SOL     OW28588   1.257   4.697   3.615
 5371SOL    HW128589   1.192   4.627   3.589
 5371SOL    HW228590   1.290   4.745   3.534
 5372SOL     OW28591   5.823   5.498   4.257
 5372SOL    HW128592   5.731   5.495   4.294
 5372SOL    HW228593   5.868   5.410   4.272
 5373SOL     OW28594   4.133   1.083   7.272
 5373SOL    HW128595   4.205   1.040   7.326
 5373SOL    HW228596   4.069   1.013   7.239
 5374SOL     OW28597   3.835   1.729   5.682
 5374SOL    HW128598   3.777   1.781   5.744
 5374SOL    HW228599   3.819   1.631   5.696
 5375SOL     OW28600   1.749   2.223   1.216
 5375SOL    HW128601   1.827   2.265   1.261
 5375SOL    HW228602   1.702   2.162   1.281
 5376SOL     OW28603   3.120   6.518   0.991
 5376SOL    HW128604   3.079   6.601   1.028
 5376SOL    HW228605   3.148   6.458   1.066
 5377SOL     OW28606   0.511   0.533   2.122
 5377SOL    HW128607   0.567   0.587   2.059
 5377SOL    HW228608   0.425   0.508   2.077
 5378SOL     OW28609   1.550   1.643   1.551
 5378SOL    HW128610   1.541   1.559   1.605
 5378SOL    HW228611   1.509   1.630   1.461
 5379SOL     OW28612   3.292   3.378   6.472
 5379SOL    HW128613   3.260   3.346   6.383
 5379SOL    HW228614   3.218   3.370   6.539
 5380SOL     OW28615   2.113   3.628   2.295
 5380SOL    HW128616   2.141   3.605   2.202
 5380SOL    HW228617   2.192   3.665   2.345
 5381SOL     OW28618   5.765   3.180   3.211
 5381SOL    HW128619   5.678   3.131   3.211
 5381SOL    HW228620   5.768   3.242   3.133
 5382SOL     OW28621   5.815   6.372   2.086
 5382SOL    HW128622   5.876   6.318   2.145
 5382SOL    HW228623   5.854   6.378   1.994
 5383SOL     OW28624   6.695   1.686   5.998
 5383SOL    HW128625   6.752   1.756   5.955
 5383SOL    HW228626   6.664   1.719   6.087
 5384SOL     OW28627   5.697   2.046   4.897
 5384SOL    HW128628   5.663   1.991   4.821
 5384SOL    HW228629   5.624   2.060   4.964
 5385SOL     OW28630   7.254   4.715   3.353
 5385SOL    HW128631   7.263   4.650   3.277
 5385SOL    HW228632   7.317   4.688   3.426
 5386SOL     OW28633   6.133   5.398   0.077
 5386SOL    HW128634   6.156   5.339   0.155
 5386SOL    HW228635   6.110   5.341  -0.002
 5387SOL     OW28636   5.590   0.570   1.471
 5387SOL    HW128637   5.543   0.611   1.393
 5387SOL    HW228638   5.664   0.511   1.439
 5388SOL     OW28639   3.751   1.771   0.554
 5388SOL    HW128640   3.742   1.736   0.461
 5388SOL    HW228641   3.754   1.871   0.552
 5389SOL     OW28642   0.293   1.319   0.358
 5389SOL    HW128643   0.393   1.330   0.359
 5389SOL    HW228644   0.271   1.223   0.343
 5390SOL     OW28645   3.149   6.842   5.609
 5390SOL    HW128646   3.139   6.743   5.592
 5390SOL    HW228647   3.093   6.868   5.687
 5391SOL     OW28648   6.145   2.017   0.816
 5391SOL    HW128649   6.059   2.050   0.854
 5391SOL    HW228650   6.126   1.952   0.742
 5392SOL     OW28651   6.253   2.924   4.877
 5392SOL    HW128652   6.278   2.866   4.955
 5392SOL    HW228653   6.154   2.922   4.865
 5393SOL     OW28654   6.364   1.600   5.556
 5393SOL    HW128655   6.311   1.634   5.634
 5393SOL    HW228656   6.303   1.590   5.477
 5394SOL     OW28657   2.764   3.684   3.782
 5394SOL    HW128658   2.847   3.730   3.812
 5394SOL    HW228659   2.684   3.727   3.824
 5395SOL     OW28660   5.563   6.392   3.884
 5395SOL    HW128661   5.625   6.470   3.880
 5395SOL    HW228662   5.502   6.402   3.963
 5396SOL     OW28663   5.591   1.215   0.846
 5396SOL    HW128664   5.649   1.150   0.894
 5396SOL    HW228665   5.515   1.167   0.803
 5397SOL     OW28666   2.153   4.046   2.617
 5397SOL    HW128667   2.123   4.053   2.712
 5397SOL    HW228668   2.253   4.055   2.613
 5398SOL     OW28669   0.988   6.605   7.038
 5398SOL    HW128670   0.978   6.506   7.050
 5398SOL    HW228671   0.973   6.651   7.126
 5399SOL     OW28672   4.564   6.806   2.531
 5399SOL    HW128673   4.519   6.867   2.465
 5399SOL    HW228674   4.639   6.758   2.486
 5400SOL     OW28675   6.906   5.435   6.884
 5400SOL    HW128676   6.890   5.502   6.812
 5400SOL    HW228677   6.897   5.480   6.973
 5401SOL     OW28678   3.739   6.093   3.257
 5401SOL    HW128679   3.673   6.138   3.197
 5401SOL    HW228680   3.831   6.120   3.230
 5402SOL     OW28681   0.155   2.660   1.106
 5402SOL    HW128682   0.165   2.576   1.052
 5402SOL    HW228683   0.246   2.692   1.134
 5403SOL     OW28684   6.427   5.897   0.701
 5403SOL    HW128685   6.460   5.834   0.630
 5403SOL    HW228686   6.424   5.850   0.789
 5404SOL     OW28687   2.582   3.229   6.188
 5404SOL    HW128688   2.499   3.285   6.190
 5404SOL    HW228689   2.649   3.270   6.126
 5405SOL     OW28690   1.133   5.666   0.884
 5405SOL    HW128691   1.144   5.764   0.902
 5405SOL    HW228692   1.039   5.639   0.900
 5406SOL     OW28693   1.568   3.935   6.203
 5406SOL    HW128694   1.632   3.953   6.128
 5406SOL    HW228695   1.583   4.002   6.276
 5407SOL     OW28696   6.268   0.397   1.320
 5407SOL    HW128697   6.351   0.352   1.287
 5407SOL    HW228698   6.211   0.423   1.242
 5408SOL     OW28699   4.188   2.207   7.340
 5408SOL    HW128700   4.174   2.116   7.302
 5408SOL    HW228701   4.101   2.255   7.343
 5409SOL     OW28702   2.682   2.955   1.592
 5409SOL    HW128703   2.618   3.032   1.588
 5409SOL    HW228704   2.643   2.882   1.648
 5410SOL     OW28705   2.989   7.214   5.429
 5410SOL    HW128706   2.890   7.223   5.417
 5410SOL    HW228707   3.016   7.120   5.407
 5411SOL     OW28708   6.918   1.920   2.756
 5411SOL    HW128709   6.843   1.953   2.814
 5411SOL    HW228710   6.885   1.843   2.701
 5412SOL     OW28711   1.502   7.109   7.063
 5412SOL    HW128712   1.436   7.107   7.138
 5412SOL    HW228713   1.475   7.178   6.997
 5413SOL     OW28714   5.181   6.394   6.391
 5413SOL    HW128715   5.104   6.371   6.332
 5413SOL    HW228716   5.148   6.418   6.482
 5414SOL     OW28717   4.280   1.730   2.619
 5414SOL    HW128718   4.216   1.806   2.610
 5414SOL    HW228719   4.234   1.653   2.662
 5415SOL     OW28720   2.522   5.894   3.354
 5415SOL    HW128721   2.582   5.974   3.350
 5415SOL    HW228722   2.469   5.896   3.439
 5416SOL     OW28723   3.231   0.515   3.581
 5416SOL    HW128724   3.210   0.419   3.561
 5416SOL    HW228725   3.288   0.519   3.663
 5417SOL     OW28726   2.899   0.247   3.750
 5417SOL    HW128727   2.938   0.228   3.840
 5417SOL    HW228728   2.940   0.330   3.712
 5418SOL     OW28729   5.024   0.124   0.353
 5418SOL    HW128730   5.027   0.221   0.332
 5418SOL    HW228731   5.010   0.111   0.451
 5419SOL     OW28732   1.574   2.445   0.845
 5419SOL    HW128733   1.597   2.352   0.873
 5419SOL    HW228734   1.517   2.442   0.763
 5420SOL     OW28735   7.039   5.943   7.185
 5420SOL    HW128736   7.027   5.898   7.273
 5420SOL    HW228737   6.950   5.953   7.140
 5421SOL     OW28738   3.642   7.309   6.704
 5421SOL    HW128739   3.688   7.348   6.625
 5421SOL    HW228740   3.655   7.369   6.783
 5422SOL     OW28741   5.057   6.008   5.303
 5422SOL    HW128742   5.156   5.999   5.314
 5422SOL    HW228743   5.014   5.919   5.316
 5423SOL     OW28744   0.950   2.086   0.861
 5423SOL    HW128745   0.974   2.181   0.880
 5423SOL    HW228746   1.034   2.033   0.844
 5424SOL     OW28747   0.758   1.671   2.587
 5424SOL    HW128748   0.840   1.655   2.532
 5424SOL    HW228749   0.677   1.656   2.531
 5425SOL     OW28750   0.230   5.733   6.036
 5425SOL    HW128751   0.250   5.784   6.119
 5425SOL    HW228752   0.265   5.782   5.957
 5426SOL     OW28753   1.656   1.131   6.859
 5426SOL    HW128754   1.741   1.079   6.855
 5426SOL    HW228755   1.581   1.072   6.887
 5427SOL     OW28756   2.756   5.735   1.014
 5427SOL    HW128757   2.753   5.703   0.919
 5427SOL    HW228758   2.680   5.694   1.065
 5428SOL     OW28759   3.194   3.174   4.202
 5428SOL    HW128760   3.182   3.237   4.279
 5428SOL    HW228761   3.212   3.082   4.237
 5429SOL     OW28762   4.677   2.677   4.478
 5429SOL    HW128763   4.734   2.624   4.415
 5429SOL    HW228764   4.582   2.674   4.448
 5430SOL     OW28765   4.720   6.223   4.467
 5430SOL    HW128766   4.684   6.232   4.374
 5430SOL    HW228767   4.767   6.135   4.476
 5431SOL     OW28768   1.548   5.709   3.139
 5431SOL    HW128769   1.488   5.658   3.202
 5431SOL    HW228770   1.643   5.688   3.160
 5432SOL     OW28771   3.080   2.074   2.236
 5432SOL    HW128772   3.144   2.050   2.308
 5432SOL    HW228773   3.029   1.992   2.208
 5433SOL     OW28774   5.240   0.245   7.337
 5433SOL    HW128775   5.316   0.195   7.296
 5433SOL    HW228776   5.154   0.207   7.304
 5434SOL     OW28777   3.990   0.585   1.922
 5434SOL    HW128778   4.024   0.655   1.985
 5434SOL    HW228779   4.039   0.594   1.834
 5435SOL     OW28780   4.655   4.652   2.442
 5435SOL    HW128781   4.558   4.652   2.466
 5435SOL    HW228782   4.708   4.617   2.520
 5436SOL     OW28783   7.100   1.912   3.436
 5436SOL    HW128784   7.159   1.843   3.393
 5436SOL    HW228785   7.005   1.880   3.435
 5437SOL     OW28786   4.758   0.481   5.808
 5437SOL    HW128787   4.853   0.481   5.838
 5437SOL    HW228788   4.745   0.411   5.738
 5438SOL     OW28789   2.771   1.371   1.306
 5438SOL    HW128790   2.723   1.289   1.274
 5438SOL    HW228791   2.726   1.406   1.388
 5439SOL     OW28792   3.851   7.135   7.236
 5439SOL    HW128793   3.926   7.112   7.174
 5439SOL    HW228794   3.764   7.118   7.190
 5440SOL     OW28795   3.384   2.005   1.893
 5440SOL    HW128796   3.327   2.068   1.947
 5440SOL    HW228797   3.329   1.966   1.819
 5441SOL     OW28798   1.484   0.998   3.744
 5441SOL    HW128799   1.499   0.919   3.684
 5441SOL    HW228800   1.513   1.082   3.697
 5442SOL     OW28801   3.005   4.699   0.031
 5442SOL    HW128802   3.048   4.633   0.092
 5442SOL    HW228803   3.073   4.732  -0.036
 5443SOL     OW28804   6.140   5.935   5.973
 5443SOL    HW128805   6.118   6.030   5.952
 5443SOL    HW228806   6.239   5.924   5.980
 5444SOL     OW28807   3.293   1.935   0.440
 5444SOL    HW128808   3.368   1.940   0.507
 5444SOL    HW228809   3.216   1.886   0.480
 5445SOL     OW28810   4.595   2.547   4.708
 5445SOL    HW128811   4.644   2.463   4.733
 5445SOL    HW228812   4.625   2.577   4.617
 5446SOL     OW28813   6.788   4.935   4.088
 5446SOL    HW128814   6.735   4.989   4.023
 5446SOL    HW228815   6.792   4.982   4.176
 5447SOL     OW28816   6.513   1.195   5.960
 5447SOL    HW128817   6.516   1.295   5.956
 5447SOL    HW228818   6.550   1.157   5.876
 5448SOL     OW28819   1.774   1.011   3.578
 5448SOL    HW128820   1.711   1.087   3.559
 5448SOL    HW228821   1.723   0.925   3.576
 5449SOL     OW28822   0.817   3.206   3.966
 5449SOL    HW128823   0.899   3.249   3.929
 5449SOL    HW228824   0.783   3.137   3.902
 5450SOL     OW28825   4.101   0.020   5.342
 5450SOL    HW128826   4.180   0.073   5.373
 5450SOL    HW228827   4.101  -0.070   5.386
 5451SOL     OW28828   1.378   3.145   0.847
 5451SOL    HW128829   1.376   3.228   0.792
 5451SOL    HW228830   1.294   3.093   0.831
 5452SOL     OW28831   2.522   5.005   2.051
 5452SOL    HW128832   2.521   4.995   1.951
 5452SOL    HW228833   2.489   4.921   2.093
 5453SOL     OW28834   1.436   3.231   3.331
 5453SOL    HW128835   1.482   3.155   3.285
 5453SOL    HW228836   1.460   3.231   3.428
 5454SOL     OW28837   7.150   2.230   6.075
 5454SOL    HW128838   7.167   2.137   6.108
 5454SOL    HW228839   7.123   2.228   5.979
 5455SOL     OW28840   3.256   5.495   5.826
 5455SOL    HW128841   3.217   5.535   5.744
 5455SOL    HW228842   3.356   5.494   5.820
 5456SOL     OW28843   6.699   4.081   1.319
 5456SOL    HW128844   6.685   4.151   1.248
 5456SOL    HW228845   6.664   4.115   1.406
 5457SOL     OW28846   3.819   0.105   6.566
 5457SOL    HW128847   3.804   0.202   6.588
 5457SOL    HW228848   3.807   0.091   6.468
 5458SOL     OW28849   0.927   2.838   6.098
 5458SOL    HW128850   0.993   2.766   6.120
 5458SOL    HW228851   0.870   2.856   6.178
 5459SOL     OW28852   4.356   7.206   3.091
 5459SOL    HW128853   4.333   7.295   3.050
 5459SOL    HW228854   4.430   7.164   3.039
 5460SOL     OW28855   0.936   4.184   4.519
 5460SOL    HW128856   0.912   4.101   4.470
 5460SOL    HW228857   0.967   4.161   4.612
 5461SOL     OW28858   2.777   2.523   2.141
 5461SOL    HW128859   2.735   2.603   2.099
 5461SOL    HW228860   2.734   2.440   2.104
 5462SOL     OW28861   4.257   3.186   4.896
 5462SOL    HW128862   4.324   3.254   4.868
 5462SOL    HW228863   4.265   3.169   4.995
 5463SOL     OW28864   7.292   3.706   6.121
 5463SOL    HW128865   7.253   3.750   6.040
 5463SOL    HW228866   7.384   3.740   6.137
 5464SOL     OW28867   5.534   2.461   2.830
 5464SOL    HW128868   5.553   2.468   2.732
 5464SOL    HW228869   5.459   2.397   2.845
 5465SOL     OW28870   0.353   1.645   1.992
 5465SOL    HW128871   0.280   1.655   1.925
 5465SOL    HW228872   0.335   1.566   2.050
 5466SOL     OW28873   2.082   0.460   1.222
 5466SOL    HW128874   2.011   0.399   1.187
 5466SOL    HW228875   2.062   0.554   1.194
 5467SOL     OW28876   0.621   5.714   1.590
 5467SOL    HW128877   0.545   5.776   1.612
 5467SOL    HW228878   0.615   5.686   1.494
 5468SOL     OW28879   6.666   5.699   5.349
 5468SOL    HW128880   6.599   5.724   5.279
 5468SOL    HW228881   6.756   5.734   5.322
 5469SOL     OW28882   0.983   3.349   0.165
 5469SOL    HW128883   0.965   3.447   0.174
 5469SOL    HW228884   1.032   3.316   0.246
 5470SOL     OW28885   6.207   5.518   3.290
 5470SOL    HW128886   6.164   5.430   3.309
 5470SOL    HW228887   6.198   5.539   3.192
 5471SOL     OW28888   4.608   4.474   5.881
 5471SOL    HW128889   4.547   4.503   5.955
 5471SOL    HW228890   4.670   4.404   5.916
 5472SOL     OW28891   7.048   4.029   4.026
 5472SOL    HW128892   6.957   4.029   3.984
 5472SOL    HW228893   7.049   3.967   4.104
 5473SOL     OW28894   0.876   3.638   6.424
 5473SOL    HW128895   0.970   3.645   6.456
 5473SOL    HW228896   0.836   3.552   6.454
 5474SOL     OW28897   3.489   3.109   1.762
 5474SOL    HW128898   3.474   3.093   1.665
 5474SOL    HW228899   3.498   3.021   1.810
 5475SOL     OW28900   6.407   2.708   3.179
 5475SOL    HW128901   6.327   2.758   3.213
 5475SOL    HW228902   6.439   2.751   3.094
 5476SOL     OW28903   4.525   6.796   6.389
 5476SOL    HW128904   4.458   6.864   6.417
 5476SOL    HW228905   4.508   6.770   6.294
 5477SOL     OW28906   5.401   3.443   5.632
 5477SOL    HW128907   5.403   3.480   5.539
 5477SOL    HW228908   5.306   3.424   5.659
 5478SOL     OW28909   1.087   0.798   5.750
 5478SOL    HW128910   1.161   0.811   5.684
 5478SOL    HW228911   1.005   0.766   5.702
 5479SOL     OW28912   5.621   0.424   4.679
 5479SOL    HW128913   5.644   0.517   4.708
 5479SOL    HW228914   5.690   0.360   4.713
 5480SOL     OW28915   4.581   6.151   3.824
 5480SOL    HW128916   4.523   6.076   3.856
 5480SOL    HW228917   4.661   6.159   3.884
 5481SOL     OW28918   2.461   1.908   6.232
 5481SOL    HW128919   2.364   1.882   6.232
 5481SOL    HW228920   2.475   1.986   6.172
 5482SOL     OW28921   4.849   3.915   2.547
 5482SOL    HW128922   4.752   3.903   2.526
 5482SOL    HW228923   4.892   3.826   2.554
 5483SOL     OW28924   4.722   1.488   0.055
 5483SOL    HW128925   4.693   1.544  -0.023
 5483SOL    HW228926   4.732   1.545   0.136
 5484SOL     OW28927   3.765   2.935   6.618
 5484SOL    HW128928   3.784   3.014   6.559
 5484SOL    HW228929   3.821   2.857   6.590
 5485SOL     OW28930   7.007   5.781   2.057
 5485SOL    HW128931   7.048   5.702   2.012
 5485SOL    HW228932   7.024   5.776   2.155
 5486SOL     OW28933   3.845   0.999   6.746
 5486SOL    HW128934   3.793   0.945   6.680
 5486SOL    HW228935   3.943   0.991   6.725
 5487SOL     OW28936   5.008   6.450   0.462
 5487SOL    HW128937   5.077   6.521   0.460
 5487SOL    HW228938   4.926   6.485   0.507
 5488SOL     OW28939   6.178   2.348   6.374
 5488SOL    HW128940   6.236   2.373   6.297
 5488SOL    HW228941   6.208   2.395   6.456
 5489SOL     OW28942   2.750   4.717   7.336
 5489SOL    HW128943   2.734   4.806   7.378
 5489SOL    HW228944   2.848   4.697   7.335
 5490SOL     OW28945   5.036   1.390   5.862
 5490SOL    HW128946   5.002   1.427   5.775
 5490SOL    HW228947   4.984   1.428   5.938
 5491SOL     OW28948   5.409   6.764   5.001
 5491SOL    HW128949   5.451   6.676   4.982
 5491SOL    HW228950   5.354   6.759   5.084
 5492SOL     OW28951   2.766   1.795   5.712
 5492SOL    HW128952   2.823   1.714   5.724
 5492SOL    HW228953   2.777   1.830   5.619
 5493SOL     OW28954   5.642   6.816   5.161
 5493SOL    HW128955   5.580   6.847   5.089
 5493SOL    HW228956   5.735   6.808   5.123
 5494SOL     OW28957   1.864   0.124   0.805
 5494SOL    HW128958   1.831   0.219   0.809
 5494SOL    HW228959   1.816   0.070   0.874
 5495SOL     OW28960   6.356   4.860   5.870
 5495SOL    HW128961   6.406   4.777   5.892
 5495SOL    HW228962   6.360   4.877   5.772
 5496SOL     OW28963   5.714   2.494   4.499
 5496SOL    HW128964   5.790   2.452   4.549
 5496SOL    HW228965   5.728   2.485   4.401
 5497SOL     OW28966   3.140   6.240   6.707
 5497SOL    HW128967   3.110   6.193   6.790
 5497SOL    HW228968   3.072   6.228   6.635
 5498SOL     OW28969   4.615   0.213   1.236
 5498SOL    HW128970   4.585   0.218   1.141
 5498SOL    HW228971   4.566   0.140   1.283
 5499SOL     OW28972   6.993   0.110   4.961
 5499SOL    HW128973   7.080   0.109   5.010
 5499SOL    HW228974   6.938   0.188   4.992
 5500SOL     OW28975   4.254   6.622   4.652
 5500SOL    HW128976   4.290   6.631   4.559
 5500SOL    HW228977   4.316   6.667   4.716
 5501SOL     OW28978   2.364   5.170   2.891
 5501SOL    HW128979   2.306   5.208   2.819
 5501SOL    HW228980   2.445   5.129   2.849
 5502SOL     OW28981   3.381   1.331   6.083
 5502SOL    HW128982   3.311   1.401   6.096
 5502SOL    HW228983   3.457   1.370   6.031
 5503SOL     OW28984   6.443   6.249   5.976
 5503SOL    HW128985   6.530   6.293   5.957
 5503SOL    HW228986   6.368   6.308   5.946
 5504SOL     OW28987   2.866   3.849   2.295
 5504SOL    HW128988   2.804   3.776   2.266
 5504SOL    HW228989   2.829   3.937   2.266
 5505SOL     OW28990   6.382   4.903   3.751
 5505SOL    HW128991   6.431   4.930   3.668
 5505SOL    HW228992   6.296   4.954   3.758
 5506SOL     OW28993   5.403   2.092   2.970
 5506SOL    HW128994   5.362   2.174   2.930
 5506SOL    HW228995   5.502   2.094   2.957
 5507SOL     OW28996   4.726   6.128   5.730
 5507SOL    HW128997   4.718   6.204   5.795
 5507SOL    HW228998   4.817   6.129   5.689
 5508SOL     OW28999   1.975   2.541   3.836
 5508SOL    HW129000   1.930   2.471   3.892
 5508SOL    HW229001   1.931   2.546   3.747
 5509SOL     OW29002   4.617   6.657   6.822
 5509SOL    HW129003   4.685   6.728   6.801
 5509SOL    HW229004   4.601   6.601   6.741
 5510SOL     OW29005   6.403   5.194   6.867
 5510SOL    HW129006   6.414   5.096   6.848
 5510SOL    HW229007   6.488   5.229   6.908
 5511SOL     OW29008   3.452   4.371   7.320
 5511SOL    HW129009   3.462   4.397   7.224
 5511SOL    HW229010   3.520   4.301   7.343
 5512SOL     OW29011   3.799   2.084   0.833
 5512SOL    HW129012   3.763   2.011   0.891
 5512SOL    HW229013   3.826   2.047   0.745
 5513SOL     OW29014   2.387   5.193   0.434
 5513SOL    HW129015   2.314   5.134   0.399
 5513SOL    HW229016   2.461   5.136   0.471
 5514SOL     OW29017   2.507   7.357   5.981
 5514SOL    HW129018   2.501   7.448   5.940
 5514SOL    HW229019   2.441   7.351   6.057
 5515SOL     OW29020   4.170   1.318   1.870
 5515SOL    HW129021   4.105   1.266   1.814
 5515SOL    HW229022   4.237   1.363   1.811
 5516SOL     OW29023   0.375   6.509   1.431
 5516SOL    HW129024   0.351   6.415   1.410
 5516SOL    HW229025   0.369   6.524   1.530
 5517SOL     OW29026   3.963   5.921   6.364
 5517SOL    HW129027   3.884   5.953   6.311
 5517SOL    HW229028   4.019   5.861   6.306
 5518SOL     OW29029   0.685   7.109   7.238
 5518SOL    HW129030   0.770   7.058   7.221
 5518SOL    HW229031   0.694   7.161   7.323
 5519SOL     OW29032   6.770   4.747   6.868
 5519SOL    HW129033   6.805   4.839   6.850
 5519SOL    HW229034   6.753   4.736   6.966
 5520SOL     OW29035   2.570   1.551   0.463
 5520SOL    HW129036   2.554   1.461   0.504
 5520SOL    HW229037   2.626   1.606   0.526
 5521SOL     OW29038   7.248   0.401   2.936
 5521SOL    HW129039   7.213   0.308   2.944
 5521SOL    HW229040   7.348   0.399   2.927
 5522SOL     OW29041   1.892   5.463   0.538
 5522SOL    HW129042   1.980   5.503   0.559
 5522SOL    HW229043   1.822   5.502   0.598
 5523SOL     OW29044   2.238   5.074   1.076
 5523SOL    HW129045   2.181   4.995   1.100
 5523SOL    HW229046   2.264   5.068   0.980
 5524SOL     OW29047   3.665   2.068   1.288
 5524SOL    HW129048   3.698   2.127   1.214
 5524SOL    HW229049   3.742   2.040   1.346
 5525SOL     OW29050   3.670   1.664   6.531
 5525SOL    HW129051   3.749   1.629   6.481
 5525SOL    HW229052   3.589   1.660   6.473
 5526SOL     OW29053   4.995   1.641   6.262
 5526SOL    HW129054   5.048   1.724   6.245
 5526SOL    HW229055   5.058   1.563   6.268
 5527SOL     OW29056   4.620   4.226   5.519
 5527SOL    HW129057   4.668   4.306   5.556
 5527SOL    HW229058   4.661   4.200   5.432
 5528SOL     OW29059   6.007   5.032   7.194
 5528SOL    HW129060   5.935   5.038   7.124
 5528SOL    HW229061   5.975   4.975   7.270
 5529SOL     OW29062   4.734   6.558   5.181
 5529SOL    HW129063   4.715   6.650   5.145
 5529SOL    HW229064   4.706   6.490   5.113
 5530SOL     OW29065   3.752   0.845   1.951
 5530SOL    HW129066   3.725   0.870   1.858
 5530SOL    HW229067   3.713   0.912   2.015
 5531SOL     OW29068   0.615   7.341   1.506
 5531SOL    HW129069   0.667   7.392   1.575
 5531SOL    HW229070   0.676   7.313   1.432
 5532SOL     OW29071   4.063   7.247   4.504
 5532SOL    HW129072   4.127   7.225   4.431
 5532SOL    HW229073   4.089   7.334   4.547
 5533SOL     OW29074   4.726   1.175   1.679
 5533SOL    HW129075   4.728   1.261   1.629
 5533SOL    HW229076   4.817   1.156   1.717
 5534SOL     OW29077   6.087   3.752   6.352
 5534SOL    HW129078   6.005   3.793   6.312
 5534SOL    HW229079   6.155   3.824   6.369
 5535SOL     OW29080   6.541   6.395   6.741
 5535SOL    HW129081   6.574   6.301   6.727
 5535SOL    HW229082   6.482   6.398   6.822
 5536SOL     OW29083   1.908   1.089   2.335
 5536SOL    HW129084   1.967   1.073   2.414
 5536SOL    HW229085   1.963   1.087   2.252
 5537SOL     OW29086   3.631   3.177   0.821
 5537SOL    HW129087   3.675   3.263   0.795
 5537SOL    HW229088   3.616   3.176   0.920
 5538SOL     OW29089   0.704   6.684   7.275
 5538SOL    HW129090   0.785   6.708   7.330
 5538SOL    HW229091   0.720   6.713   7.180
 5539SOL     OW29092   1.880   4.106   0.338
 5539SOL    HW129093   1.962   4.107   0.396
 5539SOL    HW229094   1.895   4.165   0.259
 5540SOL     OW29095   6.145   0.354   3.519
 5540SOL    HW129096   6.197   0.269   3.526
 5540SOL    HW229097   6.077   0.358   3.592
 5541SOL     OW29098   1.135   4.576   3.917
 5541SOL    HW129099   1.057   4.615   3.965
 5541SOL    HW229100   1.159   4.634   3.839
 5542SOL     OW29101   7.184   3.082   2.552
 5542SOL    HW129102   7.223   3.029   2.627
 5542SOL    HW229103   7.257   3.131   2.504
 5543SOL     OW29104   3.436   1.594   7.291
 5543SOL    HW129105   3.484   1.572   7.206
 5543SOL    HW229106   3.392   1.683   7.281
 5544SOL     OW29107   5.140   5.822   2.968
 5544SOL    HW129108   5.080   5.892   3.007
 5544SOL    HW229109   5.091   5.735   2.961
 5545SOL     OW29110   0.158   3.090   6.376
 5545SOL    HW129111   0.174   3.105   6.279
 5545SOL    HW229112   0.246   3.078   6.422
 5546SOL     OW29113   3.705   1.570   1.174
 5546SOL    HW129114   3.627   1.592   1.233
 5546SOL    HW229115   3.757   1.653   1.156
 5547SOL     OW29116   7.112   4.623   1.257
 5547SOL    HW129117   7.204   4.660   1.273
 5547SOL    HW229118   7.111   4.525   1.279
 5548SOL     OW29119   1.355   4.835   0.139
 5548SOL    HW129120   1.345   4.801   0.046
 5548SOL    HW229121   1.432   4.789   0.184
 5549SOL     OW29122   5.140   6.580   1.566
 5549SOL    HW129123   5.135   6.664   1.619
 5549SOL    HW229124   5.162   6.601   1.470
 5550SOL     OW29125   1.263   6.130   6.010
 5550SOL    HW129126   1.204   6.201   5.972
 5550SOL    HW229127   1.209   6.068   6.067
 5551SOL     OW29128   1.003   0.056   2.609
 5551SOL    HW129129   0.970   0.151   2.612
 5551SOL    HW229130   0.944   0.003   2.548
 5552SOL     OW29131   6.012   6.372   1.886
 5552SOL    HW129132   6.096   6.403   1.931
 5552SOL    HW229133   6.029   6.359   1.789
 5553SOL     OW29134   1.633   0.923   6.406
 5553SOL    HW129135   1.575   0.995   6.368
 5553SOL    HW229136   1.656   0.857   6.335
 5554SOL     OW29137   5.080   6.714   1.076
 5554SOL    HW129138   5.119   6.805   1.087
 5554SOL    HW229139   5.102   6.659   1.157
 5555SOL     OW29140   3.561   1.935   4.805
 5555SOL    HW129141   3.619   2.009   4.771
 5555SOL    HW229142   3.553   1.942   4.905
 5556SOL     OW29143   6.180   1.258   2.369
 5556SOL    HW129144   6.121   1.300   2.300
 5556SOL    HW229145   6.163   1.160   2.372
 5557SOL     OW29146   1.120   2.195   2.890
 5557SOL    HW129147   1.190   2.123   2.900
 5557SOL    HW229148   1.100   2.207   2.793
 5558SOL     OW29149   5.186   4.938   2.980
 5558SOL    HW129150   5.104   4.994   2.993
 5558SOL    HW229151   5.212   4.939   2.884
 5559SOL     OW29152   1.572   1.641   0.269
 5559SOL    HW129153   1.546   1.613   0.177
 5559SOL    HW229154   1.496   1.623   0.332
 5560SOL     OW29155   2.147   7.042   0.085
 5560SOL    HW129156   2.105   6.965   0.037
 5560SOL    HW229157   2.188   7.104   0.017
 5561SOL     OW29158   6.388   5.718   0.903
 5561SOL    HW129159   6.467   5.668   0.939
 5561SOL    HW229160   6.340   5.660   0.836
 5562SOL     OW29161   4.102   3.206   5.273
 5562SOL    HW129162   4.061   3.267   5.205
 5562SOL    HW229163   4.031   3.147   5.312
 5563SOL     OW29164   1.869   1.433   0.471
 5563SOL    HW129165   1.773   1.444   0.496
 5563SOL    HW229166   1.927   1.450   0.551
 5564SOL     OW29167   7.007   5.910   0.633
 5564SOL    HW129168   6.907   5.899   0.638
 5564SOL    HW229169   7.051   5.823   0.658
 5565SOL     OW29170   6.176   0.151   2.286
 5565SOL    HW129171   6.230   0.067   2.289
 5565SOL    HW229172   6.204   0.206   2.207
 5566SOL     OW29173   6.835   0.528   5.764
 5566SOL    HW129174   6.908   0.586   5.728
 5566SOL    HW229175   6.875   0.455   5.820
 5567SOL     OW29176   4.073   5.862   1.845
 5567SOL    HW129177   3.999   5.813   1.798
 5567SOL    HW229178   4.060   5.855   1.944
 5568SOL     OW29179   7.034   0.788   1.687
 5568SOL    HW129180   6.942   0.752   1.700
 5568SOL    HW229181   7.028   0.885   1.662
 5569SOL     OW29182   3.668   4.455   2.333
 5569SOL    HW129183   3.745   4.400   2.365
 5569SOL    HW229184   3.702   4.534   2.282
 5570SOL     OW29185   2.211   2.704   6.451
 5570SOL    HW129186   2.206   2.745   6.360
 5570SOL    HW229187   2.302   2.718   6.490
 5571SOL     OW29188   6.288   3.808   4.361
 5571SOL    HW129189   6.205   3.785   4.411
 5571SOL    HW229190   6.360   3.833   4.425
 5572SOL     OW29191   5.629   0.200   5.564
 5572SOL    HW129192   5.538   0.191   5.522
 5572SOL    HW229193   5.699   0.179   5.495
 5573SOL     OW29194   4.396   6.362   2.790
 5573SOL    HW129195   4.386   6.439   2.727
 5573SOL    HW229196   4.327   6.370   2.863
 5574SOL     OW29197   3.749   5.343   5.915
 5574SOL    HW129198   3.814   5.267   5.917
 5574SOL    HW229199   3.660   5.312   5.949
 5575SOL     OW29200   1.444   0.963   6.962
 5575SOL    HW129201   1.351   0.974   6.926
 5575SOL    HW229202   1.453   1.015   7.047
 5576SOL     OW29203   7.027   2.002   0.741
 5576SOL    HW129204   7.036   2.093   0.700
 5576SOL    HW229205   7.113   1.951   0.728
 5577SOL     OW29206   7.158   3.973   5.255
 5577SOL    HW129207   7.061   3.987   5.271
 5577SOL    HW229208   7.210   4.002   5.336
 5578SOL     OW29209   5.283   1.708   0.133
 5578SOL    HW129210   5.336   1.778   0.182
 5578SOL    HW229211   5.326   1.619   0.145
 5579SOL     OW29212   5.490   4.337   5.721
 5579SOL    HW129213   5.574   4.390   5.735
 5579SOL    HW229214   5.469   4.332   5.624
 5580SOL     OW29215   0.803   7.127   5.266
 5580SOL    HW129216   0.783   7.216   5.224
 5580SOL    HW229217   0.735   7.060   5.236
 5581SOL     OW29218   1.004   2.829   4.709
 5581SOL    HW129219   0.990   2.894   4.634
 5581SOL    HW229220   1.084   2.772   4.689
 5582SOL     OW29221   5.445   2.369   3.951
 5582SOL    HW129222   5.441   2.437   3.878
 5582SOL    HW229223   5.436   2.277   3.912
 5583SOL     OW29224   4.161   0.862   3.217
 5583SOL    HW129225   4.241   0.804   3.205
 5583SOL    HW229226   4.180   0.934   3.284
 5584SOL     OW29227   5.534   1.860   1.046
 5584SOL    HW129228   5.533   1.830   0.950
 5584SOL    HW229229   5.468   1.806   1.098
 5585SOL     OW29230   7.139   5.271   2.984
 5585SOL    HW129231   7.164   5.174   2.982
 5585SOL    HW229232   7.222   5.326   2.980
 5586SOL     OW29233   0.285   6.734   5.581
 5586SOL    HW129234   0.257   6.695   5.493
 5586SOL    HW229235   0.376   6.775   5.571
 5587SOL     OW29236   7.313   0.336   5.820
 5587SOL    HW129237   7.397   0.391   5.819
 5587SOL    HW229238   7.246   0.376   5.758
 5588SOL     OW29239   5.722   2.747   0.534
 5588SOL    HW129240   5.807   2.793   0.560
 5588SOL    HW229241   5.661   2.812   0.490
 5589SOL     OW29242   2.267   5.815   0.914
 5589SOL    HW129243   2.348   5.764   0.885
 5589SOL    HW229244   2.279   5.846   1.009
 5590SOL     OW29245   0.617   5.097   2.500
 5590SOL    HW129246   0.601   5.188   2.462
 5590SOL    HW229247   0.546   5.034   2.468
 5591SOL     OW29248   2.251   2.747   5.541
 5591SOL    HW129249   2.313   2.785   5.609
 5591SOL    HW229250   2.168   2.714   5.586
 5592SOL     OW29251   5.997   2.691   6.716
 5592SOL    HW129252   6.066   2.721   6.782
 5592SOL    HW229253   5.912   2.742   6.730
 5593SOL     OW29254   2.592   1.324   3.614
 5593SOL    HW129255   2.563   1.419   3.625
 5593SOL    HW229256   2.619   1.287   3.703
 5594SOL     OW29257   5.118   6.991   0.441
 5594SOL    HW129258   5.060   7.008   0.520
 5594SOL    HW229259   5.203   7.044   0.450
 5595SOL     OW29260   0.365   5.682   4.791
 5595SOL    HW129261   0.279   5.729   4.811
 5595SOL    HW229262   0.346   5.593   4.750
 5596SOL     OW29263   5.111   0.380   3.043
 5596SOL    HW129264   5.106   0.303   2.978
 5596SOL    HW229265   5.197   0.430   3.028
 5597SOL     OW29266   6.028   1.488   7.063
 5597SOL    HW129267   5.938   1.490   7.019
 5597SOL    HW229268   6.017   1.478   7.162
 5598SOL     OW29269   6.658   0.714   6.948
 5598SOL    HW129270   6.713   0.791   6.980
 5598SOL    HW229271   6.692   0.629   6.989
 5599SOL     OW29272   2.127   4.023   5.120
 5599SOL    HW129273   2.103   4.077   5.040
 5599SOL    HW229274   2.110   4.077   5.203
 5600SOL     OW29275   5.110   6.714   6.513
 5600SOL    HW129276   5.120   6.685   6.608
 5600SOL    HW229277   5.104   6.814   6.509
 5601SOL     OW29278   0.099   3.802   5.551
 5601SOL    HW129279   0.026   3.744   5.589
 5601SOL    HW229280   0.109   3.784   5.454
 5602SOL     OW29281   6.052   7.262   3.611
 5602SOL    HW129282   6.012   7.352   3.630
 5602SOL    HW229283   6.109   7.268   3.529
 5603SOL     OW29284   5.298   4.882   3.232
 5603SOL    HW129285   5.276   4.874   3.135
 5603SOL    HW229286   5.215   4.867   3.286
 5604SOL     OW29287   1.843   0.845   0.033
 5604SOL    HW129288   1.902   0.785  -0.021
 5604SOL    HW229289   1.760   0.866  -0.020
 5605SOL     OW29290   4.999   7.187   0.805
 5605SOL    HW129291   5.095   7.162   0.804
 5605SOL    HW229292   4.983   7.264   0.742
 5606SOL     OW29293   6.420   7.272   7.135
 5606SOL    HW129294   6.351   7.224   7.080
 5606SOL    HW229295   6.511   7.257   7.096
 5607SOL     OW29296   6.316   1.238   1.936
 5607SOL    HW129297   6.390   1.298   1.906
 5607SOL    HW229298   6.318   1.231   2.036
 5608SOL     OW29299   6.726   1.013   2.425
 5608SOL    HW129300   6.709   1.039   2.330
 5608SOL    HW229301   6.780   0.929   2.428
 5609SOL     OW29302   2.607   3.342   6.474
 5609SOL    HW129303   2.517   3.344   6.431
 5609SOL    HW229304   2.616   3.259   6.529
 5610SOL     OW29305   1.345   2.951   2.594
 5610SOL    HW129306   1.297   2.868   2.621
 5610SOL    HW229307   1.313   3.027   2.650
 5611SOL     OW29308   1.791   3.701   4.330
 5611SOL    HW129309   1.877   3.660   4.301
 5611SOL    HW229310   1.715   3.643   4.300
 5612SOL     OW29311   3.383   1.161   0.697
 5612SOL    HW129312   3.390   1.162   0.796
 5612SOL    HW229313   3.330   1.240   0.666
 5613SOL     OW29314   7.265   2.011   0.241
 5613SOL    HW129315   7.317   2.083   0.285
 5613SOL    HW229316   7.307   1.922   0.260
 5614SOL     OW29317   5.043   6.675   3.701
 5614SOL    HW129318   5.010   6.756   3.749
 5614SOL    HW229319   5.090   6.703   3.617
 5615SOL     OW29320   5.904   3.161   2.814
 5615SOL    HW129321   5.888   3.080   2.758
 5615SOL    HW229322   6.001   3.170   2.834
 5616SOL     OW29323   3.320   6.603   5.902
 5616SOL    HW129324   3.361   6.512   5.899
 5616SOL    HW229325   3.358   6.659   5.829
 5617SOL     OW29326   5.114   3.394   1.928
 5617SOL    HW129327   5.027   3.408   1.880
 5617SOL    HW229328   5.139   3.477   1.978
 5618SOL     OW29329   0.693   6.801   7.000
 5618SOL    HW129330   0.747   6.879   7.030
 5618SOL    HW229331   0.602   6.831   6.972
 5619SOL     OW29332   6.160   2.764   5.938
 5619SOL    HW129333   6.165   2.843   5.877
 5619SOL    HW229334   6.118   2.791   6.025
 5620SOL     OW29335   0.300   0.113   6.063
 5620SOL    HW129336   0.248   0.029   6.048
 5620SOL    HW229337   0.254   0.169   6.131
 5621SOL     OW29338   3.172   4.746   1.223
 5621SOL    HW129339   3.141   4.834   1.186
 5621SOL    HW229340   3.256   4.760   1.275
 5622SOL     OW29341   5.860   1.887   4.409
 5622SOL    HW129342   5.879   1.909   4.504
 5622SOL    HW229343   5.841   1.789   4.400
 5623SOL     OW29344   2.026   3.153   5.868
 5623SOL    HW129345   1.975   3.103   5.798
 5623SOL    HW229346   2.016   3.107   5.956
 5624SOL     OW29347   4.434   3.490   6.590
 5624SOL    HW129348   4.423   3.512   6.687
 5624SOL    HW229349   4.497   3.413   6.580
 5625SOL     OW29350   6.748   3.641   2.704
 5625SOL    HW129351   6.826   3.700   2.683
 5625SOL    HW229352   6.669   3.698   2.727
 5626SOL     OW29353   7.214   5.438   3.289
 5626SOL    HW129354   7.134   5.378   3.290
 5626SOL    HW229355   7.213   5.494   3.207
 5627SOL     OW29356   2.965   6.784   0.991
 5627SOL    HW129357   2.941   6.781   0.894
 5627SOL    HW229358   2.884   6.804   1.045
 5628SOL     OW29359   6.857   4.322   4.266
 5628SOL    HW129360   6.862   4.395   4.198
 5628SOL    HW229361   6.943   4.270   4.265
 5629SOL     OW29362   1.292   2.086   6.037
 5629SOL    HW129363   1.384   2.124   6.034
 5629SOL    HW229364   1.240   2.120   5.959
 5630SOL     OW29365   3.659   2.937   5.257
 5630SOL    HW129366   3.654   2.839   5.278
 5630SOL    HW229367   3.603   2.987   5.323
 5631SOL     OW29368   3.804   6.235   1.403
 5631SOL    HW129369   3.863   6.258   1.325
 5631SOL    HW229370   3.859   6.236   1.487
 5632SOL     OW29371   2.414   6.734   4.819
 5632SOL    HW129372   2.342   6.778   4.765
 5632SOL    HW229373   2.403   6.758   4.915
 5633SOL     OW29374   3.259   2.587   1.721
 5633SOL    HW129375   3.332   2.656   1.715
 5633SOL    HW229376   3.276   2.514   1.655
 5634SOL     OW29377   7.038   3.691   2.387
 5634SOL    HW129378   7.024   3.709   2.290
 5634SOL    HW229379   6.979   3.751   2.441
 5635SOL     OW29380   5.429   3.101   2.570
 5635SOL    HW129381   5.525   3.107   2.596
 5635SOL    HW229382   5.385   3.190   2.582
 5636SOL     OW29383   1.036   6.741   7.293
 5636SOL    HW129384   1.130   6.738   7.325
 5636SOL    HW229385   0.976   6.772   7.366
 5637SOL     OW29386   7.149   5.864   4.283
 5637SOL    HW129387   7.177   5.848   4.378
 5637SOL    HW229388   7.166   5.781   4.229
 5638SOL     OW29389   1.213   0.037   2.321
 5638SOL    HW129390   1.307   0.071   2.319
 5638SOL    HW229391   1.206  -0.040   2.383
 5639SOL     OW29392   3.936   2.238   3.157
 5639SOL    HW129393   3.862   2.297   3.124
 5639SOL    HW229394   3.898   2.149   3.183
 5640SOL     OW29395   6.847   5.702   2.521
 5640SOL    HW129396   6.856   5.608   2.488
 5640SOL    HW229397   6.811   5.701   2.615
 5641SOL     OW29398   0.085   6.839   5.716
 5641SOL    HW129399   0.139   6.799   5.641
 5641SOL    HW229400   0.028   6.913   5.680
 5642SOL     OW29401   5.409   6.919   2.152
 5642SOL    HW129402   5.447   6.909   2.244
 5642SOL    HW229403   5.483   6.926   2.085
 5643SOL     OW29404   2.922   3.415   4.944
 5643SOL    HW129405   3.004   3.360   4.959
 5643SOL    HW229406   2.841   3.359   4.961
 5644SOL     OW29407   0.913   2.371   3.596
 5644SOL    HW129408   0.848   2.330   3.532
 5644SOL    HW229409   0.896   2.470   3.602
 5645SOL     OW29410   2.465   5.116   5.918
 5645SOL    HW129411   2.472   5.016   5.912
 5645SOL    HW229412   2.433   5.143   6.009
 5646SOL     OW29413   1.690   2.577   1.487
 5646SOL    HW129414   1.651   2.493   1.450
 5646SOL    HW229415   1.642   2.656   1.450
 5647SOL     OW29416   4.834   1.009   5.754
 5647SOL    HW129417   4.811   1.062   5.672
 5647SOL    HW229418   4.786   0.921   5.751
 5648SOL     OW29419   7.219   2.994   0.606
 5648SOL    HW129420   7.220   3.085   0.649
 5648SOL    HW229421   7.249   3.002   0.511
 5649SOL     OW29422   4.717   0.043   4.370
 5649SOL    HW129423   4.801  -0.011   4.364
 5649SOL    HW229424   4.724   0.122   4.309
 5650SOL     OW29425   1.522   4.887   0.835
 5650SOL    HW129426   1.496   4.971   0.787
 5650SOL    HW229427   1.531   4.907   0.933
 5651SOL     OW29428   4.632   3.728   0.397
 5651SOL    HW129429   4.644   3.781   0.314
 5651SOL    HW229430   4.717   3.680   0.419
 5652SOL     OW29431   3.319   3.419   1.608
 5652SOL    HW129432   3.237   3.461   1.646
 5652SOL    HW229433   3.385   3.400   1.681
 5653SOL     OW29434   3.816   2.083   4.683
 5653SOL    HW129435   3.811   1.985   4.664
 5653SOL    HW229436   3.901   2.104   4.733
 5654SOL     OW29437   2.637   1.102   3.498
 5654SOL    HW129438   2.624   1.184   3.554
 5654SOL    HW229439   2.602   1.023   3.548
 5655SOL     OW29440   1.939   3.643   1.006
 5655SOL    HW129441   1.952   3.708   0.931
 5655SOL    HW229442   1.843   3.614   1.009
 5656SOL     OW29443   7.103   6.657   6.969
 5656SOL    HW129444   7.188   6.609   6.995
 5656SOL    HW229445   7.032   6.635   7.035
 5657SOL     OW29446   7.079   4.186   1.992
 5657SOL    HW129447   7.087   4.122   2.069
 5657SOL    HW229448   7.147   4.258   2.002
 5658SOL     OW29449   0.083   3.965   4.682
 5658SOL    HW129450   0.045   4.051   4.716
 5658SOL    HW229451   0.027   3.889   4.715
 5659SOL     OW29452   1.335   1.603   3.093
 5659SOL    HW129453   1.265   1.531   3.098
 5659SOL    HW229454   1.367   1.612   2.999
 5660SOL     OW29455   7.199   1.873   1.811
 5660SOL    HW129456   7.142   1.890   1.892
 5660SOL    HW229457   7.220   1.959   1.766
 5661SOL     OW29458   5.500   0.218   5.795
 5661SOL    HW129459   5.552   0.208   5.710
 5661SOL    HW229460   5.486   0.127   5.836
 5662SOL     OW29461   4.050   2.246   6.289
 5662SOL    HW129462   4.036   2.339   6.256
 5662SOL    HW229463   4.142   2.236   6.326
 5663SOL     OW29464   3.478   0.260   1.213
 5663SOL    HW129465   3.397   0.201   1.206
 5663SOL    HW229466   3.523   0.244   1.301
 5664SOL     OW29467   2.575   5.424   5.569
 5664SOL    HW129468   2.544   5.336   5.604
 5664SOL    HW229469   2.626   5.472   5.641
 5665SOL     OW29470   1.262   4.891   5.257
 5665SOL    HW129471   1.330   4.891   5.330
 5665SOL    HW229472   1.304   4.921   5.171
 5666SOL     OW29473   2.919   7.269   6.939
 5666SOL    HW129474   3.011   7.232   6.950
 5666SOL    HW229475   2.923   7.369   6.944
 5667SOL     OW29476   3.882   2.900   2.911
 5667SOL    HW129477   3.830   2.815   2.923
 5667SOL    HW229478   3.962   2.882   2.854
 5668SOL     OW29479   7.138   4.605   7.009
 5668SOL    HW129480   7.095   4.687   7.048
 5668SOL    HW229481   7.229   4.594   7.048
 5669SOL     OW29482   2.632   5.078   5.279
 5669SOL    HW129483   2.657   5.173   5.299
 5669SOL    HW229484   2.573   5.076   5.199
 5670SOL     OW29485   5.145   4.827   6.752
 5670SOL    HW129486   5.197   4.900   6.706
 5670SOL    HW229487   5.108   4.764   6.684
 5671SOL     OW29488   4.757   4.883   1.207
 5671SOL    HW129489   4.856   4.889   1.200
 5671SOL    HW229490   4.715   4.963   1.164
 5672SOL     OW29491   0.092   1.390   1.062
 5672SOL    HW129492   0.017   1.456   1.052
 5672SOL    HW229493   0.166   1.414   1.000
 5673SOL     OW29494   3.661   3.611   1.279
 5673SOL    HW129495   3.621   3.539   1.336
 5673SOL    HW229496   3.595   3.686   1.269
 5674SOL     OW29497   0.156   1.172   1.610
 5674SOL    HW129498   0.156   1.094   1.548
 5674SOL    HW229499   0.224   1.238   1.581
 5675SOL     OW29500   4.144   1.386   5.610
 5675SOL    HW129501   4.176   1.449   5.681
 5675SOL    HW229502   4.182   1.413   5.522
 5676SOL     OW29503   1.129   4.206   6.346
 5676SOL    HW129504   1.186   4.288   6.356
 5676SOL    HW229505   1.183   4.134   6.302
 5677SOL     OW29506   5.082   5.940   2.459
 5677SOL    HW129507   5.014   5.961   2.529
 5677SOL    HW229508   5.067   5.999   2.380
 5678SOL     OW29509   4.937   1.959   5.167
 5678SOL    HW129510   4.941   1.938   5.265
 5678SOL    HW229511   5.024   1.999   5.139
 5679SOL     OW29512   1.700   0.873   7.135
 5679SOL    HW129513   1.715   0.774   7.139
 5679SOL    HW229514   1.605   0.891   7.109
 5680SOL     OW29515   4.463   5.961   2.285
 5680SOL    HW129516   4.385   5.914   2.242
 5680SOL    HW229517   4.511   6.015   2.215
 5681SOL     OW29518   2.578   4.068   6.293
 5681SOL    HW129519   2.651   4.015   6.248
 5681SOL    HW229520   2.587   4.164   6.267
 5682SOL     OW29521   1.932   4.197   3.059
 5682SOL    HW129522   1.966   4.276   3.008
 5682SOL    HW229523   1.968   4.199   3.152
 5683SOL     OW29524   2.447   0.122   1.521
 5683SOL    HW129525   2.429   0.214   1.486
 5683SOL    HW229526   2.475   0.128   1.617
 5684SOL     OW29527   6.399   2.043   1.604
 5684SOL    HW129528   6.315   1.994   1.629
 5684SOL    HW229529   6.462   1.981   1.557
 5685SOL     OW29530   5.586   3.433   2.867
 5685SOL    HW129531   5.545   3.513   2.912
 5685SOL    HW229532   5.519   3.360   2.862
 5686SOL     OW29533   6.273   6.615   5.201
 5686SOL    HW129534   6.284   6.521   5.235
 5686SOL    HW229535   6.297   6.618   5.104
 5687SOL     OW29536   4.398   1.513   1.968
 5687SOL    HW129537   4.449   1.598   1.977
 5687SOL    HW229538   4.460   1.435   1.979
 5688SOL     OW29539   7.348   3.130   1.025
 5688SOL    HW129540   7.398   3.067   1.084
 5688SOL    HW229541   7.408   3.164   0.953
 5689SOL     OW29542   5.071   0.028   2.858
 5689SOL    HW129543   5.044   0.074   2.774
 5689SOL    HW229544   5.165   0.056   2.882
 5690SOL     OW29545   3.789   2.633   0.398
 5690SOL    HW129546   3.763   2.583   0.481
 5690SOL    HW229547   3.731   2.714   0.390
 5691SOL     OW29548   0.969   3.542   7.219
 5691SOL    HW129549   0.898   3.526   7.151
 5691SOL    HW229550   0.931   3.597   7.294
 5692SOL     OW29551   5.668   6.646   3.809
 5692SOL    HW129552   5.654   6.649   3.908
 5692SOL    HW229553   5.657   6.737   3.770
 5693SOL     OW29554   4.061   4.677   3.757
 5693SOL    HW129555   4.060   4.579   3.736
 5693SOL    HW229556   4.148   4.716   3.728
 5694SOL     OW29557   4.026   1.819   6.026
 5694SOL    HW129558   4.041   1.857   6.117
 5694SOL    HW229559   4.044   1.890   5.957
 5695SOL     OW29560   2.395   3.017   6.576
 5695SOL    HW129561   2.334   3.078   6.627
 5695SOL    HW229562   2.368   2.922   6.593
 5696SOL     OW29563   1.943   3.236   2.714
 5696SOL    HW129564   1.968   3.331   2.696
 5696SOL    HW229565   1.855   3.216   2.671
 5697SOL     OW29566   3.418   3.965   6.089
 5697SOL    HW129567   3.500   4.008   6.053
 5697SOL    HW229568   3.365   3.926   6.014
 5698SOL     OW29569   6.848   4.316   6.707
 5698SOL    HW129570   6.757   4.318   6.748
 5698SOL    HW229571   6.888   4.408   6.712
 5699SOL     OW29572   5.116   2.753   0.520
 5699SOL    HW129573   5.031   2.804   0.510
 5699SOL    HW229574   5.172   2.766   0.439
 5700SOL     OW29575   5.667   0.402   0.782
 5700SOL    HW129576   5.680   0.305   0.802
 5700SOL    HW229577   5.642   0.414   0.686
 5701SOL     OW29578   4.615   6.304   2.910
 5701SOL    HW129579   4.541   6.316   2.844
 5701SOL    HW229580   4.578   6.271   2.997
 5702SOL     OW29581   2.744   4.338   0.875
 5702SOL    HW129582   2.673   4.271   0.854
 5702SOL    HW229583   2.808   4.342   0.798
 5703SOL     OW29584   3.301   6.585   6.997
 5703SOL    HW129585   3.265   6.505   6.949
 5703SOL    HW229586   3.268   6.669   6.954
 5704SOL     OW29587   3.458   1.565   1.840
 5704SOL    HW129588   3.418   1.575   1.931
 5704SOL    HW229589   3.533   1.498   1.843
 5705SOL     OW29590   4.247   7.062   5.206
 5705SOL    HW129591   4.233   7.059   5.108
 5705SOL    HW229592   4.344   7.077   5.226
 5706SOL     OW29593   6.977   2.497   4.454
 5706SOL    HW129594   6.960   2.431   4.381
 5706SOL    HW229595   6.985   2.449   4.541
 5707SOL     OW29596   4.263   3.811   2.593
 5707SOL    HW129597   4.312   3.790   2.508
 5707SOL    HW229598   4.177   3.857   2.571
 5708SOL     OW29599   5.801   5.420   1.360
 5708SOL    HW129600   5.727   5.474   1.319
 5708SOL    HW229601   5.796   5.326   1.327
 5709SOL     OW29602   0.043   3.169   4.610
 5709SOL    HW129603   0.029   3.255   4.561
 5709SOL    HW229604   0.033   3.092   4.547
 5710SOL     OW29605   4.744   3.087   3.783
 5710SOL    HW129606   4.694   3.162   3.827
 5710SOL    HW229607   4.681   3.033   3.728
 5711SOL     OW29608   1.346   6.906   5.767
 5711SOL    HW129609   1.335   6.953   5.855
 5711SOL    HW229610   1.262   6.855   5.746
 5712SOL     OW29611   0.841   6.877   5.670
 5712SOL    HW129612   0.877   6.970   5.680
 5712SOL    HW229613   0.818   6.860   5.575
 5713SOL     OW29614   6.627   3.177   1.049
 5713SOL    HW129615   6.709   3.173   0.994
 5713SOL    HW229616   6.546   3.169   0.990
 5714SOL     OW29617   0.126   3.332   6.545
 5714SOL    HW129618   0.226   3.339   6.547
 5714SOL    HW229619   0.098   3.272   6.470
 5715SOL     OW29620   2.170   4.407   2.125
 5715SOL    HW129621   2.143   4.311   2.119
 5715SOL    HW229622   2.114   4.453   2.195
 5716SOL     OW29623   1.926   2.599   6.253
 5716SOL    HW129624   1.993   2.537   6.212
 5716SOL    HW229625   1.846   2.547   6.283
 5717SOL     OW29626   0.403   1.193   2.415
 5717SOL    HW129627   0.329   1.245   2.373
 5717SOL    HW229628   0.453   1.144   2.343
 5718SOL     OW29629   2.717   6.081   3.291
 5718SOL    HW129630   2.748   6.061   3.198
 5718SOL    HW229631   2.714   6.180   3.305
 5719SOL     OW29632   6.684   4.022   7.118
 5719SOL    HW129633   6.630   4.010   7.201
 5719SOL    HW229634   6.627   4.006   7.038
 5720SOL     OW29635   1.108   2.683   0.271
 5720SOL    HW129636   1.071   2.616   0.207
 5720SOL    HW229637   1.081   2.775   0.242
 5721SOL     OW29638   4.390   0.991   5.447
 5721SOL    HW129639   4.438   0.904   5.437
 5721SOL    HW229640   4.379   1.012   5.545
 5722SOL     OW29641   5.008   1.718   3.731
 5722SOL    HW129642   5.095   1.677   3.760
 5722SOL    HW229643   5.026   1.803   3.682
 5723SOL     OW29644   5.620   6.640   0.364
 5723SOL    HW129645   5.576   6.632   0.275
 5723SOL    HW229646   5.551   6.637   0.436
 5724SOL     OW29647   1.387   5.408   7.143
 5724SOL    HW129648   1.420   5.369   7.057
 5724SOL    HW229649   1.332   5.340   7.191
 5725SOL     OW29650   4.816   4.493   3.394
 5725SOL    HW129651   4.905   4.470   3.433
 5725SOL    HW229652   4.744   4.440   3.440
 5726SOL     OW29653   4.332   2.474   4.903
 5726SOL    HW129654   4.248   2.492   4.851
 5726SOL    HW229655   4.391   2.555   4.900
 5727SOL     OW29656   0.985   4.823   4.881
 5727SOL    HW129657   1.077   4.839   4.844
 5727SOL    HW229658   0.990   4.818   4.981
 5728SOL     OW29659   4.826   0.045   3.008
 5728SOL    HW129660   4.804  -0.043   3.049
 5728SOL    HW229661   4.920   0.043   2.973
 5729SOL     OW29662   0.510   2.185   6.205
 5729SOL    HW129663   0.598   2.137   6.198
 5729SOL    HW229664   0.517   2.274   6.161
 5730SOL     OW29665   3.792   2.501   0.630
 5730SOL    HW129666   3.693   2.492   0.626
 5730SOL    HW229667   3.831   2.424   0.681
 5731SOL     OW29668   5.299   2.835   1.210
 5731SOL    HW129669   5.378   2.805   1.265
 5731SOL    HW229670   5.314   2.808   1.115
 5732SOL     OW29671   3.590   5.144   6.826
 5732SOL    HW129672   3.637   5.226   6.794
 5732SOL    HW229673   3.534   5.166   6.906
 5733SOL     OW29674   0.527   4.021   5.616
 5733SOL    HW129675   0.551   3.978   5.703
 5733SOL    HW229676   0.611   4.043   5.566
 5734SOL     OW29677   1.330   2.246   4.839
 5734SOL    HW129678   1.350   2.339   4.807
 5734SOL    HW229679   1.243   2.215   4.800
 5735SOL     OW29680   0.004   2.476   4.587
 5735SOL    HW129681   0.038   2.501   4.678
 5735SOL    HW229682   0.081   2.460   4.526
 5736SOL     OW29683   2.931   3.070   1.485
 5736SOL    HW129684   2.949   2.986   1.433
 5736SOL    HW229685   2.838   3.068   1.521
 5737SOL     OW29686   6.655   0.198   5.727
 5737SOL    HW129687   6.688   0.279   5.679
 5737SOL    HW229688   6.558   0.184   5.705
 5738SOL     OW29689   5.109   1.163   5.190
 5738SOL    HW129690   5.144   1.176   5.097
 5738SOL    HW229691   5.018   1.123   5.186
 5739SOL     OW29692   3.929   5.134   5.872
 5739SOL    HW129693   3.967   5.117   5.781
 5739SOL    HW229694   4.003   5.130   5.940
 5740SOL     OW29695   7.326   4.238   6.111
 5740SOL    HW129696   7.350   4.282   6.025
 5740SOL    HW229697   7.407   4.192   6.149
 5741SOL     OW29698   5.107   2.302   1.494
 5741SOL    HW129699   5.086   2.304   1.591
 5741SOL    HW229700   5.202   2.275   1.480
 5742SOL     OW29701   6.193   5.224   6.001
 5742SOL    HW129702   6.183   5.193   6.096
 5742SOL    HW229703   6.286   5.205   5.970
 5743SOL     OW29704   2.273   3.393   4.496
 5743SOL    HW129705   2.221   3.405   4.581
 5743SOL    HW229706   2.348   3.460   4.493
 5744SOL     OW29707   1.365   3.212   6.084
 5744SOL    HW129708   1.281   3.229   6.033
 5744SOL    HW229709   1.430   3.287   6.066
 5745SOL     OW29710   0.162   7.328   0.423
 5745SOL    HW129711   0.066   7.302   0.415
 5745SOL    HW229712   0.215   7.252   0.461
 5746SOL     OW29713   2.913   5.137   0.704
 5746SOL    HW129714   2.868   5.077   0.771
 5746SOL    HW229715   2.844   5.177   0.644
 5747SOL     OW29716   5.809   5.290   1.812
 5747SOL    HW129717   5.818   5.386   1.784
 5747SOL    HW229718   5.793   5.286   1.910
 5748SOL     OW29719   6.907   3.006   3.228
 5748SOL    HW129720   6.906   2.921   3.175
 5748SOL    HW229721   6.820   3.015   3.277
 5749SOL     OW29722   2.773   1.650   7.056
 5749SOL    HW129723   2.778   1.558   7.094
 5749SOL    HW229724   2.679   1.684   7.062
 5750SOL     OW29725   4.196   1.449   4.658
 5750SOL    HW129726   4.234   1.541   4.658
 5750SOL    HW229727   4.106   1.451   4.614
 5751SOL     OW29728   7.140   4.029   6.060
 5751SOL    HW129729   7.209   4.101   6.057
 5751SOL    HW229730   7.058   4.064   6.104
 5752SOL     OW29731   1.719   2.869   5.312
 5752SOL    HW129732   1.700   2.853   5.408
 5752SOL    HW229733   1.680   2.956   5.283
 5753SOL     OW29734   2.672   1.292   1.969
 5753SOL    HW129735   2.645   1.221   2.035
 5753SOL    HW229736   2.666   1.255   1.876
 5754SOL     OW29737   5.064   3.137   3.701
 5754SOL    HW129738   5.085   3.039   3.710
 5754SOL    HW229739   4.968   3.148   3.678
 5755SOL     OW29740   4.647   7.149   6.622
 5755SOL    HW129741   4.584   7.103   6.685
 5755SOL    HW229742   4.620   7.245   6.613
 5756SOL     OW29743   3.123   2.248   7.038
 5756SOL    HW129744   3.216   2.278   7.059
 5756SOL    HW229745   3.065   2.329   7.024
 5757SOL     OW29746   2.912   6.976   0.265
 5757SOL    HW129747   2.929   6.897   0.207
 5757SOL    HW229748   2.911   6.948   0.361
 5758SOL     OW29749   1.331   0.304   6.078
 5758SOL    HW129750   1.273   0.372   6.034
 5758SOL    HW229751   1.308   0.213   6.042
 5759SOL     OW29752   4.211   7.140   2.323
 5759SOL    HW129753   4.142   7.088   2.272
 5759SOL    HW229754   4.166   7.191   2.397
 5760SOL     OW29755   4.289   6.827   0.715
 5760SOL    HW129756   4.216   6.875   0.764
 5760SOL    HW229757   4.363   6.891   0.694
 5761SOL     OW29758   0.903   1.802   0.605
 5761SOL    HW129759   0.923   1.807   0.507
 5761SOL    HW229760   0.857   1.716   0.625
 5762SOL     OW29761   0.479   3.243   3.708
 5762SOL    HW129762   0.414   3.207   3.775
 5762SOL    HW229763   0.569   3.203   3.724
 5763SOL     OW29764   1.494   1.058   3.262
 5763SOL    HW129765   1.585   1.040   3.225
 5763SOL    HW229766   1.430   0.989   3.227
 5764SOL     OW29767   5.456   2.973   1.956
 5764SOL    HW129768   5.531   3.014   1.904
 5764SOL    HW229769   5.377   3.035   1.956
 5765SOL     OW29770   1.768   1.862   3.613
 5765SOL    HW129771   1.737   1.855   3.518
 5765SOL    HW229772   1.697   1.825   3.674
 5766SOL     OW29773   5.311   2.307   2.862
 5766SOL    HW129774   5.289   2.295   2.765
 5766SOL    HW229775   5.229   2.294   2.917
 5767SOL     OW29776   6.501   3.876   2.430
 5767SOL    HW129777   6.494   3.913   2.338
 5767SOL    HW229778   6.560   3.795   2.428
 5768SOL     OW29779   4.215   3.434   6.265
 5768SOL    HW129780   4.226   3.511   6.328
 5768SOL    HW229781   4.234   3.349   6.313
 5769SOL     OW29782   2.431   5.802   3.603
 5769SOL    HW129783   2.407   5.799   3.700
 5769SOL    HW229784   2.505   5.738   3.584
 5770SOL     OW29785   0.923   0.927   4.054
 5770SOL    HW129786   0.839   0.980   4.067
 5770SOL    HW229787   0.982   0.974   3.989
 5771SOL     OW29788   6.626   3.821   4.761
 5771SOL    HW129789   6.566   3.763   4.816
 5771SOL    HW229790   6.714   3.775   4.748
 5772SOL     OW29791   5.858   6.758   1.433
 5772SOL    HW129792   5.860   6.782   1.530
 5772SOL    HW229793   5.783   6.693   1.417
 5773SOL     OW29794   3.700   0.096   4.614
 5773SOL    HW129795   3.692   0.051   4.703
 5773SOL    HW229796   3.731   0.190   4.626
 5774SOL     OW29797   1.437   3.602   1.313
 5774SOL    HW129798   1.340   3.623   1.320
 5774SOL    HW229799   1.473   3.581   1.404
 5775SOL     OW29800   4.911   5.845   5.766
 5775SOL    HW129801   4.914   5.788   5.684
 5775SOL    HW229802   4.961   5.930   5.749
 5776SOL     OW29803   0.707   0.430   2.349
 5776SOL    HW129804   0.658   0.465   2.269
 5776SOL    HW229805   0.677   0.479   2.431
 5777SOL     OW29806   2.950   3.825   4.519
 5777SOL    HW129807   2.878   3.796   4.454
 5777SOL    HW229808   2.933   3.781   4.607
 5778SOL     OW29809   0.998   0.910   2.552
 5778SOL    HW129810   1.079   0.859   2.524
 5778SOL    HW229811   1.024   0.982   2.617
 5779SOL     OW29812   5.278   3.183   1.908
 5779SOL    HW129813   5.213   3.258   1.919
 5779SOL    HW229814   5.370   3.220   1.892
 5780SOL     OW29815   0.984   3.941   6.077
 5780SOL    HW129816   0.895   3.977   6.104
 5780SOL    HW229817   0.991   3.846   6.107
 5781SOL     OW29818   5.430   4.647   4.580
 5781SOL    HW129819   5.510   4.707   4.576
 5781SOL    HW229820   5.369   4.668   4.504
 5782SOL     OW29821   1.644   4.048   1.531
 5782SOL    HW129822   1.624   3.951   1.542
 5782SOL    HW229823   1.735   4.059   1.491
 5783SOL     OW29824   0.708   1.379   1.113
 5783SOL    HW129825   0.728   1.284   1.136
 5783SOL    HW229826   0.762   1.440   1.172
 5784SOL     OW29827   5.586   1.818   3.546
 5784SOL    HW129828   5.530   1.737   3.526
 5784SOL    HW229829   5.656   1.793   3.612
 5785SOL     OW29830   3.435   6.526   1.419
 5785SOL    HW129831   3.386   6.454   1.371
 5785SOL    HW229832   3.370   6.581   1.472
 5786SOL     OW29833   5.441   0.341   4.159
 5786SOL    HW129834   5.341   0.352   4.158
 5786SOL    HW229835   5.477   0.379   4.244
 5787SOL     OW29836   0.511   5.624   0.021
 5787SOL    HW129837   0.460   5.559  -0.036
 5787SOL    HW229838   0.524   5.710  -0.029
 5788SOL     OW29839   7.233   0.949   3.350
 5788SOL    HW129840   7.167   1.025   3.345
 5788SOL    HW229841   7.202   0.884   3.419
 5789SOL     OW29842   0.968   2.705   5.254
 5789SOL    HW129843   1.001   2.797   5.235
 5789SOL    HW229844   0.890   2.684   5.194
 5790SOL     OW29845   4.332   0.100   0.996
 5790SOL    HW129846   4.377   0.026   1.046
 5790SOL    HW229847   4.250   0.065   0.951
 5791SOL     OW29848   3.368   4.709   6.908
 5791SOL    HW129849   3.418   4.783   6.952
 5791SOL    HW229850   3.430   4.634   6.887
 5792SOL     OW29851   4.325   0.175   7.049
 5792SOL    HW129852   4.271   0.139   7.125
 5792SOL    HW229853   4.394   0.108   7.022
 5793SOL     OW29854   6.810   0.072   7.264
 5793SOL    HW129855   6.831   0.116   7.177
 5793SOL    HW229856   6.894   0.035   7.304
 5794SOL     OW29857   4.804   5.689   1.725
 5794SOL    HW129858   4.737   5.700   1.799
 5794SOL    HW229859   4.764   5.637   1.650
 5795SOL     OW29860   2.351   4.048   5.619
 5795SOL    HW129861   2.423   4.008   5.676
 5795SOL    HW229862   2.355   4.147   5.625
 5796SOL     OW29863   2.024   0.930   3.537
 5796SOL    HW129864   1.931   0.960   3.561
 5796SOL    HW229865   2.064   0.994   3.472
 5797SOL     OW29866   3.626   2.296   3.262
 5797SOL    HW129867   3.642   2.376   3.319
 5797SOL    HW229868   3.655   2.214   3.311
 5798SOL     OW29869   5.194   0.193   1.870
 5798SOL    HW129870   5.294   0.203   1.876
 5798SOL    HW229871   5.152   0.283   1.859
 5799SOL     OW29872   4.846   2.197   4.968
 5799SOL    HW129873   4.910   2.121   4.977
 5799SOL    HW229874   4.873   2.256   4.893
 5800SOL     OW29875   6.193   5.726   6.695
 5800SOL    HW129876   6.148   5.734   6.783
 5800SOL    HW229877   6.236   5.813   6.671
 5801SOL     OW29878   5.915   0.531   0.832
 5801SOL    HW129879   5.976   0.463   0.871
 5801SOL    HW229880   5.842   0.485   0.781
 5802SOL     OW29881   2.183   1.046   0.327
 5802SOL    HW129882   2.243   1.041   0.247
 5802SOL    HW229883   2.188   0.960   0.378
 5803SOL     OW29884   6.157   5.753   1.053
 5803SOL    HW129885   6.230   5.772   0.987
 5803SOL    HW229886   6.081   5.708   1.005
 5804SOL     OW29887   4.726   1.204   3.131
 5804SOL    HW129888   4.806   1.145   3.135
 5804SOL    HW229889   4.654   1.161   3.077
 5805SOL     OW29890   4.183   0.727   6.491
 5805SOL    HW129891   4.161   0.786   6.569
 5805SOL    HW229892   4.153   0.634   6.511
 5806SOL     OW29893   5.886   4.605   0.025
 5806SOL    HW129894   5.858   4.527   0.081
 5806SOL    HW229895   5.985   4.607   0.016
 5807SOL     OW29896   3.315   0.429   0.759
 5807SOL    HW129897   3.376   0.484   0.702
 5807SOL    HW229898   3.245   0.487   0.800
 5808SOL     OW29899   2.681   6.808   0.382
 5808SOL    HW129900   2.651   6.904   0.380
 5808SOL    HW229901   2.729   6.786   0.297
 5809SOL     OW29902   1.928   5.669   2.133
 5809SOL    HW129903   1.900   5.574   2.117
 5809SOL    HW229904   1.865   5.711   2.199
 5810SOL     OW29905   5.311   4.001   1.061
 5810SOL    HW129906   5.304   3.901   1.055
 5810SOL    HW229907   5.386   4.032   1.002
 5811SOL     OW29908   1.561   2.406   6.810
 5811SOL    HW129909   1.621   2.466   6.757
 5811SOL    HW229910   1.496   2.361   6.749
 5812SOL     OW29911   0.979   5.073   5.930
 5812SOL    HW129912   0.939   5.105   6.015
 5812SOL    HW229913   0.922   5.000   5.892
 5813SOL     OW29914   5.623   7.218   3.649
 5813SOL    HW129915   5.665   7.264   3.728
 5813SOL    HW229916   5.694   7.197   3.581
 5814SOL     OW29917   3.018   0.236   2.206
 5814SOL    HW129918   3.099   0.177   2.200
 5814SOL    HW229919   3.010   0.291   2.123
 5815SOL     OW29920   3.315   0.999   2.246
 5815SOL    HW129921   3.298   0.911   2.290
 5815SOL    HW229922   3.393   1.044   2.289
 5816SOL     OW29923   3.996   1.655   3.428
 5816SOL    HW129924   4.077   1.621   3.382
 5816SOL    HW229925   3.951   1.581   3.477
 5817SOL     OW29926   6.600   3.488   1.902
 5817SOL    HW129927   6.555   3.529   1.981
 5817SOL    HW229928   6.622   3.392   1.922
 5818SOL     OW29929   4.760   0.299   5.102
 5818SOL    HW129930   4.780   0.346   5.016
 5818SOL    HW229931   4.756   0.200   5.086
 5819SOL     OW29932   5.903   7.251   2.097
 5819SOL    HW129933   5.882   7.210   2.186
 5819SOL    HW229934   5.845   7.211   2.027
 5820SOL     OW29935   5.910   0.911   2.209
 5820SOL    HW129936   5.922   0.812   2.217
 5820SOL    HW229937   5.891   0.934   2.114
 5821SOL     OW29938   6.494   5.840   6.619
 5821SOL    HW129939   6.460   5.868   6.530
 5821SOL    HW229940   6.525   5.745   6.615
 5822SOL     OW29941   6.871   3.171   4.051
 5822SOL    HW129942   6.777   3.204   4.039
 5822SOL    HW229943   6.928   3.207   3.977
 5823SOL     OW29944   0.988   7.277   0.765
 5823SOL    HW129945   0.889   7.284   0.753
 5823SOL    HW229946   1.023   7.201   0.711
 5824SOL     OW29947   0.200   3.943   0.422
 5824SOL    HW129948   0.253   3.861   0.442
 5824SOL    HW229949   0.171   3.941   0.326
 5825SOL     OW29950   4.790   1.063   5.492
 5825SOL    HW129951   4.838   1.148   5.468
 5825SOL    HW229952   4.847   0.985   5.468
 5826SOL     OW29953   3.757   7.296   4.046
 5826SOL    HW129954   3.657   7.294   4.056
 5826SOL    HW229955   3.799   7.324   4.133
 5827SOL     OW29956   5.669   2.513   3.535
 5827SOL    HW129957   5.571   2.512   3.513
 5827SOL    HW229958   5.719   2.561   3.463
 5828SOL     OW29959   5.397   6.008   2.337
 5828SOL    HW129960   5.487   6.033   2.373
 5828SOL    HW229961   5.331   6.008   2.411
 5829SOL     OW29962   0.015   3.724   6.485
 5829SOL    HW129963   0.023   3.723   6.585
 5829SOL    HW229964  -0.017   3.635   6.453
 5830SOL     OW29965   3.383   4.610   0.061
 5830SOL    HW129966   3.408   4.519   0.027
 5830SOL    HW229967   3.293   4.606   0.103
 5831SOL     OW29968   5.910   1.708   2.014
 5831SOL    HW129969   5.922   1.757   1.928
 5831SOL    HW229970   5.943   1.764   2.090
 5832SOL     OW29971   5.205   7.073   3.354
 5832SOL    HW129972   5.135   7.039   3.416
 5832SOL    HW229973   5.293   7.076   3.402
 5833SOL     OW29974   1.706   3.706   0.733
 5833SOL    HW129975   1.790   3.735   0.687
 5833SOL    HW229976   1.703   3.606   0.737
 5834SOL     OW29977   2.169   6.244   5.219
 5834SOL    HW129978   2.174   6.340   5.247
 5834SOL    HW229979   2.185   6.185   5.299
 5835SOL     OW29980   6.151   5.295   6.894
 5835SOL    HW129981   6.232   5.249   6.932
 5835SOL    HW229982   6.180   5.359   6.823
 5836SOL     OW29983   2.965   1.242   0.795
 5836SOL    HW129984   3.021   1.282   0.867
 5836SOL    HW229985   2.925   1.156   0.828
 5837SOL     OW29986   1.345   2.453   0.638
 5837SOL    HW129987   1.292   2.459   0.554
 5837SOL    HW229988   1.309   2.518   0.705
 5838SOL     OW29989   3.733   2.531   3.389
 5838SOL    HW129990   3.695   2.553   3.479
 5838SOL    HW229991   3.734   2.614   3.333
 5839SOL     OW29992   1.581   0.810   2.662
 5839SOL    HW129993   1.605   0.861   2.580
 5839SOL    HW229994   1.508   0.745   2.641
 5840SOL     OW29995   4.171   4.795   0.527
 5840SOL    HW129996   4.259   4.753   0.501
 5840SOL    HW229997   4.136   4.750   0.609
 5841SOL     OW29998   6.304   3.309   1.316
 5841SOL    HW129999   6.362   3.370   1.371
 5841SOL    HW230000   6.230   3.273   1.373
 5842SOL     OW30001   5.559   6.578   5.644
 5842SOL    HW130002   5.529   6.649   5.707
 5842SOL    HW230003   5.659   6.569   5.649
 5843SOL     OW30004   6.027   7.281   5.559
 5843SOL    HW130005   6.029   7.186   5.527
 5843SOL    HW230006   5.960   7.332   5.506
 5844SOL     OW30007   2.264   3.658   3.584
 5844SOL    HW130008   2.355   3.619   3.568
 5844SOL    HW230009   2.273   3.752   3.615
 5845SOL     OW30010   4.630   3.613   2.677
 5845SOL    HW130011   4.683   3.583   2.598
 5845SOL    HW230012   4.660   3.564   2.759
 5846SOL     OW30013   2.841   0.167   7.018
 5846SOL    HW130014   2.870   0.177   7.114
 5846SOL    HW230015   2.827   0.258   6.979
 5847SOL     OW30016   0.476   1.015   3.324
 5847SOL    HW130017   0.454   1.041   3.230
 5847SOL    HW230018   0.573   0.994   3.331
 5848SOL     OW30019   3.491   1.308   6.650
 5848SOL    HW130020   3.440   1.367   6.587
 5848SOL    HW230021   3.453   1.216   6.648
 5849SOL     OW30022   2.134   6.413   1.660
 5849SOL    HW130023   2.081   6.389   1.578
 5849SOL    HW230024   2.133   6.512   1.672
 5850SOL     OW30025   5.137   5.749   6.782
 5850SOL    HW130026   5.086   5.706   6.857
 5850SOL    HW230027   5.082   5.824   6.744
 5851SOL     OW30028   5.748   7.321   3.284
 5851SOL    HW130029   5.789   7.268   3.357
 5851SOL    HW230030   5.650   7.330   3.300
 5852SOL     OW30031   3.541   4.737   2.510
 5852SOL    HW130032   3.597   4.777   2.582
 5852SOL    HW230033   3.600   4.713   2.433
 5853SOL     OW30034   2.344   5.719   0.308
 5853SOL    HW130035   2.381   5.763   0.389
 5853SOL    HW230036   2.392   5.752   0.227
 5854SOL     OW30037   1.516   2.238   5.857
 5854SOL    HW130038   1.574   2.206   5.931
 5854SOL    HW230039   1.454   2.308   5.891
 5855SOL     OW30040   3.190   5.493   6.524
 5855SOL    HW130041   3.230   5.420   6.579
 5855SOL    HW230042   3.242   5.577   6.536
 5856SOL     OW30043   5.503   4.650   1.973
 5856SOL    HW130044   5.537   4.744   1.983
 5856SOL    HW230045   5.471   4.636   1.880
 5857SOL     OW30046   2.212   2.374   5.311
 5857SOL    HW130047   2.268   2.409   5.386
 5857SOL    HW230048   2.119   2.355   5.344
 5858SOL     OW30049   7.020   2.896   5.257
 5858SOL    HW130050   7.113   2.890   5.294
 5858SOL    HW230051   6.986   2.803   5.238
 5859SOL     OW30052   5.564   1.950   5.587
 5859SOL    HW130053   5.559   2.007   5.669
 5859SOL    HW230054   5.513   1.865   5.601
 5860SOL     OW30055   3.787   1.375   0.941
 5860SOL    HW130056   3.770   1.438   0.865
 5860SOL    HW230057   3.758   1.416   1.027
 5861SOL     OW30058   3.079   5.853   0.938
 5861SOL    HW130059   3.095   5.757   0.958
 5861SOL    HW230060   3.070   5.904   1.024
 5862SOL     OW30061   2.036   5.826   7.358
 5862SOL    HW130062   1.976   5.759   7.313
 5862SOL    HW230063   2.129   5.817   7.322
 5863SOL     OW30064   1.750   1.264   2.978
 5863SOL    HW130065   1.842   1.304   2.984
 5863SOL    HW230066   1.742   1.190   3.045
 5864SOL     OW30067   4.048   4.682   2.552
 5864SOL    HW130068   4.051   4.710   2.648
 5864SOL    HW230069   3.966   4.721   2.509
 5865SOL     OW30070   5.514   1.536   2.829
 5865SOL    HW130071   5.592   1.487   2.789
 5865SOL    HW230072   5.525   1.634   2.814
 5866SOL     OW30073   0.274   2.913   0.837
 5866SOL    HW130074   0.341   2.843   0.864
 5866SOL    HW230075   0.188   2.868   0.812
 5867SOL     OW30076   1.544   3.243   2.104
 5867SOL    HW130077   1.527   3.189   2.021
 5867SOL    HW230078   1.479   3.216   2.175
 5868SOL     OW30079   4.639   5.041   6.697
 5868SOL    HW130080   4.736   5.050   6.719
 5868SOL    HW230081   4.587   5.028   6.781
 5869SOL     OW30082   4.834   0.534   6.218
 5869SOL    HW130083   4.825   0.439   6.189
 5869SOL    HW230084   4.920   0.545   6.269
 5870SOL     OW30085   1.794   5.857   0.595
 5870SOL    HW130086   1.801   5.828   0.690
 5870SOL    HW230087   1.703   5.896   0.579
 5871SOL     OW30088   2.168   6.460   6.030
 5871SOL    HW130089   2.145   6.373   6.072
 5871SOL    HW230090   2.168   6.532   6.099
 5872SOL     OW30091   0.668   3.779   1.446
 5872SOL    HW130092   0.677   3.734   1.357
 5872SOL    HW230093   0.633   3.872   1.433
 5873SOL     OW30094   6.893   3.837   2.560
 5873SOL    HW130095   6.976   3.880   2.595
 5873SOL    HW230096   6.820   3.905   2.552
 5874SOL     OW30097   6.692   1.074   3.141
 5874SOL    HW130098   6.778   1.093   3.187
 5874SOL    HW230099   6.693   0.980   3.106
 5875SOL     OW30100   0.425   5.849   5.367
 5875SOL    HW130101   0.417   5.853   5.267
 5875SOL    HW230102   0.407   5.756   5.398
 5876SOL     OW30103   5.109   3.173   4.215
 5876SOL    HW130104   5.109   3.258   4.269
 5876SOL    HW230105   5.192   3.168   4.160
 5877SOL     OW30106   0.096   0.312   0.080
 5877SOL    HW130107   0.020   0.257   0.113
 5877SOL    HW230108   0.081   0.336  -0.016
 5878SOL     OW30109   3.148   2.712   0.477
 5878SOL    HW130110   3.184   2.665   0.397
 5878SOL    HW230111   3.143   2.811   0.459
 5879SOL     OW30112   0.237   1.608   6.845
 5879SOL    HW130113   0.336   1.613   6.859
 5879SOL    HW230114   0.204   1.696   6.811
 5880SOL     OW30115   4.909   6.017   4.214
 5880SOL    HW130116   4.911   6.008   4.314
 5880SOL    HW230117   5.001   6.038   4.181
 5881SOL     OW30118   5.899   3.072   6.690
 5881SOL    HW130119   5.857   2.982   6.683
 5881SOL    HW230120   5.828   3.142   6.688
 5882SOL     OW30121   0.823   0.753   0.778
 5882SOL    HW130122   0.819   0.654   0.773
 5882SOL    HW230123   0.733   0.789   0.801
 5883SOL     OW30124   4.120   0.124   5.924
 5883SOL    HW130125   4.201   0.179   5.942
 5883SOL    HW230126   4.040   0.183   5.915
 5884SOL     OW30127   3.622   0.285   1.734
 5884SOL    HW130128   3.684   0.341   1.788
 5884SOL    HW230129   3.668   0.201   1.707
 5885SOL     OW30130   4.270   4.249   3.732
 5885SOL    HW130131   4.341   4.205   3.677
 5885SOL    HW230132   4.293   4.237   3.829
 5886SOL     OW30133   1.222   0.043   3.364
 5886SOL    HW130134   1.309  -0.004   3.379
 5886SOL    HW230135   1.205   0.106   3.440
 5887SOL     OW30136   4.392   6.811   1.468
 5887SOL    HW130137   4.356   6.882   1.408
 5887SOL    HW230138   4.389   6.723   1.420
 5888SOL     OW30139   1.293   5.484   4.938
 5888SOL    HW130140   1.313   5.387   4.951
 5888SOL    HW230141   1.208   5.507   4.986
 5889SOL     OW30142   1.189   3.534   2.191
 5889SOL    HW130143   1.214   3.524   2.094
 5889SOL    HW230144   1.257   3.486   2.247
 5890SOL     OW30145   4.661   3.289   1.819
 5890SOL    HW130146   4.748   3.338   1.816
 5890SOL    HW230147   4.621   3.287   1.728
 5891SOL     OW30148   7.323   5.011   4.863
 5891SOL    HW130149   7.369   4.963   4.789
 5891SOL    HW230150   7.247   4.955   4.897
 5892SOL     OW30151   6.327   3.044   6.568
 5892SOL    HW130152   6.320   2.947   6.589
 5892SOL    HW230153   6.255   3.094   6.617
 5893SOL     OW30154   0.320   1.715   2.315
 5893SOL    HW130155   0.402   1.763   2.284
 5893SOL    HW230156   0.260   1.696   2.237
 5894SOL     OW30157   2.974   0.250   1.681
 5894SOL    HW130158   2.989   0.164   1.631
 5894SOL    HW230159   2.952   0.229   1.776
 5895SOL     OW30160   2.449   6.450   1.973
 5895SOL    HW130161   2.358   6.416   1.950
 5895SOL    HW230162   2.448   6.550   1.976
 5896SOL     OW30163   2.970   1.949   1.422
 5896SOL    HW130164   2.889   1.922   1.369
 5896SOL    HW230165   2.962   1.915   1.515
 5897SOL     OW30166   0.508   4.202   1.752
 5897SOL    HW130167   0.550   4.292   1.738
 5897SOL    HW230168   0.576   4.139   1.789
 5898SOL     OW30169   3.811   1.935   1.667
 5898SOL    HW130170   3.816   1.872   1.589
 5898SOL    HW230171   3.731   1.994   1.658
 5899SOL     OW30172   5.216   6.144   3.847
 5899SOL    HW130173   5.301   6.153   3.794
 5899SOL    HW230174   5.139   6.174   3.792
 5900SOL     OW30175   1.566   0.051   7.096
 5900SOL    HW130176   1.553   0.009   7.186
 5900SOL    HW230177   1.625  -0.008   7.040
 5901SOL     OW30178   0.035   2.093   3.125
 5901SOL    HW130179   0.015   2.031   3.201
 5901SOL    HW230180   0.099   2.048   3.062
 5902SOL     OW30181   5.127   2.917   3.346
 5902SOL    HW130182   5.223   2.895   3.327
 5902SOL    HW230183   5.068   2.851   3.299
 5903SOL     OW30184   3.431   6.364   7.240
 5903SOL    HW130185   3.413   6.457   7.273
 5903SOL    HW230186   3.475   6.369   7.150
 5904SOL     OW30187   5.058   6.055   3.276
 5904SOL    HW130188   5.037   6.023   3.183
 5904SOL    HW230189   5.049   5.978   3.340
 5905SOL     OW30190   2.982   3.968   7.329
 5905SOL    HW130191   2.938   3.894   7.278
 5905SOL    HW230192   2.944   3.971   7.422
 5906SOL     OW30193   0.080   3.393   5.551
 5906SOL    HW130194   0.017   3.352   5.619
 5906SOL    HW230195   0.070   3.492   5.553
 5907SOL     OW30196   5.745   0.915   3.156
 5907SOL    HW130197   5.741   0.827   3.108
 5907SOL    HW230198   5.743   0.989   3.089
 5908SOL     OW30199   0.838   4.751   3.759
 5908SOL    HW130200   0.863   4.773   3.665
 5908SOL    HW230201   0.746   4.710   3.760
 5909SOL     OW30202   6.073   7.278   1.703
 5909SOL    HW130203   6.166   7.307   1.680
 5909SOL    HW230204   6.051   7.306   1.796
 5910SOL     OW30205   1.137   4.076   4.717
 5910SOL    HW130206   1.125   3.978   4.730
 5910SOL    HW230207   1.112   4.124   4.801
 5911SOL     OW30208   5.425   2.909   3.719
 5911SOL    HW130209   5.455   2.959   3.800
 5911SOL    HW230210   5.506   2.880   3.666
 5912SOL     OW30211   6.496   3.651   6.311
 5912SOL    HW130212   6.506   3.611   6.220
 5912SOL    HW230213   6.572   3.621   6.369
 5913SOL     OW30214   3.732   3.331   6.081
 5913SOL    HW130215   3.815   3.353   6.132
 5913SOL    HW230216   3.657   3.314   6.145
 5914SOL     OW30217   6.291   5.785   4.050
 5914SOL    HW130218   6.249   5.847   3.983
 5914SOL    HW230219   6.390   5.788   4.041
 5915SOL     OW30220   2.787   0.046   4.234
 5915SOL    HW130221   2.847   0.114   4.191
 5915SOL    HW230222   2.769  -0.028   4.168
 5916SOL     OW30223   6.978   0.783   5.149
 5916SOL    HW130224   6.999   0.701   5.095
 5916SOL    HW230225   6.999   0.865   5.096
 5917SOL     OW30226   4.691   2.925   2.824
 5917SOL    HW130227   4.759   2.892   2.759
 5917SOL    HW230228   4.632   2.992   2.779
 5918SOL     OW30229   6.819   4.718   5.402
 5918SOL    HW130230   6.843   4.783   5.473
 5918SOL    HW230231   6.732   4.744   5.361
 5919SOL     OW30232   0.998   2.986   0.385
 5919SOL    HW130233   0.977   2.975   0.288
 5919SOL    HW230234   0.995   3.082   0.410
 5920SOL     OW30235   1.478   3.505   2.091
 5920SOL    HW130236   1.554   3.565   2.117
 5920SOL    HW230237   1.505   3.410   2.105
 5921SOL     OW30238   5.390   0.962   3.863
 5921SOL    HW130239   5.399   0.989   3.959
 5921SOL    HW230240   5.361   0.867   3.858
 5922SOL     OW30241   2.026   2.504   7.063
 5922SOL    HW130242   2.095   2.553   7.009
 5922SOL    HW230243   1.981   2.436   7.006
 5923SOL     OW30244   2.274   3.787   3.260
 5923SOL    HW130245   2.196   3.729   3.284
 5923SOL    HW230246   2.355   3.757   3.311
 5924SOL     OW30247   3.032   6.052   1.797
 5924SOL    HW130248   2.967   6.001   1.853
 5924SOL    HW230249   3.098   5.990   1.757
 5925SOL     OW30250   4.507   1.760   2.086
 5925SOL    HW130251   4.502   1.794   1.992
 5925SOL    HW230252   4.602   1.748   2.112
 5926SOL     OW30253   0.941   6.086   6.472
 5926SOL    HW130254   0.944   6.124   6.380
 5926SOL    HW230255   0.929   6.160   6.538
 5927SOL     OW30256   6.323   1.080   2.718
 5927SOL    HW130257   6.364   1.119   2.635
 5927SOL    HW230258   6.335   1.143   2.794
 5928SOL     OW30259   3.375   5.317   6.618
 5928SOL    HW130260   3.335   5.225   6.618
 5928SOL    HW230261   3.430   5.330   6.700
 5929SOL     OW30262   5.490   4.105   0.856
 5929SOL    HW130263   5.499   4.111   0.757
 5929SOL    HW230264   5.581   4.107   0.898
 5930SOL     OW30265   2.822   5.422   5.257
 5930SOL    HW130266   2.737   5.473   5.275
 5930SOL    HW230267   2.878   5.420   5.339
 5931SOL     OW30268   7.219   3.226   0.742
 5931SOL    HW130269   7.172   3.278   0.814
 5931SOL    HW230270   7.262   3.290   0.678
 5932SOL     OW30271   4.325   3.524   1.760
 5932SOL    HW130272   4.243   3.497   1.709
 5932SOL    HW230273   4.328   3.472   1.846
 5933SOL     OW30274   3.590   7.211   0.562
 5933SOL    HW130275   3.656   7.147   0.522
 5933SOL    HW230276   3.555   7.175   0.648
 5934SOL     OW30277   1.764   0.880   0.365
 5934SOL    HW130278   1.840   0.928   0.322
 5934SOL    HW230279   1.759   0.787   0.329
 5935SOL     OW30280   1.690   3.387   4.727
 5935SOL    HW130281   1.690   3.400   4.827
 5935SOL    HW230282   1.783   3.397   4.692
 5936SOL     OW30283   1.637   4.754   3.472
 5936SOL    HW130284   1.601   4.694   3.400
 5936SOL    HW230285   1.627   4.849   3.444
 5937SOL     OW30286   5.279   5.784   4.181
 5937SOL    HW130287   5.345   5.785   4.257
 5937SOL    HW230288   5.306   5.851   4.113
 5938SOL     OW30289   0.738   6.530   4.604
 5938SOL    HW130290   0.674   6.512   4.529
 5938SOL    HW230291   0.831   6.510   4.574
 5939SOL     OW30292   3.168   6.217   6.090
 5939SOL    HW130293   3.138   6.309   6.065
 5939SOL    HW230294   3.193   6.214   6.186
 5940SOL     OW30295   5.250   7.200   0.131
 5940SOL    HW130296   5.209   7.116   0.095
 5940SOL    HW230297   5.347   7.203   0.107
 5941SOL     OW30298   3.509   2.992   3.754
 5941SOL    HW130299   3.424   3.044   3.763
 5941SOL    HW230300   3.586   3.052   3.773
 5942SOL     OW30301   6.864   2.791   3.092
 5942SOL    HW130302   6.828   2.788   2.999
 5942SOL    HW230303   6.944   2.731   3.099
 5943SOL     OW30304   3.467   0.458   1.603
 5943SOL    HW130305   3.530   0.515   1.549
 5943SOL    HW230306   3.519   0.388   1.651
 5944SOL     OW30307   3.472   4.408   4.029
 5944SOL    HW130308   3.471   4.326   4.086
 5944SOL    HW230309   3.557   4.458   4.044
 5945SOL     OW30310   5.679   5.502   2.585
 5945SOL    HW130311   5.616   5.481   2.510
 5945SOL    HW230312   5.630   5.498   2.672
 5946SOL     OW30313   3.239   5.081   6.659
 5946SOL    HW130314   3.177   5.109   6.732
 5946SOL    HW230315   3.270   4.987   6.676
 5947SOL     OW30316   5.714   5.948   1.578
 5947SOL    HW130317   5.624   5.961   1.536
 5947SOL    HW230318   5.702   5.905   1.668
 5948SOL     OW30319   7.233   5.937   2.371
 5948SOL    HW130320   7.251   6.023   2.324
 5948SOL    HW230321   7.176   5.954   2.452
 5949SOL     OW30322   3.676   4.147   4.004
 5949SOL    HW130323   3.705   4.242   4.002
 5949SOL    HW230324   3.594   4.138   4.061
 5950SOL     OW30325   2.225   0.609   0.878
 5950SOL    HW130326   2.248   0.542   0.948
 5950SOL    HW230327   2.287   0.687   0.885
 5951SOL     OW30328   3.227   0.171   7.027
 5951SOL    HW130329   3.205   0.218   7.112
 5951SOL    HW230330   3.260   0.237   6.959
 5952SOL     OW30331   7.080   6.799   7.254
 5952SOL    HW130332   7.170   6.766   7.283
 5952SOL    HW230333   7.023   6.817   7.335
 5953SOL     OW30334   3.663   0.130   4.978
 5953SOL    HW130335   3.677   0.226   5.003
 5953SOL    HW230336   3.580   0.096   5.022
 5954SOL     OW30337   1.877   3.770   7.007
 5954SOL    HW130338   1.953   3.706   6.997
 5954SOL    HW230339   1.792   3.719   7.025
 5955SOL     OW30340   5.168   1.419   6.246
 5955SOL    HW130341   5.256   1.420   6.198
 5955SOL    HW230342   5.163   1.337   6.303
 5956SOL     OW30343   5.891   0.760   2.771
 5956SOL    HW130344   5.923   0.671   2.737
 5956SOL    HW230345   5.954   0.832   2.741
 5957SOL     OW30346   5.803   1.155   3.926
 5957SOL    HW130347   5.738   1.114   3.861
 5957SOL    HW230348   5.755   1.220   3.984
 5958SOL     OW30349   3.357   0.891   0.932
 5958SOL    HW130350   3.340   0.895   1.031
 5958SOL    HW230351   3.444   0.935   0.911
 5959SOL     OW30352   7.285   0.847   5.731
 5959SOL    HW130353   7.267   0.884   5.640
 5959SOL    HW230354   7.342   0.911   5.783
 5960SOL     OW30355   6.667   4.539   1.058
 5960SOL    HW130356   6.676   4.502   1.150
 5960SOL    HW230357   6.571   4.558   1.039
 5961SOL     OW30358   0.371   3.559   0.135
 5961SOL    HW130359   0.284   3.538   0.179
 5961SOL    HW230360   0.408   3.643   0.175
 5962SOL     OW30361   2.606   2.843   0.076
 5962SOL    HW130362   2.647   2.930   0.050
 5962SOL    HW230363   2.553   2.807  -0.001
 5963SOL     OW30364   5.126   1.887   4.076
 5963SOL    HW130365   5.179   1.859   3.996
 5963SOL    HW230366   5.184   1.941   4.137
 5964SOL     OW30367   0.635   0.785   5.365
 5964SOL    HW130368   0.624   0.761   5.461
 5964SOL    HW230369   0.729   0.813   5.348
 5965SOL     OW30370   1.967   6.053   2.406
 5965SOL    HW130371   1.878   6.014   2.434
 5965SOL    HW230372   2.007   5.995   2.336
 5966SOL     OW30373   6.834   5.993   6.651
 5966SOL    HW130374   6.863   5.926   6.720
 5966SOL    HW230375   6.765   6.054   6.691
 5967SOL     OW30376   1.017   5.001   5.630
 5967SOL    HW130377   0.941   4.936   5.638
 5967SOL    HW230378   1.094   4.969   5.686
 5968SOL     OW30379   0.305   3.180   4.553
 5968SOL    HW130380   0.322   3.248   4.624
 5968SOL    HW230381   0.209   3.182   4.527
 5969SOL     OW30382   5.413   4.221   0.397
 5969SOL    HW130383   5.452   4.290   0.458
 5969SOL    HW230384   5.485   4.161   0.363
 5970SOL     OW30385   5.973   0.377   5.386
 5970SOL    HW130386   5.972   0.436   5.305
 5970SOL    HW230387   5.946   0.430   5.466
 5971SOL     OW30388   1.917   5.840   3.910
 5971SOL    HW130389   1.985   5.791   3.965
 5971SOL    HW230390   1.835   5.855   3.965
 5972SOL     OW30391   3.158   0.638   1.930
 5972SOL    HW130392   3.152   0.576   2.008
 5972SOL    HW230393   3.157   0.585   1.845
 5973SOL     OW30394   3.939   1.255   2.395
 5973SOL    HW130395   4.032   1.287   2.413
 5973SOL    HW230396   3.910   1.287   2.305
 5974SOL     OW30397   1.843   2.666   5.007
 5974SOL    HW130398   1.869   2.593   5.070
 5974SOL    HW230399   1.925   2.706   4.966
 5975SOL     OW30400   5.570   4.905   1.313
 5975SOL    HW130401   5.620   4.823   1.286
 5975SOL    HW230402   5.600   4.934   1.404
 5976SOL     OW30403   2.437   5.476   3.043
 5976SOL    HW130404   2.514   5.520   3.088
 5976SOL    HW230405   2.427   5.382   3.076
 5977SOL     OW30406   5.068   1.163   4.672
 5977SOL    HW130407   5.159   1.140   4.706
 5977SOL    HW230408   5.009   1.188   4.749
 5978SOL     OW30409   7.171   4.720   5.472
 5978SOL    HW130410   7.072   4.723   5.486
 5978SOL    HW230411   7.190   4.716   5.374
 5979SOL     OW30412   6.313   7.070   2.796
 5979SOL    HW130413   6.404   7.040   2.822
 5979SOL    HW230414   6.320   7.144   2.728
 5980SOL     OW30415   3.274   6.695   6.673
 5980SOL    HW130416   3.277   6.668   6.577
 5980SOL    HW230417   3.365   6.688   6.713
 5981SOL     OW30418   4.620   5.522   0.427
 5981SOL    HW130419   4.650   5.431   0.457
 5981SOL    HW230420   4.642   5.534   0.330
 5982SOL     OW30421   0.653   6.187   1.893
 5982SOL    HW130422   0.740   6.169   1.939
 5982SOL    HW230423   0.586   6.220   1.960
 5983SOL     OW30424   4.779   6.581   6.129
 5983SOL    HW130425   4.754   6.533   6.213
 5983SOL    HW230426   4.876   6.567   6.110
 5984SOL     OW30427   6.284   2.516   0.324
 5984SOL    HW130428   6.219   2.574   0.276
 5984SOL    HW230429   6.234   2.454   0.385
 5985SOL     OW30430   7.320   5.593   4.704
 5985SOL    HW130431   7.255   5.518   4.694
 5985SOL    HW230432   7.412   5.560   4.683
 5986SOL     OW30433   2.170   6.527   5.380
 5986SOL    HW130434   2.078   6.565   5.370
 5986SOL    HW230435   2.206   6.550   5.471
 5987SOL     OW30436   5.915   1.927   4.139
 5987SOL    HW130437   5.912   2.018   4.098
 5987SOL    HW230438   5.881   1.930   4.232
 5988SOL     OW30439   1.879   1.300   1.038
 5988SOL    HW130440   1.798   1.255   1.074
 5988SOL    HW230441   1.955   1.289   1.102
 5989SOL     OW30442   7.098   4.774   3.742
 5989SOL    HW130443   7.151   4.693   3.716
 5989SOL    HW230444   7.021   4.745   3.800
 5990SOL     OW30445   2.683   5.628   1.434
 5990SOL    HW130446   2.741   5.549   1.414
 5990SOL    HW230447   2.735   5.694   1.489
 5991SOL     OW30448   4.934   6.420   4.109
 5991SOL    HW130449   4.932   6.509   4.154
 5991SOL    HW230450   4.997   6.423   4.031
 5992SOL     OW30451   4.382   5.676   0.456
 5992SOL    HW130452   4.464   5.621   0.441
 5992SOL    HW230453   4.408   5.764   0.496
 5993SOL     OW30454   5.118   2.087   5.029
 5993SOL    HW130455   5.167   2.160   5.077
 5993SOL    HW230456   5.158   2.072   4.939
 5994SOL     OW30457   1.390   3.418   1.090
 5994SOL    HW130458   1.395   3.483   1.165
 5994SOL    HW230459   1.358   3.465   1.007
 5995SOL     OW30460   1.138   5.249   4.611
 5995SOL    HW130461   1.084   5.287   4.537
 5995SOL    HW230462   1.227   5.295   4.615
 5996SOL     OW30463   4.000   3.391   5.917
 5996SOL    HW130464   3.997   3.471   5.858
 5996SOL    HW230465   3.949   3.409   6.001
 5997SOL     OW30466   1.113   2.106   5.751
 5997SOL    HW130467   1.180   2.179   5.737
 5997SOL    HW230468   1.145   2.022   5.706
 5998SOL     OW30469   2.133   4.668   0.904
 5998SOL    HW130470   2.217   4.660   0.851
 5998SOL    HW230471   2.083   4.750   0.875
 5999SOL     OW30472   5.385   5.394   5.375
 5999SOL    HW130473   5.444   5.474   5.392
 5999SOL    HW230474   5.375   5.342   5.459
 6000SOL     OW30475   4.704   2.797   3.189
 6000SOL    HW130476   4.652   2.712   3.189
 6000SOL    HW230477   4.642   2.875   3.200
 6001SOL     OW30478   0.577   1.598   2.416
 6001SOL    HW130479   0.630   1.541   2.353
 6001SOL    HW230480   0.486   1.614   2.377
 6002SOL     OW30481   1.616   4.129   6.800
 6002SOL    HW130482   1.695   4.072   6.821
 6002SOL    HW230483   1.541   4.106   6.863
 6003SOL     OW30484   3.269   5.943   2.813
 6003SOL    HW130485   3.304   5.850   2.819
 6003SOL    HW230486   3.230   5.959   2.722
 6004SOL     OW30487   5.618   3.171   0.498
 6004SOL    HW130488   5.634   3.225   0.581
 6004SOL    HW230489   5.698   3.178   0.438
 6005SOL     OW30490   2.358   2.489   5.482
 6005SOL    HW130491   2.418   2.451   5.553
 6005SOL    HW230492   2.326   2.580   5.511
 6006SOL     OW30493   5.262   0.877   1.102
 6006SOL    HW130494   5.300   0.875   1.009
 6006SOL    HW230495   5.162   0.878   1.097
 6007SOL     OW30496   3.186   1.845   1.025
 6007SOL    HW130497   3.161   1.906   1.100
 6007SOL    HW230498   3.110   1.838   0.960
 6008SOL     OW30499   5.133   4.826   6.260
 6008SOL    HW130500   5.151   4.750   6.198
 6008SOL    HW230501   5.214   4.844   6.315
 6009SOL     OW30502   0.137   5.157   4.007
 6009SOL    HW130503   0.060   5.212   4.037
 6009SOL    HW230504   0.103   5.071   3.967
 6010SOL     OW30505   4.218   5.185   2.110
 6010SOL    HW130506   4.235   5.096   2.069
 6010SOL    HW230507   4.305   5.227   2.138
 6011SOL     OW30508   4.438   7.002   2.394
 6011SOL    HW130509   4.379   7.068   2.347
 6011SOL    HW230510   4.484   7.047   2.471
 6012SOL     OW30511   3.768   1.450   4.873
 6012SOL    HW130512   3.829   1.412   4.942
 6012SOL    HW230513   3.808   1.437   4.782
 6013SOL     OW30514   3.640   1.285   5.910
 6013SOL    HW130515   3.666   1.378   5.937
 6013SOL    HW230516   3.686   1.219   5.969
 6014SOL     OW30517   5.239   2.043   0.434
 6014SOL    HW130518   5.175   2.091   0.495
 6014SOL    HW230519   5.258   1.952   0.471
 6015SOL     OW30520   4.456   7.296   1.740
 6015SOL    HW130521   4.548   7.270   1.711
 6015SOL    HW230522   4.389   7.244   1.687
 6016SOL     OW30523   5.031   1.951   3.331
 6016SOL    HW130524   5.010   2.049   3.325
 6016SOL    HW230525   4.953   1.898   3.297
 6017SOL     OW30526   5.807   0.069   5.160
 6017SOL    HW130527   5.848   0.057   5.069
 6017SOL    HW230528   5.767   0.160   5.166
 6018SOL     OW30529   4.315   2.029   4.030
 6018SOL    HW130530   4.277   2.054   3.941
 6018SOL    HW230531   4.281   2.092   4.100
 6019SOL     OW30532   0.943   3.759   5.849
 6019SOL    HW130533   0.994   3.725   5.928
 6019SOL    HW230534   0.979   3.849   5.823
 6020SOL     OW30535   3.098   5.277   4.125
 6020SOL    HW130536   3.136   5.246   4.038
 6020SOL    HW230537   3.007   5.316   4.110
 6021SOL     OW30538   2.158   2.258   3.012
 6021SOL    HW130539   2.175   2.355   3.029
 6021SOL    HW230540   2.152   2.209   3.099
 6022SOL     OW30541   5.716   5.711   1.821
 6022SOL    HW130542   5.629   5.686   1.863
 6022SOL    HW230543   5.784   5.730   1.892
 6023SOL     OW30544   4.992   2.310   0.196
 6023SOL    HW130545   4.905   2.357   0.185
 6023SOL    HW230546   5.039   2.347   0.276
 6024SOL     OW30547   5.979   0.751   4.845
 6024SOL    HW130548   5.900   0.735   4.904
 6024SOL    HW230549   5.970   0.697   4.761
 6025SOL     OW30550   7.207   3.944   6.362
 6025SOL    HW130551   7.250   3.864   6.404
 6025SOL    HW230552   7.182   3.922   6.268
 6026SOL     OW30553   7.301   1.534   7.156
 6026SOL    HW130554   7.219   1.577   7.118
 6026SOL    HW230555   7.285   1.514   7.253
 6027SOL     OW30556   5.103   4.082   1.547
 6027SOL    HW130557   5.105   4.052   1.452
 6027SOL    HW230558   5.190   4.128   1.568
 6028SOL     OW30559   4.066   6.811   3.169
 6028SOL    HW130560   4.044   6.889   3.110
 6028SOL    HW230561   4.137   6.755   3.126
 6029SOL     OW30562   0.800   3.324   1.016
 6029SOL    HW130563   0.831   3.259   1.085
 6029SOL    HW230564   0.876   3.383   0.989
 6030SOL     OW30565   0.763   1.023   3.319
 6030SOL    HW130566   0.743   0.992   3.413
 6030SOL    HW230567   0.861   1.036   3.309
 6031SOL     OW30568   5.835   1.867   0.957
 6031SOL    HW130569   5.795   1.868   1.049
 6031SOL    HW230570   5.839   1.773   0.923
 6032SOL     OW30571   3.537   0.344   0.922
 6032SOL    HW130572   3.497   0.273   0.980
 6032SOL    HW230573   3.471   0.371   0.852
 6033SOL     OW30574   6.168   1.254   6.098
 6033SOL    HW130575   6.140   1.285   6.007
 6033SOL    HW230576   6.162   1.154   6.102
 6034SOL     OW30577   5.608   2.183   1.713
 6034SOL    HW130578   5.574   2.207   1.803
 6034SOL    HW230579   5.669   2.103   1.721
 6035SOL     OW30580   3.437   7.130   4.944
 6035SOL    HW130581   3.500   7.127   4.866
 6035SOL    HW230582   3.489   7.115   5.028
 6036SOL     OW30583   0.916   7.128   5.700
 6036SOL    HW130584   0.974   7.209   5.699
 6036SOL    HW230585   0.899   7.100   5.794
 6037SOL     OW30586   2.196   5.837   0.621
 6037SOL    HW130587   2.140   5.904   0.572
 6037SOL    HW230588   2.187   5.852   0.719
 6038SOL     OW30589   4.998   0.099   2.604
 6038SOL    HW130590   4.900   0.108   2.622
 6038SOL    HW230591   5.012   0.060   2.512
 6039SOL     OW30592   0.915   1.049   6.368
 6039SOL    HW130593   0.885   1.126   6.423
 6039SOL    HW230594   0.917   0.966   6.424
 6040SOL     OW30595   0.579   5.714   5.809
 6040SOL    HW130596   0.585   5.615   5.818
 6040SOL    HW230597   0.644   5.745   5.739
 6041SOL     OW30598   3.502   0.944   7.021
 6041SOL    HW130599   3.552   1.027   7.046
 6041SOL    HW230600   3.483   0.891   7.103
 6042SOL     OW30601   0.958   2.250   0.238
 6042SOL    HW130602   0.986   2.167   0.190
 6042SOL    HW230603   0.953   2.232   0.336
 6043SOL     OW30604   5.803   4.089   2.081
 6043SOL    HW130605   5.869   4.015   2.098
 6043SOL    HW230606   5.791   4.101   1.983
 6044SOL     OW30607   4.174   5.032   3.263
 6044SOL    HW130608   4.092   4.979   3.285
 6044SOL    HW230609   4.232   4.980   3.201
 6045SOL     OW30610   6.470   3.859   3.312
 6045SOL    HW130611   6.524   3.778   3.291
 6045SOL    HW230612   6.420   3.845   3.397
 6046SOL     OW30613   0.466   3.996   1.575
 6046SOL    HW130614   0.450   4.011   1.477
 6046SOL    HW230615   0.456   4.082   1.624
 6047SOL     OW30616   0.759   1.981   2.048
 6047SOL    HW130617   0.674   2.033   2.057
 6047SOL    HW230618   0.822   2.030   1.987
 6048SOL     OW30619   3.222   4.273   4.835
 6048SOL    HW130620   3.138   4.319   4.865
 6048SOL    HW230621   3.217   4.254   4.737
 6049SOL     OW30622   6.552   0.044   7.357
 6049SOL    HW130623   6.648   0.059   7.335
 6049SOL    HW230624   6.503   0.011   7.276
 6050SOL     OW30625   3.100   3.657   3.571
 6050SOL    HW130626   3.199   3.659   3.588
 6050SOL    HW230627   3.051   3.679   3.655
 6051SOL     OW30628   4.641   1.978   4.925
 6051SOL    HW130629   4.651   2.016   5.017
 6051SOL    HW230630   4.730   1.975   4.880
 6052SOL     OW30631   1.100   4.123   3.221
 6052SOL    HW130632   1.120   4.167   3.134
 6052SOL    HW230633   1.169   4.053   3.240
 6053SOL     OW30634   1.077   1.443   0.321
 6053SOL    HW130635   0.984   1.413   0.299
 6053SOL    HW230636   1.130   1.450   0.236
 6054SOL     OW30637   4.364   2.277   1.240
 6054SOL    HW130638   4.393   2.214   1.168
 6054SOL    HW230639   4.392   2.370   1.216
 6055SOL     OW30640   3.721   4.551   4.027
 6055SOL    HW130641   3.680   4.625   3.972
 6055SOL    HW230642   3.779   4.495   3.968
 6056SOL     OW30643   3.668   6.974   5.709
 6056SOL    HW130644   3.623   7.062   5.726
 6056SOL    HW230645   3.742   6.987   5.643
 6057SOL     OW30646   2.368   6.879   3.735
 6057SOL    HW130647   2.283   6.838   3.769
 6057SOL    HW230648   2.417   6.921   3.812
 6058SOL     OW30649   6.379   0.344   6.529
 6058SOL    HW130650   6.416   0.260   6.490
 6058SOL    HW230651   6.355   0.330   6.625
 6059SOL     OW30652   6.467   5.499   3.378
 6059SOL    HW130653   6.470   5.436   3.455
 6059SOL    HW230654   6.375   5.500   3.339
 6060SOL     OW30655   4.292   5.272   5.857
 6060SOL    HW130656   4.241   5.275   5.943
 6060SOL    HW230657   4.257   5.197   5.800
 6061SOL     OW30658   2.107   2.053   4.451
 6061SOL    HW130659   2.165   2.019   4.525
 6061SOL    HW230660   2.075   1.976   4.395
 6062SOL     OW30661   4.987   5.006   4.519
 6062SOL    HW130662   5.039   4.963   4.592
 6062SOL    HW230663   5.048   5.057   4.459
 6063SOL     OW30664   2.039   4.578   6.624
 6063SOL    HW130665   2.072   4.487   6.652
 6063SOL    HW230666   1.950   4.595   6.667
 6064SOL     OW30667   5.176   1.386   0.721
 6064SOL    HW130668   5.120   1.345   0.793
 6064SOL    HW230669   5.272   1.384   0.748
 6065SOL     OW30670   4.907   4.325   0.751
 6065SOL    HW130671   4.892   4.228   0.767
 6065SOL    HW230672   4.872   4.378   0.828
 6066SOL     OW30673   1.641   4.169   6.326
 6066SOL    HW130674   1.707   4.245   6.329
 6066SOL    HW230675   1.554   4.202   6.289
 6067SOL     OW30676   0.690   1.783   3.213
 6067SOL    HW130677   0.746   1.828   3.142
 6067SOL    HW230678   0.619   1.846   3.244
 6068SOL     OW30679   5.297   4.861   1.698
 6068SOL    HW130680   5.344   4.788   1.648
 6068SOL    HW230681   5.363   4.931   1.724
 6069SOL     OW30682   2.485   0.261   5.548
 6069SOL    HW130683   2.568   0.216   5.516
 6069SOL    HW230684   2.417   0.192   5.571
 6070SOL     OW30685   7.340   2.587   3.639
 6070SOL    HW130686   7.263   2.623   3.690
 6070SOL    HW230687   7.344   2.629   3.548
 6071SOL     OW30688   4.645   0.642   3.089
 6071SOL    HW130689   4.733   0.599   3.068
 6071SOL    HW230690   4.647   0.738   3.061
 6072SOL     OW30691   1.524   4.527   1.437
 6072SOL    HW130692   1.535   4.436   1.477
 6072SOL    HW230693   1.539   4.596   1.507
 6073SOL     OW30694   4.497   2.610   6.081
 6073SOL    HW130695   4.489   2.710   6.085
 6073SOL    HW230696   4.591   2.583   6.099
 6074SOL     OW30697   5.490   5.877   4.745
 6074SOL    HW130698   5.477   5.969   4.708
 6074SOL    HW230699   5.491   5.881   4.845
 6075SOL     OW30700   3.193   2.840   4.889
 6075SOL    HW130701   3.193   2.752   4.844
 6075SOL    HW230702   3.140   2.906   4.835
 6076SOL     OW30703   1.424   1.748   1.130
 6076SOL    HW130704   1.403   1.686   1.054
 6076SOL    HW230705   1.523   1.753   1.142
 6077SOL     OW30706   6.288   2.810   0.195
 6077SOL    HW130707   6.275   2.830   0.292
 6077SOL    HW230708   6.360   2.868   0.158
 6078SOL     OW30709   2.264   1.440   3.053
 6078SOL    HW130710   2.281   1.488   3.138
 6078SOL    HW230711   2.341   1.452   2.991
 6079SOL     OW30712   1.390   3.681   3.225
 6079SOL    HW130713   1.297   3.647   3.239
 6079SOL    HW230714   1.396   3.775   3.257
 6080SOL     OW30715   5.381   3.681   2.832
 6080SOL    HW130716   5.325   3.617   2.885
 6080SOL    HW230717   5.469   3.695   2.879
 6081SOL     OW30718   1.089   0.150   6.815
 6081SOL    HW130719   1.151   0.165   6.738
 6081SOL    HW230720   1.139   0.107   6.890
 6082SOL     OW30721   3.596   1.091   5.404
 6082SOL    HW130722   3.498   1.097   5.419
 6082SOL    HW230723   3.621   1.139   5.320
 6083SOL     OW30724   3.539   2.933   3.498
 6083SOL    HW130725   3.614   2.867   3.504
 6083SOL    HW230726   3.507   2.957   3.590
 6084SOL     OW30727   0.001   3.478   3.666
 6084SOL    HW130728  -0.053   3.558   3.690
 6084SOL    HW230729   0.097   3.495   3.689
 6085SOL     OW30730   1.928   3.773   2.077
 6085SOL    HW130731   1.999   3.726   2.025
 6085SOL    HW230732   1.970   3.838   2.140
 6086SOL     OW30733   3.547   5.561   5.721
 6086SOL    HW130734   3.561   5.625   5.646
 6086SOL    HW230735   3.635   5.538   5.762
 6087SOL     OW30736   3.412   6.977   1.566
 6087SOL    HW130737   3.505   6.946   1.547
 6087SOL    HW230738   3.374   7.020   1.484
 6088SOL     OW30739   6.625   3.564   1.259
 6088SOL    HW130740   6.598   3.568   1.356
 6088SOL    HW230741   6.700   3.499   1.249
 6089SOL     OW30742   4.239   2.315   2.720
 6089SOL    HW130743   4.281   2.279   2.804
 6089SOL    HW230744   4.254   2.252   2.645
 6090SOL     OW30745   1.466   5.621   6.779
 6090SOL    HW130746   1.423   5.531   6.781
 6090SOL    HW230747   1.560   5.611   6.746
 6091SOL     OW30748   2.017   2.832   2.362
 6091SOL    HW130749   2.003   2.822   2.263
 6091SOL    HW230750   2.109   2.866   2.379
 6092SOL     OW30751   5.436   3.649   5.906
 6092SOL    HW130752   5.339   3.627   5.894
 6092SOL    HW230753   5.448   3.748   5.907
 6093SOL     OW30754   5.353   3.719   0.545
 6093SOL    HW130755   5.303   3.756   0.467
 6093SOL    HW230756   5.421   3.786   0.575
 6094SOL     OW30757   2.017   2.255   2.766
 6094SOL    HW130758   2.088   2.234   2.698
 6094SOL    HW230759   2.059   2.254   2.857
 6095SOL     OW30760   5.997   5.318   7.141
 6095SOL    HW130761   6.058   5.315   7.062
 6095SOL    HW230762   5.979   5.224   7.172
 6096SOL     OW30763   1.129   0.560   5.948
 6096SOL    HW130764   1.201   0.561   5.878
 6096SOL    HW230765   1.131   0.647   5.998
 6097SOL     OW30766   4.071   7.281   2.538
 6097SOL    HW130767   3.978   7.268   2.572
 6097SOL    HW230768   4.081   7.374   2.503
 6098SOL     OW30769   5.361   1.126   6.043
 6098SOL    HW130770   5.432   1.060   6.015
 6098SOL    HW230771   5.401   1.217   6.049
 6099SOL     OW30772   4.658   0.557   7.213
 6099SOL    HW130773   4.562   0.535   7.202
 6099SOL    HW230774   4.687   0.619   7.140
 6100SOL     OW30775   3.155   2.753   5.970
 6100SOL    HW130776   3.238   2.730   5.919
 6100SOL    HW230777   3.107   2.669   5.995
 6101SOL     OW30778   7.252   4.911   3.905
 6101SOL    HW130779   7.345   4.881   3.881
 6101SOL    HW230780   7.189   4.880   3.833
 6102SOL     OW30781   1.926   4.375   1.904
 6102SOL    HW130782   1.975   4.454   1.939
 6102SOL    HW230783   1.828   4.394   1.901
 6103SOL     OW30784   1.581   3.932   4.513
 6103SOL    HW130785   1.591   3.834   4.533
 6103SOL    HW230786   1.669   3.977   4.528
 6104SOL     OW30787   1.607   3.254   4.108
 6104SOL    HW130788   1.673   3.181   4.127
 6104SOL    HW230789   1.601   3.269   4.009
 6105SOL     OW30790   4.503   7.142   5.207
 6105SOL    HW130791   4.577   7.128   5.273
 6105SOL    HW230792   4.512   7.233   5.167
 6106SOL     OW30793   0.538   6.570   0.099
 6106SOL    HW130794   0.596   6.489   0.105
 6106SOL    HW230795   0.576   6.633   0.032
 6107SOL     OW30796   3.208   5.930   5.038
 6107SOL    HW130797   3.166   5.843   5.068
 6107SOL    HW230798   3.233   5.923   4.942
 6108SOL     OW30799   2.403   1.517   1.379
 6108SOL    HW130800   2.332   1.503   1.447
 6108SOL    HW230801   2.488   1.473   1.408
 6109SOL     OW30802   4.470   1.552   7.197
 6109SOL    HW130803   4.397   1.594   7.143
 6109SOL    HW230804   4.461   1.452   7.193
 6110SOL     OW30805   2.863   6.225   2.152
 6110SOL    HW130806   2.774   6.216   2.109
 6110SOL    HW230807   2.932   6.245   2.083
 6111SOL     OW30808   3.267   0.564   2.906
 6111SOL    HW130809   3.235   0.486   2.960
 6111SOL    HW230810   3.244   0.649   2.954
 6112SOL     OW30811   3.163   5.187   3.835
 6112SOL    HW130812   3.167   5.087   3.832
 6112SOL    HW230813   3.084   5.219   3.784
 6113SOL     OW30814   0.759   5.334   4.093
 6113SOL    HW130815   0.827   5.403   4.119
 6113SOL    HW230816   0.672   5.378   4.073
 6114SOL     OW30817   6.347   2.155   6.918
 6114SOL    HW130818   6.339   2.092   6.840
 6114SOL    HW230819   6.302   2.115   6.998
 6115SOL     OW30820   5.584   3.441   1.061
 6115SOL    HW130821   5.591   3.522   1.002
 6115SOL    HW230822   5.564   3.361   1.004
 6116SOL     OW30823   1.224   5.691   6.621
 6116SOL    HW130824   1.159   5.683   6.697
 6116SOL    HW230825   1.317   5.698   6.658
 6117SOL     OW30826   4.872   2.236   5.346
 6117SOL    HW130827   4.813   2.277   5.415
 6117SOL    HW230828   4.890   2.140   5.369
 6118SOL     OW30829   7.142   0.290   6.723
 6118SOL    HW130830   7.157   0.222   6.652
 6118SOL    HW230831   7.080   0.361   6.689
 6119SOL     OW30832   5.795   2.931   2.955
 6119SOL    HW130833   5.700   2.948   2.927
 6119SOL    HW230834   5.849   3.014   2.941
 6120SOL     OW30835   4.937   3.652   1.602
 6120SOL    HW130836   4.841   3.641   1.576
 6120SOL    HW230837   4.994   3.645   1.521
 6121SOL     OW30838   7.275   5.455   6.817
 6121SOL    HW130839   7.224   5.526   6.866
 6121SOL    HW230840   7.305   5.490   6.729
 6122SOL     OW30841   6.804   2.123   4.933
 6122SOL    HW130842   6.877   2.148   4.996
 6122SOL    HW230843   6.750   2.205   4.911
 6123SOL     OW30844   3.984   0.546   5.412
 6123SOL    HW130845   3.896   0.592   5.421
 6123SOL    HW230846   4.058   0.614   5.423
 6124SOL     OW30847   5.085   0.801   1.678
 6124SOL    HW130848   5.109   0.737   1.605
 6124SOL    HW230849   5.156   0.871   1.686
 6125SOL     OW30850   4.461   6.053   6.448
 6125SOL    HW130851   4.470   5.993   6.528
 6125SOL    HW230852   4.479   6.001   6.365
 6126SOL     OW30853   4.314   6.612   4.964
 6126SOL    HW130854   4.357   6.693   4.924
 6126SOL    HW230855   4.219   6.606   4.932
 6127SOL     OW30856   1.042   1.539   6.364
 6127SOL    HW130857   1.116   1.540   6.297
 6127SOL    HW230858   0.967   1.597   6.331
 6128SOL     OW30859   6.618   5.589   4.178
 6128SOL    HW130860   6.712   5.554   4.180
 6128SOL    HW230861   6.606   5.656   4.251
 6129SOL     OW30862   0.107   3.859   4.113
 6129SOL    HW130863   0.032   3.894   4.057
 6129SOL    HW230864   0.143   3.775   4.074
 6130SOL     OW30865   2.075   6.729   0.045
 6130SOL    HW130866   2.006   6.725  -0.027
 6130SOL    HW230867   2.049   6.669   0.120
 6131SOL     OW30868   6.344   2.023   4.796
 6131SOL    HW130869   6.311   2.045   4.705
 6131SOL    HW230870   6.362   2.107   4.847
 6132SOL     OW30871   2.511   5.367   4.630
 6132SOL    HW130872   2.431   5.307   4.633
 6132SOL    HW230873   2.569   5.350   4.710
 6133SOL     OW30874   4.256   6.848   2.520
 6133SOL    HW130875   4.220   6.783   2.452
 6133SOL    HW230876   4.325   6.906   2.477
 6134SOL     OW30877   3.267   5.900   2.092
 6134SOL    HW130878   3.186   5.913   2.035
 6134SOL    HW230879   3.294   5.803   2.090
 6135SOL     OW30880   6.976   0.290   0.818
 6135SOL    HW130881   6.966   0.385   0.847
 6135SOL    HW230882   6.889   0.242   0.828
 6136SOL     OW30883   7.165   2.358   3.546
 6136SOL    HW130884   7.239   2.394   3.603
 6136SOL    HW230885   7.077   2.390   3.582
 6137SOL     OW30886   5.917   0.152   2.410
 6137SOL    HW130887   6.002   0.139   2.360
 6137SOL    HW230888   5.860   0.070   2.400
 6138SOL     OW30889   3.817   6.071   5.284
 6138SOL    HW130890   3.734   6.026   5.316
 6138SOL    HW230891   3.857   6.019   5.208
 6139SOL     OW30892   4.484   1.811   2.775
 6139SOL    HW130893   4.438   1.892   2.812
 6139SOL    HW230894   4.425   1.768   2.707
 6140SOL     OW30895   5.261   3.769   3.208
 6140SOL    HW130896   5.195   3.694   3.205
 6140SOL    HW230897   5.214   3.855   3.187
 6141SOL     OW30898   2.076   3.607   3.362
 6141SOL    HW130899   1.981   3.629   3.388
 6141SOL    HW230900   2.134   3.611   3.443
 6142SOL     OW30901   6.605   4.052   0.437
 6142SOL    HW130902   6.604   3.953   0.440
 6142SOL    HW230903   6.626   4.088   0.527
 6143SOL     OW30904   2.366   6.944   2.401
 6143SOL    HW130905   2.350   6.848   2.425
 6143SOL    HW230906   2.280   6.994   2.403
 6144SOL     OW30907   0.510   5.860   0.277
 6144SOL    HW130908   0.483   5.833   0.369
 6144SOL    HW230909   0.464   5.801   0.210
 6145SOL     OW30910   0.641   0.978   7.336
 6145SOL    HW130911   0.663   0.882   7.316
 6145SOL    HW230912   0.544   0.994   7.319
 6146SOL     OW30913   2.799   0.675   1.595
 6146SOL    HW130914   2.813   0.753   1.535
 6146SOL    HW230915   2.722   0.695   1.657
 6147SOL     OW30916   2.186   1.665   7.201
 6147SOL    HW130917   2.186   1.759   7.167
 6147SOL    HW230918   2.185   1.602   7.123
 6148SOL     OW30919   6.506   5.931   0.165
 6148SOL    HW130920   6.514   5.839   0.203
 6148SOL    HW230921   6.597   5.970   0.151
 6149SOL     OW30922   6.033   3.473   6.221
 6149SOL    HW130923   6.069   3.480   6.128
 6149SOL    HW230924   6.066   3.550   6.276
 6150SOL     OW30925   3.824   2.892   3.611
 6150SOL    HW130926   3.808   2.828   3.687
 6150SOL    HW230927   3.778   2.978   3.630
 6151SOL     OW30928   5.959   3.542   3.756
 6151SOL    HW130929   6.019   3.619   3.732
 6151SOL    HW230930   5.884   3.575   3.813
 6152SOL     OW30931   2.462   5.435   0.732
 6152SOL    HW130932   2.412   5.449   0.646
 6152SOL    HW230933   2.507   5.520   0.757
 6153SOL     OW30934   2.204   4.957   0.399
 6153SOL    HW130935   2.219   4.910   0.486
 6153SOL    HW230936   2.254   4.910   0.326
 6154SOL     OW30937   6.794   2.012   0.263
 6154SOL    HW130938   6.742   2.062   0.332
 6154SOL    HW230939   6.741   1.934   0.231
 6155SOL     OW30940   3.096   1.148   1.521
 6155SOL    HW130941   3.088   1.247   1.514
 6155SOL    HW230942   3.082   1.106   1.431
 6156SOL     OW30943   1.808   5.688   0.351
 6156SOL    HW130944   1.812   5.701   0.450
 6156SOL    HW230945   1.897   5.655   0.318
 6157SOL     OW30946   3.370   3.197   1.982
 6157SOL    HW130947   3.405   3.177   1.891
 6157SOL    HW230948   3.329   3.115   2.021
 6158SOL     OW30949   6.986   4.773   4.231
 6158SOL    HW130950   6.887   4.771   4.214
 6158SOL    HW230951   7.033   4.719   4.161
 6159SOL     OW30952   1.614   5.248   0.813
 6159SOL    HW130953   1.697   5.205   0.849
 6159SOL    HW230954   1.624   5.261   0.715
 6160SOL     OW30955   4.340   3.705   5.494
 6160SOL    HW130956   4.320   3.609   5.475
 6160SOL    HW230957   4.255   3.753   5.515
 6161SOL     OW30958   1.755   1.006   1.896
 6161SOL    HW130959   1.730   1.029   1.990
 6161SOL    HW230960   1.682   1.033   1.834
 6162SOL     OW30961   1.305   2.820   5.437
 6162SOL    HW130962   1.332   2.860   5.349
 6162SOL    HW230963   1.336   2.880   5.511
 6163SOL     OW30964   3.749   6.573   5.462
 6163SOL    HW130965   3.664   6.611   5.498
 6163SOL    HW230966   3.810   6.549   5.538
 6164SOL     OW30967   3.543   4.702   3.880
 6164SOL    HW130968   3.515   4.778   3.938
 6164SOL    HW230969   3.463   4.664   3.834
 6165SOL     OW30970   2.382   4.297   4.174
 6165SOL    HW130971   2.398   4.286   4.076
 6165SOL    HW230972   2.304   4.241   4.201
 6166SOL     OW30973   6.501   2.685   0.460
 6166SOL    HW130974   6.457   2.604   0.421
 6166SOL    HW230975   6.589   2.700   0.414
 6167SOL     OW30976   3.840   0.236   2.544
 6167SOL    HW130977   3.938   0.247   2.529
 6167SOL    HW230978   3.822   0.225   2.641
 6168SOL     OW30979   3.083   6.523   6.300
 6168SOL    HW130980   2.983   6.533   6.296
 6168SOL    HW230981   3.107   6.434   6.339
 6169SOL     OW30982   3.202   5.599   3.002
 6169SOL    HW130983   3.112   5.626   2.967
 6169SOL    HW230984   3.273   5.626   2.937
 6170SOL     OW30985   3.571   3.369   1.778
 6170SOL    HW130986   3.533   3.277   1.766
 6170SOL    HW230987   3.657   3.376   1.729
 6171SOL     OW30988   2.247   1.207   5.477
 6171SOL    HW130989   2.249   1.254   5.389
 6171SOL    HW230990   2.297   1.120   5.469
 6172SOL     OW30991   2.579   4.121   0.820
 6172SOL    HW130992   2.498   4.076   0.857
 6172SOL    HW230993   2.645   4.053   0.788
 6173SOL     OW30994   2.213   1.978   4.682
 6173SOL    HW130995   2.122   1.946   4.709
 6173SOL    HW230996   2.228   2.070   4.717
 6174SOL     OW30997   1.126   5.885   4.555
 6174SOL    HW130998   1.156   5.831   4.633
 6174SOL    HW230999   1.193   5.877   4.481
 6175SOL     OW31000   2.925   0.511   3.304
 6175SOL    HW131001   2.866   0.560   3.367
 6175SOL    HW231002   2.991   0.456   3.356
 6176SOL     OW31003   4.787   3.605   5.937
 6176SOL    HW131004   4.689   3.619   5.951
 6176SOL    HW231005   4.808   3.508   5.941
 6177SOL     OW31006   1.348   5.443   4.635
 6177SOL    HW131007   1.312   5.446   4.729
 6177SOL    HW231008   1.332   5.531   4.591
 6178SOL     OW31009   5.845   6.088   3.412
 6178SOL    HW131010   5.861   6.060   3.507
 6178SOL    HW231011   5.746   6.094   3.396
 6179SOL     OW31012   5.294   3.589   6.201
 6179SOL    HW131013   5.307   3.648   6.281
 6179SOL    HW231014   5.307   3.642   6.117
 6180SOL     OW31015   0.136   6.141   0.192
 6180SOL    HW131016   0.230   6.164   0.219
 6180SOL    HW231017   0.073   6.166   0.265
 6181SOL     OW31018   6.771   7.256   1.519
 6181SOL    HW131019   6.808   7.345   1.545
 6181SOL    HW231020   6.672   7.255   1.533
 6182SOL     OW31021   0.232   3.218   4.108
 6182SOL    HW131022   0.140   3.193   4.138
 6182SOL    HW231023   0.284   3.254   4.185
 6183SOL     OW31024   5.009   0.667   0.145
 6183SOL    HW131025   5.076   0.593   0.148
 6183SOL    HW231026   4.922   0.634   0.109
 6184SOL     OW31027   0.445   3.055   2.597
 6184SOL    HW131028   0.524   3.083   2.543
 6184SOL    HW231029   0.476   3.014   2.683
 6185SOL     OW31030   3.994   6.744   3.680
 6185SOL    HW131031   4.011   6.797   3.762
 6185SOL    HW231032   4.081   6.717   3.638
 6186SOL     OW31033   4.014   6.392   3.315
 6186SOL    HW131034   3.995   6.301   3.279
 6186SOL    HW231035   3.940   6.454   3.289
 6187SOL     OW31036   1.884   4.928   1.961
 6187SOL    HW131037   1.946   5.003   1.938
 6187SOL    HW231038   1.869   4.925   2.060
 6188SOL     OW31039   4.164   7.034   2.704
 6188SOL    HW131040   4.152   7.103   2.633
 6188SOL    HW231041   4.149   6.943   2.665
 6189SOL     OW31042   4.393   0.745   5.108
 6189SOL    HW131043   4.334   0.825   5.103
 6189SOL    HW231044   4.351   0.669   5.059
 6190SOL     OW31045   5.607   0.459   7.134
 6190SOL    HW131046   5.667   0.504   7.068
 6190SOL    HW231047   5.539   0.525   7.168
 6191SOL     OW31048   7.343   0.145   6.009
 6191SOL    HW131049   7.399   0.070   5.972
 6191SOL    HW231050   7.320   0.209   5.935
 6192SOL     OW31051   4.011   6.410   6.291
 6192SOL    HW131052   4.067   6.328   6.303
 6192SOL    HW231053   3.914   6.386   6.300
 6193SOL     OW31054   4.997   0.936   2.253
 6193SOL    HW131055   4.969   1.031   2.271
 6193SOL    HW231056   5.091   0.922   2.283
 6194SOL     OW31057   4.172   3.543   4.736
 6194SOL    HW131058   4.248   3.478   4.743
 6194SOL    HW231059   4.189   3.621   4.796
 6195SOL     OW31060   5.054   3.485   7.013
 6195SOL    HW131061   5.148   3.515   7.031
 6195SOL    HW231062   5.018   3.533   6.933
 6196SOL     OW31063   7.179   2.555   1.561
 6196SOL    HW131064   7.184   2.457   1.541
 6196SOL    HW231065   7.146   2.604   1.480
 6197SOL     OW31066   5.025   1.537   4.549
 6197SOL    HW131067   5.071   1.459   4.507
 6197SOL    HW231068   4.943   1.506   4.597
 6198SOL     OW31069   0.079   2.460   2.330
 6198SOL    HW131070   0.047   2.514   2.252
 6198SOL    HW231071   0.175   2.481   2.348
 6199SOL     OW31072   4.891   5.163   6.718
 6199SOL    HW131073   4.948   5.192   6.795
 6199SOL    HW231074   4.944   5.169   6.633
 6200SOL     OW31075   3.541   3.329   6.259
 6200SOL    HW131076   3.450   3.294   6.233
 6200SOL    HW231077   3.537   3.366   6.351
 6201SOL     OW31078   4.175   4.313   0.110
 6201SOL    HW131079   4.172   4.410   0.132
 6201SOL    HW231080   4.155   4.259   0.192
 6202SOL     OW31081   3.505   2.775   2.155
 6202SOL    HW131082   3.502   2.754   2.253
 6202SOL    HW231083   3.428   2.835   2.132
 6203SOL     OW31084   4.545   0.233   1.686
 6203SOL    HW131085   4.492   0.276   1.613
 6203SOL    HW231086   4.620   0.180   1.646
 6204SOL     OW31087   4.321   5.437   2.401
 6204SOL    HW131088   4.309   5.497   2.481
 6204SOL    HW231089   4.248   5.454   2.335
 6205SOL     OW31090   3.925   2.994   5.303
 6205SOL    HW131091   3.832   2.975   5.271
 6205SOL    HW231092   3.943   2.942   5.386
 6206SOL     OW31093   0.964   2.999   5.882
 6206SOL    HW131094   1.018   3.080   5.906
 6206SOL    HW231095   0.945   2.946   5.964
 6207SOL     OW31096   4.059   0.890   7.107
 6207SOL    HW131097   4.024   0.802   7.139
 6207SOL    HW231098   4.052   0.895   7.008
 6208SOL     OW31099   2.172   5.054   2.238
 6208SOL    HW131100   2.142   5.124   2.173
 6208SOL    HW231101   2.092   5.002   2.270
 6209SOL     OW31102   3.341   0.696   0.279
 6209SOL    HW131103   3.264   0.663   0.226
 6209SOL    HW231104   3.390   0.767   0.228
 6210SOL     OW31105   1.149   6.508   5.704
 6210SOL    HW131106   1.111   6.495   5.613
 6210SOL    HW231107   1.234   6.456   5.713
 6211SOL     OW31108   2.354   1.898   0.102
 6211SOL    HW131109   2.298   1.914   0.021
 6211SOL    HW231110   2.363   1.800   0.118
 6212SOL     OW31111   5.931   7.129   6.979
 6212SOL    HW131112   5.976   7.074   6.908
 6212SOL    HW231113   5.982   7.214   6.993
 6213SOL     OW31114   2.904   4.478   7.088
 6213SOL    HW131115   2.967   4.544   7.048
 6213SOL    HW231116   2.950   4.428   7.161
 6214SOL     OW31117   2.559   5.483   3.511
 6214SOL    HW131118   2.583   5.404   3.454
 6214SOL    HW231119   2.554   5.455   3.607
 6215SOL     OW31120   0.201   4.250   7.278
 6215SOL    HW131121   0.183   4.231   7.182
 6215SOL    HW231122   0.293   4.288   7.288
 6216SOL     OW31123   1.765   7.052   7.116
 6216SOL    HW131124   1.782   7.046   7.214
 6216SOL    HW231125   1.666   7.062   7.100
 6217SOL     OW31126   3.859   5.637   1.781
 6217SOL    HW131127   3.885   5.661   1.688
 6217SOL    HW231128   3.785   5.569   1.779
 6218SOL     OW31129   1.781   3.594   3.955
 6218SOL    HW131130   1.804   3.691   3.953
 6218SOL    HW231131   1.697   3.579   3.902
 6219SOL     OW31132   1.361   0.491   5.818
 6219SOL    HW131133   1.449   0.534   5.838
 6219SOL    HW231134   1.355   0.472   5.720
 6220SOL     OW31135   3.135   4.479   0.176
 6220SOL    HW131136   3.186   4.406   0.132
 6220SOL    HW231137   3.144   4.471   0.275
 6221SOL     OW31138   6.224   3.532   2.033
 6221SOL    HW131139   6.230   3.433   2.033
 6221SOL    HW231140   6.136   3.561   1.995
 6222SOL     OW31141   7.316   2.548   4.118
 6222SOL    HW131142   7.249   2.576   4.188
 6222SOL    HW231143   7.387   2.617   4.110
 6223SOL     OW31144   3.295   4.087   1.807
 6223SOL    HW131145   3.361   4.040   1.749
 6223SOL    HW231146   3.215   4.028   1.822
 6224SOL     OW31147   4.367   3.463   5.057
 6224SOL    HW131148   4.276   3.480   5.093
 6224SOL    HW231149   4.435   3.487   5.127
 6225SOL     OW31150   3.962   2.109   4.356
 6225SOL    HW131151   3.865   2.129   4.372
 6225SOL    HW231152   3.988   2.027   4.406
 6226SOL     OW31153   1.267   0.839   2.523
 6226SOL    HW131154   1.317   0.766   2.569
 6226SOL    HW231155   1.312   0.927   2.541
 6227SOL     OW31156   2.564   4.092   2.518
 6227SOL    HW131157   2.553   4.020   2.449
 6227SOL    HW231158   2.582   4.179   2.472
 6228SOL     OW31159   6.440   2.883   4.486
 6228SOL    HW131160   6.372   2.810   4.487
 6228SOL    HW231161   6.532   2.844   4.477
 6229SOL     OW31162   3.923   5.745   3.232
 6229SOL    HW131163   3.985   5.795   3.172
 6229SOL    HW231164   3.906   5.798   3.315
 6230SOL     OW31165   1.691   7.191   6.508
 6230SOL    HW131166   1.783   7.215   6.537
 6230SOL    HW231167   1.658   7.259   6.442
 6231SOL     OW31168   0.299   3.386   3.580
 6231SOL    HW131169   0.372   3.318   3.590
 6231SOL    HW231170   0.254   3.374   3.492
 6232SOL     OW31171   3.976   5.043   2.691
 6232SOL    HW131172   3.980   5.096   2.776
 6232SOL    HW231173   3.882   5.020   2.670
 6233SOL     OW31174   6.118   0.555   3.872
 6233SOL    HW131175   6.021   0.563   3.893
 6233SOL    HW231176   6.169   0.629   3.917
 6234SOL     OW31177   4.520   0.514   3.407
 6234SOL    HW131178   4.583   0.503   3.484
 6234SOL    HW231179   4.550   0.457   3.331
 6235SOL     OW31180   4.291   0.093   3.002
 6235SOL    HW131181   4.345   0.176   3.019
 6235SOL    HW231182   4.204   0.118   2.960
 6236SOL     OW31183   5.267   2.835   6.056
 6236SOL    HW131184   5.323   2.758   6.086
 6236SOL    HW231185   5.321   2.919   6.060
 6237SOL     OW31186   6.239   1.854   1.767
 6237SOL    HW131187   6.328   1.849   1.814
 6237SOL    HW231188   6.169   1.884   1.832
 6238SOL     OW31189   3.599   5.650   5.228
 6238SOL    HW131190   3.545   5.734   5.231
 6238SOL    HW231191   3.694   5.670   5.253
 6239SOL     OW31192   5.666   6.102   2.344
 6239SOL    HW131193   5.662   6.198   2.317
 6239SOL    HW231194   5.740   6.055   2.295
 6240SOL     OW31195   1.031   1.692   1.810
 6240SOL    HW131196   1.103   1.627   1.784
 6240SOL    HW231197   1.067   1.785   1.804
 6241SOL     OW31198   1.012   1.527   2.064
 6241SOL    HW131199   1.075   1.567   2.130
 6241SOL    HW231200   0.992   1.594   1.992
 6242SOL     OW31201   4.852   5.790   4.084
 6242SOL    HW131202   4.872   5.871   4.140
 6242SOL    HW231203   4.913   5.715   4.109
 6243SOL     OW31204   1.809   4.369   4.667
 6243SOL    HW131205   1.893   4.408   4.630
 6243SOL    HW231206   1.786   4.416   4.753
 6244SOL     OW31207   5.165   5.901   4.433
 6244SOL    HW131208   5.162   5.853   4.346
 6244SOL    HW231209   5.260   5.928   4.453
 6245SOL     OW31210   6.150   6.646   4.327
 6245SOL    HW131211   6.179   6.645   4.231
 6245SOL    HW231212   6.098   6.729   4.345
 6246SOL     OW31213   1.396   7.025   6.078
 6246SOL    HW131214   1.443   7.106   6.042
 6246SOL    HW231215   1.463   6.965   6.121
 6247SOL     OW31216   6.295   3.793   2.019
 6247SOL    HW131217   6.273   3.696   2.030
 6247SOL    HW231218   6.330   3.809   1.926
 6248SOL     OW31219   2.503   5.908   4.335
 6248SOL    HW131220   2.564   5.895   4.257
 6248SOL    HW231221   2.417   5.860   4.318
 6249SOL     OW31222   0.772   4.376   5.847
 6249SOL    HW131223   0.818   4.402   5.932
 6249SOL    HW231224   0.764   4.277   5.842
 6250SOL     OW31225   4.264   2.724   3.537
 6250SOL    HW131226   4.175   2.714   3.491
 6250SOL    HW231227   4.310   2.636   3.542
 6251SOL     OW31228   1.736   3.454   4.999
 6251SOL    HW131229   1.832   3.456   5.029
 6251SOL    HW231230   1.694   3.368   5.028
 6252SOL     OW31231   3.816   0.082   1.597
 6252SOL    HW131232   3.816  -0.015   1.575
 6252SOL    HW231233   3.882   0.100   1.670
 6253SOL     OW31234   5.625   6.624   1.376
 6253SOL    HW131235   5.559   6.695   1.402
 6253SOL    HW231236   5.587   6.571   1.300
 6254SOL     OW31237   5.415   0.440   1.648
 6254SOL    HW131238   5.328   0.481   1.619
 6254SOL    HW231239   5.491   0.487   1.604
 6255SOL     OW31240   2.125   3.592   2.009
 6255SOL    HW131241   2.091   3.504   1.977
 6255SOL    HW231242   2.221   3.601   1.985
 6256SOL     OW31243   1.864   0.980   6.948
 6256SOL    HW131244   1.792   0.955   7.013
 6256SOL    HW231245   1.898   0.898   6.902
 6257SOL     OW31246   2.625   5.616   5.363
 6257SOL    HW131247   2.707   5.663   5.396
 6257SOL    HW231248   2.584   5.563   5.437
 6258SOL     OW31249   5.978   2.437   7.342
 6258SOL    HW131250   6.051   2.505   7.350
 6258SOL    HW231251   5.945   2.434   7.247
 6259SOL     OW31252   3.600   2.923   3.054
 6259SOL    HW131253   3.509   2.889   3.079
 6259SOL    HW231254   3.603   2.939   2.956
 6260SOL     OW31255   1.115   5.997   6.209
 6260SOL    HW131256   1.041   6.064   6.204
 6260SOL    HW231257   1.139   5.982   6.305
 6261SOL     OW31258   0.010   3.381   0.567
 6261SOL    HW131259   0.062   3.310   0.521
 6261SOL    HW231260   0.073   3.444   0.613
 6262SOL     OW31261   1.333   4.682   4.106
 6262SOL    HW131262   1.279   4.766   4.106
 6262SOL    HW231263   1.338   4.647   4.012
 6263SOL     OW31264   4.883   3.548   6.420
 6263SOL    HW131265   4.801   3.500   6.389
 6263SOL    HW231266   4.869   3.580   6.514
 6264SOL     OW31267   1.585   2.800   0.428
 6264SOL    HW131268   1.520   2.737   0.386
 6264SOL    HW231269   1.543   2.843   0.507
 6265SOL     OW31270   5.147   4.062   0.861
 6265SOL    HW131271   5.198   4.057   0.775
 6265SOL    HW231272   5.210   4.046   0.937
 6266SOL     OW31273   4.160   0.349   0.799
 6266SOL    HW131274   4.062   0.334   0.791
 6266SOL    HW231275   4.204   0.326   0.713
 6267SOL     OW31276   4.475   3.484   7.277
 6267SOL    HW131277   4.474   3.554   7.205
 6267SOL    HW231278   4.410   3.412   7.255
 6268SOL     OW31279   0.456   5.027   2.237
 6268SOL    HW131280   0.409   4.982   2.313
 6268SOL    HW231281   0.454   4.968   2.157
 6269SOL     OW31282   1.489   0.467   0.851
 6269SOL    HW131283   1.409   0.445   0.907
 6269SOL    HW231284   1.503   0.566   0.848
 6270SOL     OW31285   5.802   6.850   1.978
 6270SOL    HW131286   5.883   6.894   2.017
 6270SOL    HW231287   5.782   6.765   2.028
 6271SOL     OW31288   1.200   3.228   2.581
 6271SOL    HW131289   1.103   3.235   2.605
 6271SOL    HW231290   1.249   3.308   2.614
 6272SOL     OW31291   1.817   6.619   5.893
 6272SOL    HW131292   1.753   6.658   5.827
 6272SOL    HW231293   1.773   6.612   5.982
 6273SOL     OW31294   6.934   5.236   4.393
 6273SOL    HW131295   6.982   5.250   4.307
 6273SOL    HW231296   6.859   5.302   4.401
 6274SOL     OW31297   2.502   1.341   5.069
 6274SOL    HW131298   2.417   1.293   5.092
 6274SOL    HW231299   2.553   1.288   5.001
 6275SOL     OW31300   5.923   4.961   0.262
 6275SOL    HW131301   5.832   4.979   0.299
 6275SOL    HW231302   5.915   4.919   0.171
 6276SOL     OW31303   0.402   5.174   4.013
 6276SOL    HW131304   0.449   5.086   4.026
 6276SOL    HW231305   0.305   5.161   4.031
 6277SOL     OW31306   0.084   6.971   6.815
 6277SOL    HW131307   0.109   7.063   6.787
 6277SOL    HW231308   0.058   6.918   6.734
 6278SOL     OW31309   2.020   1.669   0.867
 6278SOL    HW131310   1.979   1.759   0.883
 6278SOL    HW231311   1.988   1.633   0.779
 6279SOL     OW31312   3.114   4.442   3.204
 6279SOL    HW131313   3.085   4.347   3.220
 6279SOL    HW231314   3.148   4.451   3.111
 6280SOL     OW31315   4.902   0.054   0.606
 6280SOL    HW131316   4.864   0.138   0.644
 6280SOL    HW231317   4.835   0.011   0.546
 6281SOL     OW31318   1.130   4.935   0.219
 6281SOL    HW131319   1.040   4.891   0.215
 6281SOL    HW231320   1.202   4.867   0.205
 6282SOL     OW31321   2.497   0.688   3.289
 6282SOL    HW131322   2.486   0.642   3.377
 6282SOL    HW231323   2.415   0.675   3.234
 6283SOL     OW31324   4.311   0.941   0.079
 6283SOL    HW131325   4.307   0.944   0.179
 6283SOL    HW231326   4.404   0.920   0.050
 6284SOL     OW31327   2.929   3.320   2.934
 6284SOL    HW131328   3.025   3.291   2.932
 6284SOL    HW231329   2.923   3.417   2.912
 6285SOL     OW31330   3.037   4.720   5.282
 6285SOL    HW131331   2.966   4.788   5.303
 6285SOL    HW231332   3.122   4.746   5.327
 6286SOL     OW31333   0.401   2.055   5.795
 6286SOL    HW131334   0.337   2.100   5.857
 6286SOL    HW231335   0.475   2.118   5.771
 6287SOL     OW31336   2.280   1.911   1.634
 6287SOL    HW131337   2.287   1.930   1.536
 6287SOL    HW231338   2.217   1.835   1.649
 6288SOL     OW31339   3.639   5.581   3.629
 6288SOL    HW131340   3.635   5.501   3.689
 6288SOL    HW231341   3.727   5.585   3.582
 6289SOL     OW31342   5.735   4.292   2.244
 6289SOL    HW131343   5.806   4.361   2.231
 6289SOL    HW231344   5.750   4.216   2.181
 6290SOL     OW31345   4.903   0.701   2.823
 6290SOL    HW131346   4.892   0.637   2.899
 6290SOL    HW231347   4.868   0.659   2.739
 6291SOL     OW31348   2.387   2.319   2.584
 6291SOL    HW131349   2.464   2.275   2.539
 6291SOL    HW231350   2.308   2.259   2.581
 6292SOL     OW31351   0.060   7.336   2.133
 6292SOL    HW131352   0.093   7.290   2.050
 6292SOL    HW231353   0.138   7.375   2.182
 6293SOL     OW31354   0.235   6.815   0.365
 6293SOL    HW131355   0.148   6.807   0.414
 6293SOL    HW231356   0.274   6.725   0.350
 6294SOL     OW31357   6.429   2.728   5.065
 6294SOL    HW131358   6.419   2.805   5.127
 6294SOL    HW231359   6.491   2.753   4.990
 6295SOL     OW31360   4.415   7.330   3.663
 6295SOL    HW131361   4.386   7.289   3.577
 6295SOL    HW231362   4.515   7.340   3.663
 6296SOL     OW31363   5.037   0.884   6.097
 6296SOL    HW131364   4.940   0.862   6.085
 6296SOL    HW231365   5.057   0.972   6.054
 6297SOL     OW31366   6.157   4.021   2.295
 6297SOL    HW131367   6.107   4.009   2.209
 6297SOL    HW231368   6.253   3.996   2.281
 6298SOL     OW31369   5.928   6.881   6.431
 6298SOL    HW131370   5.942   6.974   6.397
 6298SOL    HW231371   5.866   6.883   6.510
 6299SOL     OW31372   6.132   6.767   3.177
 6299SOL    HW131373   6.132   6.783   3.078
 6299SOL    HW231374   6.105   6.851   3.224
 6300SOL     OW31375   5.472   1.124   1.211
 6300SOL    HW131376   5.537   1.048   1.215
 6300SOL    HW231377   5.380   1.089   1.191
 6301SOL     OW31378   4.400   3.876   5.104
 6301SOL    HW131379   4.426   3.971   5.087
 6301SOL    HW231380   4.451   3.842   5.183
 6302SOL     OW31381   6.780   1.246   0.492
 6302SOL    HW131382   6.829   1.286   0.414
 6302SOL    HW231383   6.682   1.260   0.480
 6303SOL     OW31384   4.633   5.189   4.411
 6303SOL    HW131385   4.608   5.129   4.335
 6303SOL    HW231386   4.645   5.282   4.377
 6304SOL     OW31387   2.037   3.665   1.667
 6304SOL    HW131388   2.026   3.734   1.595
 6304SOL    HW231389   1.954   3.664   1.725
 6305SOL     OW31390   5.686   2.932   1.459
 6305SOL    HW131391   5.606   2.894   1.506
 6305SOL    HW231392   5.742   2.858   1.423
 6306SOL     OW31393   5.730   2.911   0.242
 6306SOL    HW131394   5.830   2.908   0.241
 6306SOL    HW231395   5.699   2.996   0.200
 6307SOL     OW31396   6.038   6.747   5.874
 6307SOL    HW131397   5.973   6.703   5.937
 6307SOL    HW231398   6.043   6.694   5.790
 6308SOL     OW31399   1.944   4.655   3.500
 6308SOL    HW131400   1.878   4.609   3.559
 6308SOL    HW231401   1.985   4.589   3.438
 6309SOL     OW31402   6.721   7.040   0.473
 6309SOL    HW131403   6.793   7.037   0.542
 6309SOL    HW231404   6.633   7.018   0.515
 6310SOL     OW31405   2.096   7.273   5.628
 6310SOL    HW131406   2.116   7.177   5.607
 6310SOL    HW231407   2.019   7.277   5.691
 6311SOL     OW31408   3.401   2.655   5.899
 6311SOL    HW131409   3.397   2.592   5.822
 6311SOL    HW231410   3.457   2.615   5.972
 6312SOL     OW31411   2.958   0.459   2.931
 6312SOL    HW131412   2.898   0.439   2.853
 6312SOL    HW231413   2.930   0.545   2.973
 6313SOL     OW31414   5.359   1.665   1.158
 6313SOL    HW131415   5.290   1.699   1.222
 6313SOL    HW231416   5.313   1.622   1.080
 6314SOL     OW31417   1.950   4.991   5.361
 6314SOL    HW131418   1.897   5.024   5.283
 6314SOL    HW231419   2.004   5.066   5.399
 6315SOL     OW31420   2.181   6.832   2.198
 6315SOL    HW131421   2.130   6.768   2.141
 6315SOL    HW231422   2.164   6.811   2.294
 6316SOL     OW31423   6.302   0.191   4.067
 6316SOL    HW131424   6.321   0.279   4.109
 6316SOL    HW231425   6.377   0.166   4.007
 6317SOL     OW31426   4.986   5.855   2.020
 6317SOL    HW131427   4.896   5.899   2.022
 6317SOL    HW231428   4.977   5.763   1.983
 6318SOL     OW31429   5.987   2.057   7.189
 6318SOL    HW131430   6.033   2.109   7.117
 6318SOL    HW231431   6.056   2.016   7.249
 6319SOL     OW31432   4.343   1.493   0.942
 6319SOL    HW131433   4.244   1.508   0.944
 6319SOL    HW231434   4.382   1.517   1.031
 6320SOL     OW31435   0.298   3.860   4.526
 6320SOL    HW131436   0.292   3.891   4.431
 6320SOL    HW231437   0.214   3.883   4.574
 6321SOL     OW31438   5.549   2.065   3.436
 6321SOL    HW131439   5.607   2.075   3.355
 6321SOL    HW231440   5.569   1.977   3.480
 6322SOL     OW31441   0.166   3.326   6.965
 6322SOL    HW131442   0.130   3.389   6.896
 6322SOL    HW231443   0.097   3.256   6.984
 6323SOL     OW31444   5.075   3.133   5.607
 6323SOL    HW131445   5.040   3.165   5.519
 6323SOL    HW231446   5.093   3.212   5.666
 6324SOL     OW31447   2.833   5.057   5.690
 6324SOL    HW131448   2.900   5.092   5.755
 6324SOL    HW231449   2.750   5.112   5.694
 6325SOL     OW31450   3.867   4.279   2.389
 6325SOL    HW131451   3.957   4.317   2.411
 6325SOL    HW231452   3.877   4.207   2.321
 6326SOL     OW31453   5.891   3.435   0.870
 6326SOL    HW131454   5.888   3.413   0.968
 6326SOL    HW231455   5.965   3.499   0.852
 6327SOL     OW31456   5.192   3.950   1.318
 6327SOL    HW131457   5.119   3.898   1.274
 6327SOL    HW231458   5.237   4.008   1.251
 6328SOL     OW31459   6.746   2.575   3.574
 6328SOL    HW131460   6.792   2.661   3.593
 6328SOL    HW231461   6.714   2.574   3.479
 6329SOL     OW31462   7.104   3.068   7.144
 6329SOL    HW131463   7.081   2.974   7.118
 6329SOL    HW231464   7.100   3.077   7.244
 6330SOL     OW31465   5.624   3.883   4.456
 6330SOL    HW131466   5.654   3.976   4.438
 6330SOL    HW231467   5.570   3.849   4.379
 6331SOL     OW31468   3.011   1.414   1.875
 6331SOL    HW131469   3.020   1.320   1.843
 6331SOL    HW231470   3.008   1.415   1.975
 6332SOL     OW31471   2.048   7.177   1.549
 6332SOL    HW131472   1.954   7.201   1.574
 6332SOL    HW231473   2.083   7.241   1.481
 6333SOL     OW31474   6.863   3.963   4.417
 6333SOL    HW131475   6.768   3.938   4.400
 6333SOL    HW231476   6.922   3.916   4.351
 6334SOL     OW31477   7.056   6.884   1.698
 6334SOL    HW131478   7.141   6.937   1.692
 6334SOL    HW231479   7.016   6.876   1.607
 6335SOL     OW31480   6.047   6.334   7.272
 6335SOL    HW131481   5.957   6.291   7.269
 6335SOL    HW231482   6.092   6.313   7.359
 6336SOL     OW31483   1.727   2.539   2.207
 6336SOL    HW131484   1.668   2.589   2.144
 6336SOL    HW231485   1.725   2.585   2.297
 6337SOL     OW31486   2.918   3.733   3.399
 6337SOL    HW131487   2.850   3.674   3.442
 6337SOL    HW231488   3.002   3.735   3.454
 6338SOL     OW31489   4.688   4.528   2.715
 6338SOL    HW131490   4.755   4.454   2.720
 6338SOL    HW231491   4.703   4.593   2.789
 6339SOL     OW31492   2.336   4.095   1.402
 6339SOL    HW131493   2.401   4.039   1.454
 6339SOL    HW231494   2.250   4.045   1.392
 6340SOL     OW31495   1.703   0.227   6.893
 6340SOL    HW131496   1.667   0.165   6.963
 6340SOL    HW231497   1.667   0.319   6.910
 6341SOL     OW31498   6.651   2.113   2.340
 6341SOL    HW131499   6.730   2.172   2.320
 6341SOL    HW231500   6.650   2.036   2.276
 6342SOL     OW31501   3.506   2.418   0.632
 6342SOL    HW131502   3.492   2.388   0.538
 6342SOL    HW231503   3.486   2.343   0.695
 6343SOL     OW31504   6.270   5.477   1.074
 6343SOL    HW131505   6.326   5.455   1.154
 6343SOL    HW231506   6.255   5.576   1.070
 6344SOL     OW31507   3.834   3.924   6.488
 6344SOL    HW131508   3.851   3.838   6.441
 6344SOL    HW231509   3.764   3.976   6.439
 6345SOL     OW31510   2.877   3.151   1.027
 6345SOL    HW131511   2.874   3.052   1.015
 6345SOL    HW231512   2.822   3.177   1.107
 6346SOL     OW31513   5.288   2.185   3.604
 6346SOL    HW131514   5.384   2.159   3.593
 6346SOL    HW231515   5.262   2.250   3.533
 6347SOL     OW31516   2.747   2.242   5.719
 6347SOL    HW131517   2.846   2.228   5.722
 6347SOL    HW231518   2.701   2.161   5.753
 6348SOL     OW31519   6.555   1.005   6.135
 6348SOL    HW131520   6.530   1.080   6.074
 6348SOL    HW231521   6.476   0.945   6.149
 6349SOL     OW31522   5.372   4.536   0.139
 6349SOL    HW131523   5.346   4.440   0.153
 6349SOL    HW231524   5.311   4.577   0.072
 6350SOL     OW31525   2.789   5.666   4.930
 6350SOL    HW131526   2.829   5.724   5.001
 6350SOL    HW231527   2.729   5.598   4.973
 6351SOL     OW31528   6.480   6.382   0.417
 6351SOL    HW131529   6.436   6.294   0.404
 6351SOL    HW231530   6.543   6.377   0.495
 6352SOL     OW31531   0.964   4.269   6.758
 6352SOL    HW131532   0.895   4.341   6.750
 6352SOL    HW231533   0.964   4.214   6.674
 6353SOL     OW31534   2.757   0.272   6.709
 6353SOL    HW131535   2.790   0.323   6.789
 6353SOL    HW231536   2.823   0.200   6.687
 6354SOL     OW31537   4.341   4.915   6.516
 6354SOL    HW131538   4.428   4.882   6.553
 6354SOL    HW231539   4.265   4.866   6.560
 6355SOL     OW31540   6.768   4.005   3.969
 6355SOL    HW131541   6.796   3.910   3.957
 6355SOL    HW231542   6.724   4.037   3.884
 6356SOL     OW31543   1.622   0.877   1.048
 6356SOL    HW131544   1.586   0.895   1.140
 6356SOL    HW231545   1.546   0.865   0.984
 6357SOL     OW31546   5.363   6.302   6.757
 6357SOL    HW131547   5.445   6.305   6.700
 6357SOL    HW231548   5.374   6.234   6.829
 6358SOL     OW31549   1.759   5.983   4.906
 6358SOL    HW131550   1.678   6.027   4.866
 6358SOL    HW231551   1.841   6.030   4.875
 6359SOL     OW31552   6.675   1.054   1.643
 6359SOL    HW131553   6.669   1.150   1.615
 6359SOL    HW231554   6.708   0.999   1.566
 6360SOL     OW31555   5.069   5.522   1.458
 6360SOL    HW131556   5.112   5.514   1.548
 6360SOL    HW231557   5.037   5.616   1.445
 6361SOL     OW31558   5.593   0.645   1.898
 6361SOL    HW131559   5.554   0.737   1.894
 6361SOL    HW231560   5.547   0.592   1.969
 6362SOL     OW31561   2.612   2.719   0.538
 6362SOL    HW131562   2.559   2.635   0.528
 6362SOL    HW231563   2.708   2.701   0.515
 6363SOL     OW31564   4.537   3.934   2.629
 6363SOL    HW131565   4.583   3.849   2.654
 6363SOL    HW231566   4.447   3.913   2.590
 6364SOL     OW31567   0.644   6.937   5.149
 6364SOL    HW131568   0.670   6.847   5.183
 6364SOL    HW231569   0.578   6.926   5.074
 6365SOL     OW31570   5.520   6.821   5.811
 6365SOL    HW131571   5.589   6.894   5.810
 6365SOL    HW231572   5.429   6.861   5.810
 6366SOL     OW31573   4.592   2.027   3.916
 6366SOL    HW131574   4.508   1.993   3.958
 6366SOL    HW231575   4.667   1.964   3.936
 6367SOL     OW31576   1.265   5.125   5.848
 6367SOL    HW131577   1.238   5.221   5.863
 6367SOL    HW231578   1.183   5.071   5.829
 6368SOL     OW31579   1.383   2.773   0.811
 6368SOL    HW131580   1.291   2.751   0.779
 6368SOL    HW231581   1.434   2.818   0.737
 6369SOL     OW31582   2.329   1.775   0.975
 6369SOL    HW131583   2.305   1.831   0.895
 6369SOL    HW231584   2.321   1.679   0.952
 6370SOL     OW31585   4.227   3.109   1.920
 6370SOL    HW131586   4.168   3.100   1.840
 6370SOL    HW231587   4.171   3.131   2.000
 6371SOL     OW31588   5.383   4.963   5.469
 6371SOL    HW131589   5.374   4.946   5.370
 6371SOL    HW231590   5.394   5.061   5.484
 6372SOL     OW31591   1.031   1.852   0.343
 6372SOL    HW131592   1.108   1.913   0.324
 6372SOL    HW231593   1.058   1.757   0.330
 6373SOL     OW31594   2.107   6.004   5.000
 6373SOL    HW131595   2.046   5.941   5.049
 6373SOL    HW231596   2.134   6.078   5.062
 6374SOL     OW31597   6.729   5.489   6.388
 6374SOL    HW131598   6.637   5.492   6.349
 6374SOL    HW231599   6.775   5.576   6.371
 6375SOL     OW31600   6.835   3.638   4.773
 6375SOL    HW131601   6.867   3.572   4.841
 6375SOL    HW231602   6.887   3.627   4.689
 6376SOL     OW31603   5.683   3.707   5.624
 6376SOL    HW131604   5.781   3.686   5.620
 6376SOL    HW231605   5.642   3.664   5.704
 6377SOL     OW31606   1.005   3.949   1.957
 6377SOL    HW131607   0.953   3.915   2.035
 6377SOL    HW231608   1.020   3.874   1.892
 6378SOL     OW31609   7.118   5.862   3.360
 6378SOL    HW131610   7.020   5.845   3.364
 6378SOL    HW231611   7.146   5.878   3.265
 6379SOL     OW31612   1.303   5.879   0.285
 6379SOL    HW131613   1.248   5.807   0.329
 6379SOL    HW231614   1.400   5.860   0.300
 6380SOL     OW31615   1.255   5.164   7.222
 6380SOL    HW131616   1.183   5.096   7.206
 6380SOL    HW231617   1.235   5.215   7.306
 6381SOL     OW31618   3.857   2.014   7.114
 6381SOL    HW131619   3.797   2.094   7.121
 6381SOL    HW231620   3.812   1.943   7.059
 6382SOL     OW31621   3.824   3.347   1.671
 6382SOL    HW131622   3.807   3.306   1.582
 6382SOL    HW231623   3.846   3.276   1.738
 6383SOL     OW31624   0.513   6.179   0.347
 6383SOL    HW131625   0.524   6.085   0.315
 6383SOL    HW231626   0.569   6.194   0.428
 6384SOL     OW31627   2.579   4.354   2.420
 6384SOL    HW131628   2.572   4.383   2.324
 6384SOL    HW231629   2.490   4.359   2.464
 6385SOL     OW31630   2.476   2.580   1.679
 6385SOL    HW131631   2.558   2.560   1.625
 6385SOL    HW231632   2.450   2.499   1.731
 6386SOL     OW31633   3.302   7.296   6.895
 6386SOL    HW131634   3.266   7.382   6.929
 6386SOL    HW231635   3.247   7.220   6.930
 6387SOL     OW31636   5.005   5.379   2.336
 6387SOL    HW131637   5.058   5.299   2.363
 6387SOL    HW231638   4.976   5.430   2.417
 6388SOL     OW31639   4.098   2.954   2.712
 6388SOL    HW131640   4.152   2.875   2.681
 6388SOL    HW231641   4.064   3.005   2.633
 6389SOL     OW31642   5.641   4.067   0.328
 6389SOL    HW131643   5.645   3.969   0.348
 6389SOL    HW231644   5.679   4.085   0.237
 6390SOL     OW31645   1.765   4.937   3.971
 6390SOL    HW131646   1.727   4.906   4.058
 6390SOL    HW231647   1.700   4.919   3.897
 6391SOL     OW31648   4.690   5.119   1.142
 6391SOL    HW131649   4.774   5.128   1.195
 6391SOL    HW231650   4.711   5.129   1.044
 6392SOL     OW31651   2.198   0.979   5.108
 6392SOL    HW131652   2.122   1.016   5.161
 6392SOL    HW231653   2.225   0.890   5.144
 6393SOL     OW31654   0.474   1.516   1.658
 6393SOL    HW131655   0.481   1.489   1.754
 6393SOL    HW231656   0.520   1.604   1.645
 6394SOL     OW31657   2.223   3.430   1.727
 6394SOL    HW131658   2.163   3.506   1.704
 6394SOL    HW231659   2.205   3.400   1.821
 6395SOL     OW31660   5.892   7.142   0.041
 6395SOL    HW131661   5.963   7.202   0.076
 6395SOL    HW231662   5.911   7.048   0.070
 6396SOL     OW31663   2.051   0.701   5.381
 6396SOL    HW131664   2.007   0.787   5.407
 6396SOL    HW231665   2.149   0.715   5.373
 6397SOL     OW31666   4.469   3.022   0.899
 6397SOL    HW131667   4.396   3.088   0.881
 6397SOL    HW231668   4.524   3.053   0.976
 6398SOL     OW31669   1.885   6.893   1.259
 6398SOL    HW131670   1.962   6.858   1.311
 6398SOL    HW231671   1.802   6.844   1.286
 6399SOL     OW31672   0.076   4.569   6.245
 6399SOL    HW131673  -0.006   4.528   6.285
 6399SOL    HW231674   0.062   4.667   6.234
 6400SOL     OW31675   4.775   6.752   1.715
 6400SOL    HW131676   4.857   6.711   1.755
 6400SOL    HW231677   4.732   6.811   1.783
 6401SOL     OW31678   4.989   5.784   1.545
 6401SOL    HW131679   4.920   5.761   1.613
 6401SOL    HW231680   5.078   5.796   1.589
 6402SOL     OW31681   1.341   4.352   3.067
 6402SOL    HW131682   1.407   4.362   2.993
 6402SOL    HW231683   1.388   4.324   3.151
 6403SOL     OW31684   1.139   2.108   6.263
 6403SOL    HW131685   1.156   2.024   6.313
 6403SOL    HW231686   1.194   2.110   6.180
 6404SOL     OW31687   7.331   0.126   4.721
 6404SOL    HW131688   7.335   0.213   4.771
 6404SOL    HW231689   7.415   0.075   4.736
 6405SOL     OW31690   6.665   5.492   1.693
 6405SOL    HW131691   6.674   5.556   1.769
 6405SOL    HW231692   6.607   5.533   1.622
 6406SOL     OW31693   2.501   7.017   0.740
 6406SOL    HW131694   2.593   6.989   0.770
 6406SOL    HW231695   2.509   7.072   0.657
 6407SOL     OW31696   4.680   2.018   3.389
 6407SOL    HW131697   4.589   2.040   3.425
 6407SOL    HW231698   4.745   2.011   3.464
 6408SOL     OW31699   6.606   5.811   3.179
 6408SOL    HW131700   6.515   5.784   3.145
 6408SOL    HW231701   6.676   5.754   3.135
 6409SOL     OW31702   0.893   2.122   3.033
 6409SOL    HW131703   0.941   2.088   3.113
 6409SOL    HW231704   0.959   2.144   2.961
 6410SOL     OW31705   1.047   5.059   0.585
 6410SOL    HW131706   1.050   5.004   0.668
 6410SOL    HW231707   1.138   5.058   0.542
 6411SOL     OW31708   4.062   6.599   0.918
 6411SOL    HW131709   3.972   6.556   0.916
 6411SOL    HW231710   4.104   6.592   0.827
 6412SOL     OW31711   3.072   5.010   5.512
 6412SOL    HW131712   3.121   5.097   5.517
 6412SOL    HW231713   2.988   5.016   5.565
 6413SOL     OW31714   2.631   0.442   1.972
 6413SOL    HW131715   2.660   0.379   2.044
 6413SOL    HW231716   2.695   0.436   1.895
 6414SOL     OW31717   0.802   6.377   4.241
 6414SOL    HW131718   0.874   6.332   4.294
 6414SOL    HW231719   0.744   6.430   4.303
 6415SOL     OW31720   0.053   2.297   3.305
 6415SOL    HW131721  -0.029   2.351   3.286
 6415SOL    HW231722   0.060   2.223   3.238
 6416SOL     OW31723   5.034   2.775   1.703
 6416SOL    HW131724   5.065   2.698   1.648
 6416SOL    HW231725   4.942   2.756   1.738
 6417SOL     OW31726   4.937   1.192   2.270
 6417SOL    HW131727   4.903   1.224   2.181
 6417SOL    HW231728   4.966   1.271   2.325
 6418SOL     OW31729   2.695   6.146   2.349
 6418SOL    HW131730   2.766   6.168   2.282
 6418SOL    HW231731   2.736   6.096   2.426
 6419SOL     OW31732   1.139   3.580   1.289
 6419SOL    HW131733   1.071   3.618   1.352
 6419SOL    HW231734   1.091   3.542   1.209
 6420SOL     OW31735   7.200   4.567   2.490
 6420SOL    HW131736   7.290   4.611   2.485
 6420SOL    HW231737   7.132   4.628   2.450
 6421SOL     OW31738   3.438   1.733   4.437
 6421SOL    HW131739   3.472   1.686   4.356
 6421SOL    HW231740   3.399   1.665   4.500
 6422SOL     OW31741   1.956   4.929   5.791
 6422SOL    HW131742   1.928   4.844   5.836
 6422SOL    HW231743   2.034   4.969   5.840
 6423SOL     OW31744   1.848   7.293   5.797
 6423SOL    HW131745   1.813   7.202   5.822
 6423SOL    HW231746   1.829   7.311   5.701
 6424SOL     OW31747   5.279   6.227   5.387
 6424SOL    HW131748   5.317   6.136   5.369
 6424SOL    HW231749   5.180   6.226   5.375
 6425SOL     OW31750   7.300   5.345   4.185
 6425SOL    HW131751   7.389   5.387   4.172
 6425SOL    HW231752   7.247   5.398   4.251
 6426SOL     OW31753   0.218   4.422   0.370
 6426SOL    HW131754   0.134   4.433   0.422
 6426SOL    HW231755   0.219   4.331   0.328
 6427SOL     OW31756   6.260   6.822   2.633
 6427SOL    HW131757   6.275   6.917   2.605
 6427SOL    HW231758   6.169   6.793   2.605
 6428SOL     OW31759   6.516   4.627   5.922
 6428SOL    HW131760   6.595   4.606   5.863
 6428SOL    HW231761   6.478   4.542   5.958
 6429SOL     OW31762   0.332   6.744   0.091
 6429SOL    HW131763   0.403   6.674   0.100
 6429SOL    HW231764   0.324   6.795   0.177
 6430SOL     OW31765   1.285   4.734   0.776
 6430SOL    HW131766   1.373   4.777   0.795
 6430SOL    HW231767   1.237   4.716   0.862
 6431SOL     OW31768   0.175   0.234   0.529
 6431SOL    HW131769   0.251   0.277   0.479
 6431SOL    HW231770   0.171   0.137   0.506
 6432SOL     OW31771   5.098   6.203   2.355
 6432SOL    HW131772   5.186   6.225   2.313
 6432SOL    HW231773   5.032   6.276   2.334
 6433SOL     OW31774   5.803   5.644   3.009
 6433SOL    HW131775   5.704   5.649   3.024
 6433SOL    HW231776   5.848   5.716   3.062
 6434SOL     OW31777   3.055   5.678   3.389
 6434SOL    HW131778   2.993   5.738   3.339
 6434SOL    HW231779   3.002   5.619   3.450
 6435SOL     OW31780   4.317   1.684   4.620
 6435SOL    HW131781   4.384   1.740   4.571
 6435SOL    HW231782   4.300   1.722   4.710
 6436SOL     OW31783   5.419   6.520   4.487
 6436SOL    HW131784   5.414   6.620   4.479
 6436SOL    HW231785   5.340   6.479   4.441
 6437SOL     OW31786   2.454   1.564   0.214
 6437SOL    HW131787   2.359   1.570   0.246
 6437SOL    HW231788   2.515   1.555   0.292
 6438SOL     OW31789   4.792   4.860   0.630
 6438SOL    HW131790   4.832   4.789   0.688
 6438SOL    HW231791   4.798   4.831   0.535
 6439SOL     OW31792   2.974   2.876   0.938
 6439SOL    HW131793   3.066   2.866   0.898
 6439SOL    HW231794   2.975   2.838   1.031
 6440SOL     OW31795   5.425   1.888   0.271
 6440SOL    HW131796   5.359   1.955   0.306
 6440SOL    HW231797   5.516   1.910   0.305
 6441SOL     OW31798   0.637   3.622   6.857
 6441SOL    HW131799   0.615   3.592   6.950
 6441SOL    HW231800   0.576   3.696   6.831
 6442SOL     OW31801   5.813   2.377   3.029
 6442SOL    HW131802   5.798   2.278   3.040
 6442SOL    HW231803   5.734   2.418   2.983
 6443SOL     OW31804   1.967   2.221   6.109
 6443SOL    HW131805   1.985   2.320   6.102
 6443SOL    HW231806   1.898   2.205   6.179
 6444SOL     OW31807   6.433   1.851   2.348
 6444SOL    HW131808   6.422   1.774   2.411
 6444SOL    HW231809   6.364   1.844   2.275
 6445SOL     OW31810   0.023   5.781   6.341
 6445SOL    HW131811  -0.032   5.830   6.408
 6445SOL    HW231812   0.115   5.820   6.339
 6446SOL     OW31813   6.172   3.928   7.055
 6446SOL    HW131814   6.176   3.904   7.152
 6446SOL    HW231815   6.159   3.845   7.001
 6447SOL     OW31816   5.390   0.414   2.957
 6447SOL    HW131817   5.366   0.322   2.926
 6447SOL    HW231818   5.418   0.469   2.878
 6448SOL     OW31819   4.600   3.748   4.933
 6448SOL    HW131820   4.583   3.677   4.865
 6448SOL    HW231821   4.532   3.740   5.007
 6449SOL     OW31822   4.573   0.005   6.997
 6449SOL    HW131823   4.595   0.040   7.088
 6449SOL    HW231824   4.641   0.038   6.931
 6450SOL     OW31825   6.842   4.232   0.906
 6450SOL    HW131826   6.918   4.167   0.916
 6450SOL    HW231827   6.876   4.325   0.921
 6451SOL     OW31828   2.761   0.798   1.033
 6451SOL    HW131829   2.735   0.731   0.963
 6451SOL    HW231830   2.850   0.773   1.071
 6452SOL     OW31831   1.762   3.077   4.472
 6452SOL    HW131832   1.779   2.986   4.511
 6452SOL    HW231833   1.789   3.078   4.376
 6453SOL     OW31834   4.342   0.792   0.355
 6453SOL    HW131835   4.247   0.779   0.328
 6453SOL    HW231836   4.368   0.720   0.419
 6454SOL     OW31837   4.356   5.733   3.531
 6454SOL    HW131838   4.454   5.724   3.544
 6454SOL    HW231839   4.315   5.641   3.530
 6455SOL     OW31840   1.654   3.144   1.846
 6455SOL    HW131841   1.661   3.044   1.835
 6455SOL    HW231842   1.650   3.187   1.756
 6456SOL     OW31843   3.602   4.115   5.215
 6456SOL    HW131844   3.583   4.097   5.119
 6456SOL    HW231845   3.694   4.083   5.237
 6457SOL     OW31846   1.593   4.086   5.300
 6457SOL    HW131847   1.516   4.104   5.240
 6457SOL    HW231848   1.672   4.140   5.270
 6458SOL     OW31849   6.659   0.796   1.066
 6458SOL    HW131850   6.684   0.850   1.147
 6458SOL    HW231851   6.561   0.775   1.070
 6459SOL     OW31852   4.143   3.309   1.283
 6459SOL    HW131853   4.046   3.321   1.264
 6459SOL    HW231854   4.156   3.290   1.380
 6460SOL     OW31855   4.445   4.528   5.018
 6460SOL    HW131856   4.444   4.539   5.117
 6460SOL    HW231857   4.529   4.479   4.991
 6461SOL     OW31858   6.487   1.853   1.901
 6461SOL    HW131859   6.551   1.811   1.837
 6461SOL    HW231860   6.538   1.905   1.969
 6462SOL     OW31861   2.606   0.614   6.791
 6462SOL    HW131862   2.508   0.600   6.805
 6462SOL    HW231863   2.622   0.651   6.700
 6463SOL     OW31864   4.290   5.714   2.128
 6463SOL    HW131865   4.196   5.750   2.135
 6463SOL    HW231866   4.287   5.615   2.121
 6464SOL     OW31867   2.796   3.913   5.229
 6464SOL    HW131868   2.862   3.942   5.298
 6464SOL    HW231869   2.713   3.882   5.274
 6465SOL     OW31870   2.030   2.788   3.948
 6465SOL    HW131871   2.127   2.810   3.936
 6465SOL    HW231872   2.007   2.707   3.895
 6466SOL     OW31873   5.950   2.565   1.185
 6466SOL    HW131874   6.012   2.637   1.217
 6466SOL    HW231875   5.897   2.598   1.108
 6467SOL     OW31876   1.735   3.029   2.733
 6467SOL    HW131877   1.764   2.948   2.682
 6467SOL    HW231878   1.688   3.093   2.672
 6468SOL     OW31879   0.190   1.241   5.135
 6468SOL    HW131880   0.136   1.322   5.110
 6468SOL    HW231881   0.269   1.234   5.075
 6469SOL     OW31882   1.265   3.571   0.897
 6469SOL    HW131883   1.232   3.660   0.926
 6469SOL    HW231884   1.333   3.582   0.825
 6470SOL     OW31885   2.719   1.841   6.369
 6470SOL    HW131886   2.696   1.776   6.440
 6470SOL    HW231887   2.648   1.840   6.299
 6471SOL     OW31888   0.909   4.866   3.074
 6471SOL    HW131889   0.827   4.827   3.115
 6471SOL    HW231890   0.984   4.865   3.140
 6472SOL     OW31891   4.643   2.712   5.377
 6472SOL    HW131892   4.667   2.630   5.429
 6472SOL    HW231893   4.597   2.686   5.293
 6473SOL     OW31894   3.353   4.623   3.689
 6473SOL    HW131895   3.343   4.524   3.679
 6473SOL    HW231896   3.396   4.660   3.607
 6474SOL     OW31897   5.441   4.589   6.704
 6474SOL    HW131898   5.493   4.525   6.762
 6474SOL    HW231899   5.370   4.539   6.655
 6475SOL     OW31900   4.097   4.598   6.244
 6475SOL    HW131901   4.038   4.518   6.252
 6475SOL    HW231902   4.187   4.577   6.283
 6476SOL     OW31903   3.168   3.689   5.843
 6476SOL    HW131904   3.215   3.777   5.849
 6476SOL    HW231905   3.213   3.623   5.903
 6477SOL     OW31906   5.000   2.504   3.266
 6477SOL    HW131907   4.968   2.509   3.361
 6477SOL    HW231908   4.990   2.594   3.224
 6478SOL     OW31909   5.893   3.462   6.945
 6478SOL    HW131910   5.928   3.446   6.853
 6478SOL    HW231911   5.826   3.391   6.969
 6479SOL     OW31912   2.713   5.549   4.555
 6479SOL    HW131913   2.630   5.494   4.556
 6479SOL    HW231914   2.785   5.502   4.607
 6480SOL     OW31915   3.679   4.995   2.675
 6480SOL    HW131916   3.647   4.928   2.742
 6480SOL    HW231917   3.660   5.087   2.708
 6481SOL     OW31918   2.943   3.090   3.426
 6481SOL    HW131919   2.953   2.996   3.395
 6481SOL    HW231920   3.009   3.109   3.498
 6482SOL     OW31921   1.604   4.920   3.732
 6482SOL    HW131922   1.535   4.863   3.777
 6482SOL    HW231923   1.613   4.891   3.637
 6483SOL     OW31924   0.477   5.497   0.382
 6483SOL    HW131925   0.576   5.504   0.399
 6483SOL    HW231926   0.440   5.420   0.434
 6484SOL     OW31927   5.894   2.435   0.759
 6484SOL    HW131928   5.818   2.388   0.803
 6484SOL    HW231929   5.867   2.466   0.668
 6485SOL     OW31930   3.498   1.617   6.296
 6485SOL    HW131931   3.544   1.567   6.223
 6485SOL    HW231932   3.428   1.559   6.338
 6486SOL     OW31933   3.435   1.289   7.335
 6486SOL    HW131934   3.380   1.370   7.354
 6486SOL    HW231935   3.478   1.258   7.420
 6487SOL     OW31936   6.874   3.149   0.942
 6487SOL    HW131937   6.901   3.103   0.857
 6487SOL    HW231938   6.945   3.216   0.968
 6488SOL     OW31939   6.398   2.254   4.912
 6488SOL    HW131940   6.493   2.285   4.901
 6488SOL    HW231941   6.349   2.317   4.972
 6489SOL     OW31942   4.518   3.030   3.267
 6489SOL    HW131943   4.429   3.052   3.307
 6489SOL    HW231944   4.589   3.043   3.336
 6490SOL     OW31945   4.031   0.637   0.814
 6490SOL    HW131946   4.087   0.702   0.762
 6490SOL    HW231947   4.052   0.544   0.784
 6491SOL     OW31948   5.023   3.903   1.736
 6491SOL    HW131949   5.051   3.977   1.674
 6491SOL    HW231950   4.994   3.824   1.682
 6492SOL     OW31951   1.254   3.032   1.678
 6492SOL    HW131952   1.325   3.029   1.748
 6492SOL    HW231953   1.165   3.044   1.721
 6493SOL     OW31954   7.001   5.275   3.224
 6493SOL    HW131955   6.977   5.179   3.240
 6493SOL    HW231956   7.031   5.286   3.129
 6494SOL     OW31957   1.333   3.558   3.619
 6494SOL    HW131958   1.378   3.636   3.663
 6494SOL    HW231959   1.403   3.493   3.590
 6495SOL     OW31960   2.181   6.790   4.646
 6495SOL    HW131961   2.153   6.695   4.631
 6495SOL    HW231962   2.103   6.850   4.631
 6496SOL     OW31963   6.471   0.549   0.491
 6496SOL    HW131964   6.496   0.627   0.549
 6496SOL    HW231965   6.397   0.498   0.534
 6497SOL     OW31966   0.668   1.126   7.021
 6497SOL    HW131967   0.723   1.077   7.089
 6497SOL    HW231968   0.674   1.079   6.933
 6498SOL     OW31969   2.527   0.133   3.176
 6498SOL    HW131970   2.579   0.218   3.188
 6498SOL    HW231971   2.527   0.108   3.079
 6499SOL     OW31972   5.103   1.055   2.930
 6499SOL    HW131973   5.009   1.038   2.959
 6499SOL    HW231974   5.103   1.096   2.839
 6500SOL     OW31975   5.084   1.788   4.532
 6500SOL    HW131976   5.062   1.691   4.536
 6500SOL    HW231977   5.022   1.839   4.592
 6501SOL     OW31978   4.830   6.085   3.939
 6501SOL    HW131979   4.881   6.066   4.023
 6501SOL    HW231980   4.894   6.091   3.862
 6502SOL     OW31981   3.248   3.542   0.815
 6502SOL    HW131982   3.333   3.590   0.834
 6502SOL    HW231983   3.171   3.601   0.838
 6503SOL     OW31984   6.998   2.713   1.350
 6503SOL    HW131985   7.091   2.707   1.316
 6503SOL    HW231986   6.941   2.760   1.283
 6504SOL     OW31987   3.149   1.197   6.685
 6504SOL    HW131988   3.144   1.266   6.757
 6504SOL    HW231989   3.245   1.173   6.669
 6505SOL     OW31990   2.482   0.582   5.474
 6505SOL    HW131991   2.488   0.485   5.499
 6505SOL    HW231992   2.541   0.600   5.396
 6506SOL     OW31993   1.578   4.477   3.860
 6506SOL    HW131994   1.567   4.423   3.944
 6506SOL    HW231995   1.670   4.463   3.823
 6507SOL     OW31996   4.375   7.115   6.376
 6507SOL    HW131997   4.406   7.184   6.442
 6507SOL    HW231998   4.421   7.129   6.288
 6508SOL     OW31999   5.527   6.833   1.519
 6508SOL    HW132000   5.512   6.842   1.618
 6508SOL    HW232001   5.599   6.895   1.490
 6509SOL     OW32002   4.327   3.671   1.339
 6509SOL    HW132003   4.286   3.613   1.268
 6509SOL    HW232004   4.255   3.705   1.400
 6510SOL     OW32005   4.833   0.257   0.116
 6510SOL    HW132006   4.897   0.317   0.163
 6510SOL    HW232007   4.740   0.294   0.122
 6511SOL     OW32008   3.550   4.450   4.353
 6511SOL    HW132009   3.454   4.476   4.351
 6511SOL    HW232010   3.603   4.519   4.402
 6512SOL     OW32011   0.347   7.265   1.488
 6512SOL    HW132012   0.441   7.298   1.495
 6512SOL    HW232013   0.337   7.210   1.404
 6513SOL     OW32014   7.154   5.611   3.074
 6513SOL    HW132015   7.100   5.691   3.046
 6513SOL    HW232016   7.216   5.586   3.001
 6514SOL     OW32017   6.796   5.593   0.186
 6514SOL    HW132018   6.793   5.537   0.103
 6514SOL    HW232019   6.835   5.539   0.260
 6515SOL     OW32020   5.120   5.690   7.276
 6515SOL    HW132021   5.041   5.658   7.327
 6515SOL    HW232022   5.089   5.750   7.201
 6516SOL     OW32023   1.092   6.735   5.809
 6516SOL    HW132024   1.113   6.642   5.779
 6516SOL    HW232025   1.018   6.772   5.753
 6517SOL     OW32026   1.009   4.039   5.752
 6517SOL    HW132027   1.043   4.092   5.674
 6517SOL    HW232028   1.049   4.075   5.836
 6518SOL     OW32029   4.266   1.098   3.835
 6518SOL    HW132030   4.348   1.148   3.863
 6518SOL    HW232031   4.185   1.147   3.866
 6519SOL     OW32032   3.151   5.626   1.058
 6519SOL    HW132033   3.094   5.604   1.137
 6519SOL    HW232034   3.230   5.565   1.055
 6520SOL     OW32035   6.744   2.136   7.125
 6520SOL    HW132036   6.812   2.113   7.055
 6520SOL    HW232037   6.785   2.128   7.216
 6521SOL     OW32038   0.864   1.577   0.900
 6521SOL    HW132039   0.955   1.619   0.901
 6521SOL    HW232040   0.830   1.568   0.994
 6522SOL     OW32041   4.950   6.610   7.239
 6522SOL    HW132042   4.904   6.561   7.165
 6522SOL    HW232043   5.047   6.589   7.239
 6523SOL     OW32044   4.397   0.245   1.935
 6523SOL    HW132045   4.384   0.335   1.976
 6523SOL    HW232046   4.461   0.252   1.858
 6524SOL     OW32047   5.750   2.806   6.714
 6524SOL    HW132048   5.684   2.827   6.642
 6524SOL    HW232049   5.703   2.801   6.802
 6525SOL     OW32050   5.824   7.158   3.482
 6525SOL    HW132051   5.902   7.171   3.543
 6525SOL    HW232052   5.837   7.074   3.429
 6526SOL     OW32053   0.392   5.352   2.196
 6526SOL    HW132054   0.393   5.253   2.212
 6526SOL    HW232055   0.464   5.395   2.250
 6527SOL     OW32056   4.089   2.613   6.242
 6527SOL    HW132057   4.088   2.602   6.342
 6527SOL    HW232058   4.166   2.562   6.204
 6528SOL     OW32059   6.755   5.236   1.714
 6528SOL    HW132060   6.690   5.168   1.748
 6528SOL    HW232061   6.715   5.327   1.719
 6529SOL     OW32062   4.135   7.145   3.987
 6529SOL    HW132063   4.060   7.198   3.946
 6529SOL    HW232064   4.223   7.180   3.953
 6530SOL     OW32065   2.653   3.502   1.566
 6530SOL    HW132066   2.714   3.523   1.489
 6530SOL    HW232067   2.687   3.422   1.615
 6531SOL     OW32068   7.188   3.499   4.756
 6531SOL    HW132069   7.163   3.410   4.718
 6531SOL    HW232070   7.200   3.492   4.855
 6532SOL     OW32071   2.173   5.926   4.075
 6532SOL    HW132072   2.228   5.857   4.029
 6532SOL    HW232073   2.172   6.010   4.021
 6533SOL     OW32074   4.183   4.334   5.167
 6533SOL    HW132075   4.186   4.367   5.073
 6533SOL    HW232076   4.087   4.328   5.196
 6534SOL     OW32077   1.405   4.613   2.353
 6534SOL    HW132078   1.422   4.518   2.377
 6534SOL    HW232079   1.482   4.670   2.384
 6535SOL     OW32080   0.776   2.374   3.111
 6535SOL    HW132081   0.830   2.331   3.039
 6535SOL    HW232082   0.779   2.317   3.193
 6536SOL     OW32083   4.435   1.712   0.089
 6536SOL    HW132084   4.510   1.777   0.075
 6536SOL    HW232085   4.423   1.656   0.007
 6537SOL     OW32086   0.434   3.982   2.502
 6537SOL    HW132087   0.350   3.943   2.540
 6537SOL    HW232088   0.487   4.025   2.575
 6538SOL     OW32089   3.432   3.185   4.748
 6538SOL    HW132090   3.404   3.277   4.776
 6538SOL    HW232091   3.439   3.127   4.829
 6539SOL     OW32092   0.138   2.198   1.691
 6539SOL    HW132093   0.174   2.192   1.598
 6539SOL    HW232094   0.164   2.116   1.742
 6540SOL     OW32095   0.696   0.724   7.212
 6540SOL    HW132096   0.762   0.652   7.192
 6540SOL    HW232097   0.636   0.737   7.133
 6541SOL     OW32098   4.497   1.152   1.831
 6541SOL    HW132099   4.590   1.152   1.794
 6541SOL    HW232100   4.441   1.086   1.781
 6542SOL     OW32101   3.354   4.162   2.076
 6542SOL    HW132102   3.341   4.067   2.104
 6542SOL    HW232103   3.353   4.167   1.976
 6543SOL     OW32104   2.899   2.344   2.481
 6543SOL    HW132105   2.982   2.398   2.494
 6543SOL    HW232106   2.833   2.396   2.427
 6544SOL     OW32107   0.496   1.919   0.531
 6544SOL    HW132108   0.465   2.012   0.507
 6544SOL    HW232109   0.424   1.854   0.507
 6545SOL     OW32110   4.739   7.206   2.732
 6545SOL    HW132111   4.742   7.305   2.747
 6545SOL    HW232112   4.819   7.178   2.679
 6546SOL     OW32113   2.292   3.345   4.225
 6546SOL    HW132114   2.263   3.371   4.318
 6546SOL    HW232115   2.391   3.333   4.223
 6547SOL     OW32116   0.568   5.619   4.951
 6547SOL    HW132117   0.480   5.630   4.904
 6547SOL    HW232118   0.642   5.638   4.887
 6548SOL     OW32119   1.173   5.930   6.983
 6548SOL    HW132120   1.217   5.841   6.978
 6548SOL    HW232121   1.124   5.949   6.898
 6549SOL     OW32122   4.827   0.869   5.001
 6549SOL    HW132123   4.742   0.897   4.957
 6549SOL    HW232124   4.806   0.809   5.078
 6550SOL     OW32125   6.589   4.199   1.537
 6550SOL    HW132126   6.631   4.134   1.601
 6550SOL    HW232127   6.636   4.288   1.545
 6551SOL     OW32128   6.041   3.944   2.054
 6551SOL    HW132129   6.020   3.938   1.956
 6551SOL    HW232130   6.100   3.867   2.080
 6552SOL     OW32131   4.987   7.283   0.157
 6552SOL    HW132132   4.994   7.370   0.205
 6552SOL    HW232133   5.078   7.244   0.145
 6553SOL     OW32134   2.929   5.158   5.196
 6553SOL    HW132135   2.903   5.253   5.213
 6553SOL    HW232136   3.021   5.142   5.232
 6554SOL     OW32137   7.219   4.567   5.739
 6554SOL    HW132138   7.238   4.622   5.659
 6554SOL    HW232139   7.214   4.626   5.820
 6555SOL     OW32140   5.921   0.576   4.654
 6555SOL    HW132141   5.957   0.600   4.565
 6555SOL    HW232142   5.925   0.476   4.665
 6556SOL     OW32143   5.554   4.710   6.484
 6556SOL    HW132144   5.489   4.684   6.555
 6556SOL    HW232145   5.578   4.629   6.430
 6557SOL     OW32146   2.693   7.218   5.447
 6557SOL    HW132147   2.684   7.210   5.547
 6557SOL    HW232148   2.671   7.311   5.419
 6558SOL     OW32149   3.712   2.356   3.009
 6558SOL    HW132150   3.657   2.367   3.091
 6558SOL    HW232151   3.736   2.260   2.997
 6559SOL     OW32152   2.964   1.390   2.636
 6559SOL    HW132153   2.926   1.316   2.690
 6559SOL    HW232154   3.064   1.381   2.631
 6560SOL     OW32155   0.887   4.045   0.964
 6560SOL    HW132156   0.929   4.132   0.938
 6560SOL    HW232157   0.895   3.981   0.888
 6561SOL     OW32158   6.348   0.277   4.422
 6561SOL    HW132159   6.345   0.301   4.325
 6561SOL    HW232160   6.433   0.228   4.442
 6562SOL     OW32161   2.580   7.270   1.433
 6562SOL    HW132162   2.525   7.339   1.480
 6562SOL    HW232163   2.634   7.315   1.362
 6563SOL     OW32164   5.045   6.979   2.824
 6563SOL    HW132165   5.096   6.968   2.909
 6563SOL    HW232166   5.025   6.890   2.785
 6564SOL     OW32167   4.593   0.166   0.559
 6564SOL    HW132168   4.603   0.141   0.463
 6564SOL    HW232169   4.671   0.221   0.588
 6565SOL     OW32170   1.103   5.318   3.922
 6565SOL    HW132171   1.105   5.413   3.953
 6565SOL    HW232172   1.041   5.265   3.980
 6566SOL     OW32173   1.686   6.728   5.037
 6566SOL    HW132174   1.746   6.651   5.014
 6566SOL    HW232175   1.672   6.731   5.136
 6567SOL     OW32176   3.600   1.481   5.118
 6567SOL    HW132177   3.516   1.427   5.111
 6567SOL    HW232178   3.659   1.462   5.039
 6568SOL     OW32179   3.040   2.284   0.359
 6568SOL    HW132180   3.023   2.298   0.456
 6568SOL    HW232181   2.960   2.314   0.306
 6569SOL     OW32182   3.768   1.722   1.485
 6569SOL    HW132183   3.749   1.665   1.565
 6569SOL    HW232184   3.685   1.731   1.430
 6570SOL     OW32185   4.828   0.191   3.275
 6570SOL    HW132186   4.835   0.140   3.189
 6570SOL    HW232187   4.750   0.253   3.270
 6571SOL     OW32188   5.502   7.073   4.153
 6571SOL    HW132189   5.509   6.973   4.156
 6571SOL    HW232190   5.564   7.109   4.084
 6572SOL     OW32191   2.982   3.237   0.240
 6572SOL    HW132192   2.887   3.235   0.206
 6572SOL    HW232193   2.982   3.262   0.337
 6573SOL     OW32194   1.641   3.199   5.033
 6573SOL    HW132195   1.602   3.191   5.125
 6573SOL    HW232196   1.625   3.115   4.982
 6574SOL     OW32197   4.727   0.239   5.598
 6574SOL    HW132198   4.776   0.285   5.524
 6574SOL    HW232199   4.793   0.199   5.661
 6575SOL     OW32200   0.844   5.094   4.322
 6575SOL    HW132201   0.884   5.054   4.240
 6575SOL    HW232202   0.745   5.101   4.310
 6576SOL     OW32203   4.307   6.972   3.713
 6576SOL    HW132204   4.353   7.051   3.753
 6576SOL    HW232205   4.226   6.948   3.767
 6577SOL     OW32206   0.400   3.035   6.478
 6577SOL    HW132207   0.380   2.952   6.529
 6577SOL    HW232208   0.489   3.025   6.432
 6578SOL     OW32209   6.593   2.188   1.271
 6578SOL    HW132210   6.524   2.141   1.216
 6578SOL    HW232211   6.573   2.285   1.275
 6579SOL     OW32212   7.118   4.125   0.688
 6579SOL    HW132213   7.039   4.073   0.655
 6579SOL    HW232214   7.112   4.219   0.656
 6580SOL     OW32215   5.890   7.039   0.489
 6580SOL    HW132216   5.982   7.009   0.463
 6580SOL    HW232217   5.823   6.977   0.449
 6581SOL     OW32218   6.590   1.336   4.506
 6581SOL    HW132219   6.540   1.422   4.513
 6581SOL    HW232220   6.684   1.355   4.475
 6582SOL     OW32221   6.094   4.475   0.260
 6582SOL    HW132222   6.157   4.405   0.293
 6582SOL    HW232223   6.023   4.433   0.204
 6583SOL     OW32224   2.231   7.020   4.022
 6583SOL    HW132225   2.230   7.000   4.120
 6583SOL    HW232226   2.315   7.067   3.998
 6584SOL     OW32227   3.775   5.036   0.288
 6584SOL    HW132228   3.863   5.056   0.243
 6584SOL    HW232229   3.748   4.943   0.266
 6585SOL     OW32230   7.357   4.653   5.000
 6585SOL    HW132231   7.383   4.625   4.908
 6585SOL    HW232232   7.293   4.729   4.995
 6586SOL     OW32233   2.861   2.380   6.768
 6586SOL    HW132234   2.885   2.391   6.671
 6586SOL    HW232235   2.900   2.294   6.803
 6587SOL     OW32236   1.309   0.325   6.357
 6587SOL    HW132237   1.282   0.278   6.273
 6587SOL    HW232238   1.276   0.419   6.355
 6588SOL     OW32239   5.759   1.109   5.394
 6588SOL    HW132240   5.760   1.207   5.374
 6588SOL    HW232241   5.699   1.091   5.472
 6589SOL     OW32242   2.992   2.494   6.991
 6589SOL    HW132243   2.926   2.528   6.925
 6589SOL    HW232244   3.071   2.556   6.995
 6590SOL     OW32245   5.817   6.500   5.653
 6590SOL    HW132246   5.785   6.424   5.596
 6590SOL    HW232247   5.841   6.466   5.744
 6591SOL     OW32248   3.762   0.435   3.964
 6591SOL    HW132249   3.795   0.350   3.923
 6591SOL    HW232250   3.672   0.420   4.004
 6592SOL     OW32251   4.685   0.262   2.877
 6592SOL    HW132252   4.663   0.256   2.780
 6592SOL    HW232253   4.735   0.180   2.906
 6593SOL     OW32254   1.807   2.746   7.112
 6593SOL    HW132255   1.742   2.759   7.038
 6593SOL    HW232256   1.853   2.658   7.101
 6594SOL     OW32257   3.837   4.815   2.385
 6594SOL    HW132258   3.771   4.808   2.310
 6594SOL    HW232259   3.904   4.886   2.364
 6595SOL     OW32260   0.049   6.555   6.200
 6595SOL    HW132261   0.005   6.511   6.278
 6595SOL    HW232262  -0.013   6.556   6.122
 6596SOL     OW32263   3.878   0.049   1.099
 6596SOL    HW132264   3.935   0.038   1.181
 6596SOL    HW232265   3.852   0.145   1.090
 6597SOL     OW32266   3.103   5.272   2.838
 6597SOL    HW132267   3.057   5.351   2.798
 6597SOL    HW232268   3.036   5.216   2.887
 6598SOL     OW32269   2.781   6.228   6.943
 6598SOL    HW132270   2.692   6.184   6.937
 6598SOL    HW232271   2.779   6.299   7.014
 6599SOL     OW32272   3.558   1.210   0.212
 6599SOL    HW132273   3.644   1.166   0.237
 6599SOL    HW232274   3.572   1.309   0.209
 6600SOL     OW32275   5.413   2.552   3.511
 6600SOL    HW132276   5.376   2.482   3.449
 6600SOL    HW232277   5.360   2.636   3.503
 6601SOL     OW32278   1.817   2.201   6.332
 6601SOL    HW132279   1.873   2.123   6.362
 6601SOL    HW232280   1.743   2.216   6.399
 6602SOL     OW32281   1.528   4.970   0.527
 6602SOL    HW132282   1.588   4.889   0.527
 6602SOL    HW232283   1.582   5.051   0.508
 6603SOL     OW32284   3.739   3.432   0.776
 6603SOL    HW132285   3.747   3.493   0.697
 6603SOL    HW232286   3.738   3.487   0.860
 6604SOL     OW32287   1.984   5.330   5.218
 6604SOL    HW132288   1.961   5.323   5.315
 6604SOL    HW232289   1.927   5.267   5.165
 6605SOL     OW32290   3.254   3.673   6.447
 6605SOL    HW132291   3.284   3.577   6.441
 6605SOL    HW232292   3.317   3.724   6.505
 6606SOL     OW32293   1.860   3.178   0.476
 6606SOL    HW132294   1.960   3.184   0.472
 6606SOL    HW232295   1.822   3.196   0.386
 6607SOL     OW32296   2.535   6.633   0.839
 6607SOL    HW132297   2.497   6.698   0.773
 6607SOL    HW232298   2.573   6.554   0.791
 6608SOL     OW32299   1.082   3.768   1.744
 6608SOL    HW132300   1.108   3.677   1.777
 6608SOL    HW232301   1.030   3.760   1.660
 6609SOL     OW32302   2.888   6.695   0.640
 6609SOL    HW132303   2.954   6.620   0.641
 6609SOL    HW232304   2.797   6.659   0.621
 6610SOL     OW32305   4.694   0.116   2.638
 6610SOL    HW132306   4.698   0.090   2.541
 6610SOL    HW232307   4.602   0.151   2.659
 6611SOL     OW32308   0.697   6.086   5.670
 6611SOL    HW132309   0.770   6.154   5.678
 6611SOL    HW232310   0.669   6.057   5.762
 6612SOL     OW32311   5.872   3.940   7.242
 6612SOL    HW132312   5.820   3.909   7.163
 6612SOL    HW232313   5.970   3.926   7.226
 6613SOL     OW32314   5.793   1.758   3.952
 6613SOL    HW132315   5.840   1.673   3.926
 6613SOL    HW232316   5.853   1.812   4.011
 6614SOL     OW32317   1.685   4.857   4.650
 6614SOL    HW132318   1.589   4.880   4.664
 6614SOL    HW232319   1.693   4.784   4.583
 6615SOL     OW32320   3.122   2.342   1.326
 6615SOL    HW132321   3.128   2.244   1.308
 6615SOL    HW232322   3.088   2.389   1.245
 6616SOL     OW32323   2.589   4.292   1.977
 6616SOL    HW132324   2.529   4.326   1.905
 6616SOL    HW232325   2.684   4.305   1.951
 6617SOL     OW32326   2.415   3.974   4.233
 6617SOL    HW132327   2.352   4.046   4.262
 6617SOL    HW232328   2.384   3.886   4.269
 6618SOL     OW32329   1.605   3.060   0.057
 6618SOL    HW132330   1.664   3.025  -0.016
 6618SOL    HW232331   1.542   2.988   0.086
 6619SOL     OW32332   0.977   4.987   6.974
 6619SOL    HW132333   0.982   4.982   7.074
 6619SOL    HW232334   0.889   5.027   6.947
 6620SOL     OW32335   4.413   0.051   2.131
 6620SOL    HW132336   4.402   0.111   2.052
 6620SOL    HW232337   4.327   0.003   2.149
 6621SOL     OW32338   2.954   1.364   0.039
 6621SOL    HW132339   3.026   1.419   0.080
 6621SOL    HW232340   2.976   1.346  -0.057
 6622SOL     OW32341   5.961   5.742   1.952
 6622SOL    HW132342   6.036   5.718   1.890
 6622SOL    HW232343   5.991   5.731   2.046
 6623SOL     OW32344   6.041   0.294   3.794
 6623SOL    HW132345   6.070   0.377   3.842
 6623SOL    HW232346   6.111   0.223   3.805
 6624SOL     OW32347   3.964   2.867   3.383
 6624SOL    HW132348   3.921   2.893   3.469
 6624SOL    HW232349   4.042   2.927   3.365
 6625SOL     OW32350   0.259   0.382   2.027
 6625SOL    HW132351   0.295   0.299   1.984
 6625SOL    HW232352   0.159   0.374   2.035
 6626SOL     OW32353   7.053   3.976   6.731
 6626SOL    HW132354   7.151   3.997   6.722
 6626SOL    HW232355   7.042   3.879   6.753
 6627SOL     OW32356   6.654   4.094   4.854
 6627SOL    HW132357   6.649   3.994   4.850
 6627SOL    HW232358   6.674   4.130   4.763
 6628SOL     OW32359   2.579   6.502   0.445
 6628SOL    HW132360   2.535   6.590   0.425
 6628SOL    HW232361   2.511   6.429   0.435
 6629SOL     OW32362   2.182   0.602   3.404
 6629SOL    HW132363   2.210   0.645   3.319
 6629SOL    HW232364   2.145   0.511   3.384
 6630SOL     OW32365   7.265   2.788   4.830
 6630SOL    HW132366   7.287   2.885   4.842
 6630SOL    HW232367   7.168   2.779   4.808
 6631SOL     OW32368   1.577   3.809   6.544
 6631SOL    HW132369   1.634   3.887   6.572
 6631SOL    HW232370   1.510   3.790   6.616
 6632SOL     OW32371   3.146   6.112   5.816
 6632SOL    HW132372   3.122   6.016   5.830
 6632SOL    HW232373   3.161   6.155   5.905
 6633SOL     OW32374   2.263   5.781   7.224
 6633SOL    HW132375   2.290   5.825   7.138
 6633SOL    HW232376   2.284   5.683   7.220
 6634SOL     OW32377   0.137   5.237   4.832
 6634SOL    HW132378   0.082   5.155   4.846
 6634SOL    HW232379   0.122   5.301   4.907
 6635SOL     OW32380   4.770   1.553   3.536
 6635SOL    HW132381   4.743   1.473   3.483
 6635SOL    HW232382   4.861   1.582   3.508
 6636SOL     OW32383   5.819   2.461   1.724
 6636SOL    HW132384   5.810   2.437   1.628
 6636SOL    HW232385   5.729   2.484   1.761
 6637SOL     OW32386   5.697   1.557   3.089
 6637SOL    HW132387   5.696   1.467   3.131
 6637SOL    HW232388   5.610   1.573   3.041
 6638SOL     OW32389   1.522   6.274   1.131
 6638SOL    HW132390   1.615   6.307   1.144
 6638SOL    HW232391   1.468   6.293   1.213
 6639SOL     OW32392   6.536   5.677   0.295
 6639SOL    HW132393   6.613   5.636   0.246
 6639SOL    HW232394   6.450   5.646   0.253
 6640SOL     OW32395   5.529   1.820   2.827
 6640SOL    HW132396   5.591   1.889   2.788
 6640SOL    HW232397   5.530   1.827   2.926
 6641SOL     OW32398   4.394   7.100   5.794
 6641SOL    HW132399   4.412   7.128   5.888
 6641SOL    HW232400   4.407   7.177   5.732
 6642SOL     OW32401   6.444   6.250   4.214
 6642SOL    HW132402   6.401   6.289   4.295
 6642SOL    HW232403   6.382   6.183   4.173
 6643SOL     OW32404   3.051   4.357   4.562
 6643SOL    HW132405   3.012   4.420   4.630
 6643SOL    HW232406   2.977   4.309   4.515
 6644SOL     OW32407   3.119   1.615   7.181
 6644SOL    HW132408   3.037   1.670   7.200
 6644SOL    HW232409   3.092   1.521   7.162
 6645SOL     OW32410   6.161   6.486   2.567
 6645SOL    HW132411   6.179   6.500   2.665
 6645SOL    HW232412   6.066   6.507   2.547
 6646SOL     OW32413   6.796   4.983   5.864
 6646SOL    HW132414   6.790   5.032   5.777
 6646SOL    HW232415   6.714   5.003   5.918
 6647SOL     OW32416   4.066   4.272   5.456
 6647SOL    HW132417   4.148   4.228   5.417
 6647SOL    HW232418   4.051   4.360   5.411
 6648SOL     OW32419   2.049   4.461   3.966
 6648SOL    HW132420   2.143   4.483   3.994
 6648SOL    HW232421   2.013   4.536   3.910
 6649SOL     OW32422   1.214   3.493   1.921
 6649SOL    HW132423   1.305   3.533   1.913
 6649SOL    HW232424   1.221   3.394   1.927
 6650SOL     OW32425   5.766   5.137   1.277
 6650SOL    HW132426   5.853   5.093   1.255
 6650SOL    HW232427   5.691   5.073   1.258
 6651SOL     OW32428   3.224   2.223   0.878
 6651SOL    HW132429   3.188   2.213   0.970
 6651SOL    HW232430   3.316   2.184   0.874
 6652SOL     OW32431   5.572   3.174   0.922
 6652SOL    HW132432   5.609   3.133   1.006
 6652SOL    HW232433   5.532   3.103   0.865
 6653SOL     OW32434   6.354   6.722   1.533
 6653SOL    HW132435   6.273   6.667   1.513
 6653SOL    HW232436   6.350   6.756   1.627
 6654SOL     OW32437   2.500   5.553   2.785
 6654SOL    HW132438   2.469   5.496   2.861
 6654SOL    HW232439   2.428   5.618   2.760
 6655SOL     OW32440   2.747   5.363   6.794
 6655SOL    HW132441   2.791   5.274   6.809
 6655SOL    HW232442   2.695   5.387   6.876
 6656SOL     OW32443   6.338   0.317   0.056
 6656SOL    HW132444   6.370   0.412   0.048
 6656SOL    HW232445   6.376   0.277   0.139
 6657SOL     OW32446   4.485   2.056   5.281
 6657SOL    HW132447   4.480   1.962   5.249
 6657SOL    HW232448   4.394   2.088   5.306
 6658SOL     OW32449   0.923   5.400   2.613
 6658SOL    HW132450   1.021   5.379   2.608
 6658SOL    HW232451   0.897   5.413   2.709
 6659SOL     OW32452   2.032   4.103   4.660
 6659SOL    HW132453   1.939   4.100   4.624
 6659SOL    HW232454   2.029   4.123   4.758
 6660SOL     OW32455   4.436   0.619   6.443
 6660SOL    HW132456   4.465   0.599   6.536
 6660SOL    HW232457   4.357   0.680   6.444
 6661SOL     OW32458   1.248   6.016   4.849
 6661SOL    HW132459   1.240   5.917   4.838
 6661SOL    HW232460   1.336   6.047   4.814
 6662SOL     OW32461   4.525   3.743   1.722
 6662SOL    HW132462   4.522   3.812   1.795
 6662SOL    HW232463   4.451   3.677   1.736
 6663SOL     OW32464   6.740   2.109   1.878
 6663SOL    HW132465   6.759   2.196   1.832
 6663SOL    HW232466   6.693   2.127   1.965
 6664SOL     OW32467   1.262   2.969   0.421
 6664SOL    HW132468   1.264   2.976   0.521
 6664SOL    HW232469   1.168   2.976   0.389
 6665SOL     OW32470   1.363   3.966   3.247
 6665SOL    HW132471   1.432   3.988   3.178
 6665SOL    HW232472   1.372   4.028   3.325
 6666SOL     OW32473   0.859   5.504   2.358
 6666SOL    HW132474   0.886   5.456   2.441
 6666SOL    HW232475   0.866   5.603   2.372
 6667SOL     OW32476   6.367   4.891   0.787
 6667SOL    HW132477   6.393   4.931   0.699
 6667SOL    HW232478   6.334   4.963   0.848
 6668SOL     OW32479   0.248   2.908   5.963
 6668SOL    HW132480   0.213   3.000   5.983
 6668SOL    HW232481   0.301   2.876   6.042
 6669SOL     OW32482   1.763   1.546   7.172
 6669SOL    HW132483   1.820   1.593   7.240
 6669SOL    HW232484   1.778   1.447   7.178
 6670SOL     OW32485   5.350   7.335   4.476
 6670SOL    HW132486   5.415   7.372   4.409
 6670SOL    HW232487   5.346   7.396   4.555
 6671SOL     OW32488   5.258   2.173   2.062
 6671SOL    HW132489   5.244   2.106   2.134
 6671SOL    HW232490   5.234   2.133   1.973
 6672SOL     OW32491   4.253   4.761   2.264
 6672SOL    HW132492   4.305   4.845   2.272
 6672SOL    HW232493   4.315   4.682   2.269
 6673SOL     OW32494   4.860   1.414   2.999
 6673SOL    HW132495   4.957   1.390   3.009
 6673SOL    HW232496   4.804   1.341   3.038
 6674SOL     OW32497   2.873   3.933   0.653
 6674SOL    HW132498   2.877   3.978   0.742
 6674SOL    HW232499   2.777   3.917   0.628
 6675SOL     OW32500   5.782   4.655   3.548
 6675SOL    HW132501   5.771   4.750   3.520
 6675SOL    HW232502   5.878   4.629   3.545
 6676SOL     OW32503   2.340   2.919   3.639
 6676SOL    HW132504   2.430   2.885   3.609
 6676SOL    HW232505   2.340   3.019   3.639
 6677SOL     OW32506   3.321   3.218   3.953
 6677SOL    HW132507   3.274   3.189   4.037
 6677SOL    HW232508   3.266   3.192   3.874
 6678SOL     OW32509   1.155   2.564   4.962
 6678SOL    HW132510   1.231   2.517   4.917
 6678SOL    HW232511   1.142   2.524   5.053
 6679SOL     OW32512   5.863   6.741   7.183
 6679SOL    HW132513   5.891   6.645   7.183
 6679SOL    HW232514   5.768   6.749   7.152
 6680SOL     OW32515   3.845   3.950   4.002
 6680SOL    HW132516   3.906   3.960   3.924
 6680SOL    HW232517   3.776   4.022   4.000
 6681SOL     OW32518   2.064   0.688   3.655
 6681SOL    HW132519   2.068   0.787   3.642
 6681SOL    HW232520   2.059   0.643   3.566
 6682SOL     OW32521   1.207   0.571   6.872
 6682SOL    HW132522   1.195   0.607   6.780
 6682SOL    HW232523   1.300   0.591   6.905
 6683SOL     OW32524   4.110   0.136   2.774
 6683SOL    HW132525   4.134   0.075   2.698
 6683SOL    HW232526   4.166   0.219   2.769
 6684SOL     OW32527   6.309   6.991   5.004
 6684SOL    HW132528   6.388   7.029   5.053
 6684SOL    HW232529   6.332   6.899   4.971
 6685SOL     OW32530   3.490   0.694   3.984
 6685SOL    HW132531   3.439   0.672   4.066
 6685SOL    HW232532   3.448   0.772   3.937
 6686SOL     OW32533   2.867   7.245   1.787
 6686SOL    HW132534   2.775   7.284   1.803
 6686SOL    HW232535   2.936   7.310   1.820
 6687SOL     OW32536   2.011   4.161   2.059
 6687SOL    HW132537   1.943   4.089   2.075
 6687SOL    HW232538   1.971   4.234   2.005
 6688SOL     OW32539   4.416   7.132   1.126
 6688SOL    HW132540   4.409   7.221   1.171
 6688SOL    HW232541   4.382   7.061   1.187
 6689SOL     OW32542   1.657   2.659   4.793
 6689SOL    HW132543   1.677   2.664   4.891
 6689SOL    HW232544   1.688   2.744   4.748
 6690SOL     OW32545   2.792   1.071   6.609
 6690SOL    HW132546   2.872   1.012   6.604
 6690SOL    HW232547   2.819   1.166   6.596
 6691SOL     OW32548   5.536   2.893   6.581
 6691SOL    HW132549   5.535   2.969   6.516
 6691SOL    HW232550   5.481   2.916   6.661
 6692SOL     OW32551   5.460   1.435   0.787
 6692SOL    HW132552   5.467   1.454   0.689
 6692SOL    HW232553   5.517   1.356   0.810
 6693SOL     OW32554   0.221   6.814   0.838
 6693SOL    HW132555   0.278   6.804   0.756
 6693SOL    HW232556   0.280   6.826   0.918
 6694SOL     OW32557   4.320   6.328   4.585
 6694SOL    HW132558   4.264   6.346   4.666
 6694SOL    HW232559   4.365   6.239   4.595
 6695SOL     OW32560   2.571   4.659   1.149
 6695SOL    HW132561   2.547   4.573   1.104
 6695SOL    HW232562   2.590   4.728   1.080
 6696SOL     OW32563   0.563   5.793   6.683
 6696SOL    HW132564   0.595   5.883   6.654
 6696SOL    HW232565   0.489   5.763   6.622
 6697SOL     OW32566   7.023   4.189   5.804
 6697SOL    HW132567   6.991   4.270   5.853
 6697SOL    HW232568   6.992   4.193   5.709
 6698SOL     OW32569   4.156   5.074   5.686
 6698SOL    HW132570   4.214   5.003   5.724
 6698SOL    HW232571   4.150   5.062   5.587
 6699SOL     OW32572   5.550   2.595   4.048
 6699SOL    HW132573   5.549   2.636   3.956
 6699SOL    HW232574   5.496   2.511   4.047
 6700SOL     OW32575   3.696   5.712   6.602
 6700SOL    HW132576   3.791   5.737   6.582
 6700SOL    HW232577   3.639   5.733   6.523
 6701SOL     OW32578   2.711   1.335   5.684
 6701SOL    HW132579   2.612   1.345   5.675
 6701SOL    HW232580   2.733   1.239   5.703
 6702SOL     OW32581   3.177   0.993   2.013
 6702SOL    HW132582   3.223   0.930   1.950
 6702SOL    HW232583   3.230   0.999   2.098
 6703SOL     OW32584   3.641   0.991   0.831
 6703SOL    HW132585   3.620   1.004   0.734
 6703SOL    HW232586   3.703   0.913   0.841
 6704SOL     OW32587   1.762   4.227   0.808
 6704SOL    HW132588   1.793   4.310   0.854
 6704SOL    HW232589   1.664   4.215   0.825
 6705SOL     OW32590   3.837   0.064   7.202
 6705SOL    HW132591   3.844  -0.035   7.207
 6705SOL    HW232592   3.813   0.091   7.109
 6706SOL     OW32593   2.705   4.217   7.351
 6706SOL    HW132594   2.776   4.222   7.281
 6706SOL    HW232595   2.666   4.308   7.365
 6707SOL     OW32596   6.777   3.622   0.369
 6707SOL    HW132597   6.762   3.547   0.305
 6707SOL    HW232598   6.869   3.616   0.407
 6708SOL     OW32599   1.830   3.016   5.704
 6708SOL    HW132600   1.770   2.966   5.642
 6708SOL    HW232601   1.782   3.097   5.738
 6709SOL     OW32602   0.861   3.612   0.275
 6709SOL    HW132603   0.880   3.663   0.359
 6709SOL    HW232604   0.796   3.538   0.296
 6710SOL     OW32605   2.579   3.930   3.999
 6710SOL    HW132606   2.526   3.846   3.981
 6710SOL    HW232607   2.550   3.969   4.086
 6711SOL     OW32608   4.435   5.230   1.223
 6711SOL    HW132609   4.533   5.211   1.235
 6711SOL    HW232610   4.404   5.192   1.136
 6712SOL     OW32611   1.342   3.174   2.282
 6712SOL    HW132612   1.354   3.076   2.263
 6712SOL    HW232613   1.301   3.186   2.372
 6713SOL     OW32614   5.307   6.925   2.981
 6713SOL    HW132615   5.298   6.904   3.078
 6713SOL    HW232616   5.369   6.859   2.938
 6714SOL     OW32617   2.705   2.740   1.255
 6714SOL    HW132618   2.650   2.757   1.173
 6714SOL    HW232619   2.668   2.661   1.304
 6715SOL     OW32620   7.115   4.241   4.171
 6715SOL    HW132621   7.110   4.325   4.118
 6715SOL    HW232622   7.109   4.162   4.110
 6716SOL     OW32623   6.169   0.054   5.060
 6716SOL    HW132624   6.144   0.151   5.062
 6716SOL    HW232625   6.215   0.033   4.974
 6717SOL     OW32626   3.257   6.167   0.954
 6717SOL    HW132627   3.237   6.074   0.922
 6717SOL    HW232628   3.174   6.208   0.991
 6718SOL     OW32629   0.817   0.048   6.720
 6718SOL    HW132630   0.915   0.056   6.733
 6718SOL    HW232631   0.794   0.072   6.625
 6719SOL     OW32632   4.367   0.182   3.369
 6719SOL    HW132633   4.393   0.195   3.465
 6719SOL    HW232634   4.298   0.111   3.362
 6720SOL     OW32635   0.553   3.351   1.755
 6720SOL    HW132636   0.455   3.360   1.740
 6720SOL    HW232637   0.599   3.436   1.729
 6721SOL     OW32638   0.072   3.394   4.421
 6721SOL    HW132639  -0.006   3.449   4.451
 6721SOL    HW232640   0.157   3.446   4.435
 6722SOL     OW32641   2.199   5.199   5.233
 6722SOL    HW132642   2.120   5.259   5.245
 6722SOL    HW232643   2.225   5.198   5.136
 6723SOL     OW32644   2.116   0.986   6.248
 6723SOL    HW132645   2.179   0.919   6.207
 6723SOL    HW232646   2.023   0.950   6.245
 6724SOL     OW32647   2.452   4.079   6.034
 6724SOL    HW132648   2.498   4.053   6.119
 6724SOL    HW232649   2.520   4.100   5.964
 6725SOL     OW32650   6.877   2.454   4.740
 6725SOL    HW132651   6.791   2.406   4.724
 6725SOL    HW232652   6.952   2.389   4.740
 6726SOL     OW32653   5.872   5.664   2.457
 6726SOL    HW132654   5.879   5.696   2.362
 6726SOL    HW232655   5.808   5.587   2.461
 6727SOL     OW32656   5.521   2.248   1.990
 6727SOL    HW132657   5.580   2.308   2.043
 6727SOL    HW232658   5.437   2.230   2.041
 6728SOL     OW32659   5.609   5.843   0.695
 6728SOL    HW132660   5.612   5.942   0.685
 6728SOL    HW232661   5.519   5.809   0.668
 6729SOL     OW32662   1.794   0.448   7.307
 6729SOL    HW132663   1.723   0.401   7.359
 6729SOL    HW232664   1.751   0.512   7.243
 6730SOL     OW32665   4.957   1.122   1.830
 6730SOL    HW132666   4.931   1.191   1.896
 6730SOL    HW232667   4.969   1.034   1.876
 6731SOL     OW32668   1.096   5.342   5.903
 6731SOL    HW132669   1.042   5.415   5.862
 6731SOL    HW232670   1.053   5.254   5.885
 6732SOL     OW32671   2.117   4.080   0.465
 6732SOL    HW132672   2.164   3.992   0.463
 6732SOL    HW232673   2.072   4.091   0.553
 6733SOL     OW32674   0.672   0.724   1.489
 6733SOL    HW132675   0.633   0.682   1.572
 6733SOL    HW232676   0.601   0.730   1.419
 6734SOL     OW32677   4.517   7.002   6.804
 6734SOL    HW132678   4.470   6.915   6.823
 6734SOL    HW232679   4.464   7.077   6.843
 6735SOL     OW32680   4.947   5.983   3.031
 6735SOL    HW132681   4.899   6.060   2.989
 6735SOL    HW232682   4.880   5.919   3.069
 6736SOL     OW32683   2.845   7.010   7.320
 6736SOL    HW132684   2.834   6.919   7.281
 6736SOL    HW232685   2.874   7.003   7.416
 6737SOL     OW32686   4.309   5.965   5.447
 6737SOL    HW132687   4.351   5.874   5.447
 6737SOL    HW232688   4.366   6.029   5.498
 6738SOL     OW32689   3.943   7.302   3.833
 6738SOL    HW132690   3.875   7.330   3.901
 6738SOL    HW232691   3.896   7.263   3.754
 6739SOL     OW32692   1.932   1.962   7.062
 6739SOL    HW132693   1.915   1.864   7.057
 6739SOL    HW232694   2.023   1.982   7.025
 6740SOL     OW32695   1.033   3.909   0.419
 6740SOL    HW132696   1.034   4.006   0.396
 6740SOL    HW232697   1.058   3.855   0.339
 6741SOL     OW32698   1.196   1.885   7.127
 6741SOL    HW132699   1.276   1.837   7.091
 6741SOL    HW232700   1.119   1.873   7.064
 6742SOL     OW32701   2.214   6.867   0.289
 6742SOL    HW132702   2.240   6.942   0.350
 6742SOL    HW232703   2.179   6.904   0.203
 6743SOL     OW32704   0.626   2.393   0.531
 6743SOL    HW132705   0.707   2.451   0.532
 6743SOL    HW232706   0.594   2.383   0.437
 6744SOL     OW32707   3.851   4.964   6.324
 6744SOL    HW132708   3.892   4.929   6.240
 6744SOL    HW232709   3.751   4.961   6.316
 6745SOL     OW32710   2.641   3.910   4.792
 6745SOL    HW132711   2.719   3.925   4.852
 6745SOL    HW232712   2.621   3.813   4.786
 6746SOL     OW32713   6.953   0.946   1.328
 6746SOL    HW132714   6.988   1.006   1.256
 6746SOL    HW232715   7.002   0.965   1.413
 6747SOL     OW32716   7.353   2.049   5.568
 6747SOL    HW132717   7.402   2.008   5.491
 6747SOL    HW232718   7.288   2.116   5.535
 6748SOL     OW32719   7.179   1.948   6.248
 6748SOL    HW132720   7.275   1.970   6.226
 6748SOL    HW232721   7.129   1.930   6.163
 6749SOL     OW32722   6.694   0.900   1.407
 6749SOL    HW132723   6.684   0.800   1.414
 6749SOL    HW232724   6.779   0.922   1.359
 6750SOL     OW32725   0.889   6.410   6.360
 6750SOL    HW132726   0.936   6.494   6.333
 6750SOL    HW232727   0.796   6.431   6.388
 6751SOL     OW32728   0.293   3.537   5.887
 6751SOL    HW132729   0.261   3.468   5.822
 6751SOL    HW232730   0.374   3.503   5.934
 6752SOL     OW32731   4.286   0.792   6.040
 6752SOL    HW132732   4.346   0.814   5.963
 6752SOL    HW232733   4.301   0.698   6.069
 6753SOL     OW32734   0.607   2.677   1.336
 6753SOL    HW132735   0.647   2.767   1.317
 6753SOL    HW232736   0.594   2.666   1.434
 6754SOL     OW32737   5.755   5.444   0.279
 6754SOL    HW132738   5.698   5.525   0.292
 6754SOL    HW232739   5.787   5.441   0.185
 6755SOL     OW32740   5.646   0.687   0.664
 6755SOL    HW132741   5.730   0.738   0.643
 6755SOL    HW232742   5.585   0.744   0.718
 6756SOL     OW32743   4.332   6.773   1.080
 6756SOL    HW132744   4.412   6.724   1.113
 6756SOL    HW232745   4.291   6.723   1.003
 6757SOL     OW32746   7.262   0.204   6.991
 6757SOL    HW132747   7.294   0.109   6.984
 6757SOL    HW232748   7.226   0.233   6.902
 6758SOL     OW32749   2.435   4.560   1.385
 6758SOL    HW132750   2.469   4.624   1.317
 6758SOL    HW232751   2.467   4.468   1.363
 6759SOL     OW32752   6.237   2.206   3.508
 6759SOL    HW132753   6.225   2.242   3.600
 6759SOL    HW232754   6.258   2.282   3.446
 6760SOL     OW32755   5.973   2.086   2.977
 6760SOL    HW132756   6.038   2.119   3.045
 6760SOL    HW232757   6.021   2.028   2.911
 6761SOL     OW32758   4.079   4.087   1.809
 6761SOL    HW132759   4.018   4.011   1.787
 6761SOL    HW232760   4.124   4.119   1.725
 6762SOL     OW32761   6.230   0.538   3.045
 6762SOL    HW132762   6.234   0.560   2.948
 6762SOL    HW232763   6.293   0.597   3.095
 6763SOL     OW32764   1.260   6.519   0.230
 6763SOL    HW132765   1.355   6.527   0.258
 6763SOL    HW232766   1.254   6.511   0.131
 6764SOL     OW32767   5.256   6.904   5.860
 6764SOL    HW132768   5.168   6.906   5.812
 6764SOL    HW232769   5.248   6.951   5.948
 6765SOL     OW32770   0.319   5.208   4.406
 6765SOL    HW132771   0.341   5.277   4.474
 6765SOL    HW232772   0.276   5.129   4.451
 6766SOL     OW32773   0.466   0.321   5.984
 6766SOL    HW132774   0.397   0.393   5.989
 6766SOL    HW232775   0.428   0.236   6.021
 6767SOL     OW32776   2.192   5.775   3.777
 6767SOL    HW132777   2.143   5.691   3.753
 6767SOL    HW232778   2.136   5.854   3.751
 6768SOL     OW32779   4.120   6.171   6.282
 6768SOL    HW132780   4.086   6.135   6.369
 6768SOL    HW232781   4.103   6.103   6.210
 6769SOL     OW32782   4.831   1.857   3.905
 6769SOL    HW132783   4.896   1.798   3.859
 6769SOL    HW232784   4.881   1.929   3.954
 6770SOL     OW32785   4.196   0.498   4.976
 6770SOL    HW132786   4.213   0.424   4.911
 6770SOL    HW232787   4.125   0.470   5.040
 6771SOL     OW32788   3.119   5.013   0.609
 6771SOL    HW132789   3.032   5.053   0.636
 6771SOL    HW232790   3.163   4.972   0.688
 6772SOL     OW32791   6.300   1.881   2.088
 6772SOL    HW132792   6.218   1.933   2.066
 6772SOL    HW232793   6.370   1.896   2.018
 6773SOL     OW32794   1.602   3.479   2.753
 6773SOL    HW132795   1.660   3.489   2.834
 6773SOL    HW232796   1.608   3.562   2.697
 6774SOL     OW32797   1.358   4.414   1.875
 6774SOL    HW132798   1.297   4.351   1.827
 6774SOL    HW232799   1.303   4.479   1.928
 6775SOL     OW32800   2.152   2.539   2.638
 6775SOL    HW132801   2.056   2.543   2.609
 6775SOL    HW232802   2.194   2.457   2.599
 6776SOL     OW32803   5.387   1.193   4.156
 6776SOL    HW132804   5.351   1.238   4.238
 6776SOL    HW232805   5.360   1.097   4.156
 6777SOL     OW32806   0.309   0.969   0.927
 6777SOL    HW132807   0.235   1.013   0.875
 6777SOL    HW232808   0.292   0.871   0.934
 6778SOL     OW32809   6.517   3.713   6.898
 6778SOL    HW132810   6.442   3.664   6.853
 6778SOL    HW232811   6.480   3.791   6.949
 6779SOL     OW32812   1.182   3.545   6.731
 6779SOL    HW132813   1.184   3.452   6.696
 6779SOL    HW232814   1.087   3.575   6.742
 6780SOL     OW32815   5.412   0.154   2.101
 6780SOL    HW132816   5.438   0.189   2.011
 6780SOL    HW232817   5.417   0.228   2.168
 6781SOL     OW32818   5.120   4.397   5.691
 6781SOL    HW132819   5.196   4.367   5.749
 6781SOL    HW232820   5.068   4.317   5.660
 6782SOL     OW32821   2.768   6.771   6.301
 6782SOL    HW132822   2.715   6.831   6.242
 6782SOL    HW232823   2.863   6.803   6.305
 6783SOL     OW32824   3.440   0.450   2.072
 6783SOL    HW132825   3.448   0.430   1.974
 6783SOL    HW232826   3.445   0.548   2.087
 6784SOL     OW32827   6.013   6.976   2.119
 6784SOL    HW132828   6.085   6.907   2.127
 6784SOL    HW232829   5.993   7.014   2.209
 6785SOL     OW32830   5.047   4.964   5.756
 6785SOL    HW132831   5.130   5.020   5.751
 6785SOL    HW232832   5.046   4.914   5.843
 6786SOL     OW32833   3.497   2.546   5.149
 6786SOL    HW132834   3.592   2.564   5.174
 6786SOL    HW232835   3.495   2.484   5.070
 6787SOL     OW32836   5.064   4.190   2.361
 6787SOL    HW132837   5.043   4.285   2.336
 6787SOL    HW232838   5.131   4.153   2.297
 6788SOL     OW32839   3.366   5.633   2.093
 6788SOL    HW132840   3.378   5.586   2.180
 6788SOL    HW232841   3.452   5.633   2.043
 6789SOL     OW32842   0.592   2.734   6.641
 6789SOL    HW132843   0.675   2.789   6.650
 6789SOL    HW232844   0.605   2.663   6.573
 6790SOL     OW32845   2.135   1.700   1.698
 6790SOL    HW132846   2.037   1.679   1.696
 6790SOL    HW232847   2.187   1.623   1.662
 6791SOL     OW32848   5.082   1.373   3.264
 6791SOL    HW132849   5.098   1.450   3.327
 6791SOL    HW232850   5.111   1.400   3.172
 6792SOL     OW32851   3.824   1.065   2.752
 6792SOL    HW132852   3.803   1.157   2.784
 6792SOL    HW232853   3.781   0.998   2.812
 6793SOL     OW32854   4.333   0.531   2.321
 6793SOL    HW132855   4.346   0.460   2.390
 6793SOL    HW232856   4.240   0.527   2.286
 6794SOL     OW32857   2.702   2.521   2.395
 6794SOL    HW132858   2.649   2.604   2.412
 6794SOL    HW232859   2.750   2.530   2.308
 6795SOL     OW32860   1.892   0.918   1.046
 6795SOL    HW132861   1.926   0.925   0.952
 6795SOL    HW232862   1.796   0.893   1.044
 6796SOL     OW32863   1.405   6.407   7.154
 6796SOL    HW132864   1.455   6.461   7.087
 6796SOL    HW232865   1.377   6.320   7.113
 6797SOL     OW32866   6.267   0.657   0.348
 6797SOL    HW132867   6.199   0.584   0.343
 6797SOL    HW232868   6.349   0.624   0.395
 6798SOL     OW32869   5.951   3.530   1.428
 6798SOL    HW132870   5.865   3.541   1.478
 6798SOL    HW232871   5.942   3.571   1.337
 6799SOL     OW32872   6.009   3.912   1.789
 6799SOL    HW132873   6.034   3.818   1.810
 6799SOL    HW232874   5.929   3.912   1.728
 6800SOL     OW32875   2.531   6.459   6.322
 6800SOL    HW132876   2.487   6.544   6.294
 6800SOL    HW232877   2.470   6.382   6.303
 6801SOL     OW32878   4.436   4.451   1.649
 6801SOL    HW132879   4.521   4.469   1.699
 6801SOL    HW232880   4.359   4.487   1.700
 6802SOL     OW32881   4.610   2.278   5.092
 6802SOL    HW132882   4.687   2.262   5.031
 6802SOL    HW232883   4.612   2.213   5.167
 6803SOL     OW32884   2.189   6.114   5.544
 6803SOL    HW132885   2.279   6.079   5.569
 6803SOL    HW232886   2.118   6.049   5.573
 6804SOL     OW32887   4.357   1.685   0.352
 6804SOL    HW132888   4.431   1.736   0.396
 6804SOL    HW232889   4.366   1.693   0.253
 6805SOL     OW32890   4.153   3.351   0.320
 6805SOL    HW132891   4.072   3.403   0.296
 6805SOL    HW232892   4.181   3.372   0.414
 6806SOL     OW32893   5.934   1.567   3.754
 6806SOL    HW132894   5.979   1.487   3.795
 6806SOL    HW232895   5.979   1.590   3.668
 6807SOL     OW32896   6.269   5.462   6.701
 6807SOL    HW132897   6.358   5.427   6.673
 6807SOL    HW232898   6.272   5.562   6.704
 6808SOL     OW32899   4.865   3.595   5.347
 6808SOL    HW132900   4.843   3.542   5.429
 6808SOL    HW232901   4.962   3.617   5.346
 6809SOL     OW32902   1.581   5.261   1.106
 6809SOL    HW132903   1.556   5.277   1.010
 6809SOL    HW232904   1.508   5.211   1.152
 6810SOL     OW32905   4.956   5.393   7.151
 6810SOL    HW132906   4.996   5.475   7.112
 6810SOL    HW232907   4.961   5.397   7.251
 6811SOL     OW32908   5.462   1.148   0.010
 6811SOL    HW132909   5.525   1.104   0.074
 6811SOL    HW232910   5.400   1.208   0.061
 6812SOL     OW32911   0.394   6.780   5.207
 6812SOL    HW132912   0.466   6.801   5.274
 6812SOL    HW232913   0.323   6.725   5.251
 6813SOL     OW32914   2.558   1.270   6.324
 6813SOL    HW132915   2.556   1.282   6.224
 6813SOL    HW232916   2.475   1.308   6.363
 6814SOL     OW32917   2.156   6.489   4.579
 6814SOL    HW132918   2.198   6.553   4.515
 6814SOL    HW232919   2.183   6.395   4.555
 6815SOL     OW32920   2.299   5.757   2.710
 6815SOL    HW132921   2.296   5.753   2.810
 6815SOL    HW232922   2.218   5.713   2.672
 6816SOL     OW32923   3.473   4.840   0.665
 6816SOL    HW132924   3.570   4.848   0.646
 6816SOL    HW232925   3.425   4.812   0.582
 6817SOL     OW32926   5.482   3.245   5.062
 6817SOL    HW132927   5.390   3.209   5.049
 6817SOL    HW232928   5.548   3.188   5.013
 6818SOL     OW32929   5.459   5.817   2.669
 6818SOL    HW132930   5.498   5.744   2.725
 6818SOL    HW232931   5.506   5.820   2.581
 6819SOL     OW32932   2.680   3.090   2.449
 6819SOL    HW132933   2.587   3.110   2.418
 6819SOL    HW232934   2.676   3.051   2.541
 6820SOL     OW32935   6.856   5.745   3.317
 6820SOL    HW132936   6.778   5.800   3.345
 6820SOL    HW232937   6.839   5.708   3.226
 6821SOL     OW32938   7.316   6.809   1.262
 6821SOL    HW132939   7.291   6.906   1.271
 6821SOL    HW232940   7.411   6.796   1.289
 6822SOL     OW32941   4.861   5.933   4.790
 6822SOL    HW132942   4.842   5.852   4.845
 6822SOL    HW232943   4.863   6.014   4.849
 6823SOL     OW32944   4.004   1.907   3.604
 6823SOL    HW132945   3.965   1.852   3.678
 6823SOL    HW232946   3.999   1.855   3.518
 6824SOL     OW32947   1.717   6.653   6.144
 6824SOL    HW132948   1.728   6.599   6.228
 6824SOL    HW232949   1.795   6.715   6.135
 6825SOL     OW32950   2.494   0.279   5.898
 6825SOL    HW132951   2.443   0.364   5.908
 6825SOL    HW232952   2.531   0.274   5.805
 6826SOL     OW32953   4.276   2.897   5.841
 6826SOL    HW132954   4.199   2.960   5.852
 6826SOL    HW232955   4.359   2.939   5.877
 6827SOL     OW32956   5.243   0.235   1.356
 6827SOL    HW132957   5.173   0.295   1.395
 6827SOL    HW232958   5.293   0.284   1.284
 6828SOL     OW32959   4.788   3.416   5.526
 6828SOL    HW132960   4.690   3.414   5.503
 6828SOL    HW232961   4.834   3.337   5.485
 6829SOL     OW32962   0.112   5.786   3.192
 6829SOL    HW132963   0.151   5.711   3.138
 6829SOL    HW232964   0.075   5.749   3.277
 6830SOL     OW32965   6.259   6.602   0.027
 6830SOL    HW132966   6.217   6.515  -0.001
 6830SOL    HW232967   6.358   6.590   0.033
 6831SOL     OW32968   2.709   3.542   0.786
 6831SOL    HW132969   2.713   3.442   0.787
 6831SOL    HW232970   2.669   3.573   0.700
 6832SOL     OW32971   5.693   7.276   4.232
 6832SOL    HW132972   5.716   7.263   4.135
 6832SOL    HW232973   5.702   7.189   4.280
 6833SOL     OW32974   2.596   2.547   0.191
 6833SOL    HW132975   2.673   2.486   0.175
 6833SOL    HW232976   2.618   2.638   0.158
 6834SOL     OW32977   2.878   3.451   2.265
 6834SOL    HW132978   2.838   3.368   2.228
 6834SOL    HW232979   2.822   3.530   2.239
 6835SOL     OW32980   2.364   1.190   3.541
 6835SOL    HW132981   2.444   1.240   3.574
 6835SOL    HW232982   2.356   1.103   3.590
 6836SOL     OW32983   4.496   4.851   3.537
 6836SOL    HW132984   4.533   4.944   3.539
 6836SOL    HW232985   4.531   4.803   3.457
 6837SOL     OW32986   5.708   2.071   2.992
 6837SOL    HW132987   5.806   2.067   2.973
 6837SOL    HW232988   5.670   1.979   2.993
 6838SOL     OW32989   6.971   6.623   6.679
 6838SOL    HW132990   7.005   6.579   6.762
 6838SOL    HW232991   7.012   6.713   6.669
 6839SOL     OW32992   1.214   1.941   1.534
 6839SOL    HW132993   1.200   2.004   1.459
 6839SOL    HW232994   1.262   1.859   1.501
 6840SOL     OW32995   5.197   3.180   3.279
 6840SOL    HW132996   5.131   3.253   3.300
 6840SOL    HW232997   5.167   3.095   3.322
 6841SOL     OW32998   0.317   2.923   5.697
 6841SOL    HW132999   0.307   2.914   5.796
 6841SOL    HW233000   0.248   2.986   5.662
 6842SOL     OW33001   2.074   1.451   0.669
 6842SOL    HW133002   2.153   1.470   0.727
 6842SOL    HW233003   2.094   1.374   0.609
 6843SOL     OW33004   4.692   4.229   6.406
 6843SOL    HW133005   4.774   4.263   6.451
 6843SOL    HW233006   4.673   4.135   6.436
 6844SOL     OW33007   5.488   0.760   6.239
 6844SOL    HW133008   5.482   0.667   6.275
 6844SOL    HW233009   5.505   0.757   6.141
 6845SOL     OW33010   2.698   5.948   7.183
 6845SOL    HW133011   2.712   6.036   7.229
 6845SOL    HW233012   2.732   5.875   7.242
 6846SOL     OW33013   1.403   5.876   0.009
 6846SOL    HW133014   1.363   5.862   0.100
 6846SOL    HW233015   1.384   5.796  -0.048
 6847SOL     OW33016   6.706   6.963   2.754
 6847SOL    HW133017   6.715   6.864   2.751
 6847SOL    HW233018   6.649   6.990   2.831
 6848SOL     OW33019   3.039   1.911   5.347
 6848SOL    HW133020   3.090   1.955   5.273
 6848SOL    HW233021   3.103   1.859   5.404
 6849SOL     OW33022   2.369   6.851   5.058
 6849SOL    HW133023   2.346   6.945   5.082
 6849SOL    HW233024   2.354   6.791   5.137
 6850SOL     OW33025   3.404   0.727   2.121
 6850SOL    HW133026   3.492   0.726   2.169
 6850SOL    HW233027   3.417   0.765   2.029
 6851SOL     OW33028   5.545   6.067   4.571
 6851SOL    HW133029   5.525   6.165   4.561
 6851SOL    HW233030   5.570   6.029   4.482
 6852SOL     OW33031   2.814   4.848   0.714
 6852SOL    HW133032   2.725   4.822   0.750
 6852SOL    HW233033   2.828   4.807   0.624
 6853SOL     OW33034   0.083   4.362   5.088
 6853SOL    HW133035   0.125   4.387   5.175
 6853SOL    HW233036   0.084   4.441   5.027
 6854SOL     OW33037   6.993   4.351   5.032
 6854SOL    HW133038   7.068   4.307   5.081
 6854SOL    HW233039   7.029   4.393   4.948
 6855SOL     OW33040   0.967   5.736   0.136
 6855SOL    HW133041   1.021   5.763   0.055
 6855SOL    HW233042   0.910   5.657   0.113
 6856SOL     OW33043   4.955   4.386   0.490
 6856SOL    HW133044   4.917   4.357   0.578
 6856SOL    HW233045   4.905   4.342   0.415
 6857SOL     OW33046   3.692   2.636   4.583
 6857SOL    HW133047   3.650   2.716   4.627
 6857SOL    HW233048   3.791   2.641   4.592
 6858SOL     OW33049   4.876   2.006   5.946
 6858SOL    HW133050   4.973   2.003   5.918
 6858SOL    HW233051   4.823   2.052   5.875
 6859SOL     OW33052   4.322   0.536   4.327
 6859SOL    HW133053   4.308   0.575   4.236
 6859SOL    HW233054   4.242   0.554   4.384
 6860SOL     OW33055   1.540   2.147   0.551
 6860SOL    HW133056   1.479   2.144   0.630
 6860SOL    HW233057   1.548   2.242   0.519
 6861SOL     OW33058   5.528   3.969   6.349
 6861SOL    HW133059   5.566   3.988   6.258
 6861SOL    HW233060   5.602   3.963   6.416
 6862SOL     OW33061   4.668   3.302   2.371
 6862SOL    HW133062   4.672   3.254   2.284
 6862SOL    HW233063   4.712   3.247   2.442
 6863SOL     OW33064   1.656   3.443   0.846
 6863SOL    HW133065   1.631   3.509   0.917
 6863SOL    HW233066   1.730   3.384   0.880
 6864SOL     OW33067   4.910   6.208   7.165
 6864SOL    HW133068   4.852   6.276   7.121
 6864SOL    HW233069   4.863   6.121   7.171
 6865SOL     OW33070   2.308   2.924   2.561
 6865SOL    HW133071   2.237   2.951   2.626
 6865SOL    HW233072   2.297   2.828   2.537
 6866SOL     OW33073   5.030   0.852   5.680
 6866SOL    HW133074   5.060   0.810   5.766
 6866SOL    HW233075   4.962   0.922   5.700
 6867SOL     OW33076   0.679   0.985   5.893
 6867SOL    HW133077   0.740   0.970   5.971
 6867SOL    HW233078   0.721   1.048   5.829
 6868SOL     OW33079   4.512   7.161   1.400
 6868SOL    HW133080   4.552   7.136   1.313
 6868SOL    HW233081   4.575   7.136   1.474
 6869SOL     OW33082   4.614   2.554   5.151
 6869SOL    HW133083   4.700   2.605   5.154
 6869SOL    HW233084   4.634   2.457   5.134
 6870SOL     OW33085   0.738   7.240   5.505
 6870SOL    HW133086   0.797   7.192   5.571
 6870SOL    HW233087   0.750   7.199   5.415
 6871SOL     OW33088   5.513   3.518   0.494
 6871SOL    HW133089   5.453   3.591   0.525
 6871SOL    HW233090   5.556   3.474   0.573
 6872SOL     OW33091   4.721   6.343   4.959
 6872SOL    HW133092   4.728   6.311   4.864
 6872SOL    HW233093   4.641   6.300   5.002
 6873SOL     OW33094   4.758   2.215   4.219
 6873SOL    HW133095   4.669   2.170   4.209
 6873SOL    HW233096   4.747   2.314   4.211
 6874SOL     OW33097   2.829   2.674   6.773
 6874SOL    HW133098   2.800   2.581   6.752
 6874SOL    HW233099   2.766   2.739   6.731
 6875SOL     OW33100   1.289   3.616   6.021
 6875SOL    HW133101   1.314   3.580   6.111
 6875SOL    HW233102   1.303   3.545   5.952
 6876SOL     OW33103   6.714   4.712   2.951
 6876SOL    HW133104   6.718   4.707   2.852
 6876SOL    HW233105   6.623   4.687   2.983
 6877SOL     OW33106   0.401   0.322   5.712
 6877SOL    HW133107   0.417   0.381   5.791
 6877SOL    HW233108   0.346   0.371   5.644
 6878SOL     OW33109   0.688   5.975   1.019
 6878SOL    HW133110   0.601   5.988   1.068
 6878SOL    HW233111   0.729   6.064   1.001
 6879SOL     OW33112   2.690   3.652   2.188
 6879SOL    HW133113   2.613   3.711   2.214
 6879SOL    HW233114   2.663   3.595   2.111
 6880SOL     OW33115   4.771   4.867   5.570
 6880SOL    HW133116   4.815   4.785   5.535
 6880SOL    HW233117   4.812   4.893   5.657
 6881SOL     OW33118   6.931   5.918   6.053
 6881SOL    HW133119   6.848   5.873   6.020
 6881SOL    HW233120   7.006   5.852   6.054
 6882SOL     OW33121   2.691   4.152   5.562
 6882SOL    HW133122   2.700   4.054   5.544
 6882SOL    HW233123   2.742   4.202   5.492
 6883SOL     OW33124   1.503   0.862   5.802
 6883SOL    HW133125   1.523   0.773   5.842
 6883SOL    HW233126   1.581   0.893   5.748
 6884SOL     OW33127   6.798   2.488   5.857
 6884SOL    HW133128   6.846   2.526   5.936
 6884SOL    HW233129   6.854   2.501   5.775
 6885SOL     OW33130   3.977   6.196   2.064
 6885SOL    HW133131   3.981   6.294   2.084
 6885SOL    HW233132   3.905   6.177   1.998
 6886SOL     OW33133   4.072   1.476   0.863
 6886SOL    HW133134   4.054   1.452   0.768
 6886SOL    HW233135   4.007   1.429   0.923
 6887SOL     OW33136   3.761   6.249   6.406
 6887SOL    HW133137   3.716   6.296   6.482
 6887SOL    HW233138   3.838   6.196   6.441
 6888SOL     OW33139   6.641   4.549   6.232
 6888SOL    HW133140   6.575   4.582   6.165
 6888SOL    HW233141   6.732   4.584   6.210
 6889SOL     OW33142   0.024   3.630   1.419
 6889SOL    HW133143   0.116   3.667   1.408
 6889SOL    HW233144   0.029   3.537   1.455
 6890SOL     OW33145   0.575   5.879   6.266
 6890SOL    HW133146   0.654   5.834   6.224
 6890SOL    HW233147   0.598   5.907   6.359
 6891SOL     OW33148   7.133   3.427   0.425
 6891SOL    HW133149   7.223   3.413   0.465
 6891SOL    HW233150   7.119   3.524   0.406
 6892SOL     OW33151   1.179   0.286   1.872
 6892SOL    HW133152   1.150   0.274   1.967
 6892SOL    HW233153   1.100   0.277   1.812
 6893SOL     OW33154   1.241   1.421   3.389
 6893SOL    HW133155   1.188   1.506   3.396
 6893SOL    HW233156   1.338   1.442   3.399
 6894SOL     OW33157   4.532   2.568   3.232
 6894SOL    HW133158   4.454   2.627   3.209
 6894SOL    HW233159   4.498   2.482   3.270
 6895SOL     OW33160   6.766   3.401   0.194
 6895SOL    HW133161   6.701   3.329   0.220
 6895SOL    HW233162   6.779   3.399   0.095
 6896SOL     OW33163   5.960   5.779   4.704
 6896SOL    HW133164   5.922   5.696   4.663
 6896SOL    HW233165   6.047   5.801   4.659
 6897SOL     OW33166   0.943   6.216   6.189
 6897SOL    HW133167   0.913   6.290   6.248
 6897SOL    HW233168   0.947   6.248   6.094
 6898SOL     OW33169   2.549   4.626   4.607
 6898SOL    HW133170   2.537   4.664   4.699
 6898SOL    HW233171   2.578   4.530   4.615
 6899SOL     OW33172   5.753   0.091   1.127
 6899SOL    HW133173   5.767   0.167   1.191
 6899SOL    HW233174   5.824   0.023   1.141
 6900SOL     OW33175   5.656   3.162   7.274
 6900SOL    HW133176   5.642   3.223   7.197
 6900SOL    HW233177   5.628   3.069   7.248
 6901SOL     OW33178   5.635   6.626   4.086
 6901SOL    HW133179   5.620   6.718   4.122
 6901SOL    HW233180   5.636   6.560   4.161
 6902SOL     OW33181   5.249   2.336   3.375
 6902SOL    HW133182   5.149   2.325   3.373
 6902SOL    HW233183   5.291   2.262   3.324
 6903SOL     OW33184   5.189   6.533   4.709
 6903SOL    HW133185   5.236   6.445   4.704
 6903SOL    HW233186   5.102   6.527   4.661
 6904SOL     OW33187   2.530   3.417   1.275
 6904SOL    HW133188   2.463   3.390   1.206
 6904SOL    HW233189   2.482   3.453   1.355
 6905SOL     OW33190   2.565   0.934   6.766
 6905SOL    HW133191   2.590   0.843   6.797
 6905SOL    HW233192   2.634   0.968   6.701
 6906SOL     OW33193   3.294   2.035   5.706
 6906SOL    HW133194   3.256   2.108   5.649
 6906SOL    HW233195   3.263   1.946   5.672
 6907SOL     OW33196   4.099   0.434   6.536
 6907SOL    HW133197   4.171   0.399   6.596
 6907SOL    HW233198   4.096   0.379   6.452
 6908SOL     OW33199   0.463   2.864   6.121
 6908SOL    HW133200   0.552   2.908   6.113
 6908SOL    HW233201   0.460   2.811   6.206
 6909SOL     OW33202   4.929   0.514   7.152
 6909SOL    HW133203   4.830   0.505   7.144
 6909SOL    HW233204   4.972   0.479   7.069
 6910SOL     OW33205   6.719   5.610   3.757
 6910SOL    HW133206   6.745   5.593   3.662
 6910SOL    HW233207   6.766   5.545   3.817
 6911SOL     OW33208   3.512   0.375   0.458
 6911SOL    HW133209   3.504   0.285   0.501
 6911SOL    HW233210   3.447   0.438   0.501
 6912SOL     OW33211   6.117   2.305   0.482
 6912SOL    HW133212   6.029   2.353   0.477
 6912SOL    HW233213   6.104   2.208   0.460
 6913SOL     OW33214   0.848   5.754   1.114
 6913SOL    HW133215   0.783   5.821   1.080
 6913SOL    HW233216   0.935   5.799   1.134
 6914SOL     OW33217   4.004   2.503   5.117
 6914SOL    HW133218   4.035   2.598   5.123
 6914SOL    HW233219   4.014   2.470   5.023
 6915SOL     OW33220   6.011   2.319   1.289
 6915SOL    HW133221   6.004   2.407   1.241
 6915SOL    HW233222   6.047   2.250   1.225
 6916SOL     OW33223   6.811   5.047   1.318
 6916SOL    HW133224   6.856   4.959   1.304
 6916SOL    HW233225   6.877   5.112   1.355
 6917SOL     OW33226   6.305   1.042   3.508
 6917SOL    HW133227   6.250   0.960   3.497
 6917SOL    HW233228   6.357   1.059   3.424
 6918SOL     OW33229   2.705   4.664   6.981
 6918SOL    HW133230   2.683   4.649   6.885
 6918SOL    HW233231   2.790   4.617   7.004
 6919SOL     OW33232   3.070   3.946   1.824
 6919SOL    HW133233   3.069   3.873   1.755
 6919SOL    HW233234   2.977   3.962   1.857
 6920SOL     OW33235   5.202   4.340   0.623
 6920SOL    HW133236   5.107   4.371   0.624
 6920SOL    HW233237   5.209   4.250   0.666
 6921SOL     OW33238   1.369   3.164   1.180
 6921SOL    HW133239   1.364   3.255   1.139
 6921SOL    HW233240   1.445   3.113   1.138
 6922SOL     OW33241   3.954   7.137   6.170
 6922SOL    HW133242   3.936   7.070   6.099
 6922SOL    HW233243   3.901   7.115   6.252
 6923SOL     OW33244   7.103   5.380   7.248
 6923SOL    HW133245   7.169   5.414   7.315
 6923SOL    HW233246   7.150   5.327   7.178
 6924SOL     OW33247   2.091   7.298   7.159
 6924SOL    HW133248   2.004   7.323   7.202
 6924SOL    HW233249   2.143   7.381   7.138
 6925SOL     OW33250   3.248   4.917   0.877
 6925SOL    HW133251   3.345   4.932   0.859
 6925SOL    HW233252   3.223   4.962   0.963
 6926SOL     OW33253   6.046   2.317   0.957
 6926SOL    HW133254   6.023   2.391   0.893
 6926SOL    HW233255   5.962   2.272   0.987
 6927SOL     OW33256   6.376   2.161   0.038
 6927SOL    HW133257   6.398   2.249  -0.003
 6927SOL    HW233258   6.374   2.091  -0.033
 6928SOL     OW33259   1.925   1.988   1.057
 6928SOL    HW133260   1.961   1.919   1.119
 6928SOL    HW233261   1.996   2.056   1.039
 6929SOL     OW33262   5.757   4.089   0.916
 6929SOL    HW133263   5.782   4.009   0.971
 6929SOL    HW233264   5.829   4.158   0.922
 6930SOL     OW33265   6.712   4.276   0.313
 6930SOL    HW133266   6.683   4.183   0.334
 6930SOL    HW233267   6.633   4.338   0.320
 6931SOL     OW33268   2.690   0.885   2.054
 6931SOL    HW133269   2.643   0.798   2.038
 6931SOL    HW233270   2.788   0.868   2.066
 6932SOL     OW33271   3.001   0.350   0.282
 6932SOL    HW133272   3.049   0.293   0.216
 6932SOL    HW233273   3.060   0.366   0.361
 6933SOL     OW33274   6.204   6.356   5.315
 6933SOL    HW133275   6.107   6.379   5.320
 6933SOL    HW233276   6.216   6.257   5.317
 6934SOL     OW33277   0.357   5.461   6.397
 6934SOL    HW133278   0.273   5.482   6.347
 6934SOL    HW233279   0.352   5.369   6.434
 6935SOL     OW33280   5.750   0.834   7.257
 6935SOL    HW133281   5.746   0.767   7.183
 6935SOL    HW233282   5.672   0.822   7.318
 6936SOL     OW33283   1.260   3.930   6.920
 6936SOL    HW133284   1.335   3.985   6.957
 6936SOL    HW233285   1.225   3.870   6.991
 6937SOL     OW33286   1.672   1.167   1.141
 6937SOL    HW133287   1.619   1.229   1.199
 6937SOL    HW233288   1.619   1.085   1.122
 6938SOL     OW33289   0.348   6.506   1.717
 6938SOL    HW133290   0.275   6.559   1.760
 6938SOL    HW233291   0.375   6.431   1.778
 6939SOL     OW33292   5.203   1.000   3.236
 6939SOL    HW133293   5.259   0.938   3.293
 6939SOL    HW233294   5.140   1.051   3.294
 6940SOL     OW33295   0.638   2.506   6.454
 6940SOL    HW133296   0.641   2.414   6.491
 6940SOL    HW233297   0.707   2.516   6.382
 6941SOL     OW33298   1.474   4.278   3.295
 6941SOL    HW133299   1.520   4.189   3.295
 6941SOL    HW233300   1.508   4.333   3.370
 6942SOL     OW33301   0.544   3.865   1.792
 6942SOL    HW133302   0.561   3.904   1.701
 6942SOL    HW233303   0.446   3.858   1.808
 6943SOL     OW33304   1.698   2.229   1.745
 6943SOL    HW133305   1.690   2.313   1.798
 6943SOL    HW233306   1.777   2.177   1.776
 6944SOL     OW33307   0.927   1.313   2.512
 6944SOL    HW133308   1.007   1.263   2.544
 6944SOL    HW233309   0.877   1.349   2.591
 6945SOL     OW33310   2.043   4.500   6.085
 6945SOL    HW133311   1.979   4.424   6.072
 6945SOL    HW233312   2.079   4.497   6.178
 6946SOL     OW33313   6.863   1.827   0.942
 6946SOL    HW133314   6.828   1.865   1.028
 6946SOL    HW233315   6.904   1.900   0.888
 6947SOL     OW33316   3.979   1.549   2.867
 6947SOL    HW133317   4.011   1.494   2.790
 6947SOL    HW233318   3.997   1.500   2.953
 6948SOL     OW33319   3.179   2.785   2.506
 6948SOL    HW133320   3.186   2.747   2.414
 6948SOL    HW233321   3.147   2.714   2.569
 6949SOL     OW33322   6.589   3.129   5.328
 6949SOL    HW133323   6.500   3.175   5.334
 6949SOL    HW233324   6.588   3.048   5.386
 6950SOL     OW33325   2.794   2.411   0.936
 6950SOL    HW133326   2.776   2.441   0.842
 6950SOL    HW233327   2.728   2.455   0.998
 6951SOL     OW33328   0.692   5.544   5.208
 6951SOL    HW133329   0.653   5.565   5.118
 6951SOL    HW233330   0.791   5.560   5.207
 6952SOL     OW33331   1.261   7.096   3.453
 6952SOL    HW133332   1.344   7.152   3.442
 6952SOL    HW233333   1.264   7.050   3.541
 6953SOL     OW33334   1.336   1.730   3.992
 6953SOL    HW133335   1.340   1.829   4.007
 6953SOL    HW233336   1.327   1.683   4.080
 6954SOL     OW33337   1.201   5.436   1.600
 6954SOL    HW133338   1.225   5.373   1.674
 6954SOL    HW233339   1.148   5.387   1.531
 6955SOL     OW33340   0.859   5.217   6.138
 6955SOL    HW133341   0.869   5.222   6.238
 6955SOL    HW233342   0.878   5.306   6.098
 6956SOL     OW33343   4.198   0.937   5.115
 6956SOL    HW133344   4.190   1.016   5.176
 6956SOL    HW233345   4.131   0.867   5.142
 6957SOL     OW33346   3.996   2.531   3.866
 6957SOL    HW133347   3.988   2.498   3.772
 6957SOL    HW233348   4.065   2.477   3.915
 6958SOL     OW33349   3.618   5.247   2.758
 6958SOL    HW133350   3.610   5.232   2.857
 6958SOL    HW233351   3.565   5.328   2.732
 6959SOL     OW33352   5.641   4.392   0.913
 6959SOL    HW133353   5.551   4.396   0.868
 6959SOL    HW233354   5.711   4.370   0.846
 6960SOL     OW33355   5.479   6.160   3.747
 6960SOL    HW133356   5.528   6.234   3.793
 6960SOL    HW233357   5.503   6.160   3.650
 6961SOL     OW33358   3.581   1.712   5.264
 6961SOL    HW133359   3.574   1.673   5.356
 6961SOL    HW233360   3.582   1.638   5.196
 6962SOL     OW33361   5.740   2.248   5.205
 6962SOL    HW133362   5.739   2.243   5.305
 6962SOL    HW233363   5.661   2.200   5.168
 6963SOL     OW33364   0.063   7.094   6.308
 6963SOL    HW133365   0.006   7.016   6.335
 6963SOL    HW233366   0.015   7.179   6.330
 6964SOL     OW33367   6.116   0.039   3.920
 6964SOL    HW133368   6.103  -0.057   3.942
 6964SOL    HW233369   6.175   0.082   3.988
 6965SOL     OW33370   5.220   4.483   6.580
 6965SOL    HW133371   5.129   4.520   6.599
 6965SOL    HW233372   5.233   4.476   6.481
 6966SOL     OW33373   0.153   1.533   2.673
 6966SOL    HW133374   0.057   1.507   2.660
 6966SOL    HW233375   0.175   1.608   2.611
 6967SOL     OW33376   0.882   2.656   4.958
 6967SOL    HW133377   0.975   2.620   4.960
 6967SOL    HW233378   0.860   2.688   4.866
 6968SOL     OW33379   2.043   5.214   0.596
 6968SOL    HW133380   2.025   5.311   0.584
 6968SOL    HW233381   2.003   5.162   0.521
 6969SOL     OW33382   4.101   4.129   0.902
 6969SOL    HW133383   4.169   4.084   0.844
 6969SOL    HW233384   4.046   4.061   0.949
 6970SOL     OW33385   4.999   5.589   1.887
 6970SOL    HW133386   4.975   5.505   1.935
 6970SOL    HW233387   4.930   5.609   1.818
 6971SOL     OW33388   4.654   4.562   3.197
 6971SOL    HW133389   4.632   4.487   3.135
 6971SOL    HW233390   4.733   4.538   3.253
 6972SOL     OW33391   4.193   7.008   1.278
 6972SOL    HW133392   4.183   6.999   1.179
 6972SOL    HW233393   4.135   6.942   1.325
 6973SOL     OW33394   0.575   5.310   1.460
 6973SOL    HW133395   0.637   5.389   1.457
 6973SOL    HW233396   0.488   5.334   1.417
 6974SOL     OW33397   6.676   0.825   3.049
 6974SOL    HW133398   6.749   0.763   3.076
 6974SOL    HW233399   6.698   0.868   2.961
 6975SOL     OW33400   4.448   4.547   6.070
 6975SOL    HW133401   4.363   4.505   6.102
 6975SOL    HW233402   4.507   4.567   6.147
 6976SOL     OW33403   7.217   2.479   0.461
 6976SOL    HW133404   7.260   2.443   0.378
 6976SOL    HW233405   7.123   2.446   0.466
 6977SOL     OW33406   1.241   2.265   1.914
 6977SOL    HW133407   1.255   2.350   1.965
 6977SOL    HW233408   1.250   2.283   1.816
 6978SOL     OW33409   2.465   7.179   0.237
 6978SOL    HW133410   2.495   7.247   0.171
 6978SOL    HW233411   2.367   7.162   0.226
 6979SOL     OW33412   4.172   5.347   3.933
 6979SOL    HW133413   4.118   5.273   3.974
 6979SOL    HW233414   4.216   5.314   3.849
 6980SOL     OW33415   6.831   6.991   1.832
 6980SOL    HW133416   6.791   6.938   1.908
 6980SOL    HW233417   6.919   6.951   1.807
 6981SOL     OW33418   0.347   4.123   4.674
 6981SOL    HW133419   0.421   4.081   4.621
 6981SOL    HW233420   0.262   4.072   4.657
 6982SOL     OW33421   3.864   7.194   4.324
 6982SOL    HW133422   3.789   7.259   4.316
 6982SOL    HW233423   3.926   7.224   4.396
 6983SOL     OW33424   5.629   4.888   2.024
 6983SOL    HW133425   5.693   4.932   2.087
 6983SOL    HW233426   5.552   4.949   2.007
 6984SOL     OW33427   2.034   6.857   0.868
 6984SOL    HW133428   2.003   6.909   0.948
 6984SOL    HW233429   2.133   6.856   0.864
 6985SOL     OW33430   0.557   4.693   6.033
 6985SOL    HW133431   0.459   4.692   6.053
 6985SOL    HW233432   0.570   4.688   5.934
 6986SOL     OW33433   4.757   4.650   6.855
 6986SOL    HW133434   4.754   4.579   6.784
 6986SOL    HW233435   4.783   4.737   6.814
 6987SOL     OW33436   1.310   2.015   4.221
 6987SOL    HW133437   1.302   2.015   4.321
 6987SOL    HW233438   1.219   2.013   4.181
 6988SOL     OW33439   5.726   0.106   0.789
 6988SOL    HW133440   5.813   0.083   0.833
 6988SOL    HW233441   5.726   0.071   0.696
 6989SOL     OW33442   2.380   7.207   1.874
 6989SOL    HW133443   2.304   7.272   1.866
 6989SOL    HW233444   2.373   7.157   1.960
 6990SOL     OW33445   2.957   7.328   0.535
 6990SOL    HW133446   2.901   7.266   0.589
 6990SOL    HW233447   2.946   7.421   0.570
 6991SOL     OW33448   5.006   6.389   6.601
 6991SOL    HW133449   5.029   6.410   6.696
 6991SOL    HW233450   4.907   6.397   6.588
 6992SOL     OW33451   5.968   2.498   6.270
 6992SOL    HW133452   6.049   2.452   6.307
 6992SOL    HW233453   5.993   2.590   6.241
 6993SOL     OW33454   3.024   0.048   1.464
 6993SOL    HW133455   3.107   0.001   1.432
 6993SOL    HW233456   2.961  -0.018   1.503
 6994SOL     OW33457   4.990   3.148   6.336
 6994SOL    HW133458   4.987   3.103   6.247
 6994SOL    HW233459   5.009   3.246   6.323
 6995SOL     OW33460   6.604   1.686   7.290
 6995SOL    HW133461   6.678   1.620   7.275
 6995SOL    HW233462   6.517   1.637   7.296
 6996SOL     OW33463   4.143   7.052   6.693
 6996SOL    HW133464   4.122   7.105   6.610
 6996SOL    HW233465   4.162   6.957   6.668
 6997SOL     OW33466   3.532   1.736   0.789
 6997SOL    HW133467   3.582   1.662   0.744
 6997SOL    HW233468   3.587   1.772   0.864
 6998SOL     OW33469   6.341   2.179   4.325
 6998SOL    HW133470   6.317   2.204   4.419
 6998SOL    HW233471   6.295   2.093   4.301
 6999SOL     OW33472   3.202   6.927   0.899
 6999SOL    HW133473   3.134   6.860   0.930
 6999SOL    HW233474   3.283   6.921   0.956
 7000SOL     OW33475   5.294   1.776   3.813
 7000SOL    HW133476   5.267   1.800   3.719
 7000SOL    HW233477   5.380   1.821   3.836
 7001SOL     OW33478   1.537   2.069   4.925
 7001SOL    HW133479   1.610   2.135   4.941
 7001SOL    HW233480   1.477   2.102   4.852
 7002SOL     OW33481   2.250   0.102   6.387
 7002SOL    HW133482   2.286   0.085   6.479
 7002SOL    HW233483   2.160   0.144   6.393
 7003SOL     OW33484   3.685   7.220   1.786
 7003SOL    HW133485   3.705   7.212   1.688
 7003SOL    HW233486   3.603   7.167   1.808
 7004SOL     OW33487   0.516   4.044   6.329
 7004SOL    HW133488   0.533   4.110   6.402
 7004SOL    HW233489   0.506   4.092   6.242
 7005SOL     OW33490   2.180   1.042   0.730
 7005SOL    HW133491   2.165   1.120   0.669
 7005SOL    HW233492   2.250   1.066   0.797
 7006SOL     OW33493   0.201   0.506   6.020
 7006SOL    HW133494   0.150   0.428   6.057
 7006SOL    HW233495   0.184   0.514   5.922
 7007SOL     OW33496   0.837   4.907   1.360
 7007SOL    HW133497   0.767   4.964   1.317
 7007SOL    HW233498   0.898   4.965   1.415
 7008SOL     OW33499   6.377   0.073   1.006
 7008SOL    HW133500   6.420  -0.016   1.010
 7008SOL    HW233501   6.348   0.093   0.912
 7009SOL     OW33502   5.489   6.829   2.644
 7009SOL    HW133503   5.435   6.784   2.715
 7009SOL    HW233504   5.437   6.905   2.605
 7010SOL     OW33505   7.136   2.471   5.882
 7010SOL    HW133506   7.185   2.390   5.849
 7010SOL    HW233507   7.201   2.538   5.917
 7011SOL     OW33508   5.079   6.876   4.031
 7011SOL    HW133509   5.028   6.879   3.945
 7011SOL    HW233510   5.162   6.822   4.019
 7012SOL     OW33511   2.373   6.735   1.994
 7012SOL    HW133512   2.440   6.807   2.011
 7012SOL    HW233513   2.309   6.729   2.070
 7013SOL     OW33514   7.212   3.741   2.755
 7013SOL    HW133515   7.211   3.814   2.686
 7013SOL    HW233516   7.187   3.655   2.711
 7014SOL     OW33517   3.941   5.925   6.987
 7014SOL    HW133518   4.004   5.861   6.942
 7014SOL    HW233519   3.986   5.965   7.067
 7015SOL     OW33520   4.871   2.952   3.420
 7015SOL    HW133521   4.966   2.962   3.392
 7015SOL    HW233522   4.861   2.870   3.477
 7016SOL     OW33523   2.947   5.268   3.575
 7016SOL    HW133524   2.884   5.191   3.564
 7016SOL    HW233525   3.035   5.246   3.534
 7017SOL     OW33526   2.942   1.750   1.595
 7017SOL    HW133527   2.925   1.708   1.506
 7017SOL    HW233528   2.961   1.679   1.662
 7018SOL     OW33529   2.700   0.320   3.273
 7018SOL    HW133530   2.770   0.391   3.269
 7018SOL    HW233531   2.639   0.337   3.350
 7019SOL     OW33532   0.553   3.373   0.710
 7019SOL    HW133533   0.576   3.445   0.645
 7019SOL    HW233534   0.476   3.402   0.766
 7020SOL     OW33535   0.994   1.320   0.943
 7020SOL    HW133536   0.941   1.398   0.976
 7020SOL    HW233537   0.957   1.235   0.981
 7021SOL     OW33538   4.523   3.351   1.271
 7021SOL    HW133539   4.477   3.394   1.349
 7021SOL    HW233540   4.565   3.422   1.215
 7022SOL     OW33541   4.201   7.214   4.249
 7022SOL    HW133542   4.179   7.311   4.262
 7022SOL    HW233543   4.163   7.182   4.162
 7023SOL     OW33544   7.014   3.487   3.636
 7023SOL    HW133545   7.006   3.427   3.715
 7023SOL    HW233546   7.016   3.431   3.552
 7024SOL     OW33547   4.728   2.671   6.694
 7024SOL    HW133548   4.796   2.678   6.766
 7024SOL    HW233549   4.751   2.595   6.633
 7025SOL     OW33550   5.068   2.966   1.456
 7025SOL    HW133551   5.167   2.977   1.444
 7025SOL    HW233552   5.051   2.897   1.526
 7026SOL     OW33553   5.379   6.687   2.869
 7026SOL    HW133554   5.284   6.666   2.893
 7026SOL    HW233555   5.436   6.608   2.889
 7027SOL     OW33556   4.930   6.237   2.045
 7027SOL    HW133557   5.027   6.257   2.030
 7027SOL    HW233558   4.875   6.282   1.975
 7028SOL     OW33559   5.896   6.433   6.585
 7028SOL    HW133560   5.926   6.416   6.491
 7028SOL    HW233561   5.922   6.525   6.612
 7029SOL     OW33562   2.627   1.902   0.378
 7029SOL    HW133563   2.712   1.890   0.429
 7029SOL    HW233564   2.643   1.968   0.304
 7030SOL     OW33565   7.263   4.596   1.861
 7030SOL    HW133566   7.307   4.527   1.803
 7030SOL    HW233567   7.323   4.617   1.938
 7031SOL     OW33568   1.226   4.682   5.497
 7031SOL    HW133569   1.241   4.780   5.510
 7031SOL    HW233570   1.305   4.632   5.533
 7032SOL     OW33571   3.884   1.792   1.136
 7032SOL    HW133572   3.882   1.841   1.224
 7032SOL    HW233573   3.971   1.744   1.127
 7033SOL     OW33574   5.789   4.457   0.688
 7033SOL    HW133575   5.823   4.549   0.670
 7033SOL    HW233576   5.833   4.392   0.626
 7034SOL     OW33577   6.285   4.310   0.347
 7034SOL    HW133578   6.298   4.304   0.446
 7034SOL    HW233579   6.371   4.332   0.303
 7035SOL     OW33580   0.668   5.739   2.570
 7035SOL    HW133581   0.731   5.727   2.493
 7035SOL    HW233582   0.605   5.661   2.574
 7036SOL     OW33583   1.687   1.451   3.533
 7036SOL    HW133584   1.677   1.352   3.522
 7036SOL    HW233585   1.783   1.473   3.550
 7037SOL     OW33586   3.854   4.980   3.025
 7037SOL    HW133587   3.800   4.923   2.964
 7037SOL    HW233588   3.890   4.925   3.100
 7038SOL     OW33589   5.122   5.235   4.784
 7038SOL    HW133590   5.092   5.283   4.702
 7038SOL    HW233591   5.215   5.201   4.770
 7039SOL     OW33592   2.436   5.833   4.009
 7039SOL    HW133593   2.428   5.928   3.979
 7039SOL    HW233594   2.533   5.810   4.023
 7040SOL     OW33595   5.288   7.168   0.758
 7040SOL    HW133596   5.303   7.191   0.662
 7040SOL    HW233597   5.376   7.150   0.802
 7041SOL     OW33598   3.893   7.093   5.596
 7041SOL    HW133599   3.966   7.101   5.528
 7041SOL    HW233600   3.919   7.144   5.678
 7042SOL     OW33601   3.223   0.451   1.734
 7042SOL    HW133602   3.149   0.400   1.690
 7042SOL    HW233603   3.305   0.449   1.677
 7043SOL     OW33604   3.013   0.672   1.080
 7043SOL    HW133605   2.997   0.588   1.133
 7043SOL    HW233606   3.108   0.672   1.046
 7044SOL     OW33607   5.561   1.503   0.535
 7044SOL    HW133608   5.641   1.477   0.588
 7044SOL    HW233609   5.576   1.595   0.496
 7045SOL     OW33610   7.142   1.208   3.328
 7045SOL    HW133611   7.152   1.211   3.229
 7045SOL    HW233612   7.046   1.218   3.352
 7046SOL     OW33613   4.092   0.771   0.034
 7046SOL    HW133614   4.036   0.769  -0.049
 7046SOL    HW233615   4.186   0.798   0.010
 7047SOL     OW33616   2.352   4.507   0.737
 7047SOL    HW133617   2.419   4.499   0.663
 7047SOL    HW233618   2.260   4.490   0.701
 7048SOL     OW33619   6.353   6.360   1.933
 7048SOL    HW133620   6.352   6.326   1.839
 7048SOL    HW233621   6.310   6.450   1.936
 7049SOL     OW33622   6.498   2.402   4.193
 7049SOL    HW133623   6.415   2.447   4.160
 7049SOL    HW233624   6.475   2.309   4.224
 7050SOL     OW33625   5.335   5.785   3.168
 7050SOL    HW133626   5.267   5.798   3.096
 7050SOL    HW233627   5.293   5.735   3.244
 7051SOL     OW33628   5.858   6.203   1.503
 7051SOL    HW133629   5.816   6.116   1.527
 7051SOL    HW233630   5.786   6.269   1.480
 7052SOL     OW33631   3.985   6.505   7.021
 7052SOL    HW133632   3.940   6.496   6.933
 7052SOL    HW233633   3.937   6.450   7.089
 7053SOL     OW33634   1.989   3.932   2.293
 7053SOL    HW133635   1.943   3.884   2.368
 7053SOL    HW233636   2.009   4.026   2.322
 7054SOL     OW33637   4.579   5.940   6.211
 7054SOL    HW133638   4.543   5.847   6.203
 7054SOL    HW233639   4.638   5.960   6.133
 7055SOL     OW33640   5.254   3.957   2.619
 7055SOL    HW133641   5.297   3.953   2.709
 7055SOL    HW233642   5.174   4.017   2.623
 7056SOL     OW33643   4.862   2.347   3.568
 7056SOL    HW133644   4.920   2.396   3.633
 7056SOL    HW233645   4.803   2.413   3.521
 7057SOL     OW33646   7.235   2.951   3.143
 7057SOL    HW133647   7.166   2.880   3.129
 7057SOL    HW233648   7.322   2.908   3.166
 7058SOL     OW33649   2.223   2.622   1.363
 7058SOL    HW133650   2.269   2.536   1.383
 7058SOL    HW233651   2.153   2.607   1.293
 7059SOL     OW33652   2.690   3.043   1.229
 7059SOL    HW133653   2.750   2.984   1.283
 7059SOL    HW233654   2.708   3.139   1.252
 7060SOL     OW33655   1.329   1.286   3.636
 7060SOL    HW133656   1.350   1.335   3.721
 7060SOL    HW233657   1.234   1.304   3.610
 7061SOL     OW33658   0.568   3.410   1.254
 7061SOL    HW133659   0.508   3.382   1.178
 7061SOL    HW233660   0.659   3.429   1.218
 7062SOL     OW33661   6.863   6.264   6.793
 7062SOL    HW133662   6.953   6.247   6.754
 7062SOL    HW233663   6.801   6.299   6.722
 7063SOL     OW33664   4.411   6.616   2.641
 7063SOL    HW133665   4.439   6.552   2.569
 7063SOL    HW233666   4.433   6.709   2.612
 7064SOL     OW33667   1.814   5.669   3.265
 7064SOL    HW133668   1.900   5.681   3.215
 7064SOL    HW233669   1.805   5.742   3.333
 7065SOL     OW33670   3.987   4.721   3.151
 7065SOL    HW133671   3.986   4.758   3.244
 7065SOL    HW233672   4.076   4.680   3.133
 7066SOL     OW33673   1.188   3.298   4.991
 7066SOL    HW133674   1.263   3.342   5.041
 7066SOL    HW233675   1.220   3.273   4.900
 7067SOL     OW33676   3.158   6.342   1.188
 7067SOL    HW133677   3.229   6.286   1.232
 7067SOL    HW233678   3.108   6.392   1.258
 7068SOL     OW33679   5.886   6.520   4.305
 7068SOL    HW133680   5.876   6.469   4.220
 7068SOL    HW233681   5.982   6.543   4.320
 7069SOL     OW33682   6.199   3.642   2.298
 7069SOL    HW133683   6.101   3.659   2.309
 7069SOL    HW233684   6.216   3.602   2.207
 7070SOL     OW33685   5.031   0.390   0.276
 7070SOL    HW133686   5.116   0.437   0.253
 7070SOL    HW233687   4.984   0.440   0.349
 7071SOL     OW33688   2.538   6.914   0.137
 7071SOL    HW133689   2.543   6.928   0.038
 7071SOL    HW233690   2.498   6.995   0.181
 7072SOL     OW33691   7.148   1.147   1.878
 7072SOL    HW133692   7.060   1.136   1.832
 7072SOL    HW233693   7.132   1.185   1.970
 7073SOL     OW33694   3.733   1.257   6.754
 7073SOL    HW133695   3.646   1.278   6.710
 7073SOL    HW233696   3.741   1.158   6.765
 7074SOL     OW33697   2.894   1.604   2.454
 7074SOL    HW133698   2.859   1.552   2.375
 7074SOL    HW233699   2.894   1.545   2.535
 7075SOL     OW33700   3.618   2.698   6.328
 7075SOL    HW133701   3.564   2.721   6.247
 7075SOL    HW233702   3.693   2.764   6.338
 7076SOL     OW33703   7.267   2.707   1.276
 7076SOL    HW133704   7.340   2.763   1.316
 7076SOL    HW233705   7.306   2.645   1.208
 7077SOL     OW33706   7.270   6.180   2.273
 7077SOL    HW133707   7.345   6.218   2.219
 7077SOL    HW233708   7.225   6.253   2.324
 7078SOL     OW33709   4.430   6.177   4.211
 7078SOL    HW133710   4.476   6.208   4.128
 7078SOL    HW233711   4.349   6.233   4.228
 7079SOL     OW33712   5.848   4.270   4.537
 7079SOL    HW133713   5.861   4.178   4.501
 7079SOL    HW233714   5.761   4.275   4.586
 7080SOL     OW33715   7.292   3.008   0.344
 7080SOL    HW133716   7.252   3.010   0.252
 7080SOL    HW233717   7.353   3.086   0.356
 7081SOL     OW33718   3.687   6.949   0.129
 7081SOL    HW133719   3.668   6.855   0.102
 7081SOL    HW233720   3.696   7.006   0.048
 7082SOL     OW33721   7.351   0.168   5.453
 7082SOL    HW133722   7.335   0.260   5.417
 7082SOL    HW233723   7.264   0.125   5.476
 7083SOL     OW33724   4.909   4.017   4.947
 7083SOL    HW133725   4.811   4.006   4.930
 7083SOL    HW233726   4.923   4.047   5.042
 7084SOL     OW33727   4.143   2.098   2.246
 7084SOL    HW133728   4.164   2.001   2.231
 7084SOL    HW233729   4.161   2.149   2.161
 7085SOL     OW33730   5.021   2.998   6.065
 7085SOL    HW133731   5.095   2.931   6.061
 7085SOL    HW233732   4.940   2.956   6.106
 7086SOL     OW33733   0.408   7.179   1.118
 7086SOL    HW133734   0.332   7.154   1.178
 7086SOL    HW233735   0.372   7.214   1.031
 7087SOL     OW33736   4.105   0.998   2.686
 7087SOL    HW133737   4.008   0.975   2.698
 7087SOL    HW233738   4.151   0.997   2.774
 7088SOL     OW33739   0.590   6.546   5.878
 7088SOL    HW133740   0.591   6.475   5.947
 7088SOL    HW233741   0.680   6.554   5.836
 7089SOL     OW33742   5.887   2.043   0.157
 7089SOL    HW133743   5.872   1.990   0.073
 7089SOL    HW233744   5.972   2.094   0.149
 7090SOL     OW33745   0.565   2.518   5.350
 7090SOL    HW133746   0.653   2.489   5.388
 7090SOL    HW233747   0.535   2.602   5.395
 7091SOL     OW33748   0.765   4.875   4.730
 7091SOL    HW133749   0.740   4.970   4.749
 7091SOL    HW233750   0.844   4.850   4.786
 7092SOL     OW33751   4.666   4.909   6.356
 7092SOL    HW133752   4.758   4.931   6.387
 7092SOL    HW233753   4.626   4.990   6.312
 7093SOL     OW33754   0.327   1.379   1.457
 7093SOL    HW133755   0.392   1.421   1.520
 7093SOL    HW233756   0.355   1.398   1.362
 7094SOL     OW33757   3.034   7.198   2.372
 7094SOL    HW133758   2.945   7.163   2.342
 7094SOL    HW233759   3.089   7.122   2.407
 7095SOL     OW33760   5.445   1.552   4.015
 7095SOL    HW133761   5.426   1.646   3.985
 7095SOL    HW233762   5.529   1.520   3.972
 7096SOL     OW33763   4.502   2.689   0.972
 7096SOL    HW133764   4.444   2.719   0.896
 7096SOL    HW233765   4.594   2.727   0.961
 7097SOL     OW33766   6.211   1.352   2.763
 7097SOL    HW133767   6.224   1.414   2.686
 7097SOL    HW233768   6.299   1.315   2.792
 7098SOL     OW33769   4.283   6.726   7.148
 7098SOL    HW133770   4.206   6.693   7.092
 7098SOL    HW233771   4.292   6.825   7.136
 7099SOL     OW33772   4.413   0.444   1.426
 7099SOL    HW133773   4.433   0.471   1.520
 7099SOL    HW233774   4.482   0.482   1.364
 7100SOL     OW33775   2.608   5.915   6.210
 7100SOL    HW133776   2.688   5.946   6.261
 7100SOL    HW233777   2.618   5.817   6.188
 7101SOL     OW33778   2.072   0.718   1.176
 7101SOL    HW133779   2.019   0.768   1.107
 7101SOL    HW233780   2.168   0.745   1.170
 7102SOL     OW33781   5.501   0.570   3.133
 7102SOL    HW133782   5.458   0.512   3.064
 7102SOL    HW233783   5.566   0.632   3.089
 7103SOL     OW33784   0.294   0.611   0.692
 7103SOL    HW133785   0.269   0.707   0.685
 7103SOL    HW233786   0.214   0.557   0.717
 7104SOL     OW33787   4.809   1.332   2.637
 7104SOL    HW133788   4.834   1.415   2.687
 7104SOL    HW233789   4.735   1.286   2.685
 7105SOL     OW33790   1.248   0.068   1.619
 7105SOL    HW133791   1.196   0.090   1.537
 7105SOL    HW233792   1.255   0.149   1.678
 7106SOL     OW33793   0.662   1.715   1.661
 7106SOL    HW133794   0.677   1.809   1.630
 7106SOL    HW233795   0.705   1.703   1.750
 7107SOL     OW33796   2.334   3.321   3.956
 7107SOL    HW133797   2.307   3.323   4.052
 7107SOL    HW233798   2.259   3.285   3.901
 7108SOL     OW33799   5.156   2.359   3.748
 7108SOL    HW133800   5.101   2.316   3.820
 7108SOL    HW233801   5.223   2.293   3.713
 7109SOL     OW33802   1.919   1.759   6.677
 7109SOL    HW133803   2.015   1.774   6.702
 7109SOL    HW233804   1.903   1.662   6.660
 7110SOL     OW33805   0.994   7.123   3.499
 7110SOL    HW133806   1.092   7.120   3.477
 7110SOL    HW233807   0.944   7.162   3.422
 7111SOL     OW33808   5.772   3.798   4.937
 7111SOL    HW133809   5.833   3.875   4.920
 7111SOL    HW233810   5.729   3.770   4.851
 7112SOL     OW33811   3.920   6.603   1.872
 7112SOL    HW133812   3.931   6.508   1.844
 7112SOL    HW233813   3.877   6.655   1.797
 7113SOL     OW33814   5.889   1.527   2.915
 7113SOL    HW133815   5.837   1.513   2.831
 7113SOL    HW233816   5.825   1.532   2.993
 7114SOL     OW33817   3.175   5.027   1.120
 7114SOL    HW133818   3.250   5.069   1.172
 7114SOL    HW233819   3.119   5.099   1.080
 7115SOL     OW33820   1.367   0.886   6.035
 7115SOL    HW133821   1.382   0.968   6.090
 7115SOL    HW233822   1.409   0.897   5.946
 7116SOL     OW33823   2.386   2.483   3.932
 7116SOL    HW133824   2.286   2.485   3.932
 7116SOL    HW233825   2.418   2.402   3.882
 7117SOL     OW33826   5.376   7.030   2.460
 7117SOL    HW133827   5.350   7.125   2.446
 7117SOL    HW233828   5.299   6.970   2.437
 7118SOL     OW33829   1.970   3.803   6.629
 7118SOL    HW133830   1.911   3.868   6.678
 7118SOL    HW233831   2.031   3.758   6.695
 7119SOL     OW33832   0.399   6.293   4.554
 7119SOL    HW133833   0.313   6.330   4.518
 7119SOL    HW233834   0.391   6.193   4.561
 7120SOL     OW33835   2.462   6.725   1.311
 7120SOL    HW133836   2.485   6.798   1.376
 7120SOL    HW233837   2.404   6.657   1.355
 7121SOL     OW33838   2.213   1.026   1.354
 7121SOL    HW133839   2.154   0.961   1.402
 7121SOL    HW233840   2.239   1.100   1.416
 7122SOL     OW33841   5.209   2.860   0.770
 7122SOL    HW133842   5.189   2.821   0.680
 7122SOL    HW233843   5.136   2.922   0.796
 7123SOL     OW33844   5.087   1.152   5.983
 7123SOL    HW133845   5.071   1.228   5.920
 7123SOL    HW233846   5.185   1.146   6.004
 7124SOL     OW33847   3.127   2.273   1.732
 7124SOL    HW133848   3.133   2.342   1.804
 7124SOL    HW233849   3.042   2.222   1.742
 7125SOL     OW33850   0.491   3.329   5.614
 7125SOL    HW133851   0.525   3.258   5.552
 7125SOL    HW233852   0.521   3.419   5.581
 7126SOL     OW33853   4.647   0.038   1.918
 7126SOL    HW133854   4.550   0.017   1.914
 7126SOL    HW233855   4.671   0.097   1.840
 7127SOL     OW33856   3.234   2.607   7.005
 7127SOL    HW133857   3.257   2.579   6.912
 7127SOL    HW233858   3.287   2.554   7.070
 7128SOL     OW33859   3.282   5.139   5.788
 7128SOL    HW133860   3.367   5.189   5.806
 7128SOL    HW233861   3.300   5.040   5.796
 7129SOL     OW33862   1.164   3.826   3.379
 7129SOL    HW133863   1.249   3.867   3.346
 7129SOL    HW233864   1.129   3.761   3.312
 7130SOL     OW33865   0.873   5.475   5.786
 7130SOL    HW133866   0.854   5.509   5.694
 7130SOL    HW233867   0.816   5.523   5.852
 7131SOL     OW33868   3.833   0.169   2.834
 7131SOL    HW133869   3.771   0.113   2.889
 7131SOL    HW233870   3.927   0.143   2.853
 7132SOL     OW33871   4.257   1.625   7.029
 7132SOL    HW133872   4.257   1.709   6.975
 7132SOL    HW233873   4.166   1.613   7.070
 7133SOL     OW33874   6.596   0.302   0.296
 7133SOL    HW133875   6.547   0.375   0.345
 7133SOL    HW233876   6.694   0.323   0.295
 7134SOL     OW33877   6.008   2.058   3.434
 7134SOL    HW133878   5.973   2.055   3.527
 7134SOL    HW233879   6.081   2.127   3.428
 7135SOL     OW33880   2.934   7.009   6.055
 7135SOL    HW133881   2.834   7.021   6.055
 7135SOL    HW233882   2.964   6.981   6.146
 7136SOL     OW33883   3.871   1.075   3.908
 7136SOL    HW133884   3.895   0.980   3.925
 7136SOL    HW233885   3.830   1.084   3.818
 7137SOL     OW33886   6.237   0.076   4.782
 7137SOL    HW133887   6.238   0.175   4.795
 7137SOL    HW233888   6.157   0.051   4.728
 7138SOL     OW33889   6.753   4.055   6.725
 7138SOL    HW133890   6.798   4.143   6.704
 7138SOL    HW233891   6.823   3.985   6.739
 7139SOL     OW33892   4.991   1.052   7.262
 7139SOL    HW133893   4.992   0.956   7.236
 7139SOL    HW233894   5.061   1.069   7.332
 7140SOL     OW33895   3.114   3.529   1.747
 7140SOL    HW133896   3.092   3.456   1.812
 7140SOL    HW233897   3.036   3.591   1.741
 7141SOL     OW33898   1.188   5.160   6.954
 7141SOL    HW133899   1.119   5.089   6.942
 7141SOL    HW233900   1.194   5.185   7.051
 7142SOL     OW33901   5.094   0.565   6.345
 7142SOL    HW133902   5.167   0.550   6.279
 7142SOL    HW233903   5.133   0.587   6.435
 7143SOL     OW33904   3.100   6.238   1.992
 7143SOL    HW133905   3.185   6.290   1.990
 7143SOL    HW233906   3.090   6.188   1.906
 7144SOL     OW33907   4.646   5.713   4.271
 7144SOL    HW133908   4.695   5.779   4.214
 7144SOL    HW233909   4.676   5.724   4.366
 7145SOL     OW33910   0.006   3.247   1.394
 7145SOL    HW133911   0.018   3.187   1.315
 7145SOL    HW233912  -0.083   3.228   1.437
 7146SOL     OW33913   4.730   3.489   1.148
 7146SOL    HW133914   4.799   3.517   1.081
 7146SOL    HW233915   4.680   3.569   1.180
 7147SOL     OW33916   2.520   4.453   0.980
 7147SOL    HW133917   2.608   4.414   0.953
 7147SOL    HW233918   2.469   4.481   0.899
 7148SOL     OW33919   0.186   0.700   0.938
 7148SOL    HW133920   0.103   0.755   0.927
 7148SOL    HW233921   0.181   0.649   1.023
 7149SOL     OW33922   4.185   2.175   3.303
 7149SOL    HW133923   4.152   2.086   3.335
 7149SOL    HW233924   4.109   2.227   3.266
 7150SOL     OW33925   5.565   2.535   1.797
 7150SOL    HW133926   5.549   2.580   1.885
 7150SOL    HW233927   5.486   2.479   1.773
 7151SOL     OW33928   6.707   0.635   0.070
 7151SOL    HW133929   6.779   0.683   0.020
 7151SOL    HW233930   6.709   0.663   0.166
 7152SOL     OW33931   3.535   0.778   3.046
 7152SOL    HW133932   3.501   0.868   3.020
 7152SOL    HW233933   3.539   0.719   2.964
 7153SOL     OW33934   3.486   3.895   2.560
 7153SOL    HW133935   3.447   3.930   2.475
 7153SOL    HW233936   3.505   3.797   2.551
 7154SOL     OW33937   0.980   3.779   3.856
 7154SOL    HW133938   1.041   3.858   3.850
 7154SOL    HW233939   0.896   3.806   3.903
 7155SOL     OW33940   3.832   1.967   5.528
 7155SOL    HW133941   3.809   1.904   5.602
 7155SOL    HW233942   3.848   1.915   5.444
 7156SOL     OW33943   0.825   6.014   6.910
 7156SOL    HW133944   0.924   6.011   6.904
 7156SOL    HW233945   0.796   6.095   6.961
 7157SOL     OW33946   2.000   6.131   3.217
 7157SOL    HW133947   2.053   6.215   3.207
 7157SOL    HW233948   1.908   6.145   3.182
 7158SOL     OW33949   7.267   4.102   4.897
 7158SOL    HW133950   7.279   4.182   4.837
 7158SOL    HW233951   7.172   4.073   4.895
 7159SOL     OW33952   5.355   0.713   0.497
 7159SOL    HW133953   5.392   0.784   0.437
 7159SOL    HW233954   5.420   0.637   0.503
 7160SOL     OW33955   3.038   1.157   1.803
 7160SOL    HW133956   3.070   1.125   1.714
 7160SOL    HW233957   3.081   1.104   1.876
 7161SOL     OW33958   5.530   3.845   3.231
 7161SOL    HW133959   5.432   3.850   3.210
 7161SOL    HW233960   5.547   3.770   3.294
 7162SOL     OW33961   3.609   2.584   5.604
 7162SOL    HW133962   3.573   2.676   5.591
 7162SOL    HW233963   3.695   2.574   5.553
 7163SOL     OW33964   1.819   0.987   2.777
 7163SOL    HW133965   1.795   1.084   2.778
 7163SOL    HW233966   1.748   0.935   2.728
 7164SOL     OW33967   1.561   0.274   1.043
 7164SOL    HW133968   1.657   0.276   1.072
 7164SOL    HW233969   1.545   0.347   0.976
 7165SOL     OW33970   0.304   3.551   4.497
 7165SOL    HW133971   0.328   3.648   4.507
 7165SOL    HW233972   0.335   3.501   4.579
 7166SOL     OW33973   5.912   5.257   0.955
 7166SOL    HW133974   5.895   5.172   0.905
 7166SOL    HW233975   6.004   5.290   0.934
 7167SOL     OW33976   6.230   2.351   0.741
 7167SOL    HW133977   6.180   2.296   0.809
 7167SOL    HW233978   6.189   2.337   0.651
 7168SOL     OW33979   1.304   5.590   7.345
 7168SOL    HW133980   1.358   5.549   7.271
 7168SOL    HW233981   1.218   5.624   7.308
 7169SOL     OW33982   3.706   2.332   6.680
 7169SOL    HW133983   3.650   2.251   6.660
 7169SOL    HW233984   3.698   2.397   6.605
 7170SOL     OW33985   4.676   3.750   2.377
 7170SOL    HW133986   4.715   3.772   2.287
 7170SOL    HW233987   4.577   3.765   2.375
 7171SOL     OW33988   4.918   1.481   1.411
 7171SOL    HW133989   4.996   1.419   1.403
 7171SOL    HW233990   4.880   1.499   1.320
 7172SOL     OW33991   2.559   0.023   7.040
 7172SOL    HW133992   2.619   0.084   6.989
 7172SOL    HW233993   2.608  -0.063   7.059
 7173SOL     OW33994   7.278   3.286   5.726
 7173SOL    HW133995   7.292   3.231   5.808
 7173SOL    HW233996   7.215   3.238   5.664
 7174SOL     OW33997   2.691   5.283   4.829
 7174SOL    HW133998   2.669   5.352   4.899
 7174SOL    HW233999   2.728   5.202   4.873
 7175SOL     OW34000   6.933   2.388   3.693
 7175SOL    HW134001   6.871   2.333   3.749
 7175SOL    HW234002   6.887   2.471   3.663
 7176SOL     OW34003   0.578   4.748   6.981
 7176SOL    HW134004   0.644   4.675   6.965
 7176SOL    HW234005   0.489   4.709   7.006
 7177SOL     OW34006   0.235   1.748   2.572
 7177SOL    HW134007   0.202   1.842   2.583
 7177SOL    HW234008   0.277   1.739   2.481
 7178SOL     OW34009   7.115   6.513   1.112
 7178SOL    HW134010   7.114   6.513   1.212
 7178SOL    HW234011   7.134   6.606   1.079
 7179SOL     OW34012   2.757   6.162   5.869
 7179SOL    HW134013   2.827   6.212   5.819
 7179SOL    HW234014   2.756   6.193   5.965
 7180SOL     OW34015   5.072   4.269   4.914
 7180SOL    HW134016   5.062   4.173   4.887
 7180SOL    HW234017   5.019   4.326   4.852
 7181SOL     OW34018   4.187   0.601   1.741
 7181SOL    HW134019   4.213   0.697   1.755
 7181SOL    HW234020   4.269   0.545   1.733
 7182SOL     OW34021   2.515   7.220   5.723
 7182SOL    HW134022   2.580   7.144   5.726
 7182SOL    HW234023   2.492   7.248   5.817
 7183SOL     OW34024   4.604   0.489   0.997
 7183SOL    HW134025   4.571   0.404   0.957
 7183SOL    HW234026   4.667   0.533   0.933
 7184SOL     OW34027   3.505   3.115   0.369
 7184SOL    HW134028   3.522   3.145   0.275
 7184SOL    HW234029   3.448   3.033   0.368
 7185SOL     OW34030   0.017   0.562   1.782
 7185SOL    HW134031   0.038   0.466   1.799
 7185SOL    HW234032  -0.024   0.602   1.864
 7186SOL     OW34033   3.806   1.248   5.524
 7186SOL    HW134034   3.746   1.185   5.475
 7186SOL    HW234035   3.863   1.196   5.588
 7187SOL     OW34036   2.687   4.178   3.500
 7187SOL    HW134037   2.706   4.245   3.428
 7187SOL    HW234038   2.684   4.087   3.459
 7188SOL     OW34039   1.775   4.898   2.525
 7188SOL    HW134040   1.742   4.937   2.611
 7188SOL    HW234041   1.807   4.971   2.465
 7189SOL     OW34042   4.601   4.961   1.599
 7189SOL    HW134043   4.527   4.969   1.532
 7189SOL    HW234044   4.615   5.050   1.643
 7190SOL     OW34045   5.585   6.643   4.840
 7190SOL    HW134046   5.637   6.729   4.847
 7190SOL    HW234047   5.518   6.651   4.767
 7191SOL     OW34048   1.388   3.922   1.419
 7191SOL    HW134049   1.325   3.934   1.342
 7191SOL    HW234050   1.341   3.943   1.505
 7192SOL     OW34051   1.532   0.483   6.645
 7192SOL    HW134052   1.512   0.581   6.640
 7192SOL    HW234053   1.560   0.460   6.738
 7193SOL     OW34054   3.771   3.472   4.752
 7193SOL    HW134055   3.858   3.460   4.801
 7193SOL    HW234056   3.725   3.384   4.744
 7194SOL     OW34057   5.837   4.368   7.022
 7194SOL    HW134058   5.787   4.378   7.108
 7194SOL    HW234059   5.931   4.399   7.034
 7195SOL     OW34060   4.394   3.729   2.354
 7195SOL    HW134061   4.321   3.737   2.286
 7195SOL    HW234062   4.407   3.632   2.377
 7196SOL     OW34063   1.201   0.580   6.359
 7196SOL    HW134064   1.109   0.601   6.327
 7196SOL    HW234065   1.265   0.647   6.323
 7197SOL     OW34066   3.939   1.629   3.773
 7197SOL    HW134067   3.917   1.546   3.722
 7197SOL    HW234068   4.037   1.646   3.769
 7198SOL     OW34069   1.726   1.688   0.974
 7198SOL    HW134070   1.705   1.765   0.914
 7198SOL    HW234071   1.727   1.603   0.921
 7199SOL     OW34072   2.491   1.163   6.938
 7199SOL    HW134073   2.433   1.129   7.012
 7199SOL    HW234074   2.499   1.092   6.867
 7200SOL     OW34075   1.085   0.208   2.140
 7200SOL    HW134076   0.986   0.220   2.149
 7200SOL    HW234077   1.116   0.141   2.208
 7201SOL     OW34078   1.857   6.040   1.682
 7201SOL    HW134079   1.902   5.994   1.759
 7201SOL    HW234080   1.925   6.093   1.631
 7202SOL     OW34081   5.484   5.784   5.583
 7202SOL    HW134082   5.491   5.794   5.682
 7202SOL    HW234083   5.511   5.692   5.556
 7203SOL     OW34084   2.151   2.336   6.720
 7203SOL    HW134085   2.103   2.388   6.650
 7203SOL    HW234086   2.165   2.242   6.688
 7204SOL     OW34087   7.300   3.497   6.273
 7204SOL    HW134088   7.397   3.474   6.279
 7204SOL    HW234089   7.288   3.574   6.211
 7205SOL     OW34090   1.101   2.980   5.222
 7205SOL    HW134091   1.085   3.041   5.145
 7205SOL    HW234092   1.059   3.017   5.304
 7206SOL     OW34093   5.261   1.268   7.000
 7206SOL    HW134094   5.264   1.329   6.921
 7206SOL    HW234095   5.339   1.204   6.995
 7207SOL     OW34096   0.669   0.259   2.006
 7207SOL    HW134097   0.581   0.228   1.969
 7207SOL    HW234098   0.703   0.336   1.952
 7208SOL     OW34099   5.967   6.321   3.155
 7208SOL    HW134100   6.063   6.296   3.142
 7208SOL    HW234101   5.909   6.264   3.097
 7209SOL     OW34102   6.508   1.313   2.800
 7209SOL    HW134103   6.590   1.266   2.767
 7209SOL    HW234104   6.515   1.325   2.899
 7210SOL     OW34105   5.934   4.348   2.524
 7210SOL    HW134106   5.858   4.285   2.537
 7210SOL    HW234107   6.003   4.307   2.464
 7211SOL     OW34108   4.432   5.835   2.781
 7211SOL    HW134109   4.382   5.919   2.804
 7211SOL    HW234110   4.491   5.853   2.702
 7212SOL     OW34111   0.475   6.141   1.693
 7212SOL    HW134112   0.537   6.128   1.616
 7212SOL    HW234113   0.527   6.163   1.775
 7213SOL     OW34114   1.305   2.320   5.499
 7213SOL    HW134115   1.352   2.263   5.431
 7213SOL    HW234116   1.296   2.413   5.464
 7214SOL     OW34117   5.440   4.263   5.429
 7214SOL    HW134118   5.528   4.293   5.390
 7214SOL    HW234119   5.428   4.165   5.413
 7215SOL     OW34120   1.656   3.932   4.224
 7215SOL    HW134121   1.699   3.851   4.264
 7215SOL    HW234122   1.586   3.967   4.287
 7216SOL     OW34123   0.289   6.307   2.337
 7216SOL    HW134124   0.211   6.358   2.302
 7216SOL    HW234125   0.312   6.341   2.429
 7217SOL     OW34126   0.053   2.194   0.376
 7217SOL    HW134127   0.079   2.219   0.469
 7217SOL    HW234128   0.134   2.197   0.317
 7218SOL     OW34129   5.922   4.084   3.615
 7218SOL    HW134130   5.971   4.088   3.528
 7218SOL    HW234131   5.944   4.165   3.669
 7219SOL     OW34132   0.603   5.885   6.978
 7219SOL    HW134133   0.691   5.931   6.968
 7219SOL    HW234134   0.593   5.815   6.908
 7220SOL     OW34135   6.015   1.317   3.820
 7220SOL    HW134136   6.054   1.290   3.732
 7220SOL    HW234137   5.953   1.246   3.852
 7221SOL     OW34138   1.375   4.435   0.955
 7221SOL    HW134139   1.376   4.346   0.999
 7221SOL    HW234140   1.416   4.427   0.864
 7222SOL     OW34141   6.662   6.571   7.064
 7222SOL    HW134142   6.645   6.666   7.088
 7222SOL    HW234143   6.575   6.524   7.046
 7223SOL     OW34144   4.405   4.015   3.564
 7223SOL    HW134145   4.336   4.007   3.493
 7223SOL    HW234146   4.428   3.924   3.599
 7224SOL     OW34147   4.307   6.753   6.787
 7224SOL    HW134148   4.231   6.725   6.728
 7224SOL    HW234149   4.389   6.704   6.760
 7225SOL     OW34150   6.805   4.680   7.136
 7225SOL    HW134151   6.884   4.739   7.147
 7225SOL    HW234152   6.834   4.591   7.099
 7226SOL     OW34153   2.851   5.984   0.204
 7226SOL    HW134154   2.906   6.055   0.247
 7226SOL    HW234155   2.765   5.974   0.254
 7227SOL     OW34156   3.506   0.741   2.444
 7227SOL    HW134157   3.410   0.716   2.433
 7227SOL    HW234158   3.560   0.658   2.459
 7228SOL     OW34159   0.837   5.167   0.430
 7228SOL    HW134160   0.922   5.129   0.468
 7228SOL    HW234161   0.812   5.116   0.348
 7229SOL     OW34162   5.318   5.066   6.610
 7229SOL    HW134163   5.360   5.132   6.546
 7229SOL    HW234164   5.390   5.020   6.661
 7230SOL     OW34165   4.532   7.059   4.102
 7230SOL    HW134166   4.559   7.151   4.130
 7230SOL    HW234167   4.494   7.010   4.181
 7231SOL     OW34168   2.617   5.469   7.013
 7231SOL    HW134169   2.603   5.568   7.010
 7231SOL    HW234170   2.564   5.430   7.088
 7232SOL     OW34171   3.512   0.818   1.563
 7232SOL    HW134172   3.415   0.834   1.543
 7232SOL    HW234173   3.540   0.729   1.526
 7233SOL     OW34174   2.152   2.459   0.288
 7233SOL    HW134175   2.172   2.545   0.241
 7233SOL    HW234176   2.069   2.470   0.344
 7234SOL     OW34177   3.946   2.875   6.023
 7234SOL    HW134178   4.017   2.927   5.975
 7234SOL    HW234179   3.888   2.938   6.074
 7235SOL     OW34180   1.070   7.318   3.141
 7235SOL    HW134181   1.131   7.327   3.219
 7235SOL    HW234182   0.975   7.327   3.171
 7236SOL     OW34183   2.404   5.274   3.915
 7236SOL    HW134184   2.503   5.275   3.902
 7236SOL    HW234185   2.367   5.367   3.908
 7237SOL     OW34186   2.346   7.114   3.521
 7237SOL    HW134187   2.331   7.058   3.603
 7237SOL    HW234188   2.407   7.066   3.458
 7238SOL     OW34189   4.558   5.276   6.542
 7238SOL    HW134190   4.636   5.268   6.479
 7238SOL    HW234191   4.570   5.213   6.618
 7239SOL     OW34192   2.120   7.006   5.622
 7239SOL    HW134193   2.209   6.994   5.666
 7239SOL    HW234194   2.083   6.916   5.596
 7240SOL     OW34195   6.657   3.230   1.508
 7240SOL    HW134196   6.730   3.241   1.576
 7240SOL    HW234197   6.633   3.134   1.499
 7241SOL     OW34198   4.124   6.747   6.593
 7241SOL    HW134199   4.052   6.678   6.584
 7241SOL    HW234200   4.153   6.777   6.501
 7242SOL     OW34201   2.692   1.802   3.632
 7242SOL    HW134202   2.792   1.804   3.625
 7242SOL    HW234203   2.664   1.830   3.724
 7243SOL     OW34204   3.078   6.661   7.328
 7243SOL    HW134205   3.174   6.644   7.306
 7243SOL    HW234206   3.072   6.709   7.416
 7244SOL     OW34207   1.005   6.425   4.581
 7244SOL    HW134208   0.997   6.327   4.562
 7244SOL    HW234209   1.100   6.454   4.566
 7245SOL     OW34210   5.661   6.480   3.591
 7245SOL    HW134211   5.567   6.456   3.569
 7245SOL    HW234212   5.662   6.536   3.674
 7246SOL     OW34213   2.181   3.091   0.081
 7246SOL    HW134214   2.100   3.083   0.139
 7246SOL    HW234215   2.185   3.013   0.020
 7247SOL     OW34216   1.684   4.497   4.874
 7247SOL    HW134217   1.622   4.521   4.800
 7247SOL    HW234218   1.659   4.546   4.957
 7248SOL     OW34219   2.737   3.276   0.762
 7248SOL    HW134220   2.709   3.198   0.707
 7248SOL    HW234221   2.789   3.243   0.842
 7249SOL     OW34222   4.800   7.263   0.351
 7249SOL    HW134223   4.888   7.283   0.308
 7249SOL    HW234224   4.732   7.329   0.318
 7250SOL     OW34225   4.121   0.200   2.461
 7250SOL    HW134226   4.179   0.281   2.475
 7250SOL    HW234227   4.133   0.167   2.367
 7251SOL     OW34228   1.884   1.890   1.406
 7251SOL    HW134229   1.968   1.889   1.351
 7251SOL    HW234230   1.804   1.893   1.345
 7252SOL     OW34231   5.874   0.876   5.281
 7252SOL    HW134232   5.963   0.903   5.246
 7252SOL    HW234233   5.832   0.953   5.329
 7253SOL     OW34234   0.860   2.645   0.481
 7253SOL    HW134235   0.932   2.696   0.433
 7253SOL    HW234236   0.899   2.602   0.563
 7254SOL     OW34237   3.196   2.817   0.727
 7254SOL    HW134238   3.267   2.887   0.719
 7254SOL    HW234239   3.187   2.769   0.640
 7255SOL     OW34240   1.947   3.230   3.569
 7255SOL    HW134241   2.000   3.292   3.626
 7255SOL    HW234242   1.898   3.281   3.499
 7256SOL     OW34243   3.409   3.786   5.262
 7256SOL    HW134244   3.436   3.881   5.247
 7256SOL    HW234245   3.335   3.781   5.329
 7257SOL     OW34246   2.007   6.566   0.274
 7257SOL    HW134247   2.033   6.470   0.274
 7257SOL    HW234248   2.043   6.611   0.356
 7258SOL     OW34249   5.409   6.777   3.322
 7258SOL    HW134250   5.487   6.721   3.296
 7258SOL    HW234251   5.440   6.857   3.374
 7259SOL     OW34252   4.254   3.171   0.004
 7259SOL    HW134253   4.302   3.094  -0.037
 7259SOL    HW234254   4.181   3.138   0.063
 7260SOL     OW34255   4.074   1.335   2.121
 7260SOL    HW134256   4.097   1.330   2.023
 7260SOL    HW234257   4.133   1.401   2.166
 7261SOL     OW34258   0.788   5.044   1.795
 7261SOL    HW134259   0.769   4.997   1.709
 7261SOL    HW234260   0.803   5.141   1.777
 7262SOL     OW34261   3.090   5.227   0.898
 7262SOL    HW134262   3.051   5.219   0.807
 7262SOL    HW234263   3.156   5.303   0.900
 7263SOL     OW34264   3.875   0.087   0.648
 7263SOL    HW134265   3.873   0.017   0.720
 7263SOL    HW234266   3.869   0.177   0.690
 7264SOL     OW34267   6.418   2.278   2.445
 7264SOL    HW134268   6.477   2.212   2.398
 7264SOL    HW234269   6.391   2.349   2.380
 7265SOL     OW34270   3.771   2.096   2.081
 7265SOL    HW134271   3.863   2.090   2.044
 7265SOL    HW234272   3.707   2.119   2.008
 7266SOL     OW34273   5.792   2.376   1.450
 7266SOL    HW134274   5.720   2.306   1.443
 7266SOL    HW234275   5.872   2.347   1.397
 7267SOL     OW34276   6.499   5.679   6.211
 7267SOL    HW134277   6.492   5.744   6.287
 7267SOL    HW234278   6.578   5.703   6.155
 7268SOL     OW34279   6.233   7.332   3.408
 7268SOL    HW134280   6.309   7.274   3.382
 7268SOL    HW234281   6.197   7.379   3.327
 7269SOL     OW34282   0.213   0.720   7.322
 7269SOL    HW134283   0.230   0.641   7.381
 7269SOL    HW234284   0.173   0.689   7.235
 7270SOL     OW34285   2.617   3.604   4.788
 7270SOL    HW134286   2.555   3.525   4.791
 7270SOL    HW234287   2.712   3.572   4.784
 7271SOL     OW34288   6.638   5.211   1.410
 7271SOL    HW134289   6.700   5.140   1.379
 7271SOL    HW234290   6.690   5.287   1.449
 7272SOL     OW34291   6.505   6.891   0.589
 7272SOL    HW134292   6.465   6.983   0.587
 7272SOL    HW234293   6.475   6.839   0.509
 7273SOL     OW34294   0.102   5.784   4.823
 7273SOL    HW134295   0.053   5.869   4.805
 7273SOL    HW234296   0.039   5.707   4.821
 7274SOL     OW34297   2.501   4.564   5.726
 7274SOL    HW134298   2.433   4.562   5.653
 7274SOL    HW234299   2.492   4.649   5.778
 7275SOL     OW34300   0.339   1.827   4.014
 7275SOL    HW134301   0.329   1.784   3.925
 7275SOL    HW234302   0.330   1.757   4.086
 7276SOL     OW34303   3.408   6.890   1.082
 7276SOL    HW134304   3.455   6.809   1.117
 7276SOL    HW234305   3.389   6.953   1.158
 7277SOL     OW34306   5.468   5.057   1.749
 7277SOL    HW134307   5.553   5.017   1.713
 7277SOL    HW234308   5.448   5.142   1.700
 7278SOL     OW34309   3.683   1.524   0.701
 7278SOL    HW134310   3.637   1.477   0.626
 7278SOL    HW234311   3.742   1.595   0.663
 7279SOL     OW34312   1.444   4.697   3.813
 7279SOL    HW134313   1.386   4.678   3.734
 7279SOL    HW234314   1.500   4.616   3.834
 7280SOL     OW34315   6.656   5.252   3.692
 7280SOL    HW134316   6.567   5.283   3.659
 7280SOL    HW234317   6.724   5.263   3.620
 7281SOL     OW34318   3.814   4.595   6.502
 7281SOL    HW134319   3.741   4.537   6.539
 7281SOL    HW234320   3.875   4.538   6.446
 7282SOL     OW34321   1.983   3.540   4.239
 7282SOL    HW134322   2.023   3.492   4.161
 7282SOL    HW234323   1.993   3.484   4.321
 7283SOL     OW34324   0.256   3.346   3.327
 7283SOL    HW134325   0.263   3.414   3.255
 7283SOL    HW234326   0.274   3.255   3.290
 7284SOL     OW34327   5.493   0.093   4.285
 7284SOL    HW134328   5.487   0.181   4.239
 7284SOL    HW234329   5.587   0.059   4.279
 7285SOL     OW34330   3.229   1.983   1.638
 7285SOL    HW134331   3.246   2.080   1.623
 7285SOL    HW234332   3.143   1.970   1.687
 7286SOL     OW34333   6.598   1.850   0.156
 7286SOL    HW134334   6.512   1.902   0.155
 7286SOL    HW234335   6.601   1.791   0.075
 7287SOL     OW34336   6.433   2.447   6.819
 7287SOL    HW134337   6.515   2.483   6.776
 7287SOL    HW234338   6.457   2.386   6.894
 7288SOL     OW34339   5.242   3.642   2.347
 7288SOL    HW134340   5.334   3.612   2.370
 7288SOL    HW234341   5.176   3.572   2.375
 7289SOL     OW34342   4.048   2.878   0.337
 7289SOL    HW134343   4.106   2.866   0.417
 7289SOL    HW234344   4.036   2.790   0.290
 7290SOL     OW34345   2.628   5.356   6.532
 7290SOL    HW134346   2.553   5.419   6.514
 7290SOL    HW234347   2.668   5.377   6.621
 7291SOL     OW34348   5.745   2.195   7.112
 7291SOL    HW134349   5.794   2.133   7.174
 7291SOL    HW234350   5.736   2.151   7.023
 7292SOL     OW34351   3.722   0.595   4.230
 7292SOL    HW134352   3.661   0.543   4.290
 7292SOL    HW234353   3.668   0.638   4.157
 7293SOL     OW34354   3.246   7.095   2.201
 7293SOL    HW134355   3.252   7.069   2.297
 7293SOL    HW234356   3.337   7.114   2.165
 7294SOL     OW34357   6.048   1.956   1.910
 7294SOL    HW134358   6.011   1.951   2.003
 7294SOL    HW234359   6.000   2.028   1.859
 7295SOL     OW34360   5.118   1.011   0.444
 7295SOL    HW134361   5.099   0.977   0.351
 7295SOL    HW234362   5.117   1.111   0.443
 7296SOL     OW34363   7.349   0.311   1.898
 7296SOL    HW134364   7.348   0.235   1.832
 7296SOL    HW234365   7.336   0.275   1.990
 7297SOL     OW34366   0.128   2.544   0.251
 7297SOL    HW134367   0.054   2.487   0.217
 7297SOL    HW234368   0.109   2.640   0.228
 7298SOL     OW34369   4.373   7.217   6.901
 7298SOL    HW134370   4.442   7.284   6.930
 7298SOL    HW234371   4.330   7.249   6.816
 7299SOL     OW34372   7.069   1.624   7.029
 7299SOL    HW134373   7.013   1.667   6.957
 7299SOL    HW234374   7.009   1.594   7.104
 7300SOL     OW34375   1.064   6.435   5.447
 7300SOL    HW134376   0.991   6.419   5.381
 7300SOL    HW234377   1.147   6.386   5.419
 7301SOL     OW34378   1.027   3.739   5.245
 7301SOL    HW134379   1.124   3.740   5.220
 7301SOL    HW234380   0.976   3.795   5.180
 7302SOL     OW34381   3.104   0.688   3.905
 7302SOL    HW134382   3.182   0.749   3.917
 7302SOL    HW234383   3.055   0.713   3.821
 7303SOL     OW34384   7.019   7.179   1.137
 7303SOL    HW134385   6.929   7.206   1.170
 7303SOL    HW234386   7.072   7.260   1.112
 7304SOL     OW34387   5.238   5.725   3.814
 7304SOL    HW134388   5.298   5.757   3.887
 7304SOL    HW234389   5.189   5.803   3.775
 7305SOL     OW34390   0.012   4.137   3.513
 7305SOL    HW134391  -0.082   4.128   3.547
 7305SOL    HW234392   0.025   4.077   3.434
 7306SOL     OW34393   6.140   1.609   6.047
 7306SOL    HW134394   6.216   1.566   6.096
 7306SOL    HW234395   6.055   1.560   6.067
 7307SOL     OW34396   3.344   4.839   0.322
 7307SOL    HW134397   3.247   4.822   0.333
 7307SOL    HW234398   3.361   4.938   0.323
 7308SOL     OW34399   1.269   4.233   3.656
 7308SOL    HW134400   1.227   4.271   3.738
 7308SOL    HW234401   1.211   4.161   3.618
 7309SOL     OW34402   7.026   3.940   4.827
 7309SOL    HW134403   6.928   3.933   4.844
 7309SOL    HW234404   7.042   3.995   4.745
 7310SOL     OW34405   0.073   6.639   5.911
 7310SOL    HW134406   0.052   6.705   5.839
 7310SOL    HW234407   0.168   6.609   5.902
 7311SOL     OW34408   6.272   1.037   7.303
 7311SOL    HW134409   6.305   0.954   7.347
 7311SOL    HW234410   6.195   1.075   7.355
 7312SOL     OW34411   7.127   2.653   5.365
 7312SOL    HW134412   7.028   2.647   5.368
 7312SOL    HW234413   7.167   2.576   5.415
 7313SOL     OW34414   5.166   6.323   1.679
 7313SOL    HW134415   5.186   6.402   1.620
 7313SOL    HW234416   5.103   6.351   1.751
 7314SOL     OW34417   1.066   4.323   4.288
 7314SOL    HW134418   1.025   4.409   4.258
 7314SOL    HW234419   1.046   4.309   4.385
 7315SOL     OW34420   5.781   3.385   6.337
 7315SOL    HW134421   5.765   3.298   6.292
 7315SOL    HW234422   5.856   3.434   6.290
 7316SOL     OW34423   4.296   4.105   7.337
 7316SOL    HW134424   4.243   4.188   7.355
 7316SOL    HW234425   4.349   4.082   7.419
 7317SOL     OW34426   1.771   2.403   7.357
 7317SOL    HW134427   1.839   2.460   7.404
 7317SOL    HW234428   1.814   2.356   7.281
 7318SOL     OW34429   2.472   1.012   5.454
 7318SOL    HW134430   2.462   0.963   5.541
 7318SOL    HW234431   2.569   1.032   5.439
 7319SOL     OW34432   6.121   7.106   4.623
 7319SOL    HW134433   6.115   7.104   4.723
 7319SOL    HW234434   6.205   7.061   4.594
 7320SOL     OW34435   0.011   1.257   2.453
 7320SOL    HW134436  -0.033   1.339   2.490
 7320SOL    HW234437   0.032   1.195   2.529
 7321SOL     OW34438   1.624   6.138   1.550
 7321SOL    HW134439   1.699   6.118   1.614
 7321SOL    HW234440   1.602   6.056   1.498
 7322SOL     OW34441   3.938   4.068   2.210
 7322SOL    HW134442   4.023   4.115   2.187
 7322SOL    HW234443   3.960   3.981   2.255
 7323SOL     OW34444   1.895   5.743   4.887
 7323SOL    HW134445   1.955   5.758   4.966
 7323SOL    HW234446   1.823   5.812   4.887
 7324SOL     OW34447   3.410   3.394   5.822
 7324SOL    HW134448   3.399   3.447   5.906
 7324SOL    HW234449   3.322   3.353   5.797
 7325SOL     OW34450   0.127   3.755   0.831
 7325SOL    HW134451   0.076   3.837   0.808
 7325SOL    HW234452   0.074   3.699   0.894
 7326SOL     OW34453   1.573   2.928   6.189
 7326SOL    HW134454   1.618   2.921   6.100
 7326SOL    HW234455   1.553   2.837   6.224
 7327SOL     OW34456   4.850   2.016   2.903
 7327SOL    HW134457   4.923   2.025   2.971
 7327SOL    HW234458   4.798   2.101   2.899
 7328SOL     OW34459   1.802   6.850   0.120
 7328SOL    HW134460   1.800   6.752   0.140
 7328SOL    HW234461   1.843   6.865   0.030
 7329SOL     OW34462   5.103   0.723   4.161
 7329SOL    HW134463   5.017   0.764   4.191
 7329SOL    HW234464   5.117   0.636   4.208
 7330SOL     OW34465   1.810   5.326   1.243
 7330SOL    HW134466   1.723   5.318   1.194
 7330SOL    HW234467   1.807   5.405   1.304
 7331SOL     OW34468   1.230   4.613   2.033
 7331SOL    HW134469   1.133   4.590   2.036
 7331SOL    HW234470   1.265   4.626   2.127
 7332SOL     OW34471   6.453   2.497   0.735
 7332SOL    HW134472   6.450   2.573   0.670
 7332SOL    HW234473   6.365   2.451   0.736
 7333SOL     OW34474   1.742   7.236   1.016
 7333SOL    HW134475   1.687   7.175   0.958
 7333SOL    HW234476   1.682   7.281   1.083
 7334SOL     OW34477   0.658   5.980   6.503
 7334SOL    HW134478   0.752   6.012   6.491
 7334SOL    HW234479   0.596   6.058   6.501
 7335SOL     OW34480   2.357   3.506   6.675
 7335SOL    HW134481   2.320   3.591   6.711
 7335SOL    HW234482   2.435   3.526   6.616
 7336SOL     OW34483   4.778   0.391   1.370
 7336SOL    HW134484   4.726   0.474   1.390
 7336SOL    HW234485   4.720   0.325   1.322
 7337SOL     OW34486   6.179   1.551   5.347
 7337SOL    HW134487   6.145   1.508   5.263
 7337SOL    HW234488   6.124   1.631   5.367
 7338SOL     OW34489   3.726   0.970   1.688
 7338SOL    HW134490   3.809   0.970   1.633
 7338SOL    HW234491   3.651   0.930   1.634
 7339SOL     OW34492   0.830   5.580   5.506
 7339SOL    HW134493   0.866   5.557   5.416
 7339SOL    HW234494   0.795   5.673   5.505
 7340SOL     OW34495   6.103   0.372   3.226
 7340SOL    HW134496   6.141   0.435   3.159
 7340SOL    HW234497   6.139   0.393   3.317
 7341SOL     OW34498   3.859   3.125   3.065
 7341SOL    HW134499   3.882   3.075   2.982
 7341SOL    HW234500   3.860   3.063   3.143
 7342SOL     OW34501   3.196   1.916   5.993
 7342SOL    HW134502   3.154   1.891   5.905
 7342SOL    HW234503   3.139   1.880   6.067
 7343SOL     OW34504   4.120   0.893   1.790
 7343SOL    HW134505   4.045   0.959   1.794
 7343SOL    HW234506   4.136   0.855   1.881
 7344SOL     OW34507   2.138   6.067   1.600
 7344SOL    HW134508   2.168   5.989   1.655
 7344SOL    HW234509   2.217   6.113   1.561
 7345SOL     OW34510   2.125   2.455   5.806
 7345SOL    HW134511   2.183   2.386   5.849
 7345SOL    HW234512   2.064   2.411   5.740
 7346SOL     OW34513   3.327   5.849   1.174
 7346SOL    HW134514   3.254   5.912   1.148
 7346SOL    HW234515   3.307   5.758   1.137
 7347SOL     OW34516   1.369   0.904   1.535
 7347SOL    HW134517   1.317   0.830   1.493
 7347SOL    HW234518   1.410   0.872   1.621
 7348SOL     OW34519   6.597   2.267   0.772
 7348SOL    HW134520   6.541   2.348   0.756
 7348SOL    HW234521   6.541   2.185   0.761
 7349SOL     OW34522   3.816   6.516   5.929
 7349SOL    HW134523   3.781   6.423   5.931
 7349SOL    HW234524   3.755   6.573   5.873
 7350SOL     OW34525   6.454   5.457   1.289
 7350SOL    HW134526   6.469   5.364   1.322
 7350SOL    HW234527   6.455   5.521   1.366
 7351SOL     OW34528   1.940   5.847   5.152
 7351SOL    HW134529   1.866   5.914   5.156
 7351SOL    HW234530   1.930   5.783   5.228
 7352SOL     OW34531   4.902   2.907   0.535
 7352SOL    HW134532   4.838   2.903   0.458
 7352SOL    HW234533   4.866   2.853   0.611
 7353SOL     OW34534   6.019   0.011   7.055
 7353SOL    HW134535   5.928   0.041   7.029
 7353SOL    HW234536   6.048   0.058   7.138
 7354SOL     OW34537   0.788   6.057   4.646
 7354SOL    HW134538   0.855   6.057   4.720
 7354SOL    HW234539   0.724   6.133   4.660
 7355SOL     OW34540   3.000   6.067   6.870
 7355SOL    HW134541   2.923   6.118   6.908
 7355SOL    HW234542   2.969   6.013   6.792
 7356SOL     OW34543   1.848   4.858   2.980
 7356SOL    HW134544   1.806   4.843   3.070
 7356SOL    HW234545   1.947   4.851   2.988
 7357SOL     OW34546   6.105   4.354   7.190
 7357SOL    HW134547   6.071   4.442   7.158
 7357SOL    HW234548   6.197   4.365   7.227
 7358SOL     OW34549   6.090   3.624   6.686
 7358SOL    HW134550   6.061   3.555   6.619
 7358SOL    HW234551   6.171   3.671   6.651
 7359SOL     OW34552   2.062   6.085   0.273
 7359SOL    HW134553   2.000   6.016   0.234
 7359SOL    HW234554   2.155   6.069   0.239
 7360SOL     OW34555   4.602   5.667   5.383
 7360SOL    HW134556   4.592   5.569   5.367
 7360SOL    HW234557   4.592   5.716   5.297
 7361SOL     OW34558   3.805   2.428   2.029
 7361SOL    HW134559   3.860   2.402   1.950
 7361SOL    HW234560   3.743   2.353   2.052
 7362SOL     OW34561   2.765   6.814   1.175
 7362SOL    HW134562   2.745   6.770   1.263
 7362SOL    HW234563   2.690   6.797   1.111
 7363SOL     OW34564   3.473   0.805   7.250
 7363SOL    HW134565   3.492   0.827   7.346
 7363SOL    HW234566   3.432   0.714   7.244
 7364SOL     OW34567   3.959   1.983   1.898
 7364SOL    HW134568   3.937   1.974   1.801
 7364SOL    HW234569   3.965   1.893   1.940
 7365SOL     OW34570   3.948   4.427   5.250
 7365SOL    HW134571   3.967   4.489   5.174
 7365SOL    HW234572   3.851   4.405   5.252
 7366SOL     OW34573   6.910   4.870   5.591
 7366SOL    HW134574   7.007   4.886   5.572
 7366SOL    HW234575   6.867   4.957   5.617
 7367SOL     OW34576   7.136   2.640   3.414
 7367SOL    HW134577   7.161   2.543   3.415
 7367SOL    HW234578   7.199   2.691   3.355
 7368SOL     OW34579   2.118   2.647   2.147
 7368SOL    HW134580   2.044   2.713   2.156
 7368SOL    HW234581   2.141   2.636   2.050
 7369SOL     OW34582   7.226   2.666   2.780
 7369SOL    HW134583   7.287   2.600   2.736
 7369SOL    HW234584   7.256   2.759   2.757
 7370SOL     OW34585   5.608   2.407   7.221
 7370SOL    HW134586   5.658   2.343   7.163
 7370SOL    HW234587   5.601   2.371   7.314
 7371SOL     OW34588   1.813   4.290   5.209
 7371SOL    HW134589   1.788   4.249   5.122
 7371SOL    HW234590   1.865   4.374   5.193
 7372SOL     OW34591   3.732   0.836   5.463
 7372SOL    HW134592   3.821   0.861   5.501
 7372SOL    HW234593   3.682   0.918   5.438
 7373SOL     OW34594   0.978   2.448   1.473
 7373SOL    HW134595   1.002   2.544   1.456
 7373SOL    HW234596   1.047   2.406   1.531
 7374SOL     OW34597   5.302   3.585   7.063
 7374SOL    HW134598   5.385   3.536   7.087
 7374SOL    HW234599   5.262   3.625   7.145
 7375SOL     OW34600   3.442   6.893   2.623
 7375SOL    HW134601   3.521   6.919   2.678
 7375SOL    HW234602   3.444   6.795   2.605
 7376SOL     OW34603   0.013   5.494   2.627
 7376SOL    HW134604  -0.042   5.572   2.597
 7376SOL    HW234605   0.089   5.480   2.563
 7377SOL     OW34606   4.547   3.799   5.322
 7377SOL    HW134607   4.635   3.840   5.350
 7377SOL    HW234608   4.491   3.783   5.404
 7378SOL     OW34609   3.338   5.357   0.899
 7378SOL    HW134610   3.384   5.268   0.902
 7378SOL    HW234611   3.366   5.411   0.979
 7379SOL     OW34612   4.977   1.641   1.134
 7379SOL    HW134613   5.040   1.565   1.117
 7379SOL    HW234614   5.017   1.702   1.203
 7380SOL     OW34615   0.185   3.779   5.874
 7380SOL    HW134616   0.224   3.687   5.881
 7380SOL    HW234617   0.209   3.819   5.786
 7381SOL     OW34618   3.321   0.888   6.850
 7381SOL    HW134619   3.387   0.916   6.920
 7381SOL    HW234620   3.301   0.790   6.861
 7382SOL     OW34621   4.193   3.265   3.597
 7382SOL    HW134622   4.115   3.311   3.640
 7382SOL    HW234623   4.200   3.172   3.633
 7383SOL     OW34624   1.980   0.860   0.789
 7383SOL    HW134625   2.026   0.783   0.744
 7383SOL    HW234626   2.034   0.943   0.777
 7384SOL     OW34627   0.014   3.795   5.253
 7384SOL    HW134628  -0.066   3.855   5.262
 7384SOL    HW234629   0.090   3.848   5.216
 7385SOL     OW34630   2.891   4.879   4.457
 7385SOL    HW134631   2.966   4.818   4.432
 7385SOL    HW234632   2.897   4.963   4.403
 7386SOL     OW34633   7.041   1.047   1.572
 7386SOL    HW134634   7.051   1.125   1.510
 7386SOL    HW234635   6.996   1.077   1.656
 7387SOL     OW34636   1.480   5.029   3.190
 7387SOL    HW134637   1.540   5.039   3.110
 7387SOL    HW234638   1.388   5.059   3.166
 7388SOL     OW34639   4.444   1.742   3.854
 7388SOL    HW134640   4.487   1.759   3.765
 7388SOL    HW234641   4.514   1.724   3.923
 7389SOL     OW34642   6.817   2.253   0.906
 7389SOL    HW134643   6.726   2.256   0.865
 7389SOL    HW234644   6.886   2.256   0.834
 7390SOL     OW34645   1.727   4.628   4.476
 7390SOL    HW134646   1.817   4.587   4.491
 7390SOL    HW234647   1.687   4.589   4.393
 7391SOL     OW34648   0.584   1.391   0.839
 7391SOL    HW134649   0.634   1.404   0.925
 7391SOL    HW234650   0.552   1.480   0.806
 7392SOL     OW34651   5.666   6.825   6.185
 7392SOL    HW134652   5.575   6.848   6.152
 7392SOL    HW234653   5.658   6.771   6.270
 7393SOL     OW34654   4.030   1.149   5.709
 7393SOL    HW134655   4.071   1.101   5.786
 7393SOL    HW234656   4.079   1.234   5.692
 7394SOL     OW34657   0.270   7.267   0.895
 7394SOL    HW134658   0.173   7.246   0.906
 7394SOL    HW234659   0.309   7.210   0.823
 7395SOL     OW34660   3.688   6.976   0.962
 7395SOL    HW134661   3.602   6.998   0.915
 7395SOL    HW234662   3.761   6.964   0.895
 7396SOL     OW34663   5.840   2.146   1.035
 7396SOL    HW134664   5.778   2.118   1.108
 7396SOL    HW234665   5.860   2.068   0.976
 7397SOL     OW34666   3.452   7.152   4.374
 7397SOL    HW134667   3.392   7.117   4.302
 7397SOL    HW234668   3.513   7.079   4.405
 7398SOL     OW34669   2.593   2.205   2.441
 7398SOL    HW134670   2.668   2.145   2.413
 7398SOL    HW234671   2.621   2.300   2.432
 7399SOL     OW34672   5.790   5.582   4.652
 7399SOL    HW134673   5.710   5.602   4.596
 7399SOL    HW234674   5.773   5.499   4.705
 7400SOL     OW34675   1.984   4.407   2.920
 7400SOL    HW134676   2.079   4.439   2.923
 7400SOL    HW234677   1.935   4.455   2.847
 7401SOL     OW34678   6.748   0.366   1.896
 7401SOL    HW134679   6.835   0.415   1.908
 7401SOL    HW234680   6.739   0.296   1.967
 7402SOL     OW34681   2.020   3.634   6.199
 7402SOL    HW134682   2.022   3.625   6.298
 7402SOL    HW234683   2.054   3.725   6.174
 7403SOL     OW34684   3.466   5.877   5.156
 7403SOL    HW134685   3.380   5.871   5.105
 7403SOL    HW234686   3.533   5.928   5.103
 7404SOL     OW34687   0.545   2.773   0.174
 7404SOL    HW134688   0.583   2.756   0.264
 7404SOL    HW234689   0.598   2.845   0.128
 7405SOL     OW34690   2.153   3.429   3.714
 7405SOL    HW134691   2.163   3.513   3.661
 7405SOL    HW234692   2.100   3.448   3.797
 7406SOL     OW34693   4.484   0.966   2.998
 7406SOL    HW134694   4.451   1.015   3.080
 7406SOL    HW234695   4.584   0.958   3.003
 7407SOL     OW34696   6.539   1.347   7.032
 7407SOL    HW134697   6.542   1.312   6.938
 7407SOL    HW234698   6.444   1.357   7.061
 7408SOL     OW34699   4.815   6.604   0.124
 7408SOL    HW134700   4.821   6.696   0.163
 7408SOL    HW234701   4.857   6.603   0.034
 7409SOL     OW34702   6.193   1.559   1.781
 7409SOL    HW134703   6.167   1.650   1.750
 7409SOL    HW234704   6.219   1.562   1.877
 7410SOL     OW34705   6.183   3.526   1.614
 7410SOL    HW134706   6.105   3.544   1.554
 7410SOL    HW234707   6.268   3.530   1.560
 7411SOL     OW34708   1.420   6.911   0.598
 7411SOL    HW134709   1.488   6.913   0.525
 7411SOL    HW234710   1.412   6.818   0.634
 7412SOL     OW34711   3.827   0.913   3.028
 7412SOL    HW134712   3.892   0.847   2.990
 7412SOL    HW234713   3.749   0.864   3.066
 7413SOL     OW34714   5.242   2.575   5.468
 7413SOL    HW134715   5.204   2.484   5.485
 7413SOL    HW234716   5.298   2.603   5.546
 7414SOL     OW34717   6.474   6.207   4.827
 7414SOL    HW134718   6.436   6.213   4.735
 7414SOL    HW234719   6.568   6.174   4.821
 7415SOL     OW34720   6.468   0.292   1.186
 7415SOL    HW134721   6.519   0.366   1.142
 7415SOL    HW234722   6.454   0.218   1.121
 7416SOL     OW34723   6.955   4.097   0.013
 7416SOL    HW134724   6.975   4.192   0.034
 7416SOL    HW234725   6.992   4.074  -0.077
 7417SOL     OW34726   5.134   1.321   1.396
 7417SOL    HW134727   5.210   1.317   1.461
 7417SOL    HW234728   5.104   1.228   1.375
 7418SOL     OW34729   1.315   2.296   6.670
 7418SOL    HW134730   1.352   2.203   6.664
 7418SOL    HW234731   1.275   2.310   6.760
 7419SOL     OW34732   1.465   6.603   0.698
 7419SOL    HW134733   1.389   6.547   0.667
 7419SOL    HW234734   1.500   6.568   0.786
 7420SOL     OW34735   5.920   0.021   3.074
 7420SOL    HW134736   5.870   0.009   3.160
 7420SOL    HW234737   5.857   0.041   3.000
 7421SOL     OW34738   2.245   2.048   0.299
 7421SOL    HW134739   2.251   1.976   0.229
 7421SOL    HW234740   2.167   2.030   0.359
 7422SOL     OW34741   1.763   3.489   3.017
 7422SOL    HW134742   1.684   3.482   3.078
 7422SOL    HW234743   1.802   3.399   3.001
 7423SOL     OW34744   4.157   6.363   3.776
 7423SOL    HW134745   4.116   6.409   3.697
 7423SOL    HW234746   4.253   6.343   3.757
 7424SOL     OW34747   2.876   2.469   7.227
 7424SOL    HW134748   2.863   2.564   7.256
 7424SOL    HW234749   2.925   2.467   7.140
 7425SOL     OW34750   4.280   3.245   3.341
 7425SOL    HW134751   4.250   3.255   3.436
 7425SOL    HW234752   4.217   3.293   3.281
 7426SOL     OW34753   4.246   1.836   2.195
 7426SOL    HW134754   4.186   1.789   2.130
 7426SOL    HW234755   4.340   1.806   2.181
 7427SOL     OW34756   6.563   6.741   5.423
 7427SOL    HW134757   6.657   6.766   5.399
 7427SOL    HW234758   6.503   6.821   5.413
 7428SOL     OW34759   1.147   1.698   0.994
 7428SOL    HW134760   1.218   1.632   0.970
 7428SOL    HW234761   1.152   1.776   0.932
 7429SOL     OW34762   2.011   1.820   4.338
 7429SOL    HW134763   1.979   1.771   4.256
 7429SOL    HW234764   2.007   1.758   4.417
 7430SOL     OW34765   6.137   4.612   3.142
 7430SOL    HW134766   6.220   4.631   3.195
 7430SOL    HW234767   6.161   4.556   3.063
 7431SOL     OW34768   5.485   5.420   3.224
 7431SOL    HW134769   5.521   5.338   3.181
 7431SOL    HW234770   5.554   5.459   3.285
 7432SOL     OW34771   2.423   6.521   4.652
 7432SOL    HW134772   2.324   6.506   4.653
 7432SOL    HW234773   2.443   6.612   4.688
 7433SOL     OW34774   0.447   6.274   2.089
 7433SOL    HW134775   0.388   6.245   2.164
 7433SOL    HW234776   0.394   6.273   2.004
 7434SOL     OW34777   5.884   0.209   1.355
 7434SOL    HW134778   5.939   0.242   1.432
 7434SOL    HW234779   5.787   0.210   1.379
 7435SOL     OW34780   7.322   0.913   2.816
 7435SOL    HW134781   7.294   0.935   2.909
 7435SOL    HW234782   7.303   0.817   2.797
 7436SOL     OW34783   3.369   5.239   6.209
 7436SOL    HW134784   3.304   5.187   6.265
 7436SOL    HW234785   3.339   5.335   6.204
 7437SOL     OW34786   1.180   3.579   5.633
 7437SOL    HW134787   1.083   3.592   5.614
 7437SOL    HW234788   1.232   3.656   5.596
 7438SOL     OW34789   3.664   4.013   2.767
 7438SOL    HW134790   3.605   3.952   2.713
 7438SOL    HW234791   3.622   4.028   2.856
 7439SOL     OW34792   2.739   0.212   2.127
 7439SOL    HW134793   2.697   0.122   2.119
 7439SOL    HW234794   2.826   0.205   2.174
 7440SOL     OW34795   5.057   3.015   5.305
 7440SOL    HW134796   5.153   2.989   5.314
 7440SOL    HW234797   5.000   2.933   5.305
 7441SOL     OW34798   1.479   5.131   6.643
 7441SOL    HW134799   1.454   5.227   6.629
 7441SOL    HW234800   1.439   5.075   6.570
 7442SOL     OW34801   1.790   3.068   4.196
 7442SOL    HW134802   1.809   2.971   4.210
 7442SOL    HW234803   1.848   3.103   4.122
 7443SOL     OW34804   0.202   5.528   0.222
 7443SOL    HW134805   0.198   5.613   0.170
 7443SOL    HW234806   0.298   5.502   0.237
 7444SOL     OW34807   0.330   6.629   5.835
 7444SOL    HW134808   0.306   6.668   5.746
 7444SOL    HW234809   0.429   6.632   5.848
 7445SOL     OW34810   1.272   1.750   3.688
 7445SOL    HW134811   1.206   1.816   3.725
 7445SOL    HW234812   1.313   1.699   3.763
 7446SOL     OW34813   5.259   3.897   3.466
 7446SOL    HW134814   5.261   3.849   3.378
 7446SOL    HW234815   5.348   3.938   3.484
 7447SOL     OW34816   0.192   2.443   0.911
 7447SOL    HW134817   0.110   2.437   0.855
 7447SOL    HW234818   0.259   2.376   0.880
 7448SOL     OW34819   2.646   6.395   0.728
 7448SOL    HW134820   2.740   6.400   0.761
 7448SOL    HW234821   2.633   6.311   0.675
 7449SOL     OW34822   1.288   3.406   5.831
 7449SOL    HW134823   1.378   3.399   5.789
 7449SOL    HW234824   1.224   3.448   5.767
 7450SOL     OW34825   5.061   4.812   1.550
 7450SOL    HW134826   4.994   4.753   1.596
 7450SOL    HW234827   5.140   4.826   1.610
 7451SOL     OW34828   0.677   1.165   0.177
 7451SOL    HW134829   0.658   1.102   0.102
 7451SOL    HW234830   0.745   1.125   0.238
 7452SOL     OW34831   1.654   1.387   1.496
 7452SOL    HW134832   1.736   1.374   1.552
 7452SOL    HW234833   1.581   1.326   1.528
 7453SOL     OW34834   7.270   2.290   5.144
 7453SOL    HW134835   7.308   2.216   5.199
 7453SOL    HW234836   7.343   2.336   5.093
 7454SOL     OW34837   1.035   6.349   0.239
 7454SOL    HW134838   1.110   6.416   0.244
 7454SOL    HW234839   1.066   6.270   0.185
 7455SOL     OW34840   6.309   5.760   3.001
 7455SOL    HW134841   6.278   5.666   3.007
 7455SOL    HW234842   6.369   5.771   2.922
 7456SOL     OW34843   5.945   1.980   4.681
 7456SOL    HW134844   6.026   1.929   4.653
 7456SOL    HW234845   5.971   2.052   4.745
 7457SOL     OW34846   4.065   1.950   2.642
 7457SOL    HW134847   4.002   1.880   2.677
 7457SOL    HW234848   4.026   2.041   2.659
 7458SOL     OW34849   1.064   0.919   4.332
 7458SOL    HW134850   1.150   0.874   4.354
 7458SOL    HW234851   1.045   0.912   4.234
 7459SOL     OW34852   5.359   4.349   1.296
 7459SOL    HW134853   5.459   4.345   1.305
 7459SOL    HW234854   5.333   4.347   1.200
 7460SOL     OW34855   4.132   3.828   5.792
 7460SOL    HW134856   4.154   3.885   5.871
 7460SOL    HW234857   4.165   3.871   5.708
 7461SOL     OW34858   2.365   5.788   6.266
 7461SOL    HW134859   2.437   5.857   6.275
 7461SOL    HW234860   2.407   5.697   6.263
 7462SOL     OW34861   3.392   5.220   3.348
 7462SOL    HW134862   3.327   5.286   3.386
 7462SOL    HW234863   3.391   5.226   3.248
 7463SOL     OW34864   5.393   1.062   0.721
 7463SOL    HW134865   5.295   1.070   0.740
 7463SOL    HW234866   5.412   1.094   0.628
 7464SOL     OW34867   1.245   1.196   6.701
 7464SOL    HW134868   1.192   1.185   6.616
 7464SOL    HW234869   1.230   1.117   6.759
 7465SOL     OW34870   6.606   1.664   1.735
 7465SOL    HW134871   6.700   1.637   1.755
 7465SOL    HW234872   6.584   1.641   1.640
 7466SOL     OW34873   0.484   5.428   4.034
 7466SOL    HW134874   0.435   5.471   3.959
 7466SOL    HW234875   0.450   5.335   4.048
 7467SOL     OW34876   1.477   1.329   6.807
 7467SOL    HW134877   1.533   1.254   6.841
 7467SOL    HW234878   1.401   1.292   6.754
 7468SOL     OW34879   4.096   5.440   6.485
 7468SOL    HW134880   4.166   5.369   6.484
 7468SOL    HW234881   4.022   5.414   6.548
 7469SOL     OW34882   2.360   6.701   5.294
 7469SOL    HW134883   2.442   6.679   5.348
 7469SOL    HW234884   2.289   6.633   5.312
 7470SOL     OW34885   0.858   0.999   2.341
 7470SOL    HW134886   0.908   0.953   2.413
 7470SOL    HW234887   0.879   1.097   2.341
 7471SOL     OW34888   2.087   7.093   2.753
 7471SOL    HW134889   2.131   7.165   2.699
 7471SOL    HW234890   2.092   7.117   2.850
 7472SOL     OW34891   4.226   2.912   0.560
 7472SOL    HW134892   4.160   2.928   0.634
 7472SOL    HW234893   4.279   2.996   0.545
 7473SOL     OW34894   2.568   3.995   1.824
 7473SOL    HW134895   2.492   3.931   1.815
 7473SOL    HW234896   2.533   4.089   1.814
 7474SOL     OW34897   3.027   5.815   6.438
 7474SOL    HW134898   3.125   5.806   6.458
 7474SOL    HW234899   2.987   5.723   6.429
 7475SOL     OW34900   5.055   2.621   1.467
 7475SOL    HW134901   5.059   2.521   1.471
 7475SOL    HW234902   5.019   2.650   1.379
 7476SOL     OW34903   1.572   1.146   1.625
 7476SOL    HW134904   1.619   1.186   1.704
 7476SOL    HW234905   1.559   1.048   1.639
 7477SOL     OW34906   3.212   0.243   0.915
 7477SOL    HW134907   3.243   0.303   0.842
 7477SOL    HW234908   3.201   0.150   0.880
 7478SOL     OW34909   4.493   2.885   6.086
 7478SOL    HW134910   4.499   2.956   6.157
 7478SOL    HW234911   4.547   2.913   6.006
 7479SOL     OW34912   3.847   3.736   5.219
 7479SOL    HW134913   3.774   3.670   5.204
 7479SOL    HW234914   3.878   3.774   5.131
 7480SOL     OW34915   1.702   4.635   2.424
 7480SOL    HW134916   1.761   4.701   2.471
 7480SOL    HW234917   1.726   4.542   2.454
 7481SOL     OW34918   2.757   0.413   1.706
 7481SOL    HW134919   2.842   0.364   1.688
 7481SOL    HW234920   2.757   0.499   1.655
 7482SOL     OW34921   0.648   0.399   4.965
 7482SOL    HW134922   0.653   0.499   4.964
 7482SOL    HW234923   0.557   0.370   4.936
 7483SOL     OW34924   4.458   4.944   2.292
 7483SOL    HW134925   4.489   4.883   2.365
 7483SOL    HW234926   4.538   4.984   2.246
 7484SOL     OW34927   5.004   0.708   6.789
 7484SOL    HW134928   5.085   0.658   6.821
 7484SOL    HW234929   4.977   0.673   6.700
 7485SOL     OW34930   1.121   2.350   7.240
 7485SOL    HW134931   1.108   2.423   7.308
 7485SOL    HW234932   1.066   2.370   7.159
 7486SOL     OW34933   5.959   0.017   0.906
 7486SOL    HW134934   5.972   0.080   0.983
 7486SOL    HW234935   5.935  -0.073   0.941
 7487SOL     OW34936   6.473   4.816   1.136
 7487SOL    HW134937   6.453   4.754   1.060
 7487SOL    HW234938   6.392   4.825   1.194
 7488SOL     OW34939   3.396   1.558   2.727
 7488SOL    HW134940   3.303   1.529   2.752
 7488SOL    HW234941   3.445   1.480   2.687
 7489SOL     OW34942   7.109   2.777   7.101
 7489SOL    HW134943   7.069   2.699   7.052
 7489SOL    HW234944   7.195   2.802   7.057
 7490SOL     OW34945   7.346   7.158   0.808
 7490SOL    HW134946   7.332   7.144   0.906
 7490SOL    HW234947   7.364   7.069   0.765
 7491SOL     OW34948   3.777   5.354   2.035
 7491SOL    HW134949   3.681   5.327   2.036
 7491SOL    HW234950   3.834   5.273   2.025
 7492SOL     OW34951   0.371   3.921   6.066
 7492SOL    HW134952   0.298   3.882   6.011
 7492SOL    HW234953   0.399   3.856   6.137
 7493SOL     OW34954   0.217   6.806   1.390
 7493SOL    HW134955   0.301   6.778   1.344
 7493SOL    HW234956   0.204   6.753   1.474
 7494SOL     OW34957   2.134   0.397   3.062
 7494SOL    HW134958   2.119   0.387   3.160
 7494SOL    HW234959   2.126   0.308   3.018
 7495SOL     OW34960   3.402   5.498   1.147
 7495SOL    HW134961   3.487   5.529   1.190
 7495SOL    HW234962   3.378   5.408   1.182
 7496SOL     OW34963   3.767   6.070   1.883
 7496SOL    HW134964   3.704   6.045   1.809
 7496SOL    HW234965   3.714   6.096   1.964
 7497SOL     OW34966   0.718   5.595   6.923
 7497SOL    HW134967   0.698   5.624   6.830
 7497SOL    HW234968   0.790   5.653   6.962
 7498SOL     OW34969   6.082   2.493   2.191
 7498SOL    HW134970   6.138   2.567   2.153
 7498SOL    HW234971   6.038   2.524   2.275
 7499SOL     OW34972   6.583   0.466   4.970
 7499SOL    HW134973   6.605   0.460   4.873
 7499SOL    HW234974   6.499   0.414   4.988
 7500SOL     OW34975   3.819   0.352   0.290
 7500SOL    HW134976   3.864   0.308   0.213
 7500SOL    HW234977   3.790   0.282   0.355
 7501SOL     OW34978   6.839   5.644   6.726
 7501SOL    HW134979   6.847   5.710   6.800
 7501SOL    HW234980   6.904   5.666   6.654
 7502SOL     OW34981   6.134   2.162   1.479
 7502SOL    HW134982   6.068   2.202   1.415
 7502SOL    HW234983   6.227   2.180   1.446
 7503SOL     OW34984   3.720   0.473   0.601
 7503SOL    HW134985   3.647   0.431   0.547
 7503SOL    HW234986   3.707   0.572   0.601
 7504SOL     OW34987   0.695   3.466   7.254
 7504SOL    HW134988   0.677   3.375   7.217
 7504SOL    HW234989   0.706   3.460   7.353
 7505SOL     OW34990   5.839   7.141   5.049
 7505SOL    HW134991   5.817   7.236   5.071
 7505SOL    HW234992   5.773   7.106   4.982
 7506SOL     OW34993   6.398   3.707   0.046
 7506SOL    HW134994   6.308   3.665   0.063
 7506SOL    HW234995   6.454   3.644  -0.008
 7507SOL     OW34996   6.322   3.490   7.050
 7507SOL    HW134997   6.240   3.546   7.058
 7507SOL    HW234998   6.306   3.416   6.984
 7508SOL     OW34999   5.790   5.780   4.168
 7508SOL    HW135000   5.742   5.770   4.081
 7508SOL    HW235001   5.805   5.689   4.208
 7509SOL     OW35002   6.345   7.335   1.619
 7509SOL    HW135003   6.325   7.316   1.523
 7509SOL    HW235004   6.330   7.433   1.637
 7510SOL     OW35005   3.421   5.316   0.626
 7510SOL    HW135006   3.392   5.336   0.719
 7510SOL    HW235007   3.517   5.287   0.627
 7511SOL     OW35008   1.989   1.084   4.364
 7511SOL    HW135009   2.015   1.022   4.290
 7511SOL    HW235010   1.937   1.160   4.326
 7512SOL     OW35011   6.796   5.566   3.516
 7512SOL    HW135012   6.798   5.469   3.490
 7512SOL    HW235013   6.850   5.619   3.451
 7513SOL     OW35014   4.325   3.081   5.159
 7513SOL    HW135015   4.236   3.111   5.193
 7513SOL    HW235016   4.316   2.991   5.117
 7514SOL     OW35017   2.734   3.136   7.304
 7514SOL    HW135018   2.790   3.205   7.257
 7514SOL    HW235019   2.710   3.170   7.395
 7515SOL     OW35020   5.162   0.385   3.605
 7515SOL    HW135021   5.073   0.353   3.572
 7515SOL    HW235022   5.213   0.307   3.643
 7516SOL     OW35023   6.718   4.164   4.610
 7516SOL    HW135024   6.804   4.131   4.569
 7516SOL    HW235025   6.711   4.263   4.597
 7517SOL     OW35026   3.540   2.171   0.841
 7517SOL    HW135027   3.628   2.130   0.867
 7517SOL    HW235028   3.519   2.246   0.904
 7518SOL     OW35029   3.160   3.710   0.374
 7518SOL    HW135030   3.241   3.768   0.384
 7518SOL    HW235031   3.097   3.751   0.307
 7519SOL     OW35032   1.152   4.302   2.308
 7519SOL    HW135033   1.251   4.297   2.293
 7519SOL    HW235034   1.104   4.285   2.221
 7520SOL     OW35035   2.357   4.002   0.959
 7520SOL    HW135036   2.310   4.076   0.911
 7520SOL    HW235037   2.306   3.917   0.949
 7521SOL     OW35038   2.993   3.630   6.561
 7521SOL    HW135039   2.928   3.584   6.501
 7521SOL    HW235040   3.070   3.664   6.507
 7522SOL     OW35041   5.098   6.946   3.565
 7522SOL    HW135042   4.998   6.946   3.560
 7522SOL    HW235043   5.128   7.013   3.634
 7523SOL     OW35044   6.760   0.698   1.703
 7523SOL    HW135045   6.693   0.761   1.742
 7523SOL    HW235046   6.726   0.661   1.617
 7524SOL     OW35047   2.807   2.392   3.256
 7524SOL    HW135048   2.812   2.301   3.215
 7524SOL    HW235049   2.713   2.425   3.252
 7525SOL     OW35050   2.992   5.227   1.625
 7525SOL    HW135051   2.937   5.144   1.616
 7525SOL    HW235052   3.037   5.247   1.538
 7526SOL     OW35053   2.088   3.626   6.449
 7526SOL    HW135054   2.184   3.651   6.452
 7526SOL    HW235055   2.034   3.691   6.503
 7527SOL     OW35056   3.964   1.315   5.026
 7527SOL    HW135057   4.046   1.260   5.014
 7527SOL    HW235058   3.945   1.325   5.124
 7528SOL     OW35059   3.897   1.452   4.623
 7528SOL    HW135060   3.949   1.423   4.542
 7528SOL    HW235061   3.826   1.517   4.595
 7529SOL     OW35062   6.439   3.362   5.843
 7529SOL    HW135063   6.409   3.409   5.760
 7529SOL    HW235064   6.516   3.303   5.821
 7530SOL     OW35065   4.873   5.014   2.710
 7530SOL    HW135066   4.794   5.006   2.649
 7530SOL    HW235067   4.953   4.973   2.666
 7531SOL     OW35068   3.250   3.305   4.462
 7531SOL    HW135069   3.345   3.327   4.483
 7531SOL    HW235070   3.198   3.389   4.448
 7532SOL     OW35071   0.264   1.499   0.873
 7532SOL    HW135072   0.355   1.525   0.842
 7532SOL    HW235073   0.198   1.569   0.844
 7533SOL     OW35074   7.036   3.882   5.738
 7533SOL    HW135075   6.987   3.951   5.791
 7533SOL    HW235076   7.124   3.862   5.782
 7534SOL     OW35077   6.854   2.977   7.005
 7534SOL    HW135078   6.925   2.989   6.935
 7534SOL    HW235079   6.785   2.913   6.972
 7535SOL     OW35080   6.780   0.217   6.493
 7535SOL    HW135081   6.838   0.207   6.412
 7535SOL    HW235082   6.790   0.136   6.551
 7536SOL     OW35083   2.697   6.188   7.315
 7536SOL    HW135084   2.755   6.263   7.281
 7536SOL    HW235085   2.681   6.200   7.413
 7537SOL     OW35086   4.696   4.003   0.709
 7537SOL    HW135087   4.791   3.980   0.729
 7537SOL    HW235088   4.653   4.043   0.790
 7538SOL     OW35089   7.176   4.339   1.302
 7538SOL    HW135090   7.098   4.318   1.361
 7538SOL    HW235091   7.190   4.264   1.237
 7539SOL     OW35092   3.310   5.203   2.672
 7539SOL    HW135093   3.324   5.106   2.692
 7539SOL    HW235094   3.231   5.237   2.723
 7540SOL     OW35095   2.597   6.393   4.476
 7540SOL    HW135096   2.533   6.453   4.525
 7540SOL    HW235097   2.565   6.299   4.482
 7541SOL     OW35098   6.060   2.187   4.835
 7541SOL    HW135099   6.006   2.247   4.894
 7541SOL    HW235100   6.149   2.169   4.878
 7542SOL     OW35101   7.341   3.980   0.689
 7542SOL    HW135102   7.261   4.039   0.685
 7542SOL    HW235103   7.390   3.984   0.601
 7543SOL     OW35104   3.737   4.927   1.944
 7543SOL    HW135105   3.806   4.988   1.983
 7543SOL    HW235106   3.782   4.861   1.884
 7544SOL     OW35107   4.503   6.964   0.643
 7544SOL    HW135108   4.572   6.994   0.578
 7544SOL    HW235109   4.497   7.031   0.718
 7545SOL     OW35110   1.884   0.431   6.809
 7545SOL    HW135111   1.906   0.457   6.903
 7545SOL    HW235112   1.798   0.380   6.807
 7546SOL     OW35113   3.029   4.393   3.657
 7546SOL    HW135114   3.007   4.296   3.655
 7546SOL    HW235115   3.090   4.415   3.581
 7547SOL     OW35116   6.746   3.330   1.258
 7547SOL    HW135117   6.707   3.283   1.179
 7547SOL    HW235118   6.723   3.281   1.342
 7548SOL     OW35119   5.500   0.438   2.388
 7548SOL    HW135120   5.579   0.388   2.422
 7548SOL    HW235121   5.425   0.431   2.454
 7549SOL     OW35122   0.261   5.768   0.112
 7549SOL    HW135123   0.334   5.742   0.049
 7549SOL    HW235124   0.207   5.842   0.073
 7550SOL     OW35125   1.554   6.497   0.947
 7550SOL    HW135126   1.519   6.419   1.000
 7550SOL    HW235127   1.653   6.490   0.939
 7551SOL     OW35128   2.744   3.385   4.477
 7551SOL    HW135129   2.806   3.414   4.404
 7551SOL    HW235130   2.735   3.286   4.475
 7552SOL     OW35131   4.898   3.425   1.756
 7552SOL    HW135132   4.915   3.515   1.715
 7552SOL    HW235133   4.926   3.353   1.693
 7553SOL     OW35134   5.855   6.406   2.554
 7553SOL    HW135135   5.878   6.500   2.578
 7553SOL    HW235136   5.758   6.401   2.528
 7554SOL     OW35137   7.349   3.963   3.889
 7554SOL    HW135138   7.399   4.050   3.890
 7554SOL    HW235139   7.300   3.954   3.802
 7555SOL     OW35140   6.219   0.210   1.736
 7555SOL    HW135141   6.300   0.265   1.754
 7555SOL    HW235142   6.152   0.222   1.809
 7556SOL     OW35143   6.355   3.699   1.048
 7556SOL    HW135144   6.403   3.612   1.040
 7556SOL    HW235145   6.415   3.766   1.091
 7557SOL     OW35146   1.707   5.440   0.267
 7557SOL    HW135147   1.629   5.479   0.217
 7557SOL    HW235148   1.745   5.510   0.328
 7558SOL     OW35149   1.153   1.924   1.782
 7558SOL    HW135150   1.190   1.908   1.690
 7558SOL    HW235151   1.212   1.989   1.830
 7559SOL     OW35152   3.325   0.018   1.402
 7559SOL    HW135153   3.402  -0.042   1.381
 7559SOL    HW235154   3.290   0.057   1.317
 7560SOL     OW35155   5.786   0.535   1.089
 7560SOL    HW135156   5.818   0.547   0.995
 7560SOL    HW235157   5.698   0.582   1.101
 7561SOL     OW35158   3.414   7.154   5.774
 7561SOL    HW135159   3.407   7.090   5.851
 7561SOL    HW235160   3.325   7.195   5.757
 7562SOL     OW35161   3.768   1.669   7.078
 7562SOL    HW135162   3.768   1.570   7.061
 7562SOL    HW235163   3.677   1.706   7.059
 7563SOL     OW35164   4.503   1.215   3.888
 7563SOL    HW135165   4.534   1.193   3.981
 7563SOL    HW235166   4.574   1.191   3.822
 7564SOL     OW35167   1.416   5.058   1.710
 7564SOL    HW135168   1.484   5.009   1.763
 7564SOL    HW235169   1.330   5.062   1.761
 7565SOL     OW35170   4.963   6.596   1.962
 7565SOL    HW135171   5.056   6.558   1.958
 7565SOL    HW235172   4.940   6.620   2.056
 7566SOL     OW35173   0.952   2.730   5.793
 7566SOL    HW135174   0.946   2.824   5.826
 7566SOL    HW235175   0.905   2.723   5.705
 7567SOL     OW35176   1.695   0.874   6.070
 7567SOL    HW135177   1.783   0.870   6.118
 7567SOL    HW235178   1.697   0.947   6.002
 7568SOL     OW35179   0.926   0.378   3.209
 7568SOL    HW135180   0.857   0.437   3.169
 7568SOL    HW235181   0.882   0.299   3.252
 7569SOL     OW35182   7.154   5.505   4.358
 7569SOL    HW135183   7.181   5.587   4.408
 7569SOL    HW235184   7.128   5.433   4.422
 7570SOL     OW35185   0.110   1.995   2.642
 7570SOL    HW135186   0.091   2.088   2.610
 7570SOL    HW235187   0.109   1.994   2.742
 7571SOL     OW35188   3.711   4.134   0.472
 7571SOL    HW135189   3.690   4.043   0.435
 7571SOL    HW235190   3.627   4.187   0.479
 7572SOL     OW35191   3.926   5.117   2.085
 7572SOL    HW135192   4.014   5.149   2.050
 7572SOL    HW235193   3.934   5.092   2.181
 7573SOL     OW35194   1.061   6.803   3.933
 7573SOL    HW135195   1.097   6.896   3.937
 7573SOL    HW235196   1.137   6.737   3.937
 7574SOL     OW35197   2.593   4.507   0.059
 7574SOL    HW135198   2.524   4.492  -0.011
 7574SOL    HW235199   2.656   4.580   0.030
 7575SOL     OW35200   7.036   1.021   5.032
 7575SOL    HW135201   7.116   0.991   4.981
 7575SOL    HW235202   7.062   1.092   5.097
 7576SOL     OW35203   7.264   1.384   3.498
 7576SOL    HW135204   7.221   1.303   3.459
 7576SOL    HW235205   7.274   1.371   3.597
 7577SOL     OW35206   5.190   4.643   2.721
 7577SOL    HW135207   5.112   4.642   2.783
 7577SOL    HW235208   5.234   4.553   2.721
 7578SOL     OW35209   1.511   2.600   3.180
 7578SOL    HW135210   1.528   2.502   3.185
 7578SOL    HW235211   1.413   2.616   3.171
 7579SOL     OW35212   5.331   5.585   5.112
 7579SOL    HW135213   5.326   5.585   5.212
 7579SOL    HW235214   5.264   5.520   5.075
 7580SOL     OW35215   5.727   2.384   3.871
 7580SOL    HW135216   5.715   2.360   3.775
 7580SOL    HW235217   5.640   2.372   3.919
 7581SOL     OW35218   0.766   4.065   6.173
 7581SOL    HW135219   0.754   4.056   6.074
 7581SOL    HW235220   0.685   4.031   6.220
 7582SOL     OW35221   6.547   7.025   2.962
 7582SOL    HW135222   6.542   6.982   3.052
 7582SOL    HW235223   6.594   7.113   2.970
 7583SOL     OW35224   6.541   3.802   2.777
 7583SOL    HW135225   6.463   3.817   2.717
 7583SOL    HW235226   6.520   3.839   2.868
 7584SOL     OW35227   3.508   1.905   5.059
 7584SOL    HW135228   3.479   1.998   5.081
 7584SOL    HW235229   3.541   1.860   5.142
 7585SOL     OW35230   4.931   0.809   0.762
 7585SOL    HW135231   4.993   0.754   0.705
 7585SOL    HW235232   4.984   0.876   0.813
 7586SOL     OW35233   4.412   2.157   4.325
 7586SOL    HW135234   4.430   2.058   4.320
 7586SOL    HW235235   4.430   2.190   4.418
 7587SOL     OW35236   1.446   6.199   5.478
 7587SOL    HW135237   1.500   6.274   5.439
 7587SOL    HW235238   1.475   6.113   5.437
 7588SOL     OW35239   3.563   4.547   6.848
 7588SOL    HW135240   3.579   4.504   6.758
 7588SOL    HW235241   3.628   4.621   6.862
 7589SOL     OW35242   7.332   3.053   4.852
 7589SOL    HW135243   7.368   3.090   4.937
 7589SOL    HW235244   7.381   3.092   4.774
 7590SOL     OW35245   4.168   2.199   4.203
 7590SOL    HW135246   4.253   2.198   4.256
 7590SOL    HW235247   4.095   2.159   4.257
 7591SOL     OW35248   6.979   2.978   0.748
 7591SOL    HW135249   7.025   2.942   0.830
 7591SOL    HW235250   7.043   2.978   0.671
 7592SOL     OW35251   1.559   3.011   3.215
 7592SOL    HW135252   1.557   2.924   3.264
 7592SOL    HW235253   1.640   3.015   3.158
 7593SOL     OW35254   2.208   1.965   6.940
 7593SOL    HW135255   2.272   2.033   6.905
 7593SOL    HW235256   2.190   1.896   6.869
 7594SOL     OW35257   2.653   6.254   0.230
 7594SOL    HW135258   2.733   6.300   0.268
 7594SOL    HW235259   2.581   6.249   0.299
 7595SOL     OW35260   4.768   3.973   5.445
 7595SOL    HW135261   4.816   4.014   5.368
 7595SOL    HW235262   4.794   3.877   5.454
 7596SOL     OW35263   6.062   2.538   1.789
 7596SOL    HW135264   5.970   2.514   1.759
 7596SOL    HW235265   6.058   2.580   1.880
 7597SOL     OW35266   6.837   7.107   5.626
 7597SOL    HW135267   6.808   7.109   5.722
 7597SOL    HW235268   6.865   7.014   5.602
 7598SOL     OW35269   2.511   0.245   1.783
 7598SOL    HW135270   2.591   0.301   1.803
 7598SOL    HW235271   2.432   0.281   1.832
 7599SOL     OW35272   5.315   7.329   1.152
 7599SOL    HW135273   5.325   7.401   1.222
 7599SOL    HW235274   5.366   7.355   1.070
 7600SOL     OW35275   5.969   3.335   4.583
 7600SOL    HW135276   6.054   3.289   4.557
 7600SOL    HW235277   5.911   3.346   4.502
 7601SOL     OW35278   3.040   2.564   2.167
 7601SOL    HW135279   2.942   2.545   2.173
 7601SOL    HW235280   3.086   2.522   2.245
 7602SOL     OW35281   3.956   5.312   2.421
 7602SOL    HW135282   4.051   5.331   2.446
 7602SOL    HW235283   3.934   5.217   2.445
 7603SOL     OW35284   0.028   2.921   5.244
 7603SOL    HW135285   0.093   2.935   5.318
 7603SOL    HW235286   0.002   3.010   5.205
 7604SOL     OW35287   7.145   4.840   2.182
 7604SOL    HW135288   7.113   4.817   2.273
 7604SOL    HW235289   7.241   4.869   2.186
 7605SOL     OW35290   0.289   6.489   7.021
 7605SOL    HW135291   0.299   6.570   7.079
 7605SOL    HW235292   0.379   6.459   6.991
 7606SOL     OW35293   1.955   3.266   6.675
 7606SOL    HW135294   1.886   3.203   6.710
 7606SOL    HW235295   1.916   3.323   6.603
 7607SOL     OW35296   5.802   4.730   2.880
 7607SOL    HW135297   5.806   4.790   2.959
 7607SOL    HW235298   5.776   4.638   2.909
 7608SOL     OW35299   5.540   3.888   0.629
 7608SOL    HW135300   5.583   3.977   0.616
 7608SOL    HW235301   5.556   3.857   0.723
 7609SOL     OW35302   4.038   2.744   7.000
 7609SOL    HW135303   4.113   2.738   6.935
 7609SOL    HW235304   4.008   2.651   7.024
 7610SOL     OW35305   4.138   3.016   3.931
 7610SOL    HW135306   4.129   3.015   3.831
 7610SOL    HW235307   4.053   3.051   3.971
 7611SOL     OW35308   3.121   7.106   6.991
 7611SOL    HW135309   3.077   7.075   7.076
 7611SOL    HW235310   3.130   7.030   6.928
 7612SOL     OW35311   4.172   4.011   4.824
 7612SOL    HW135312   4.123   4.017   4.737
 7612SOL    HW235313   4.176   3.915   4.853
 7613SOL     OW35314   7.099   1.394   1.052
 7613SOL    HW135315   7.061   1.470   1.000
 7613SOL    HW235316   7.039   1.373   1.129
 7614SOL     OW35317   3.926   3.486   2.832
 7614SOL    HW135318   3.875   3.464   2.915
 7614SOL    HW235319   3.916   3.412   2.766
 7615SOL     OW35320   4.419   7.315   6.562
 7615SOL    HW135321   4.320   7.316   6.545
 7615SOL    HW235322   4.459   7.400   6.528
 7616SOL     OW35323   2.892   6.730   0.158
 7616SOL    HW135324   2.855   6.646   0.196
 7616SOL    HW235325   2.870   6.734   0.060
 7617SOL     OW35326   1.696   3.590   6.399
 7617SOL    HW135327   1.705   3.624   6.306
 7617SOL    HW235328   1.683   3.667   6.462
 7618SOL     OW35329   6.229   6.988   6.187
 7618SOL    HW135330   6.185   7.011   6.101
 7618SOL    HW235331   6.171   7.019   6.263
 7619SOL     OW35332   5.531   1.174   4.485
 7619SOL    HW135333   5.607   1.218   4.437
 7619SOL    HW235334   5.561   1.085   4.520
 7620SOL     OW35335   3.540   0.603   2.824
 7620SOL    HW135336   3.447   0.567   2.810
 7620SOL    HW235337   3.605   0.527   2.821
 7621SOL     OW35338   6.515   3.585   2.160
 7621SOL    HW135339   6.426   3.594   2.204
 7621SOL    HW235340   6.586   3.618   2.222
 7622SOL     OW35341   2.168   6.335   0.240
 7622SOL    HW135342   2.123   6.270   0.302
 7622SOL    HW235343   2.162   6.301   0.146
 7623SOL     OW35344   7.278   2.362   0.179
 7623SOL    HW135345   7.309   2.275   0.215
 7623SOL    HW235346   7.209   2.347   0.108
 7624SOL     OW35347   1.238   5.785   5.388
 7624SOL    HW135348   1.277   5.702   5.347
 7624SOL    HW235349   1.303   5.860   5.378
 7625SOL     OW35350   2.929   3.214   2.417
 7625SOL    HW135351   2.846   3.163   2.438
 7625SOL    HW235352   2.905   3.292   2.358
 7626SOL     OW35353   4.339   5.692   6.798
 7626SOL    HW135354   4.407   5.762   6.776
 7626SOL    HW235355   4.247   5.731   6.791
 7627SOL     OW35356   3.985   3.091   4.686
 7627SOL    HW135357   3.898   3.139   4.699
 7627SOL    HW235358   4.029   3.078   4.775
 7628SOL     OW35359   4.675   1.391   5.914
 7628SOL    HW135360   4.747   1.459   5.930
 7628SOL    HW235361   4.714   1.299   5.917
 7629SOL     OW35362   5.098   0.430   1.847
 7629SOL    HW135363   5.097   0.525   1.876
 7629SOL    HW235364   5.039   0.419   1.766
 7630SOL     OW35365   6.927   1.403   1.270
 7630SOL    HW135366   6.885   1.392   1.360
 7630SOL    HW235367   6.932   1.500   1.246
 7631SOL     OW35368   3.033   6.910   6.283
 7631SOL    HW135369   3.107   6.852   6.248
 7631SOL    HW235370   3.049   6.928   6.380
 7632SOL     OW35371   0.981   5.572   5.267
 7632SOL    HW135372   1.067   5.594   5.312
 7632SOL    HW235373   0.995   5.568   5.168
 7633SOL     OW35374   5.302   3.690   1.055
 7633SOL    HW135375   5.288   3.672   1.152
 7633SOL    HW235376   5.230   3.646   1.001
 7634SOL     OW35377   4.155   6.971   1.862
 7634SOL    HW135378   4.227   6.951   1.796
 7634SOL    HW235379   4.068   6.981   1.814
 7635SOL     OW35380   2.458   2.575   2.625
 7635SOL    HW135381   2.375   2.614   2.664
 7635SOL    HW235382   2.449   2.475   2.620
 7636SOL     OW35383   0.838   0.207   1.174
 7636SOL    HW135384   0.845   0.108   1.186
 7636SOL    HW235385   0.750   0.230   1.131
 7637SOL     OW35386   5.137   0.286   6.000
 7637SOL    HW135387   5.181   0.345   6.068
 7637SOL    HW235388   5.188   0.200   5.993
 7638SOL     OW35389   5.868   5.834   5.595
 7638SOL    HW135390   5.845   5.799   5.686
 7638SOL    HW235391   5.794   5.891   5.561
 7639SOL     OW35392   7.210   3.474   2.962
 7639SOL    HW135393   7.211   3.562   2.915
 7639SOL    HW235394   7.284   3.417   2.926
 7640SOL     OW35395   5.174   2.545   2.523
 7640SOL    HW135396   5.188   2.624   2.463
 7640SOL    HW235397   5.235   2.552   2.602
 7641SOL     OW35398   6.882   0.792   2.428
 7641SOL    HW135399   6.883   0.727   2.504
 7641SOL    HW235400   6.976   0.811   2.399
 7642SOL     OW35401   2.041   7.297   0.724
 7642SOL    HW135402   2.100   7.270   0.800
 7642SOL    HW235403   1.984   7.374   0.752
 7643SOL     OW35404   6.738   3.366   7.288
 7643SOL    HW135405   6.756   3.324   7.199
 7643SOL    HW235406   6.677   3.445   7.275
 7644SOL     OW35407   2.183   2.549   1.903
 7644SOL    HW135408   2.178   2.585   1.809
 7644SOL    HW235409   2.271   2.504   1.917
 7645SOL     OW35410   4.922   0.751   3.851
 7645SOL    HW135411   4.822   0.749   3.848
 7645SOL    HW235412   4.952   0.780   3.942
 7646SOL     OW35413   3.511   5.042   1.909
 7646SOL    HW135414   3.579   4.979   1.947
 7646SOL    HW235415   3.427   4.992   1.887
 7647SOL     OW35416   1.915   2.069   3.561
 7647SOL    HW135417   1.860   1.990   3.589
 7647SOL    HW235418   1.951   2.116   3.642
 7648SOL     OW35419   2.318   3.707   5.827
 7648SOL    HW135420   2.315   3.608   5.840
 7648SOL    HW235421   2.225   3.743   5.828
 7649SOL     OW35422   1.773   0.632   0.231
 7649SOL    HW135423   1.696   0.571   0.217
 7649SOL    HW235424   1.803   0.669   0.142
 7650SOL     OW35425   4.695   3.635   6.840
 7650SOL    HW135426   4.653   3.548   6.869
 7650SOL    HW235427   4.793   3.621   6.827
 7651SOL     OW35428   6.990   2.895   4.174
 7651SOL    HW135429   7.061   2.897   4.103
 7651SOL    HW235430   6.929   2.973   4.162
 7652SOL     OW35431   0.524   6.879   4.872
 7652SOL    HW135432   0.607   6.872   4.817
 7652SOL    HW235433   0.486   6.788   4.888
 7653SOL     OW35434   2.553   0.341   6.544
 7653SOL    HW135435   2.616   0.323   6.619
 7653SOL    HW235436   2.460   0.321   6.573
 7654SOL     OW35437   4.042   2.929   6.300
 7654SOL    HW135438   4.053   2.861   6.227
 7654SOL    HW235439   4.036   2.882   6.388
 7655SOL     OW35440   0.727   4.480   0.918
 7655SOL    HW135441   0.818   4.496   0.957
 7655SOL    HW235442   0.657   4.510   0.982
 7656SOL     OW35443   2.354   2.860   1.341
 7656SOL    HW135444   2.403   2.889   1.423
 7656SOL    HW235445   2.326   2.764   1.351
 7657SOL     OW35446   0.980   1.015   1.923
 7657SOL    HW135447   0.955   0.983   1.832
 7657SOL    HW235448   0.991   1.114   1.921
 7658SOL     OW35449   2.068   5.363   7.201
 7658SOL    HW135450   2.012   5.380   7.282
 7658SOL    HW235451   2.086   5.265   7.194
 7659SOL     OW35452   4.774   6.129   6.279
 7659SOL    HW135453   4.790   6.147   6.376
 7659SOL    HW235454   4.724   6.043   6.270
 7660SOL     OW35455   5.801   1.308   6.775
 7660SOL    HW135456   5.765   1.376   6.839
 7660SOL    HW235457   5.891   1.337   6.743
 7661SOL     OW35458   4.171   7.277   6.155
 7661SOL    HW135459   4.090   7.218   6.164
 7661SOL    HW235460   4.152   7.349   6.088
 7662SOL     OW35461   5.495   0.959   6.515
 7662SOL    HW135462   5.434   0.950   6.436
 7662SOL    HW235463   5.444   0.996   6.592
 7663SOL     OW35464   0.641   4.603   3.393
 7663SOL    HW135465   0.733   4.585   3.427
 7663SOL    HW235466   0.646   4.661   3.312
 7664SOL     OW35467   3.060   1.843   5.769
 7664SOL    HW135468   2.961   1.850   5.779
 7664SOL    HW235469   3.082   1.783   5.693
 7665SOL     OW35470   4.061   1.358   2.670
 7665SOL    HW135471   4.005   1.275   2.679
 7665SOL    HW235472   4.141   1.338   2.613
 7666SOL     OW35473   2.871   2.139   3.131
 7666SOL    HW135474   2.889   2.048   3.093
 7666SOL    HW235475   2.939   2.204   3.096
 7667SOL     OW35476   5.171   4.474   5.070
 7667SOL    HW135477   5.126   4.388   5.046
 7667SOL    HW235478   5.207   4.518   4.988
 7668SOL     OW35479   6.595   6.829   7.163
 7668SOL    HW135480   6.531   6.856   7.234
 7668SOL    HW235481   6.663   6.901   7.149
 7669SOL     OW35482   0.808   0.490   0.742
 7669SOL    HW135483   0.862   0.406   0.753
 7669SOL    HW235484   0.736   0.474   0.674
 7670SOL     OW35485   6.183   2.838   3.297
 7670SOL    HW135486   6.251   2.871   3.363
 7670SOL    HW235487   6.102   2.896   3.300
 7671SOL     OW35488   4.527   4.784   3.277
 7671SOL    HW135489   4.555   4.698   3.234
 7671SOL    HW235490   4.449   4.823   3.228
 7672SOL     OW35491   0.303   0.088   3.080
 7672SOL    HW135492   0.331   0.165   3.137
 7672SOL    HW235493   0.242   0.028   3.132
 7673SOL     OW35494   7.083   2.779   1.833
 7673SOL    HW135495   7.085   2.805   1.737
 7673SOL    HW235496   7.140   2.698   1.846
 7674SOL     OW35497   6.378   4.262   1.044
 7674SOL    HW135498   6.362   4.295   1.137
 7674SOL    HW235499   6.458   4.202   1.043
 7675SOL     OW35500   6.405   4.024   1.701
 7675SOL    HW135501   6.487   4.032   1.645
 7675SOL    HW235502   6.386   3.928   1.719
 7676SOL     OW35503   6.295   0.803   0.131
 7676SOL    HW135504   6.288   0.747   0.214
 7676SOL    HW235505   6.206   0.808   0.086
 7677SOL     OW35506   5.924   0.924   0.223
 7677SOL    HW135507   5.987   0.903   0.298
 7677SOL    HW235508   5.974   0.919   0.136
 7678SOL     OW35509   5.573   4.405   0.502
 7678SOL    HW135510   5.490   4.452   0.532
 7678SOL    HW235511   5.646   4.422   0.568
 7679SOL     OW35512   4.150   6.974   0.907
 7679SOL    HW135513   4.233   6.950   0.956
 7679SOL    HW235514   4.133   7.072   0.917
 7680SOL     OW35515   0.046   0.468   2.293
 7680SOL    HW135516   0.055   0.378   2.250
 7680SOL    HW235517  -0.032   0.468   2.355
 7681SOL     OW35518   4.545   2.217   3.735
 7681SOL    HW135519   4.571   2.144   3.798
 7681SOL    HW235520   4.451   2.245   3.753
 7682SOL     OW35521   4.391   4.164   6.065
 7682SOL    HW135522   4.328   4.088   6.053
 7682SOL    HW235523   4.340   4.244   6.098
 7683SOL     OW35524   4.441   4.415   5.286
 7683SOL    HW135525   4.361   4.404   5.227
 7683SOL    HW235526   4.414   4.401   5.382
 7684SOL     OW35527   5.065   1.173   6.751
 7684SOL    HW135528   4.974   1.136   6.732
 7684SOL    HW235529   5.071   1.201   6.846
 7685SOL     OW35530   2.787   4.211   4.529
 7685SOL    HW135531   2.733   4.211   4.445
 7685SOL    HW235532   2.730   4.240   4.606
 7686SOL     OW35533   1.860   0.264   3.769
 7686SOL    HW135534   1.833   0.212   3.688
 7686SOL    HW235535   1.918   0.207   3.827
 7687SOL     OW35536   0.763   6.381   0.159
 7687SOL    HW135537   0.859   6.389   0.187
 7687SOL    HW235538   0.726   6.294   0.192
 7688SOL     OW35539   7.255   1.190   5.371
 7688SOL    HW135540   7.201   1.223   5.294
 7688SOL    HW235541   7.257   1.259   5.443
 7689SOL     OW35542   5.487   2.929   4.768
 7689SOL    HW135543   5.471   2.948   4.671
 7689SOL    HW235544   5.409   2.879   4.806
 7690SOL     OW35545   3.474   0.123   0.592
 7690SOL    HW135546   3.379   0.094   0.605
 7690SOL    HW235547   3.535   0.044   0.600
 7691SOL     OW35548   4.205   0.609   3.789
 7691SOL    HW135549   4.153   0.694   3.794
 7691SOL    HW235550   4.178   0.558   3.708
 7692SOL     OW35551   0.605   0.184   1.032
 7692SOL    HW135552   0.641   0.277   1.027
 7692SOL    HW235553   0.534   0.171   0.964
 7693SOL     OW35554   2.192   4.058   6.726
 7693SOL    HW135555   2.243   4.050   6.640
 7693SOL    HW235556   2.209   3.978   6.783
 7694SOL     OW35557   6.958   7.116   6.531
 7694SOL    HW135558   6.961   7.210   6.563
 7694SOL    HW235559   6.994   7.111   6.438
 7695SOL     OW35560   5.095   2.005   3.055
 7695SOL    HW135561   5.190   2.006   3.024
 7695SOL    HW235562   5.083   1.937   3.126
 7696SOL     OW35563   6.753   2.255   6.000
 7696SOL    HW135564   6.787   2.334   5.949
 7696SOL    HW235565   6.658   2.236   5.974
 7697SOL     OW35566   3.350   1.187   6.341
 7697SOL    HW135567   3.415   1.113   6.360
 7697SOL    HW235568   3.352   1.209   6.244
 7698SOL     OW35569   2.126   3.946   1.360
 7698SOL    HW135570   2.038   3.986   1.385
 7698SOL    HW235571   2.111   3.863   1.307
 7699SOL     OW35572   5.402   5.709   6.182
 7699SOL    HW135573   5.490   5.672   6.212
 7699SOL    HW235574   5.353   5.640   6.129
 7700SOL     OW35575   4.634   5.707   1.927
 7700SOL    HW135576   4.643   5.666   2.018
 7700SOL    HW235577   4.578   5.789   1.933
 7701SOL     OW35578   3.855   1.051   6.110
 7701SOL    HW135579   3.912   0.994   6.170
 7701SOL    HW235580   3.887   1.145   6.112
 7702SOL     OW35581   2.658   4.107   5.839
 7702SOL    HW135582   2.650   4.146   5.747
 7702SOL    HW235583   2.715   4.166   5.895
 7703SOL     OW35584   3.005   5.664   4.764
 7703SOL    HW135585   3.083   5.642   4.822
 7703SOL    HW235586   2.920   5.644   4.812
 7704SOL     OW35587   4.768   6.984   1.072
 7704SOL    HW135588   4.784   7.079   1.044
 7704SOL    HW235589   4.809   6.968   1.161
 7705SOL     OW35590   0.772   0.908   1.660
 7705SOL    HW135591   0.733   0.839   1.598
 7705SOL    HW235592   0.865   0.931   1.630
 7706SOL     OW35593   2.135   1.185   1.134
 7706SOL    HW135594   2.126   1.115   1.064
 7706SOL    HW235595   2.152   1.141   1.223
 7707SOL     OW35596   3.945   2.703   4.603
 7707SOL    HW135597   3.900   2.770   4.543
 7707SOL    HW235598   4.031   2.741   4.636
 7708SOL     OW35599   2.318   1.914   0.741
 7708SOL    HW135600   2.337   1.830   0.690
 7708SOL    HW235601   2.330   1.993   0.680
 7709SOL     OW35602   0.208   2.501   6.501
 7709SOL    HW135603   0.158   2.501   6.588
 7709SOL    HW235604   0.269   2.422   6.498
 7710SOL     OW35605   1.667   0.040   3.721
 7710SOL    HW135606   1.581   0.091   3.723
 7710SOL    HW235607   1.708   0.041   3.812
 7711SOL     OW35608   5.577   4.995   4.827
 7711SOL    HW135609   5.648   4.949   4.774
 7711SOL    HW235610   5.619   5.044   4.903
 7712SOL     OW35611   4.150   7.244   0.876
 7712SOL    HW135612   4.056   7.246   0.841
 7712SOL    HW235613   4.214   7.239   0.799
 7713SOL     OW35614   0.795   5.658   6.653
 7713SOL    HW135615   0.726   5.717   6.610
 7713SOL    HW235616   0.806   5.574   6.599
 7714SOL     OW35617   7.165   3.277   5.213
 7714SOL    HW135618   7.177   3.372   5.187
 7714SOL    HW235619   7.099   3.234   5.151
 7715SOL     OW35620   5.608   6.368   2.261
 7715SOL    HW135621   5.619   6.442   2.327
 7715SOL    HW235622   5.673   6.381   2.185
 7716SOL     OW35623   4.780   6.939   7.201
 7716SOL    HW135624   4.753   6.981   7.115
 7716SOL    HW235625   4.819   6.848   7.184
 7717SOL     OW35626   7.006   3.636   5.593
 7717SOL    HW135627   7.027   3.731   5.616
 7717SOL    HW235628   6.972   3.631   5.500
 7718SOL     OW35629   1.194   3.844   1.218
 7718SOL    HW135630   1.173   3.748   1.237
 7718SOL    HW235631   1.261   3.849   1.144
 7719SOL     OW35632   4.553   0.333   0.140
 7719SOL    HW135633   4.486   0.406   0.129
 7719SOL    HW235634   4.506   0.245   0.151
 7720SOL     OW35635   6.667   0.625   1.423
 7720SOL    HW135636   6.728   0.592   1.350
 7720SOL    HW235637   6.586   0.567   1.427
 7721SOL     OW35638   1.948   6.892   1.639
 7721SOL    HW135639   1.973   6.971   1.584
 7721SOL    HW235640   1.908   6.922   1.725
 7722SOL     OW35641   3.033   1.685   6.645
 7722SOL    HW135642   2.950   1.641   6.679
 7722SOL    HW235643   3.009   1.745   6.568
 7723SOL     OW35644   3.266   4.837   5.422
 7723SOL    HW135645   3.194   4.887   5.471
 7723SOL    HW235646   3.350   4.891   5.423
 7724SOL     OW35647   2.909   5.387   4.679
 7724SOL    HW135648   2.839   5.358   4.745
 7724SOL    HW235649   2.985   5.322   4.680
 7725SOL     OW35650   1.904   2.065   3.148
 7725SOL    HW135651   1.981   2.055   3.210
 7725SOL    HW235652   1.931   2.035   3.056
 7726SOL     OW35653   4.758   1.439   4.025
 7726SOL    HW135654   4.834   1.418   4.087
 7726SOL    HW235655   4.757   1.373   3.950
 7727SOL     OW35656   6.188   2.503   4.688
 7727SOL    HW135657   6.185   2.517   4.787
 7727SOL    HW235658   6.190   2.591   4.641
 7728SOL     OW35659   5.438   0.664   1.251
 7728SOL    HW135660   5.437   0.649   1.153
 7728SOL    HW235661   5.348   0.695   1.281
 7729SOL     OW35662   1.911   1.245   6.890
 7729SOL    HW135663   2.004   1.263   6.857
 7729SOL    HW235664   1.897   1.147   6.899
 7730SOL     OW35665   1.831   2.924   1.591
 7730SOL    HW135666   1.790   2.875   1.514
 7730SOL    HW235667   1.801   3.019   1.590
 7731SOL     OW35668   3.451   4.943   3.956
 7731SOL    HW135669   3.355   4.942   3.926
 7731SOL    HW235670   3.455   4.938   4.056
 7732SOL     OW35671   0.218   3.447   6.247
 7732SOL    HW135672   0.275   3.394   6.186
 7732SOL    HW235673   0.272   3.480   6.324
 7733SOL     OW35674   2.867   2.580   3.798
 7733SOL    HW135675   2.922   2.551   3.876
 7733SOL    HW235676   2.793   2.639   3.829
 7734SOL     OW35677   1.527   4.087   1.211
 7734SOL    HW135678   1.538   4.048   1.302
 7734SOL    HW235679   1.605   4.063   1.154
 7735SOL     OW35680   0.177   0.559   1.368
 7735SOL    HW135681   0.115   0.565   1.290
 7735SOL    HW235682   0.168   0.642   1.424
 7736SOL     OW35683   1.965   3.810   0.699
 7736SOL    HW135684   2.048   3.756   0.684
 7736SOL    HW235685   1.990   3.904   0.723
 7737SOL     OW35686   0.651   0.462   1.035
 7737SOL    HW135687   0.588   0.501   0.968
 7737SOL    HW235688   0.707   0.535   1.076
 7738SOL     OW35689   2.522   1.651   6.048
 7738SOL    HW135690   2.516   1.717   6.123
 7738SOL    HW235691   2.429   1.632   6.014
 7739SOL     OW35692   3.819   2.072   2.878
 7739SOL    HW135693   3.889   2.126   2.831
 7739SOL    HW235694   3.854   1.979   2.894
 7740SOL     OW35695   0.962   3.730   1.480
 7740SOL    HW135696   0.981   3.826   1.457
 7740SOL    HW235697   0.863   3.717   1.489
 7741SOL     OW35698   2.719   0.356   7.256
 7741SOL    HW135699   2.711   0.381   7.352
 7741SOL    HW235700   2.736   0.438   7.201
 7742SOL     OW35701   2.077   3.752   5.926
 7742SOL    HW135702   2.055   3.656   5.947
 7742SOL    HW235703   2.021   3.812   5.983
 7743SOL     OW35704   0.143   6.239   6.481
 7743SOL    HW135705   0.184   6.236   6.390
 7743SOL    HW235706   0.151   6.331   6.519
 7744SOL     OW35707   5.366   7.215   2.876
 7744SOL    HW135708   5.457   7.189   2.843
 7744SOL    HW235709   5.300   7.144   2.852
 7745SOL     OW35710   1.915   3.618   2.669
 7745SOL    HW135711   1.993   3.673   2.701
 7745SOL    HW235712   1.944   3.564   2.591
 7746SOL     OW35713   6.172   3.065   3.049
 7746SOL    HW135714   6.231   3.101   3.121
 7746SOL    HW235715   6.159   3.135   2.978
 7747SOL     OW35716   1.904   2.829   4.182
 7747SOL    HW135717   1.960   2.803   4.103
 7747SOL    HW235718   1.862   2.748   4.222
 7748SOL     OW35719   5.619   7.049   3.110
 7748SOL    HW135720   5.648   7.023   3.018
 7748SOL    HW235721   5.633   7.147   3.123
 7749SOL     OW35722   4.359   6.298   6.381
 7749SOL    HW135723   4.416   6.231   6.429
 7749SOL    HW235724   4.276   6.254   6.348
 7750SOL     OW35725   3.705   1.137   5.129
 7750SOL    HW135726   3.736   1.198   5.056
 7750SOL    HW235727   3.784   1.109   5.184
 7751SOL     OW35728   7.028   0.873   0.981
 7751SOL    HW135729   7.117   0.867   0.935
 7751SOL    HW235730   6.959   0.826   0.926
 7752SOL     OW35731   5.645   4.395   1.190
 7752SOL    HW135732   5.645   4.383   1.090
 7752SOL    HW235733   5.675   4.487   1.212
 7753SOL     OW35734   3.547   1.891   6.281
 7753SOL    HW135735   3.556   1.791   6.283
 7753SOL    HW235736   3.637   1.932   6.264
 7754SOL     OW35737   5.820   6.653   2.153
 7754SOL    HW135738   5.742   6.667   2.214
 7754SOL    HW235739   5.837   6.555   2.142
 7755SOL     OW35740   0.197   4.815   0.514
 7755SOL    HW135741   0.147   4.900   0.527
 7755SOL    HW235742   0.229   4.808   0.420
 7756SOL     OW35743   6.969   7.307   6.948
 7756SOL    HW135744   6.973   7.401   6.981
 7756SOL    HW235745   7.023   7.248   7.008
 7757SOL     OW35746   2.900   0.151   5.220
 7757SOL    HW135747   2.972   0.201   5.269
 7757SOL    HW235748   2.929   0.136   5.125
 7758SOL     OW35749   6.742   4.040   1.688
 7758SOL    HW135750   6.841   4.052   1.686
 7758SOL    HW235751   6.709   4.047   1.783
 7759SOL     OW35752   6.100   1.883   2.863
 7759SOL    HW135753   6.027   1.824   2.827
 7759SOL    HW235754   6.103   1.875   2.963
 7760SOL     OW35755   5.288   2.020   4.248
 7760SOL    HW135756   5.201   2.063   4.269
 7760SOL    HW235757   5.346   2.018   4.329
 7761SOL     OW35758   0.839   2.635   7.279
 7761SOL    HW135759   0.749   2.624   7.236
 7761SOL    HW235760   0.874   2.727   7.261
 7762SOL     OW35761   3.234   5.924   1.654
 7762SOL    HW135762   3.219   6.003   1.595
 7762SOL    HW235763   3.262   5.846   1.598
 7763SOL     OW35764   0.082   4.371   1.798
 7763SOL    HW135765   0.060   4.392   1.703
 7763SOL    HW235766   0.149   4.296   1.801
 7764SOL     OW35767   1.659   2.767   3.305
 7764SOL    HW135768   1.743   2.770   3.250
 7764SOL    HW235769   1.596   2.699   3.266
 7765SOL     OW35770   1.535   7.330   6.079
 7765SOL    HW135771   1.476   7.309   6.157
 7765SOL    HW235772   1.563   7.426   6.084
 7766SOL     OW35773   5.872   3.923   6.272
 7766SOL    HW135774   5.892   4.019   6.255
 7766SOL    HW235775   5.869   3.874   6.185
 7767SOL     OW35776   5.207   6.188   2.628
 7767SOL    HW135777   5.140   6.160   2.559
 7767SOL    HW235778   5.237   6.108   2.680
 7768SOL     OW35779   3.697   3.084   7.137
 7768SOL    HW135780   3.603   3.068   7.107
 7768SOL    HW235781   3.761   3.046   7.070
 7769SOL     OW35782   2.144   7.080   2.460
 7769SOL    HW135783   2.165   7.166   2.506
 7769SOL    HW235784   2.062   7.040   2.500
 7770SOL     OW35785   3.294   6.730   1.556
 7770SOL    HW135786   3.222   6.757   1.493
 7770SOL    HW235787   3.340   6.812   1.591
 7771SOL     OW35788   2.955   5.073   4.244
 7771SOL    HW135789   3.035   5.122   4.211
 7771SOL    HW235790   2.892   5.138   4.288
 7772SOL     OW35791   0.916   0.643   1.410
 7772SOL    HW135792   0.911   0.547   1.436
 7772SOL    HW235793   0.825   0.684   1.413
 7773SOL     OW35794   2.968   4.028   4.713
 7773SOL    HW135795   2.962   3.961   4.639
 7773SOL    HW235796   2.924   4.113   4.684
 7774SOL     OW35797   4.981   4.511   5.875
 7774SOL    HW135798   4.924   4.436   5.908
 7774SOL    HW235799   5.043   4.476   5.804
 7775SOL     OW35800   3.776   1.389   7.024
 7775SOL    HW135801   3.764   1.343   6.936
 7775SOL    HW235802   3.855   1.349   7.072
 7776SOL     OW35803   3.937   0.814   0.257
 7776SOL    HW135804   3.983   0.821   0.169
 7776SOL    HW235805   3.990   0.753   0.317
 7777SOL     OW35806   0.192   2.517   3.385
 7777SOL    HW135807   0.242   2.515   3.471
 7777SOL    HW235808   0.140   2.432   3.375
 7778SOL     OW35809   3.121   6.469   6.032
 7778SOL    HW135810   3.099   6.504   6.123
 7778SOL    HW235811   3.173   6.538   5.981
 7779SOL     OW35812   1.379   0.240   6.999
 7779SOL    HW135813   1.449   0.181   7.040
 7779SOL    HW235814   1.402   0.256   6.903
 7780SOL     OW35815   5.400   4.210   4.025
 7780SOL    HW135816   5.416   4.290   3.966
 7780SOL    HW235817   5.423   4.127   3.974
 7781SOL     OW35818   6.055   2.509   2.561
 7781SOL    HW135819   6.007   2.571   2.623
 7781SOL    HW235820   6.012   2.419   2.564
 7782SOL     OW35821   5.412   5.927   7.154
 7782SOL    HW135822   5.381   5.833   7.166
 7782SOL    HW235823   5.374   5.984   7.227
 7783SOL     OW35824   0.871   5.832   4.497
 7783SOL    HW135825   0.967   5.858   4.499
 7783SOL    HW235826   0.815   5.909   4.527
 7784SOL     OW35827   5.530   0.939   2.840
 7784SOL    HW135828   5.567   0.874   2.773
 7784SOL    HW235829   5.444   0.904   2.877
 7785SOL     OW35830   6.429   4.922   6.907
 7785SOL    HW135831   6.413   4.830   6.871
 7785SOL    HW235832   6.363   4.941   6.980
 7786SOL     OW35833   5.424   0.913   6.954
 7786SOL    HW135834   5.387   0.956   6.872
 7786SOL    HW235835   5.469   0.982   7.010
 7787SOL     OW35836   2.292   5.500   7.179
 7787SOL    HW135837   2.355   5.422   7.177
 7787SOL    HW235838   2.198   5.467   7.183
 7788SOL     OW35839   2.520   5.075   0.893
 7788SOL    HW135840   2.585   5.145   0.923
 7788SOL    HW235841   2.431   5.117   0.875
 7789SOL     OW35842   2.125   2.114   5.930
 7789SOL    HW135843   2.080   2.158   6.007
 7789SOL    HW235844   2.056   2.086   5.862
 7790SOL     OW35845   3.641   6.296   5.375
 7790SOL    HW135846   3.718   6.232   5.364
 7790SOL    HW235847   3.676   6.388   5.390
 7791SOL     OW35848   5.602   6.656   2.311
 7791SOL    HW135849   5.581   6.619   2.402
 7791SOL    HW235850   5.591   6.755   2.313
 7792SOL     OW35851   6.137   5.988   2.468
 7792SOL    HW135852   6.165   5.961   2.560
 7792SOL    HW235853   6.176   6.077   2.446
 7793SOL     OW35854   4.510   3.345   3.592
 7793SOL    HW135855   4.501   3.317   3.687
 7793SOL    HW235856   4.427   3.321   3.541
 7794SOL     OW35857   0.393   2.277   6.451
 7794SOL    HW135858   0.436   2.232   6.373
 7794SOL    HW235859   0.455   2.274   6.529
 7795SOL     OW35860   6.221   4.055   0.180
 7795SOL    HW135861   6.270   3.971   0.204
 7795SOL    HW235862   6.200   4.106   0.263
 7796SOL     OW35863   5.926   6.222   4.648
 7796SOL    HW135864   5.867   6.150   4.684
 7796SOL    HW235865   5.875   6.308   4.644
 7797SOL     OW35866   5.654   5.377   4.791
 7797SOL    HW135867   5.634   5.404   4.885
 7797SOL    HW235868   5.570   5.381   4.736
 7798SOL     OW35869   5.386   5.138   4.145
 7798SOL    HW135870   5.418   5.069   4.211
 7798SOL    HW235871   5.294   5.114   4.114
 7799SOL     OW35872   5.471   1.767   0.789
 7799SOL    HW135873   5.395   1.802   0.734
 7799SOL    HW235874   5.465   1.667   0.793
 7800SOL     OW35875   4.247   6.160   3.499
 7800SOL    HW135876   4.236   6.253   3.464
 7800SOL    HW235877   4.340   6.148   3.534
 7801SOL     OW35878   1.604   7.343   4.174
 7801SOL    HW135879   1.640   7.426   4.216
 7801SOL    HW235880   1.664   7.315   4.099
 7802SOL     OW35881   4.877   1.572   2.778
 7802SOL    HW135882   4.872   1.525   2.866
 7802SOL    HW235883   4.820   1.654   2.780
 7803SOL     OW35884   0.690   2.926   0.721
 7803SOL    HW135885   0.615   2.882   0.769
 7803SOL    HW235886   0.697   3.022   0.750
 7804SOL     OW35887   1.482   3.054   3.582
 7804SOL    HW135888   1.386   3.071   3.603
 7804SOL    HW235889   1.492   2.961   3.547
 7805SOL     OW35890   2.461   2.510   0.440
 7805SOL    HW135891   2.511   2.529   0.355
 7805SOL    HW235892   2.417   2.421   0.434
 7806SOL     OW35893   3.056   6.953   5.370
 7806SOL    HW135894   3.091   6.901   5.293
 7806SOL    HW235895   3.103   6.925   5.454
 7807SOL     OW35896   2.342   3.123   0.913
 7807SOL    HW135897   2.372   3.100   1.006
 7807SOL    HW235898   2.250   3.087   0.898
 7808SOL     OW35899   3.595   6.055   4.961
 7808SOL    HW135900   3.679   6.001   4.953
 7808SOL    HW235901   3.559   6.073   4.869
 7809SOL     OW35902   3.385   0.048   0.320
 7809SOL    HW135903   3.424   0.067   0.410
 7809SOL    HW235904   3.434   0.100   0.251
 7810SOL     OW35905   0.509   6.190   7.330
 7810SOL    HW135906   0.568   6.246   7.272
 7810SOL    HW235907   0.413   6.211   7.310
 7811SOL     OW35908   6.653   6.207   6.253
 7811SOL    HW135909   6.599   6.280   6.210
 7811SOL    HW235910   6.751   6.226   6.240
 7812SOL     OW35911   0.311   5.946   6.191
 7812SOL    HW135912   0.402   5.933   6.230
 7812SOL    HW235913   0.296   6.043   6.172
 7813SOL     OW35914   0.003   2.748   3.315
 7813SOL    HW135915   0.029   2.819   3.380
 7813SOL    HW235916   0.083   2.692   3.293
 7814SOL     OW35917   5.769   7.349   7.272
 7814SOL    HW135918   5.805   7.389   7.188
 7814SOL    HW235919   5.836   7.286   7.311
 7815SOL     OW35920   5.643   3.747   4.706
 7815SOL    HW135921   5.612   3.655   4.683
 7815SOL    HW235922   5.660   3.799   4.621
 7816SOL     OW35923   5.772   1.517   6.968
 7816SOL    HW135924   5.711   1.480   7.038
 7816SOL    HW235925   5.735   1.602   6.933
 7817SOL     OW35926   7.177   5.580   5.069
 7817SOL    HW135927   7.081   5.562   5.043
 7817SOL    HW235928   7.231   5.497   5.056
 7818SOL     OW35929   5.124   2.687   5.239
 7818SOL    HW135930   5.038   2.642   5.216
 7818SOL    HW235931   5.161   2.647   5.323
 7819SOL     OW35932   7.106   2.194   3.896
 7819SOL    HW135933   7.185   2.202   3.836
 7819SOL    HW235934   7.121   2.250   3.978
 7820SOL     OW35935   3.159   0.206   5.721
 7820SOL    HW135936   3.210   0.268   5.662
 7820SOL    HW235937   3.119   0.258   5.797
 7821SOL     OW35938   3.260   0.814   4.707
 7821SOL    HW135939   3.191   0.743   4.695
 7821SOL    HW235940   3.217   0.897   4.743
 7822SOL     OW35941   3.467   0.523   3.234
 7822SOL    HW135942   3.445   0.586   3.160
 7822SOL    HW235943   3.387   0.467   3.255
 7823SOL     OW35944   7.168   3.507   2.596
 7823SOL    HW135945   7.095   3.542   2.537
 7823SOL    HW235946   7.168   3.407   2.593
 7824SOL     OW35947   5.465   5.953   6.093
 7824SOL    HW135948   5.450   5.863   6.133
 7824SOL    HW235949   5.416   6.022   6.147
 7825SOL     OW35950   5.232   4.298   1.049
 7825SOL    HW135951   5.132   4.300   1.045
 7825SOL    HW235952   5.263   4.203   1.038
 7826SOL     OW35953   3.759   2.658   2.648
 7826SOL    HW135954   3.761   2.758   2.645
 7826SOL    HW235955   3.794   2.627   2.737
 7827SOL     OW35956   2.477   4.438   7.182
 7827SOL    HW135957   2.400   4.374   7.178
 7827SOL    HW235958   2.553   4.401   7.130
 7828SOL     OW35959   7.051   0.106   2.420
 7828SOL    HW135960   7.016   0.074   2.509
 7828SOL    HW235961   7.130   0.050   2.394
 7829SOL     OW35962   3.580   6.069   1.393
 7829SOL    HW135963   3.663   6.125   1.380
 7829SOL    HW235964   3.584   5.990   1.332
 7830SOL     OW35965   2.751   3.952   1.146
 7830SOL    HW135966   2.658   3.988   1.160
 7830SOL    HW235967   2.747   3.852   1.142
 7831SOL     OW35968   4.449   6.608   3.415
 7831SOL    HW135969   4.523   6.556   3.457
 7831SOL    HW235970   4.479   6.642   3.326
 7832SOL     OW35971   6.263   1.579   2.063
 7832SOL    HW135972   6.350   1.536   2.087
 7832SOL    HW235973   6.276   1.677   2.049
 7833SOL     OW35974   4.231   0.374   2.708
 7833SOL    HW135975   4.166   0.432   2.659
 7833SOL    HW235976   4.265   0.423   2.789
 7834SOL     OW35977   6.585   0.023   1.714
 7834SOL    HW135978   6.499  -0.008   1.673
 7834SOL    HW235979   6.586   0.123   1.718
 7835SOL     OW35980   3.618   3.646   2.526
 7835SOL    HW135981   3.666   3.657   2.613
 7835SOL    HW235982   3.547   3.577   2.535
 7836SOL     OW35983   0.501   0.667   5.588
 7836SOL    HW135984   0.532   0.590   5.531
 7836SOL    HW235985   0.543   0.660   5.679
 7837SOL     OW35986   3.454   5.498   4.011
 7837SOL    HW135987   3.425   5.461   3.923
 7837SOL    HW235988   3.545   5.538   4.003
 7838SOL     OW35989   5.248   5.193   1.375
 7838SOL    HW135990   5.304   5.121   1.334
 7838SOL    HW235991   5.190   5.235   1.305
 7839SOL     OW35992   5.397   4.915   6.072
 7839SOL    HW135993   5.383   4.895   6.169
 7839SOL    HW235994   5.369   4.835   6.018
 7840SOL     OW35995   2.878   5.353   6.355
 7840SOL    HW135996   2.859   5.451   6.343
 7840SOL    HW235997   2.811   5.313   6.418
 7841SOL     OW35998   1.540   0.468   0.121
 7841SOL    HW135999   1.483   0.401   0.167
 7841SOL    HW236000   1.487   0.512   0.048
 7842SOL     OW36001   0.110   7.041   5.887
 7842SOL    HW136002   0.168   7.089   5.820
 7842SOL    HW236003   0.097   6.947   5.857
 7843SOL     OW36004   4.188   3.417   0.575
 7843SOL    HW136005   4.128   3.358   0.629
 7843SOL    HW236006   4.212   3.497   0.630
 7844SOL     OW36007   5.722   2.002   0.370
 7844SOL    HW136008   5.796   2.017   0.303
 7844SOL    HW236009   5.690   2.091   0.403
 7845SOL     OW36010   3.869   0.332   0.783
 7845SOL    HW136011   3.832   0.333   0.876
 7845SOL    HW236012   3.816   0.394   0.725
 7846SOL     OW36013   0.340   2.556   3.611
 7846SOL    HW136014   0.316   2.489   3.681
 7846SOL    HW236015   0.312   2.647   3.642
 7847SOL     OW36016   1.157   4.468   3.517
 7847SOL    HW136017   1.081   4.403   3.516
 7847SOL    HW236018   1.236   4.427   3.563
 7848SOL     OW36019   6.500   6.650   1.226
 7848SOL    HW136020   6.518   6.690   1.136
 7848SOL    HW236021   6.492   6.724   1.293
 7849SOL     OW36022   3.549   1.790   2.349
 7849SOL    HW136023   3.639   1.766   2.386
 7849SOL    HW236024   3.554   1.795   2.249
 7850SOL     OW36025   1.933   6.126   7.205
 7850SOL    HW136026   1.909   6.032   7.229
 7850SOL    HW236027   2.019   6.151   7.249
 7851SOL     OW36028   6.905   6.454   7.044
 7851SOL    HW136029   6.888   6.377   6.983
 7851SOL    HW236030   6.821   6.507   7.056
 7852SOL     OW36031   6.675   7.067   2.092
 7852SOL    HW136032   6.693   7.147   2.036
 7852SOL    HW236033   6.746   7.059   2.163
 7853SOL     OW36034   6.756   3.237   7.062
 7853SOL    HW136035   6.775   3.141   7.042
 7853SOL    HW236036   6.723   3.282   6.978
 7854SOL     OW36037   2.579   1.193   2.236
 7854SOL    HW136038   2.551   1.225   2.326
 7854SOL    HW236039   2.630   1.107   2.245
 7855SOL     OW36040   4.690   5.965   3.420
 7855SOL    HW136041   4.673   5.888   3.482
 7855SOL    HW236042   4.655   6.049   3.461
 7856SOL     OW36043   1.323   4.019   5.586
 7856SOL    HW136044   1.309   4.059   5.496
 7856SOL    HW236045   1.256   4.057   5.650
 7857SOL     OW36046   6.863   5.988   2.756
 7857SOL    HW136047   6.896   6.016   2.846
 7857SOL    HW236048   6.806   5.906   2.766
 7858SOL     OW36049   7.156   6.932   6.933
 7858SOL    HW136050   7.129   6.839   6.958
 7858SOL    HW236051   7.255   6.941   6.945
 7859SOL     OW36052   5.505   1.470   1.500
 7859SOL    HW136053   5.546   1.436   1.415
 7859SOL    HW236054   5.458   1.557   1.482
 7860SOL     OW36055   1.740   3.333   3.373
 7860SOL    HW136056   1.807   3.405   3.357
 7860SOL    HW236057   1.687   3.317   3.289
 7861SOL     OW36058   6.179   4.700   0.695
 7861SOL    HW136059   6.147   4.625   0.754
 7861SOL    HW236060   6.242   4.758   0.747
 7862SOL     OW36061   1.339   2.992   0.151
 7862SOL    HW136062   1.313   2.938   0.071
 7862SOL    HW236063   1.300   2.951   0.234
 7863SOL     OW36064   6.497   0.045   0.257
 7863SOL    HW136065   6.536   0.131   0.291
 7863SOL    HW236066   6.510   0.040   0.158
 7864SOL     OW36067   6.390   5.982   6.009
 7864SOL    HW136068   6.434   6.071   6.005
 7864SOL    HW236069   6.453   5.912   5.975
 7865SOL     OW36070   6.766   3.239   6.588
 7865SOL    HW136071   6.720   3.255   6.675
 7865SOL    HW236072   6.865   3.240   6.602
 7866SOL     OW36073   2.170   2.149   2.519
 7866SOL    HW136074   2.153   2.174   2.424
 7866SOL    HW236075   2.147   2.052   2.532
 7867SOL     OW36076   3.608   2.891   4.693
 7867SOL    HW136077   3.574   2.982   4.672
 7867SOL    HW236078   3.600   2.874   4.791
 7868SOL     OW36079   0.130   4.664   3.523
 7868SOL    HW136080   0.189   4.744   3.531
 7868SOL    HW236081   0.141   4.607   3.605
 7869SOL     OW36082   0.402   4.190   0.795
 7869SOL    HW136083   0.435   4.169   0.703
 7869SOL    HW236084   0.393   4.289   0.806
 7870SOL     OW36085   4.377   0.619   0.902
 7870SOL    HW136086   4.362   0.533   0.951
 7870SOL    HW236087   4.465   0.616   0.855
 7871SOL     OW36088   1.702   1.791   1.221
 7871SOL    HW136089   1.716   1.760   1.127
 7871SOL    HW236090   1.720   1.716   1.285
 7872SOL     OW36091   5.044   0.006   2.359
 7872SOL    HW136092   5.000  -0.080   2.333
 7872SOL    HW236093   5.048   0.067   2.280
 7873SOL     OW36094   5.123   4.611   0.883
 7873SOL    HW136095   5.185   4.564   0.820
 7873SOL    HW236096   5.141   4.582   0.976
 7874SOL     OW36097   1.924   1.949   2.082
 7874SOL    HW136098   1.946   1.987   2.172
 7874SOL    HW236099   1.881   1.860   2.094
 7875SOL     OW36100   3.210   0.530   2.660
 7875SOL    HW136101   3.138   0.597   2.641
 7875SOL    HW236102   3.237   0.536   2.756
 7876SOL     OW36103   2.789   7.042   4.905
 7876SOL    HW136104   2.859   7.082   4.963
 7876SOL    HW236105   2.715   7.007   4.962
 7877SOL     OW36106   0.061   5.637   7.080
 7877SOL    HW136107   0.149   5.636   7.032
 7877SOL    HW236108   0.063   5.707   7.151
 7878SOL     OW36109   6.579   4.557   6.678
 7878SOL    HW136110   6.563   4.529   6.773
 7878SOL    HW236111   6.615   4.650   6.676
 7879SOL     OW36112   6.935   2.737   6.064
 7879SOL    HW136113   6.945   2.650   6.113
 7879SOL    HW236114   7.003   2.742   5.991
 7880SOL     OW36115   1.539   0.813   2.966
 7880SOL    HW136116   1.619   0.768   3.005
 7880SOL    HW236117   1.528   0.785   2.871
 7881SOL     OW36118   5.216   4.041   0.607
 7881SOL    HW136119   5.305   4.037   0.561
 7881SOL    HW236120   5.148   4.079   0.545
 7882SOL     OW36121   3.146   7.264   5.676
 7882SOL    HW136122   3.122   7.257   5.580
 7882SOL    HW236123   3.183   7.355   5.695
 7883SOL     OW36124   2.555   4.090   5.154
 7883SOL    HW136125   2.643   4.077   5.201
 7883SOL    HW236126   2.510   4.172   5.189
 7884SOL     OW36127   1.378   1.325   7.240
 7884SOL    HW136128   1.337   1.367   7.321
 7884SOL    HW236129   1.433   1.393   7.192
 7885SOL     OW36130   0.108   0.600   5.783
 7885SOL    HW136131   0.015   0.639   5.786
 7885SOL    HW236132   0.170   0.667   5.741
 7886SOL     OW36133   2.152   4.579   1.904
 7886SOL    HW136134   2.215   4.545   1.834
 7886SOL    HW236135   2.170   4.532   1.991
 7887SOL     OW36136   3.263   1.254   7.032
 7887SOL    HW136137   3.323   1.191   7.082
 7887SOL    HW236138   3.318   1.320   6.982
 7888SOL     OW36139   2.513   6.647   0.173
 7888SOL    HW136140   2.521   6.746   0.170
 7888SOL    HW236141   2.435   6.621   0.231
 7889SOL     OW36142   2.635   5.592   4.099
 7889SOL    HW136143   2.542   5.564   4.123
 7889SOL    HW236144   2.644   5.591   3.999
 7890SOL     OW36145   2.869   7.062   1.263
 7890SOL    HW136146   2.861   6.962   1.261
 7890SOL    HW236147   2.860   7.095   1.357
 7891SOL     OW36148   3.095   5.630   2.050
 7891SOL    HW136149   3.193   5.624   2.072
 7891SOL    HW236150   3.048   5.678   2.123
 7892SOL     OW36151   4.929   6.894   3.803
 7892SOL    HW136152   4.962   6.988   3.809
 7892SOL    HW236153   4.838   6.887   3.844
 7893SOL     OW36154   6.338   1.911   2.653
 7893SOL    HW136155   6.263   1.873   2.706
 7893SOL    HW236156   6.312   2.001   2.618
 7894SOL     OW36157   3.530   0.242   3.997
 7894SOL    HW136158   3.498   0.203   4.084
 7894SOL    HW236159   3.577   0.171   3.944
 7895SOL     OW36160   4.106   1.904   4.510
 7895SOL    HW136161   4.106   1.870   4.604
 7895SOL    HW236162   4.199   1.931   4.484
 7896SOL     OW36163   0.287   5.482   5.880
 7896SOL    HW136164   0.300   5.521   5.789
 7896SOL    HW236165   0.288   5.555   5.948
 7897SOL     OW36166   5.606   2.262   0.144
 7897SOL    HW136167   5.633   2.173   0.181
 7897SOL    HW236168   5.506   2.272   0.152
 7898SOL     OW36169   2.437   4.466   0.472
 7898SOL    HW136170   2.347   4.453   0.430
 7898SOL    HW236171   2.500   4.397   0.438
 7899SOL     OW36172   5.018   6.188   3.650
 7899SOL    HW136173   5.018   6.271   3.706
 7899SOL    HW236174   4.983   6.209   3.559
 7900SOL     OW36175   2.680   2.085   4.113
 7900SOL    HW136176   2.608   2.031   4.157
 7900SOL    HW236177   2.747   2.114   4.181
 7901SOL     OW36178   5.002   3.801   6.025
 7901SOL    HW136179   4.996   3.837   6.119
 7901SOL    HW236180   4.917   3.755   6.002
 7902SOL     OW36181   3.033   0.927   6.614
 7902SOL    HW136182   3.112   0.868   6.604
 7902SOL    HW236183   3.063   1.019   6.640
 7903SOL     OW36184   6.142   3.494   1.155
 7903SOL    HW136185   6.162   3.405   1.197
 7903SOL    HW236186   6.228   3.538   1.130
 7904SOL     OW36187   5.291   4.610   5.613
 7904SOL    HW136188   5.297   4.522   5.659
 7904SOL    HW236189   5.248   4.598   5.523
 7905SOL     OW36190   1.146   3.031   0.818
 7905SOL    HW136191   1.086   2.960   0.781
 7905SOL    HW236192   1.163   3.014   0.915
 7906SOL     OW36193   7.235   3.764   4.461
 7906SOL    HW136194   7.193   3.674   4.447
 7906SOL    HW236195   7.268   3.771   4.555
 7907SOL     OW36196   1.807   3.209   0.918
 7907SOL    HW136197   1.799   3.215   0.818
 7907SOL    HW236198   1.894   3.165   0.941
 7908SOL     OW36199   2.736   0.372   0.193
 7908SOL    HW136200   2.691   0.287   0.220
 7908SOL    HW236201   2.834   0.364   0.209
 7909SOL     OW36202   4.891   5.767   5.388
 7909SOL    HW136203   4.792   5.755   5.376
 7909SOL    HW236204   4.926   5.697   5.449
 7910SOL     OW36205   0.297   6.263   1.852
 7910SOL    HW136206   0.356   6.237   1.776
 7910SOL    HW236207   0.212   6.209   1.849
 7911SOL     OW36208   1.148   4.148   2.049
 7911SOL    HW136209   1.096   4.069   2.017
 7911SOL    HW236210   1.171   4.206   1.971
 7912SOL     OW36211   0.165   4.857   3.837
 7912SOL    HW136212   0.158   4.758   3.825
 7912SOL    HW236213   0.254   4.889   3.805
 7913SOL     OW36214   4.804   3.582   5.070
 7913SOL    HW136215   4.850   3.611   5.155
 7913SOL    HW236216   4.731   3.647   5.048
 7914SOL     OW36217   5.057   6.093   6.128
 7914SOL    HW136218   4.958   6.097   6.132
 7914SOL    HW236219   5.088   6.004   6.163
 7915SOL     OW36220   2.242   6.015   2.454
 7915SOL    HW136221   2.281   5.946   2.516
 7915SOL    HW236222   2.143   6.016   2.464
 7916SOL     OW36223   7.173   3.525   5.045
 7916SOL    HW136224   7.122   3.610   5.058
 7916SOL    HW236225   7.258   3.528   5.098
 7917SOL     OW36226   5.739   5.178   3.971
 7917SOL    HW136227   5.770   5.130   4.054
 7917SOL    HW236228   5.647   5.149   3.948
 7918SOL     OW36229   2.388   4.160   0.288
 7918SOL    HW136230   2.478   4.187   0.321
 7918SOL    HW236231   2.317   4.216   0.331
 7919SOL     OW36232   5.461   3.111   3.278
 7919SOL    HW136233   5.374   3.161   3.279
 7919SOL    HW236234   5.464   3.052   3.197
 7920SOL     OW36235   6.946   4.818   1.241
 7920SOL    HW136236   7.013   4.747   1.264
 7920SOL    HW236237   6.946   4.834   1.142
 7921SOL     OW36238   1.020   3.913   6.767
 7921SOL    HW136239   1.027   3.959   6.678
 7921SOL    HW236240   1.109   3.915   6.812
 7922SOL     OW36241   1.176   2.531   0.978
 7922SOL    HW136242   1.107   2.555   1.047
 7922SOL    HW236243   1.263   2.572   1.002
 7923SOL     OW36244   2.188   4.923   1.961
 7923SOL    HW136245   2.195   4.986   2.037
 7923SOL    HW236246   2.176   4.830   1.996
 7924SOL     OW36247   5.141   4.910   2.633
 7924SOL    HW136248   5.154   4.817   2.668
 7924SOL    HW236249   5.177   4.915   2.540
 7925SOL     OW36250   2.833   6.606   5.297
 7925SOL    HW136251   2.798   6.513   5.309
 7925SOL    HW236252   2.931   6.604   5.278
 7926SOL     OW36253   3.561   6.295   5.095
 7926SOL    HW136254   3.553   6.286   5.194
 7926SOL    HW236255   3.587   6.207   5.055
 7927SOL     OW36256   4.592   6.994   4.966
 7927SOL    HW136257   4.546   7.017   5.052
 7927SOL    HW236258   4.525   6.955   4.903
 7928SOL     OW36259   5.186   1.155   1.014
 7928SOL    HW136260   5.157   1.107   0.932
 7928SOL    HW236261   5.284   1.173   1.009
 7929SOL     OW36262   2.991   6.926   2.101
 7929SOL    HW136263   2.915   6.985   2.129
 7929SOL    HW236264   3.077   6.978   2.108
 7930SOL     OW36265   3.890   6.914   0.816
 7930SOL    HW136266   3.984   6.929   0.845
 7930SOL    HW236267   3.882   6.825   0.771
 7931SOL     OW36268   5.641   2.868   7.281
 7931SOL    HW136269   5.581   2.814   7.339
 7931SOL    HW236270   5.728   2.882   7.329
 7932SOL     OW36271   6.876   0.364   0.298
 7932SOL    HW136272   6.923   0.328   0.378
 7932SOL    HW236273   6.913   0.454   0.275
 7933SOL     OW36274   4.324   4.650   4.810
 7933SOL    HW136275   4.352   4.605   4.895
 7933SOL    HW236276   4.243   4.604   4.773
 7934SOL     OW36277   3.499   5.144   0.879
 7934SOL    HW136278   3.494   5.044   0.868
 7934SOL    HW236279   3.579   5.179   0.830
 7935SOL     OW36280   7.355   2.695   5.092
 7935SOL    HW136281   7.382   2.771   5.152
 7935SOL    HW236282   7.338   2.730   5.000
 7936SOL     OW36283   5.430   4.648   3.354
 7936SOL    HW136284   5.393   4.735   3.322
 7936SOL    HW236285   5.424   4.643   3.453
 7937SOL     OW36286   2.322   2.725   3.210
 7937SOL    HW136287   2.245   2.769   3.256
 7937SOL    HW236288   2.401   2.787   3.211
 7938SOL     OW36289   2.746   0.695   3.449
 7938SOL    HW136290   2.673   0.694   3.380
 7938SOL    HW236291   2.808   0.772   3.431
 7939SOL     OW36292   4.184   2.799   4.670
 7939SOL    HW136293   4.263   2.861   4.670
 7939SOL    HW236294   4.205   2.717   4.617
 7940SOL     OW36295   1.613   0.852   1.655
 7940SOL    HW136296   1.686   0.804   1.607
 7940SOL    HW236297   1.587   0.800   1.737
 7941SOL     OW36298   4.715   1.626   3.115
 7941SOL    HW136299   4.775   1.549   3.091
 7941SOL    HW236300   4.716   1.693   3.041
 7942SOL     OW36301   1.635   3.620   1.090
 7942SOL    HW136302   1.582   3.617   1.175
 7942SOL    HW236303   1.627   3.710   1.049
 7943SOL     OW36304   4.938   4.421   1.059
 7943SOL    HW136305   4.911   4.506   1.013
 7943SOL    HW236306   5.004   4.443   1.131
 7944SOL     OW36307   4.498   4.144   1.767
 7944SOL    HW136308   4.545   4.228   1.794
 7944SOL    HW236309   4.505   4.077   1.840
 7945SOL     OW36310   3.750   4.679   4.296
 7945SOL    HW136311   3.768   4.615   4.222
 7945SOL    HW236312   3.835   4.700   4.344
 7946SOL     OW36313   6.937   4.612   0.700
 7946SOL    HW136314   6.951   4.592   0.797
 7946SOL    HW236315   6.868   4.551   0.662
 7947SOL     OW36316   6.790   2.930   3.612
 7947SOL    HW136317   6.873   2.876   3.599
 7947SOL    HW236318   6.751   2.912   3.702
 7948SOL     OW36319   2.946   0.492   3.634
 7948SOL    HW136320   3.011   0.539   3.695
 7948SOL    HW236321   2.879   0.558   3.600
 7949SOL     OW36322   1.730   4.252   6.583
 7949SOL    HW136323   1.696   4.204   6.502
 7949SOL    HW236324   1.677   4.225   6.663
 7950SOL     OW36325   2.037   3.305   3.242
 7950SOL    HW136326   1.996   3.261   3.161
 7950SOL    HW236327   2.083   3.235   3.297
 7951SOL     OW36328   0.727   4.118   3.405
 7951SOL    HW136329   0.696   4.095   3.497
 7951SOL    HW236330   0.655   4.098   3.338
 7952SOL     OW36331   4.099   3.038   1.665
 7952SOL    HW136332   4.002   3.024   1.643
 7952SOL    HW236333   4.151   2.958   1.635
 7953SOL     OW36334   6.565   4.739   5.295
 7953SOL    HW136335   6.518   4.658   5.262
 7953SOL    HW236336   6.581   4.802   5.219
 7954SOL     OW36337   5.984   2.890   0.153
 7954SOL    HW136338   5.953   2.796   0.137
 7954SOL    HW236339   6.038   2.921   0.075
 7955SOL     OW36340   5.320   2.556   5.787
 7955SOL    HW136341   5.223   2.537   5.773
 7955SOL    HW236342   5.357   2.494   5.856
 7956SOL     OW36343   2.576   3.594   4.144
 7956SOL    HW136344   2.572   3.498   4.173
 7956SOL    HW236345   2.545   3.602   4.050
 7957SOL     OW36346   0.250   7.262   7.098
 7957SOL    HW136347   0.349   7.271   7.105
 7957SOL    HW236348   0.224   7.166   7.113
 7958SOL     OW36349   4.000   5.872   0.012
 7958SOL    HW136350   4.032   5.844  -0.079
 7958SOL    HW236351   3.931   5.944   0.002
 7959SOL     OW36352   6.583   1.580   0.407
 7959SOL    HW136353   6.506   1.641   0.388
 7959SOL    HW236354   6.666   1.619   0.368
 7960SOL     OW36355   2.651   6.889   5.147
 7960SOL    HW136356   2.682   6.818   5.211
 7960SOL    HW236357   2.554   6.876   5.128
 7961SOL     OW36358   5.357   5.170   6.071
 7961SOL    HW136359   5.431   5.212   6.124
 7961SOL    HW236360   5.365   5.070   6.077
 7962SOL     OW36361   4.688   5.438   4.301
 7962SOL    HW136362   4.660   5.533   4.312
 7962SOL    HW236363   4.787   5.431   4.308
 7963SOL     OW36364   4.687   1.478   4.640
 7963SOL    HW136365   4.679   1.514   4.547
 7963SOL    HW236366   4.672   1.552   4.705
 7964SOL     OW36367   0.798   4.489   6.690
 7964SOL    HW136368   0.761   4.480   6.597
 7964SOL    HW236369   0.723   4.488   6.756
 7965SOL     OW36370   3.146   2.774   5.151
 7965SOL    HW136371   3.054   2.736   5.139
 7965SOL    HW236372   3.179   2.808   5.064
 7966SOL     OW36373   5.847   3.533   0.223
 7966SOL    HW136374   5.850   3.502   0.318
 7966SOL    HW236375   5.755   3.523   0.187
 7967SOL     OW36376   4.599   5.938   4.731
 7967SOL    HW136377   4.696   5.959   4.743
 7967SOL    HW236378   4.582   5.842   4.754
 7968SOL     OW36379   4.616   5.008   2.883
 7968SOL    HW136380   4.669   5.038   2.804
 7968SOL    HW236381   4.525   5.050   2.880
 7969SOL     OW36382   0.500   3.962   5.134
 7969SOL    HW136383   0.582   3.904   5.136
 7969SOL    HW236384   0.527   4.056   5.116
 7970SOL     OW36385   1.191   3.395   3.351
 7970SOL    HW136386   1.200   3.461   3.425
 7970SOL    HW236387   1.273   3.338   3.346
 7971SOL     OW36388   4.603   0.378   6.021
 7971SOL    HW136389   4.659   0.335   6.092
 7971SOL    HW236390   4.659   0.395   5.940
 7972SOL     OW36391   3.905   5.082   6.842
 7972SOL    HW136392   3.836   5.071   6.771
 7972SOL    HW236393   3.860   5.098   6.930
 7973SOL     OW36394   4.518   0.267   0.855
 7973SOL    HW136395   4.455   0.196   0.885
 7973SOL    HW236396   4.479   0.314   0.776
 7974SOL     OW36397   1.219   4.102   5.354
 7974SOL    HW136398   1.163   4.019   5.361
 7974SOL    HW236399   1.166   4.181   5.385
 7975SOL     OW36400   1.074   5.411   0.434
 7975SOL    HW136401   1.132   5.363   0.369
 7975SOL    HW236402   0.999   5.352   0.462
 7976SOL     OW36403   1.959   2.509   4.511
 7976SOL    HW136404   1.881   2.485   4.568
 7976SOL    HW236405   2.031   2.441   4.523
 7977SOL     OW36406   6.683   5.237   3.007
 7977SOL    HW136407   6.718   5.157   2.958
 7977SOL    HW236408   6.750   5.312   3.000
 7978SOL     OW36409   5.131   1.351   3.000
 7978SOL    HW136410   5.175   1.264   3.020
 7978SOL    HW236411   5.172   1.391   2.918
 7979SOL     OW36412   4.770   3.055   4.729
 7979SOL    HW136413   4.756   2.978   4.666
 7979SOL    HW236414   4.854   3.103   4.704
 7980SOL     OW36415   7.112   3.088   3.405
 7980SOL    HW136416   7.055   3.042   3.337
 7980SOL    HW236417   7.103   3.041   3.493
 7981SOL     OW36418   5.226   4.378   5.314
 7981SOL    HW136419   5.314   4.345   5.350
 7981SOL    HW236420   5.240   4.422   5.226
 7982SOL     OW36421   6.129   2.776   2.959
 7982SOL    HW136422   6.131   2.862   3.011
 7982SOL    HW236423   6.092   2.703   3.016
 7983SOL     OW36424   2.244   7.038   0.506
 7983SOL    HW136425   2.318   7.104   0.513
 7983SOL    HW236426   2.156   7.082   0.528
 7984SOL     OW36427   1.761   1.983   0.853
 7984SOL    HW136428   1.687   2.038   0.891
 7984SOL    HW236429   1.833   1.971   0.921
 7985SOL     OW36430   6.302   1.973   7.123
 7985SOL    HW136431   6.263   1.915   7.195
 7985SOL    HW236432   6.397   1.946   7.107
 7986SOL     OW36433   4.766   5.503   3.158
 7986SOL    HW136434   4.727   5.554   3.082
 7986SOL    HW236435   4.723   5.412   3.163
 7987SOL     OW36436   6.580   5.187   3.273
 7987SOL    HW136437   6.485   5.157   3.272
 7987SOL    HW236438   6.617   5.183   3.180
 7988SOL     OW36439   6.538   6.892   1.399
 7988SOL    HW136440   6.465   6.846   1.450
 7988SOL    HW236441   6.617   6.906   1.459
 7989SOL     OW36442   6.043   0.449   1.125
 7989SOL    HW136443   5.953   0.481   1.152
 7989SOL    HW236444   6.041   0.349   1.112
 7990SOL     OW36445   4.705   0.854   7.126
 7990SOL    HW136446   4.725   0.905   7.043
 7990SOL    HW236447   4.789   0.837   7.177
 7991SOL     OW36448   3.950   5.515   6.041
 7991SOL    HW136449   4.030   5.457   6.054
 7991SOL    HW236450   3.870   5.458   6.026
 7992SOL     OW36451   6.112   2.283   6.940
 7992SOL    HW136452   6.212   2.277   6.949
 7992SOL    HW236453   6.086   2.260   6.847
 7993SOL     OW36454   3.558   1.195   7.129
 7993SOL    HW136455   3.652   1.227   7.139
 7993SOL    HW236456   3.499   1.243   7.194
 7994SOL     OW36457   3.698   5.257   3.987
 7994SOL    HW136458   3.770   5.313   4.028
 7994SOL    HW236459   3.627   5.239   4.054
 7995SOL     OW36460   3.521   5.810   5.573
 7995SOL    HW136461   3.570   5.871   5.511
 7995SOL    HW236462   3.432   5.849   5.594
 7996SOL     OW36463   1.753   4.284   4.340
 7996SOL    HW136464   1.672   4.294   4.398
 7996SOL    HW236465   1.747   4.349   4.264
 7997SOL     OW36466   2.515   7.025   7.225
 7997SOL    HW136467   2.433   7.082   7.234
 7997SOL    HW236468   2.588   7.080   7.185
 7998SOL     OW36469   0.029   6.474   0.069
 7998SOL    HW136470   0.059   6.466   0.164
 7998SOL    HW236471   0.012   6.570   0.047
 7999SOL     OW36472   0.930   1.356   3.493
 7999SOL    HW136473   0.976   1.417   3.557
 7999SOL    HW236474   0.970   1.265   3.498
 8000SOL     OW36475   0.012   3.532   5.216
 8000SOL    HW136476   0.020   3.630   5.234
 8000SOL    HW236477   0.104   3.494   5.202
 8001SOL     OW36478   0.104   2.397   1.877
 8001SOL    HW136479   0.110   2.354   1.788
 8001SOL    HW236480   0.099   2.327   1.948
 8002SOL     OW36481   2.255   3.598   5.197
 8002SOL    HW136482   2.292   3.691   5.196
 8002SOL    HW236483   2.268   3.559   5.288
 8003SOL     OW36484   1.264   3.388   4.082
 8003SOL    HW136485   1.351   3.346   4.057
 8003SOL    HW236486   1.234   3.351   4.170
 8004SOL     OW36487   2.065   0.605   7.238
 8004SOL    HW136488   2.093   0.699   7.220
 8004SOL    HW236489   2.092   0.579   7.331
 8005SOL     OW36490   2.593   2.420   4.344
 8005SOL    HW136491   2.587   2.482   4.265
 8005SOL    HW236492   2.523   2.445   4.411
 8006SOL     OW36493   5.157   6.879   7.147
 8006SOL    HW136494   5.144   6.942   7.223
 8006SOL    HW236495   5.076   6.880   7.089
 8007SOL     OW36496   4.829   6.290   5.963
 8007SOL    HW136497   4.877   6.333   6.039
 8007SOL    HW236498   4.864   6.325   5.877
 8008SOL     OW36499   6.055   0.448   0.335
 8008SOL    HW136500   5.963   0.410   0.325
 8008SOL    HW236501   6.099   0.452   0.245
 8009SOL     OW36502   5.532   7.270   2.196
 8009SOL    HW136503   5.502   7.187   2.150
 8009SOL    HW236504   5.481   7.349   2.160
 8010SOL     OW36505   2.782   1.163   0.146
 8010SOL    HW136506   2.834   1.090   0.190
 8010SOL    HW236507   2.845   1.226   0.100
 8011SOL     OW36508   5.660   7.126   6.968
 8011SOL    HW136509   5.620   7.063   7.034
 8011SOL    HW236510   5.760   7.125   6.977
 8012SOL     OW36511   6.398   3.051   1.206
 8012SOL    HW136512   6.436   3.122   1.265
 8012SOL    HW236513   6.411   3.077   1.110
 8013SOL     OW36514   6.256   1.128   0.881
 8013SOL    HW136515   6.343   1.143   0.929
 8013SOL    HW236516   6.198   1.069   0.936
 8014SOL     OW36517   4.119   3.679   6.721
 8014SOL    HW136518   4.199   3.706   6.774
 8014SOL    HW236519   4.051   3.751   6.723
 8015SOL     OW36520   0.934   2.201   0.520
 8015SOL    HW136521   1.009   2.210   0.585
 8015SOL    HW236522   0.879   2.121   0.542
 8016SOL     OW36523   6.977   7.163   0.827
 8016SOL    HW136524   6.882   7.174   0.858
 8016SOL    HW236525   7.038   7.161   0.906
 8017SOL     OW36526   5.712   4.451   0.251
 8017SOL    HW136527   5.685   4.399   0.332
 8017SOL    HW236528   5.669   4.541   0.253
 8018SOL     OW36529   5.350   6.271   2.278
 8018SOL    HW136530   5.371   6.188   2.329
 8018SOL    HW236531   5.434   6.318   2.253
 8019SOL     OW36532   4.639   0.778   6.463
 8019SOL    HW136533   4.581   0.708   6.422
 8019SOL    HW236534   4.627   0.865   6.414
 8020SOL     OW36535   0.289   4.810   0.930
 8020SOL    HW136536   0.340   4.852   1.005
 8020SOL    HW236537   0.299   4.866   0.848
 8021SOL     OW36538   2.466   7.139   3.061
 8021SOL    HW136539   2.469   7.143   3.161
 8021SOL    HW236540   2.517   7.059   3.030
 8022SOL     OW36541   5.714   7.289   2.399
 8022SOL    HW136542   5.679   7.333   2.482
 8022SOL    HW236543   5.639   7.274   2.334
 8023SOL     OW36544   5.743   1.593   0.894
 8023SOL    HW136545   5.651   1.554   0.883
 8023SOL    HW236546   5.800   1.565   0.817
 8024SOL     OW36547   0.939   3.252   2.641
 8024SOL    HW136548   0.854   3.289   2.679
 8024SOL    HW236549   0.948   3.156   2.669
 8025SOL     OW36550   1.896   1.877   1.699
 8025SOL    HW136551   1.884   1.888   1.600
 8025SOL    HW236552   1.900   1.968   1.742
 8026SOL     OW36553   5.591   2.639   5.574
 8026SOL    HW136554   5.512   2.696   5.595
 8026SOL    HW236555   5.674   2.693   5.585
 8027SOL     OW36556   6.994   4.100   2.477
 8027SOL    HW136557   7.009   4.186   2.527
 8027SOL    HW236558   6.896   4.079   2.477
 8028SOL     OW36559   3.611   2.759   4.961
 8028SOL    HW136560   3.543   2.698   5.000
 8028SOL    HW236561   3.703   2.724   4.980
 8029SOL     OW36562   7.261   1.506   0.644
 8029SOL    HW136563   7.177   1.534   0.598
 8029SOL    HW236564   7.243   1.426   0.701
 8030SOL     OW36565   3.489   6.425   2.036
 8030SOL    HW136566   3.413   6.476   2.075
 8030SOL    HW236567   3.507   6.458   1.944
 8031SOL     OW36568   2.723   5.518   2.631
 8031SOL    HW136569   2.659   5.524   2.707
 8031SOL    HW236570   2.692   5.447   2.567
 8032SOL     OW36571   0.951   5.086   2.912
 8032SOL    HW136572   0.915   5.009   2.965
 8032SOL    HW236573   0.915   5.083   2.819
 8033SOL     OW36574   4.875   4.017   2.938
 8033SOL    HW136575   4.820   4.021   2.854
 8033SOL    HW236576   4.953   4.079   2.929
 8034SOL     OW36577   5.051   5.504   3.881
 8034SOL    HW136578   5.134   5.550   3.851
 8034SOL    HW236579   5.026   5.537   3.972
 8035SOL     OW36580   4.731   2.753   0.701
 8035SOL    HW136581   4.670   2.684   0.661
 8035SOL    HW236582   4.732   2.744   0.800
 8036SOL     OW36583   3.978   2.832   5.510
 8036SOL    HW136584   4.078   2.834   5.501
 8036SOL    HW236585   3.945   2.738   5.495
 8037SOL     OW36586   3.612   2.162   1.881
 8037SOL    HW136587   3.616   2.185   1.784
 8037SOL    HW236588   3.538   2.097   1.896
 8038SOL     OW36589   2.906   5.806   5.116
 8038SOL    HW136590   2.931   5.902   5.120
 8038SOL    HW236591   2.980   5.751   5.155
 8039SOL     OW36592   6.457   1.677   2.541
 8039SOL    HW136593   6.427   1.766   2.576
 8039SOL    HW236594   6.551   1.660   2.571
 8040SOL     OW36595   1.465   3.784   5.893
 8040SOL    HW136596   1.442   3.776   5.796
 8040SOL    HW236597   1.405   3.725   5.947
 8041SOL     OW36598   7.199   0.845   2.060
 8041SOL    HW136599   7.232   0.752   2.080
 8041SOL    HW236600   7.268   0.894   2.007
 8042SOL     OW36601   5.962   1.268   2.726
 8042SOL    HW136602   5.977   1.172   2.703
 8042SOL    HW236603   6.050   1.310   2.750
 8043SOL     OW36604   5.450   4.678   0.344
 8043SOL    HW136605   5.421   4.626   0.425
 8043SOL    HW236606   5.425   4.627   0.262
 8044SOL     OW36607   2.819   1.204   1.547
 8044SOL    HW136608   2.902   1.185   1.600
 8044SOL    HW236609   2.832   1.286   1.492
 8045SOL     OW36610   2.528   3.358   3.476
 8045SOL    HW136611   2.600   3.293   3.500
 8045SOL    HW236612   2.508   3.352   3.378
 8046SOL     OW36613   0.217   4.680   2.346
 8046SOL    HW136614   0.180   4.589   2.363
 8046SOL    HW236615   0.150   4.735   2.296
 8047SOL     OW36616   3.153   2.023   1.224
 8047SOL    HW136617   3.089   2.001   1.299
 8047SOL    HW236618   3.245   2.033   1.261
 8048SOL     OW36619   0.092   2.730   4.435
 8048SOL    HW136620   0.002   2.698   4.407
 8048SOL    HW236621   0.149   2.651   4.458
 8049SOL     OW36622   1.022   3.500   0.609
 8049SOL    HW136623   1.095   3.567   0.609
 8049SOL    HW236624   1.044   3.427   0.674
 8050SOL     OW36625   6.393   3.853   0.266
 8050SOL    HW136626   6.482   3.856   0.312
 8050SOL    HW236627   6.398   3.793   0.187
 8051SOL     OW36628   7.126   6.156   0.635
 8051SOL    HW136629   7.089   6.205   0.714
 8051SOL    HW236630   7.080   6.068   0.625
 8052SOL     OW36631   0.045   4.938   6.979
 8052SOL    HW136632   0.081   4.852   6.945
 8052SOL    HW236633   0.119   4.990   7.023
 8053SOL     OW36634   0.296   6.522   6.313
 8053SOL    HW136635   0.290   6.583   6.392
 8053SOL    HW236636   0.227   6.547   6.246
 8054SOL     OW36637   7.088   1.596   4.499
 8054SOL    HW136638   7.154   1.647   4.555
 8054SOL    HW236639   7.097   1.622   4.403
 8055SOL     OW36640   6.354   1.031   6.739
 8055SOL    HW136641   6.264   1.065   6.766
 8055SOL    HW236642   6.349   0.994   6.646
 8056SOL     OW36643   0.129   2.683   3.928
 8056SOL    HW136644   0.036   2.697   3.896
 8056SOL    HW236645   0.152   2.586   3.923
 8057SOL     OW36646   3.498   4.430   7.066
 8057SOL    HW136647   3.464   4.342   7.034
 8057SOL    HW236648   3.509   4.492   6.988
 8058SOL     OW36649   5.317   3.353   7.331
 8058SOL    HW136650   5.357   3.289   7.397
 8058SOL    HW236651   5.368   3.439   7.333
 8059SOL     OW36652   5.409   1.275   3.668
 8059SOL    HW136653   5.400   1.182   3.634
 8059SOL    HW236654   5.448   1.333   3.596
 8060SOL     OW36655   2.190   1.802   6.358
 8060SOL    HW136656   2.134   1.720   6.365
 8060SOL    HW236657   2.251   1.807   6.436
 8061SOL     OW36658   5.684   5.993   4.318
 8061SOL    HW136659   5.735   5.925   4.265
 8061SOL    HW236660   5.733   6.080   4.314
 8062SOL     OW36661   6.008   5.690   6.016
 8062SOL    HW136662   6.038   5.785   6.015
 8062SOL    HW236663   6.075   5.633   6.065
 8063SOL     OW36664   4.908   3.161   1.650
 8063SOL    HW136665   4.873   3.228   1.584
 8063SOL    HW236666   4.964   3.093   1.603
 8064SOL     OW36667   5.751   5.523   6.066
 8064SOL    HW136668   5.844   5.559   6.079
 8064SOL    HW236669   5.688   5.573   6.126
 8065SOL     OW36670   3.715   0.372   5.155
 8065SOL    HW136671   3.675   0.460   5.182
 8065SOL    HW236672   3.747   0.324   5.237
 8066SOL     OW36673   1.803   3.951   1.105
 8066SOL    HW136674   1.800   3.915   1.198
 8066SOL    HW236675   1.898   3.972   1.081
 8067SOL     OW36676   4.268   0.995   6.416
 8067SOL    HW136677   4.257   0.970   6.512
 8067SOL    HW236678   4.196   0.953   6.362
 8068SOL     OW36679   1.434   1.458   3.828
 8068SOL    HW136680   1.417   1.519   3.905
 8068SOL    HW236681   1.486   1.506   3.758
 8069SOL     OW36682   7.351   7.310   7.000
 8069SOL    HW136683   7.281   7.269   7.059
 8069SOL    HW236684   7.438   7.313   7.049
 8070SOL     OW36685   1.271   4.460   0.232
 8070SOL    HW136686   1.232   4.545   0.197
 8070SOL    HW236687   1.255   4.386   0.167
 8071SOL     OW36688   6.674   5.104   0.490
 8071SOL    HW136689   6.712   5.142   0.405
 8071SOL    HW236690   6.733   5.030   0.522
 8072SOL     OW36691   6.236   1.510   2.529
 8072SOL    HW136692   6.320   1.565   2.529
 8072SOL    HW236693   6.250   1.427   2.475
 8073SOL     OW36694   5.751   2.652   7.103
 8073SOL    HW136695   5.660   2.624   7.135
 8073SOL    HW236696   5.802   2.572   7.072
 8074SOL     OW36697   4.070   2.412   3.612
 8074SOL    HW136698   4.024   2.330   3.577
 8074SOL    HW236699   4.093   2.472   3.536
 8075SOL     OW36700   5.485   4.799   5.645
 8075SOL    HW136701   5.447   4.877   5.596
 8075SOL    HW236702   5.439   4.715   5.615
 8076SOL     OW36703   3.482   2.365   4.929
 8076SOL    HW136704   3.479   2.305   5.009
 8076SOL    HW236705   3.453   2.314   4.848
 8077SOL     OW36706   1.111   6.222   1.247
 8077SOL    HW136707   1.115   6.293   1.317
 8077SOL    HW236708   1.095   6.265   1.157
 8078SOL     OW36709   6.889   1.883   2.395
 8078SOL    HW136710   6.804   1.928   2.422
 8078SOL    HW236711   6.882   1.850   2.301
 8079SOL     OW36712   3.335   5.130   0.430
 8079SOL    HW136713   3.280   5.077   0.493
 8079SOL    HW236714   3.369   5.212   0.476
 8080SOL     OW36715   0.013   2.743   6.922
 8080SOL    HW136716   0.018   2.659   6.867
 8080SOL    HW236717  -0.010   2.820   6.862
 8081SOL     OW36718   3.854   1.361   0.121
 8081SOL    HW136719   3.776   1.420   0.140
 8081SOL    HW236720   3.931   1.387   0.178
 8082SOL     OW36721   5.867   0.350   2.237
 8082SOL    HW136722   5.828   0.302   2.158
 8082SOL    HW236723   5.891   0.284   2.308
 8083SOL     OW36724   1.996   1.134   1.836
 8083SOL    HW136725   1.958   1.206   1.778
 8083SOL    HW236726   1.927   1.065   1.853
 8084SOL     OW36727   1.733   2.472   6.383
 8084SOL    HW136728   1.747   2.377   6.413
 8084SOL    HW236729   1.699   2.526   6.459
 8085SOL     OW36730   5.106   6.629   2.934
 8085SOL    HW136731   5.104   6.643   3.033
 8085SOL    HW236732   5.096   6.532   2.913
 8086SOL     OW36733   4.536   4.523   1.364
 8086SOL    HW136734   4.498   4.466   1.291
 8086SOL    HW236735   4.487   4.504   1.450
 8087SOL     OW36736   2.345   2.524   4.441
 8087SOL    HW136737   2.314   2.514   4.535
 8087SOL    HW236738   2.297   2.600   4.397
 8088SOL     OW36739   1.500   4.679   2.008
 8088SOL    HW136740   1.499   4.756   1.944
 8088SOL    HW236741   1.413   4.630   2.003
 8089SOL     OW36742   5.228   5.859   1.651
 8089SOL    HW136743   5.321   5.865   1.615
 8089SOL    HW236744   5.221   5.914   1.734
 8090SOL     OW36745   1.892   4.781   0.139
 8090SOL    HW136746   1.907   4.825   0.051
 8090SOL    HW236747   1.858   4.848   0.205
 8091SOL     OW36748   3.674   4.734   2.164
 8091SOL    HW136749   3.585   4.700   2.133
 8091SOL    HW236750   3.733   4.750   2.085
 8092SOL     OW36751   6.626   4.381   1.292
 8092SOL    HW136752   6.632   4.446   1.367
 8092SOL    HW236753   6.532   4.378   1.258
 8093SOL     OW36754   3.644   0.511   2.439
 8093SOL    HW136755   3.578   0.455   2.389
 8093SOL    HW236756   3.652   0.477   2.533
 8094SOL     OW36757   2.202   0.139   3.002
 8094SOL    HW136758   2.140   0.083   3.057
 8094SOL    HW236759   2.289   0.092   2.991
 8095SOL     OW36760   2.130   6.490   7.126
 8095SOL    HW136761   2.200   6.488   7.197
 8095SOL    HW236762   2.042   6.467   7.166
 8096SOL     OW36763   4.462   0.603   6.139
 8096SOL    HW136764   4.448   0.592   6.238
 8096SOL    HW236765   4.510   0.524   6.103
 8097SOL     OW36766   6.901   6.013   4.310
 8097SOL    HW136767   6.867   6.052   4.224
 8097SOL    HW236768   6.984   5.960   4.291
 8098SOL     OW36769   6.711   4.747   3.408
 8098SOL    HW136770   6.707   4.840   3.445
 8098SOL    HW236771   6.779   4.743   3.334
 8099SOL     OW36772   0.867   4.698   0.379
 8099SOL    HW136773   0.911   4.725   0.293
 8099SOL    HW236774   0.834   4.780   0.426
 8100SOL     OW36775   3.877   5.420   5.572
 8100SOL    HW136776   3.812   5.344   5.565
 8100SOL    HW236777   3.967   5.390   5.539
 8101SOL     OW36778   6.574   3.861   6.635
 8101SOL    HW136779   6.626   3.940   6.667
 8101SOL    HW236780   6.577   3.857   6.535
 8102SOL     OW36781   4.587   3.122   5.242
 8102SOL    HW136782   4.499   3.078   5.224
 8102SOL    HW236783   4.630   3.150   5.156
 8103SOL     OW36784   6.265   1.867   6.457
 8103SOL    HW136785   6.291   1.860   6.553
 8103SOL    HW236786   6.316   1.801   6.403
 8104SOL     OW36787   4.096   4.409   2.477
 8104SOL    HW136788   4.073   4.502   2.505
 8104SOL    HW236789   4.126   4.356   2.557
 8105SOL     OW36790   0.977   4.072   6.543
 8105SOL    HW136791   1.011   4.146   6.484
 8105SOL    HW236792   0.907   4.020   6.494
 8106SOL     OW36793   1.022   2.663   6.472
 8106SOL    HW136794   0.973   2.589   6.425
 8106SOL    HW236795   0.959   2.712   6.532
 8107SOL     OW36796   5.860   4.890   1.838
 8107SOL    HW136797   5.776   4.853   1.877
 8107SOL    HW236798   5.847   4.987   1.815
 8108SOL     OW36799   4.260   1.384   3.211
 8108SOL    HW136800   4.259   1.441   3.293
 8108SOL    HW236801   4.355   1.369   3.182
 8109SOL     OW36802   5.910   6.060   1.285
 8109SOL    HW136803   5.885   6.106   1.370
 8109SOL    HW236804   6.004   6.028   1.291
 8110SOL     OW36805   3.125   6.479   0.626
 8110SOL    HW136806   3.192   6.512   0.693
 8110SOL    HW236807   3.155   6.390   0.591
 8111SOL     OW36808   1.435   4.739   4.839
 8111SOL    HW136809   1.446   4.643   4.815
 8111SOL    HW236810   1.344   4.770   4.810
 8112SOL     OW36811   5.254   0.672   2.776
 8112SOL    HW136812   5.221   0.742   2.712
 8112SOL    HW236813   5.284   0.716   2.861
 8113SOL     OW36814   2.389   4.854   5.526
 8113SOL    HW136815   2.487   4.851   5.507
 8113SOL    HW236816   2.355   4.947   5.511
 8114SOL     OW36817   7.116   6.364   1.404
 8114SOL    HW136818   7.135   6.459   1.429
 8114SOL    HW236819   7.054   6.324   1.472
 8115SOL     OW36820   5.139   0.149   4.242
 8115SOL    HW136821   5.112   0.105   4.156
 8115SOL    HW236822   5.232   0.121   4.266
 8116SOL     OW36823   0.076   5.676   0.912
 8116SOL    HW136824   0.022   5.602   0.951
 8116SOL    HW236825   0.110   5.735   0.986
 8117SOL     OW36826   2.528   3.876   5.792
 8117SOL    HW136827   2.453   3.818   5.825
 8117SOL    HW236828   2.524   3.965   5.838
 8118SOL     OW36829   5.681   3.494   2.424
 8118SOL    HW136830   5.721   3.488   2.516
 8118SOL    HW236831   5.642   3.405   2.399
 8119SOL     OW36832   7.283   1.532   3.002
 8119SOL    HW136833   7.316   1.534   3.097
 8119SOL    HW236834   7.319   1.611   2.953
 8120SOL     OW36835   6.618   2.751   4.837
 8120SOL    HW136836   6.686   2.706   4.894
 8120SOL    HW236837   6.569   2.682   4.783
 8121SOL     OW36838   1.047   6.721   5.437
 8121SOL    HW136839   1.051   6.625   5.409
 8121SOL    HW236840   1.139   6.759   5.439
 8122SOL     OW36841   6.034   1.487   5.125
 8122SOL    HW136842   5.937   1.512   5.134
 8122SOL    HW236843   6.067   1.513   5.035
 8123SOL     OW36844   3.538   7.223   6.419
 8123SOL    HW136845   3.533   7.308   6.366
 8123SOL    HW236846   3.500   7.240   6.510
 8124SOL     OW36847   0.813   3.441   5.726
 8124SOL    HW136848   0.816   3.347   5.693
 8124SOL    HW236849   0.841   3.504   5.653
 8125SOL     OW36850   4.004   4.439   1.326
 8125SOL    HW136851   3.921   4.386   1.342
 8125SOL    HW236852   4.084   4.384   1.349
 8126SOL     OW36853   3.970   0.109   1.839
 8126SOL    HW136854   3.961   0.160   1.924
 8126SOL    HW236855   3.916   0.024   1.845
 8127SOL     OW36856   1.706   5.723   3.726
 8127SOL    HW136857   1.639   5.705   3.798
 8127SOL    HW236858   1.791   5.756   3.768
 8128SOL     OW36859   7.344   3.186   5.404
 8128SOL    HW136860   7.263   3.187   5.346
 8128SOL    HW236861   7.360   3.278   5.440
 8129SOL     OW36862   2.096   4.827   3.117
 8129SOL    HW136863   2.041   4.854   3.196
 8129SOL    HW236864   2.171   4.767   3.148
 8130SOL     OW36865   2.338   5.915   3.149
 8130SOL    HW136866   2.424   5.921   3.199
 8130SOL    HW236867   2.274   5.984   3.183
 8131SOL     OW36868   5.914   3.518   7.213
 8131SOL    HW136869   5.927   3.502   7.115
 8131SOL    HW236870   5.940   3.436   7.264
 8132SOL     OW36871   0.377   2.816   3.072
 8132SOL    HW136872   0.354   2.851   3.162
 8132SOL    HW236873   0.356   2.718   3.067
 8133SOL     OW36874   6.895   2.313   1.475
 8133SOL    HW136875   6.994   2.316   1.462
 8133SOL    HW236876   6.873   2.329   1.571
 8134SOL     OW36877   0.281   2.406   0.462
 8134SOL    HW136878   0.236   2.441   0.380
 8134SOL    HW236879   0.307   2.482   0.521
 8135SOL     OW36880   3.122   1.338   0.602
 8135SOL    HW136881   3.070   1.331   0.516
 8135SOL    HW236882   3.080   1.280   0.671
 8136SOL     OW36883   5.994   2.236   6.705
 8136SOL    HW136884   5.965   2.316   6.652
 8136SOL    HW236885   6.035   2.169   6.644
 8137SOL     OW36886   4.958   0.917   1.077
 8137SOL    HW136887   4.882   0.972   1.041
 8137SOL    HW236888   4.922   0.847   1.138
 8138SOL     OW36889   4.276   2.032   7.035
 8138SOL    HW136890   4.224   1.983   7.105
 8138SOL    HW236891   4.273   1.981   6.949
 8139SOL     OW36892   0.443   3.462   1.487
 8139SOL    HW136893   0.508   3.519   1.538
 8139SOL    HW236894   0.486   3.430   1.403
 8140SOL     OW36895   7.285   4.060   0.026
 8140SOL    HW136896   7.298   4.158   0.044
 8140SOL    HW236897   7.207   4.047  -0.035
 8141SOL     OW36898   4.679   3.558   3.414
 8141SOL    HW136899   4.611   3.522   3.478
 8141SOL    HW236900   4.677   3.658   3.416
 8142SOL     OW36901   2.935   6.232   5.179
 8142SOL    HW136902   2.919   6.289   5.098
 8142SOL    HW236903   2.917   6.285   5.262
 8143SOL     OW36904   5.227   7.199   1.497
 8143SOL    HW136905   5.286   7.161   1.426
 8143SOL    HW236906   5.131   7.194   1.467
 8144SOL     OW36907   6.269   2.714   3.747
 8144SOL    HW136908   6.226   2.655   3.679
 8144SOL    HW236909   6.368   2.700   3.745
 8145SOL     OW36910   5.912   3.634   1.175
 8145SOL    HW136911   5.994   3.581   1.155
 8145SOL    HW236912   5.885   3.685   1.093
 8146SOL     OW36913   0.915   0.817   2.144
 8146SOL    HW136914   0.949   0.864   2.063
 8146SOL    HW236915   0.888   0.883   2.213
 8147SOL     OW36916   3.020   2.508   1.043
 8147SOL    HW136917   2.946   2.472   0.986
 8147SOL    HW236918   3.091   2.549   0.985
 8148SOL     OW36919   5.878   3.880   0.322
 8148SOL    HW136920   5.792   3.835   0.348
 8148SOL    HW236921   5.859   3.950   0.253
 8149SOL     OW36922   0.011   3.164   5.088
 8149SOL    HW136923   0.106   3.163   5.122
 8149SOL    HW236924  -0.045   3.218   5.150
 8150SOL     OW36925   3.447   5.471   2.310
 8150SOL    HW136926   3.451   5.381   2.354
 8150SOL    HW236927   3.538   5.513   2.312
 8151SOL     OW36928   1.792   2.994   7.212
 8151SOL    HW136929   1.772   3.029   7.121
 8151SOL    HW236930   1.801   2.894   7.208
 8152SOL     OW36931   3.757   3.696   4.113
 8152SOL    HW136932   3.782   3.783   4.071
 8152SOL    HW236933   3.730   3.632   4.042
 8153SOL     OW36934   6.698   2.671   3.299
 8153SOL    HW136935   6.615   2.705   3.256
 8153SOL    HW236936   6.778   2.703   3.248
 8154SOL     OW36937   0.609   3.408   0.135
 8154SOL    HW136938   0.538   3.479   0.131
 8154SOL    HW236939   0.569   3.323   0.168
 8155SOL     OW36940   4.480   1.032   3.281
 8155SOL    HW136941   4.404   1.048   3.345
 8155SOL    HW236942   4.516   0.940   3.294
 8156SOL     OW36943   2.628   4.981   0.030
 8156SOL    HW136944   2.653   5.009  -0.063
 8156SOL    HW236945   2.680   5.035   0.096
 8157SOL     OW36946   4.808   6.192   2.504
 8157SOL    HW136947   4.815   6.158   2.410
 8157SOL    HW236948   4.858   6.132   2.565
 8158SOL     OW36949   5.555   3.792   5.121
 8158SOL    HW136950   5.578   3.755   5.210
 8158SOL    HW236951   5.638   3.804   5.066
 8159SOL     OW36952   6.040   0.218   6.180
 8159SOL    HW136953   6.106   0.156   6.138
 8159SOL    HW236954   6.088   0.279   6.243
 8160SOL     OW36955   6.782   4.998   4.349
 8160SOL    HW136956   6.800   4.922   4.412
 8160SOL    HW236957   6.824   5.082   4.386
 8161SOL     OW36958   7.177   1.451   1.536
 8161SOL    HW136959   7.221   1.401   1.610
 8161SOL    HW236960   7.183   1.549   1.554
 8162SOL     OW36961   5.489   1.285   6.799
 8162SOL    HW136962   5.586   1.260   6.800
 8162SOL    HW236963   5.478   1.376   6.758
 8163SOL     OW36964   6.436   3.897   7.083
 8163SOL    HW136965   6.340   3.917   7.062
 8163SOL    HW236966   6.457   3.929   7.175
 8164SOL     OW36967   0.673   2.058   6.916
 8164SOL    HW136968   0.725   2.077   6.999
 8164SOL    HW236969   0.659   1.960   6.907
 8165SOL     OW36970   1.360   4.093   0.284
 8165SOL    HW136971   1.288   4.027   0.306
 8165SOL    HW236972   1.448   4.057   0.314
 8166SOL     OW36973   5.875   2.072   0.664
 8166SOL    HW136974   5.866   1.978   0.699
 8166SOL    HW236975   5.808   2.131   0.709
 8167SOL     OW36976   3.534   5.626   6.212
 8167SOL    HW136977   3.442   5.609   6.177
 8167SOL    HW236978   3.588   5.673   6.143
 8168SOL     OW36979   4.305   3.225   1.110
 8168SOL    HW136980   4.220   3.238   1.160
 8168SOL    HW236981   4.380   3.271   1.159
 8169SOL     OW36982   5.267   3.490   3.014
 8169SOL    HW136983   5.198   3.533   3.072
 8169SOL    HW236984   5.228   3.408   2.971
 8170SOL     OW36985   6.462   2.445   1.248
 8170SOL    HW136986   6.524   2.506   1.199
 8170SOL    HW236987   6.399   2.403   1.183
 8171SOL     OW36988   1.591   1.068   4.936
 8171SOL    HW136989   1.615   1.041   4.843
 8171SOL    HW236990   1.672   1.061   4.994
 8172SOL     OW36991   4.814   0.308   0.645
 8172SOL    HW136992   4.819   0.381   0.577
 8172SOL    HW236993   4.851   0.340   0.732
 8173SOL     OW36994   1.604   6.772   5.697
 8173SOL    HW136995   1.567   6.688   5.659
 8173SOL    HW236996   1.530   6.836   5.716
 8174SOL     OW36997   1.740   7.214   3.540
 8174SOL    HW136998   1.825   7.169   3.566
 8174SOL    HW236999   1.719   7.287   3.606
 8175SOL     OW37000   6.715   4.708   1.348
 8175SOL    HW137001   6.799   4.755   1.321
 8175SOL    HW237002   6.642   4.732   1.284
 8176SOL     OW37003   2.928   3.516   4.337
 8176SOL    HW137004   2.886   3.600   4.304
 8176SOL    HW237005   3.011   3.537   4.389
 8177SOL     OW37006   2.204   1.463   6.120
 8177SOL    HW137007   2.170   1.370   6.101
 8177SOL    HW237008   2.163   1.496   6.205
 8178SOL     OW37009   5.580   2.066   5.866
 8178SOL    HW137010   5.636   2.149   5.872
 8178SOL    HW237011   5.629   1.990   5.909
 8179SOL     OW37012   4.745   5.728   4.526
 8179SOL    HW137013   4.804   5.804   4.555
 8179SOL    HW237014   4.679   5.708   4.599
 8180SOL     OW37015   1.720   4.734   0.749
 8180SOL    HW137016   1.651   4.805   0.760
 8180SOL    HW237017   1.717   4.672   0.828
 8181SOL     OW37018   1.655   6.973   0.878
 8181SOL    HW137019   1.649   6.873   0.874
 8181SOL    HW237020   1.682   7.008   0.789
 8182SOL     OW37021   5.115   0.141   3.933
 8182SOL    HW137022   5.195   0.183   3.892
 8182SOL    HW237023   5.114   0.043   3.911
 8183SOL     OW37024   4.797   6.089   0.118
 8183SOL    HW137025   4.764   6.036   0.196
 8183SOL    HW237026   4.849   6.168   0.151
 8184SOL     OW37027   6.463   2.070   0.273
 8184SOL    HW137028   6.426   2.121   0.195
 8184SOL    HW237029   6.538   2.122   0.314
 8185SOL     OW37030   4.235   4.143   1.612
 8185SOL    HW137031   4.322   4.160   1.660
 8185SOL    HW237032   4.228   4.205   1.534
 8186SOL     OW37033   1.954   4.719   5.960
 8186SOL    HW137034   1.976   4.625   5.986
 8186SOL    HW237035   1.940   4.774   6.043
 8187SOL     OW37036   2.936   0.716   7.357
 8187SOL    HW137037   2.963   0.799   7.406
 8187SOL    HW237038   2.846   0.686   7.389
 8188SOL     OW37039   4.653   1.106   4.103
 8188SOL    HW137040   4.598   1.026   4.127
 8188SOL    HW237041   4.659   1.167   4.182
 8189SOL     OW37042   1.278   3.126   3.760
 8189SOL    HW137043   1.227   3.205   3.795
 8189SOL    HW237044   1.215   3.056   3.729
 8190SOL     OW37045   2.352   4.895   7.179
 8190SOL    HW137046   2.409   4.820   7.146
 8190SOL    HW237047   2.287   4.859   7.247
 8191SOL     OW37048   6.967   1.969   4.001
 8191SOL    HW137049   6.888   1.999   4.054
 8191SOL    HW237050   7.001   2.044   3.946
 8192SOL     OW37051   0.464   5.453   4.514
 8192SOL    HW137052   0.488   5.523   4.581
 8192SOL    HW237053   0.454   5.496   4.424
 8193SOL     OW37054   1.881   4.618   7.120
 8193SOL    HW137055   1.948   4.669   7.065
 8193SOL    HW237056   1.799   4.674   7.132
 8194SOL     OW37057   4.954   0.170   6.993
 8194SOL    HW137058   4.927   0.145   7.086
 8194SOL    HW237059   5.032   0.114   6.964
 8195SOL     OW37060   0.851   2.526   0.745
 8195SOL    HW137061   0.885   2.442   0.787
 8195SOL    HW237062   0.824   2.590   0.817
 8196SOL     OW37063   2.156   0.832   7.113
 8196SOL    HW137064   2.243   0.882   7.110
 8196SOL    HW237065   2.083   0.891   7.078
 8197SOL     OW37066   5.179   0.495   7.279
 8197SOL    HW137067   5.080   0.508   7.267
 8197SOL    HW237068   5.196   0.400   7.305
 8198SOL     OW37069   4.932   4.049   6.839
 8198SOL    HW137070   4.912   4.123   6.903
 8198SOL    HW237071   5.016   4.003   6.868
 8199SOL     OW37072   1.969   4.128   5.627
 8199SOL    HW137073   2.017   4.170   5.704
 8199SOL    HW237074   1.883   4.087   5.661
 8200SOL     OW37075   5.615   6.199   4.851
 8200SOL    HW137076   5.571   6.231   4.767
 8200SOL    HW237077   5.692   6.140   4.828
 8201SOL     OW37078   6.118   4.182   6.978
 8201SOL    HW137079   6.098   4.252   7.047
 8201SOL    HW237080   6.138   4.095   7.024
 8202SOL     OW37081   4.202   0.516   1.272
 8202SOL    HW137082   4.229   0.453   1.199
 8202SOL    HW237083   4.276   0.523   1.339
 8203SOL     OW37084   5.952   1.965   2.545
 8203SOL    HW137085   6.018   2.023   2.499
 8203SOL    HW237086   5.999   1.889   2.589
 8204SOL     OW37087   5.887   2.766   3.755
 8204SOL    HW137088   5.955   2.829   3.718
 8204SOL    HW237089   5.811   2.818   3.794
 8205SOL     OW37090   5.335   0.792   2.096
 8205SOL    HW137091   5.371   0.701   2.117
 8205SOL    HW237092   5.330   0.847   2.179
 8206SOL     OW37093   3.538   3.264   0.133
 8206SOL    HW137094   3.462   3.211   0.095
 8206SOL    HW237095   3.624   3.218   0.110
 8207SOL     OW37096   6.839   3.225   4.747
 8207SOL    HW137097   6.780   3.306   4.748
 8207SOL    HW237098   6.930   3.249   4.780
 8208SOL     OW37099   2.079   5.765   3.239
 8208SOL    HW137100   2.150   5.790   3.173
 8208SOL    HW237101   2.115   5.774   3.331
 8209SOL     OW37102   1.361   3.679   2.940
 8209SOL    HW137103   1.370   3.681   3.039
 8209SOL    HW237104   1.448   3.704   2.898
 8210SOL     OW37105   1.331   0.079   3.617
 8210SOL    HW137106   1.353   0.170   3.652
 8210SOL    HW237107   1.253   0.041   3.667
 8211SOL     OW37108   3.527   6.076   6.883
 8211SOL    HW137109   3.602   6.114   6.937
 8211SOL    HW237110   3.549   5.982   6.858
 8212SOL     OW37111   5.616   3.442   5.942
 8212SOL    HW137112   5.563   3.521   5.913
 8212SOL    HW237113   5.650   3.394   5.861
 8213SOL     OW37114   4.353   4.559   2.084
 8213SOL    HW137115   4.450   4.579   2.101
 8213SOL    HW237116   4.325   4.480   2.138
 8214SOL     OW37117   5.178   4.903   0.309
 8214SOL    HW137118   5.130   4.974   0.360
 8214SOL    HW237119   5.267   4.938   0.280
 8215SOL     OW37120   4.229   0.302   4.792
 8215SOL    HW137121   4.314   0.278   4.837
 8215SOL    HW237122   4.194   0.223   4.741
 8216SOL     OW37123   1.793   5.407   5.687
 8216SOL    HW137124   1.837   5.342   5.749
 8216SOL    HW237125   1.698   5.419   5.714
 8217SOL     OW37126   4.571   6.619   1.060
 8217SOL    HW137127   4.617   6.686   1.002
 8217SOL    HW237128   4.631   6.593   1.136
 8218SOL     OW37129   5.429   6.584   5.988
 8218SOL    HW137130   5.456   6.670   5.944
 8218SOL    HW237131   5.492   6.511   5.961
 8219SOL     OW37132   6.984   1.577   0.883
 8219SOL    HW137133   6.930   1.657   0.909
 8219SOL    HW237134   6.938   1.529   0.808
 8220SOL     OW37135   5.945   6.074   6.779
 8220SOL    HW137136   5.863   6.087   6.723
 8220SOL    HW237137   5.949   5.978   6.809
 8221SOL     OW37138   6.443   0.584   0.023
 8221SOL    HW137139   6.390   0.663   0.052
 8221SOL    HW237140   6.540   0.610   0.014
 8222SOL     OW37141   3.993   0.665   1.560
 8222SOL    HW137142   3.945   0.581   1.535
 8222SOL    HW237143   4.066   0.644   1.625
 8223SOL     OW37144   6.532   4.598   3.510
 8223SOL    HW137145   6.606   4.655   3.476
 8223SOL    HW237146   6.563   4.504   3.518
 8224SOL     OW37147   5.798   5.223   0.519
 8224SOL    HW137148   5.774   5.153   0.452
 8224SOL    HW237149   5.824   5.307   0.472
 8225SOL     OW37150   0.353   4.235   5.540
 8225SOL    HW137151   0.273   4.188   5.577
 8225SOL    HW237152   0.435   4.180   5.557
 8226SOL     OW37153   2.785   5.664   4.309
 8226SOL    HW137154   2.726   5.651   4.230
 8226SOL    HW237155   2.735   5.644   4.393
 8227SOL     OW37156   1.423   3.341   0.679
 8227SOL    HW137157   1.379   3.417   0.632
 8227SOL    HW237158   1.511   3.371   0.717
 8228SOL     OW37159   0.428   5.813   5.106
 8228SOL    HW137160   0.459   5.899   5.065
 8228SOL    HW237161   0.488   5.739   5.078
 8229SOL     OW37162   4.769   0.285   4.235
 8229SOL    HW137163   4.796   0.266   4.140
 8229SOL    HW237164   4.824   0.360   4.271
 8230SOL     OW37165   4.258   3.260   2.521
 8230SOL    HW137166   4.210   3.173   2.511
 8230SOL    HW237167   4.224   3.308   2.602
 8231SOL     OW37168   4.319   5.672   5.365
 8231SOL    HW137169   4.407   5.686   5.412
 8231SOL    HW237170   4.245   5.675   5.431
 8232SOL     OW37171   1.066   1.222   3.025
 8232SOL    HW137172   0.968   1.218   3.041
 8232SOL    HW237173   1.114   1.204   3.111
 8233SOL     OW37174   2.074   5.896   5.915
 8233SOL    HW137175   2.139   5.932   5.849
 8233SOL    HW237176   2.123   5.872   5.999
 8234SOL     OW37177   5.285   5.362   6.350
 8234SOL    HW137178   5.326   5.433   6.407
 8234SOL    HW237179   5.272   5.396   6.257
 8235SOL     OW37180   2.264   3.598   1.262
 8235SOL    HW137181   2.315   3.591   1.348
 8235SOL    HW237182   2.295   3.526   1.200
 8236SOL     OW37183   5.533   0.420   6.227
 8236SOL    HW137184   5.608   0.460   6.280
 8236SOL    HW237185   5.556   0.326   6.201
 8237SOL     OW37186   7.189   2.423   5.477
 8237SOL    HW137187   7.284   2.434   5.449
 8237SOL    HW237188   7.173   2.329   5.506
 8238SOL     OW37189   6.769   2.562   5.012
 8238SOL    HW137190   6.710   2.558   5.093
 8238SOL    HW237191   6.860   2.594   5.038
 8239SOL     OW37192   0.483   3.190   6.704
 8239SOL    HW137193   0.444   3.178   6.796
 8239SOL    HW237194   0.437   3.129   6.640
 8240SOL     OW37195   0.839   5.049   3.808
 8240SOL    HW137196   0.821   4.951   3.809
 8240SOL    HW237197   0.753   5.099   3.799
 8241SOL     OW37198   5.636   2.724   3.301
 8241SOL    HW137199   5.616   2.670   3.220
 8241SOL    HW237200   5.723   2.773   3.288
 8242SOL     OW37201   2.854   1.525   6.834
 8242SOL    HW137202   2.829   1.579   6.914
 8242SOL    HW237203   2.802   1.440   6.834
 8243SOL     OW37204   4.063   5.721   6.838
 8243SOL    HW137205   4.031   5.632   6.870
 8243SOL    HW237206   4.027   5.737   6.746
 8244SOL     OW37207   3.745   2.195   5.632
 8244SOL    HW137208   3.768   2.102   5.601
 8244SOL    HW237209   3.674   2.190   5.702
 8245SOL     OW37210   3.702   3.523   3.894
 8245SOL    HW137211   3.603   3.528   3.881
 8245SOL    HW237212   3.742   3.470   3.819
 8246SOL     OW37213   4.299   1.273   6.387
 8246SOL    HW137214   4.398   1.287   6.383
 8246SOL    HW237215   4.278   1.176   6.373
 8247SOL     OW37216   6.723   2.718   0.298
 8247SOL    HW137217   6.801   2.773   0.327
 8247SOL    HW237218   6.755   2.629   0.265
 8248SOL     OW37219   6.271   0.837   5.849
 8248SOL    HW137220   6.232   0.766   5.791
 8248SOL    HW237221   6.369   0.846   5.831
 8249SOL     OW37222   5.044   1.123   3.425
 8249SOL    HW137223   4.947   1.100   3.415
 8249SOL    HW237224   5.063   1.207   3.374
 8250SOL     OW37225   6.289   7.089   6.974
 8250SOL    HW137226   6.316   7.022   6.906
 8250SOL    HW237227   6.195   7.071   7.004
 8251SOL     OW37228   6.695   3.308   2.415
 8251SOL    HW137229   6.659   3.231   2.468
 8251SOL    HW237230   6.756   3.362   2.473
 8252SOL     OW37231   2.347   0.353   1.223
 8252SOL    HW137232   2.252   0.384   1.217
 8252SOL    HW237233   2.375   0.354   1.319
 8253SOL     OW37234   0.782   3.897   6.463
 8253SOL    HW137235   0.705   3.927   6.408
 8253SOL    HW237236   0.815   3.809   6.430
 8254SOL     OW37237   7.073   3.180   6.134
 8254SOL    HW137238   7.022   3.143   6.211
 8254SOL    HW237239   7.044   3.135   6.049
 8255SOL     OW37240   4.016   3.152   6.536
 8255SOL    HW137241   4.035   3.121   6.629
 8255SOL    HW237242   4.094   3.132   6.478
 8256SOL     OW37243   6.362   6.312   0.836
 8256SOL    HW137244   6.350   6.245   0.763
 8256SOL    HW237245   6.423   6.385   0.806
 8257SOL     OW37246   2.062   4.464   6.895
 8257SOL    HW137247   2.117   4.381   6.886
 8257SOL    HW237248   2.100   4.522   6.967
 8258SOL     OW37249   1.236   4.004   6.194
 8258SOL    HW137250   1.156   3.993   6.135
 8258SOL    HW237251   1.237   3.931   6.263
 8259SOL     OW37252   4.912   1.987   2.137
 8259SOL    HW137253   5.012   1.980   2.139
 8259SOL    HW237254   4.885   2.070   2.089
 8260SOL     OW37255   5.030   2.369   1.752
 8260SOL    HW137256   4.932   2.392   1.747
 8260SOL    HW237257   5.064   2.390   1.844
 8261SOL     OW37258   1.322   3.257   0.328
 8261SOL    HW137259   1.282   3.237   0.417
 8261SOL    HW237260   1.350   3.171   0.284
 8262SOL     OW37261   6.625   2.172   4.388
 8262SOL    HW137262   6.690   2.137   4.456
 8262SOL    HW237263   6.535   2.182   4.430
 8263SOL     OW37264   1.879   5.650   6.515
 8263SOL    HW137265   1.877   5.672   6.418
 8263SOL    HW237266   1.820   5.714   6.565
 8264SOL     OW37267   3.628   5.835   0.017
 8264SOL    HW137268   3.661   5.927  -0.007
 8264SOL    HW237269   3.642   5.819   0.114
 8265SOL     OW37270   6.912   4.189   5.552
 8265SOL    HW137271   6.920   4.139   5.466
 8265SOL    HW237272   6.899   4.286   5.534
 8266SOL     OW37273   7.103   1.767   0.166
 8266SOL    HW137274   7.158   1.850   0.176
 8266SOL    HW237275   7.011   1.784   0.201
 8267SOL     OW37276   5.889   0.161   4.132
 8267SOL    HW137277   5.944   0.100   4.076
 8267SOL    HW237278   5.803   0.180   4.085
 8268SOL     OW37279   0.968   3.901   2.297
 8268SOL    HW137280   1.062   3.882   2.324
 8268SOL    HW237281   0.928   3.966   2.362
 8269SOL     OW37282   2.182   1.181   3.113
 8269SOL    HW137283   2.201   1.277   3.091
 8269SOL    HW237284   2.123   1.142   3.042
 8270SOL     OW37285   0.675   2.573   7.047
 8270SOL    HW137286   0.768   2.563   7.011
 8270SOL    HW237287   0.649   2.490   7.096
 8271SOL     OW37288   7.143   0.042   6.194
 8271SOL    HW137289   7.049   0.075   6.197
 8271SOL    HW237290   7.186   0.069   6.107
 8272SOL     OW37291   1.305   2.015   1.967
 8272SOL    HW137292   1.267   2.108   1.966
 8272SOL    HW237293   1.404   2.020   1.977
 8273SOL     OW37294   5.647   2.256   3.608
 8273SOL    HW137295   5.668   2.347   3.570
 8273SOL    HW237296   5.627   2.193   3.533
 8274SOL     OW37297   2.341   0.037   5.611
 8274SOL    HW137298   2.397  -0.036   5.650
 8274SOL    HW237299   2.245   0.010   5.611
 8275SOL     OW37300   4.475   4.306   4.761
 8275SOL    HW137301   4.393   4.309   4.817
 8275SOL    HW237302   4.553   4.279   4.818
 8276SOL     OW37303   2.187   3.528   3.118
 8276SOL    HW137304   2.120   3.472   3.070
 8276SOL    HW237305   2.148   3.558   3.206
 8277SOL     OW37306   5.564   1.811   4.309
 8277SOL    HW137307   5.494   1.837   4.375
 8277SOL    HW237308   5.583   1.888   4.248
 8278SOL     OW37309   6.450   5.471   5.696
 8278SOL    HW137310   6.455   5.461   5.795
 8278SOL    HW237311   6.355   5.459   5.666
 8279SOL     OW37312   2.827   2.080   2.443
 8279SOL    HW137313   2.875   2.055   2.359
 8279SOL    HW237314   2.859   2.171   2.473
 8280SOL     OW37315   3.378   2.878   4.380
 8280SOL    HW137316   3.471   2.901   4.353
 8280SOL    HW237317   3.324   2.855   4.298
 8281SOL     OW37318   3.946   3.506   2.032
 8281SOL    HW137319   3.919   3.423   1.982
 8281SOL    HW237320   3.865   3.560   2.053
 8282SOL     OW37321   6.653   3.030   3.347
 8282SOL    HW137322   6.683   2.996   3.437
 8282SOL    HW237323   6.564   3.074   3.356
 8283SOL     OW37324   3.117   1.985   7.125
 8283SOL    HW137325   3.105   2.077   7.089
 8283SOL    HW237326   3.032   1.954   7.167
 8284SOL     OW37327   1.673   3.483   4.228
 8284SOL    HW137328   1.624   3.406   4.188
 8284SOL    HW237329   1.739   3.518   4.161
 8285SOL     OW37330   6.565   5.795   5.869
 8285SOL    HW137331   6.604   5.760   5.784
 8285SOL    HW237332   6.634   5.789   5.942
 8286SOL     OW37333   5.846   2.668   0.048
 8286SOL    HW137334   5.868   2.575   0.018
 8286SOL    HW237335   5.751   2.673   0.076
 8287SOL     OW37336   5.048   6.569   6.138
 8287SOL    HW137337   5.077   6.542   6.046
 8287SOL    HW237338   5.120   6.624   6.181
 8288SOL     OW37339   6.723   4.060   2.459
 8288SOL    HW137340   6.745   4.077   2.363
 8288SOL    HW237341   6.629   4.028   2.467
 8289SOL     OW37342   2.791   5.238   7.305
 8289SOL    HW137343   2.723   5.206   7.239
 8289SOL    HW237344   2.865   5.285   7.256
 8290SOL     OW37345   0.153   1.957   2.091
 8290SOL    HW137346   0.149   1.857   2.094
 8290SOL    HW237347   0.249   1.986   2.091
 8291SOL     OW37348   2.413   0.805   0.944
 8291SOL    HW137349   2.395   0.829   1.039
 8291SOL    HW237350   2.483   0.734   0.941
 8292SOL     OW37351   2.816   2.243   1.723
 8292SOL    HW137352   2.754   2.177   1.764
 8292SOL    HW237353   2.763   2.311   1.672
 8293SOL     OW37354   5.535   2.572   3.082
 8293SOL    HW137355   5.453   2.546   3.133
 8293SOL    HW237356   5.527   2.541   2.987
 8294SOL     OW37357   0.688   3.325   5.178
 8294SOL    HW137358   0.711   3.355   5.085
 8294SOL    HW237359   0.610   3.376   5.211
 8295SOL     OW37360   0.158   2.950   1.148
 8295SOL    HW137361   0.190   2.947   1.242
 8295SOL    HW237362   0.166   2.859   1.107
 8296SOL     OW37363   5.747   4.944   4.256
 8296SOL    HW137364   5.753   5.024   4.315
 8296SOL    HW237365   5.835   4.928   4.211
 8297SOL     OW37366   7.303   3.150   5.980
 8297SOL    HW137367   7.220   3.165   6.034
 8297SOL    HW237368   7.304   3.057   5.944
 8298SOL     OW37369   6.856   6.975   7.155
 8298SOL    HW137370   6.834   7.019   7.243
 8298SOL    HW237371   6.945   6.930   7.162
 8299SOL     OW37372   4.223   0.874   0.983
 8299SOL    HW137373   4.263   0.803   0.925
 8299SOL    HW237374   4.137   0.840   1.021
 8300SOL     OW37375   1.426   2.210   5.273
 8300SOL    HW137376   1.467   2.120   5.261
 8300SOL    HW237377   1.463   2.273   5.204
 8301SOL     OW37378   3.355   5.665   2.803
 8301SOL    HW137379   3.426   5.736   2.807
 8301SOL    HW237380   3.383   5.593   2.739
 8302SOL     OW37381   7.116   0.604   2.787
 8302SOL    HW137382   7.060   0.572   2.711
 8302SOL    HW237383   7.143   0.527   2.844
 8303SOL     OW37384   0.146   6.357   4.486
 8303SOL    HW137385   0.124   6.373   4.390
 8303SOL    HW237386   0.074   6.397   4.544
 8304SOL     OW37387   4.686   5.683   2.458
 8304SOL    HW137388   4.766   5.698   2.400
 8304SOL    HW237389   4.665   5.767   2.508
 8305SOL     OW37390   6.873   4.739   3.173
 8305SOL    HW137391   6.809   4.734   3.096
 8305SOL    HW237392   6.933   4.659   3.171
 8306SOL     OW37393   5.595   0.980   5.935
 8306SOL    HW137394   5.679   0.940   5.973
 8306SOL    HW237395   5.610   1.005   5.839
 8307SOL     OW37396   3.192   4.833   6.267
 8307SOL    HW137397   3.242   4.759   6.311
 8307SOL    HW237398   3.243   4.864   6.187
 8308SOL     OW37399   7.354   2.995   4.420
 8308SOL    HW137400   7.414   2.915   4.422
 8308SOL    HW237401   7.261   2.968   4.442
 8309SOL     OW37402   5.168   4.881   4.673
 8309SOL    HW137403   5.138   4.788   4.656
 8309SOL    HW237404   5.230   4.883   4.751
 8310SOL     OW37405   2.280   5.159   0.810
 8310SOL    HW137406   2.318   5.252   0.807
 8310SOL    HW237407   2.206   5.152   0.743
 8311SOL     OW37408   7.315   4.201   6.978
 8311SOL    HW137409   7.268   4.150   7.050
 8311SOL    HW237410   7.248   4.237   6.913
 8312SOL     OW37411   6.829   0.348   5.051
 8312SOL    HW137412   6.735   0.382   5.041
 8312SOL    HW237413   6.844   0.319   5.145
 8313SOL     OW37414   5.678   3.073   2.340
 8313SOL    HW137415   5.636   2.983   2.353
 8313SOL    HW237416   5.698   3.114   2.429
 8314SOL     OW37417   6.390   4.634   1.439
 8314SOL    HW137418   6.345   4.709   1.488
 8314SOL    HW237419   6.411   4.664   1.345
 8315SOL     OW37420   0.257   4.974   4.565
 8315SOL    HW137421   0.191   4.910   4.605
 8315SOL    HW237422   0.311   5.016   4.638
 8316SOL     OW37423   0.390   3.175   6.980
 8316SOL    HW137424   0.314   3.240   6.990
 8316SOL    HW237425   0.365   3.089   7.025
 8317SOL     OW37426   5.316   3.956   2.885
 8317SOL    HW137427   5.413   3.971   2.864
 8317SOL    HW237428   5.302   3.860   2.911
 8318SOL     OW37429   5.886   2.838   2.314
 8318SOL    HW137430   5.984   2.855   2.324
 8318SOL    HW237431   5.850   2.896   2.241
 8319SOL     OW37432   4.380   0.332   5.160
 8319SOL    HW137433   4.318   0.364   5.089
 8319SOL    HW237434   4.328   0.307   5.241
 8320SOL     OW37435   4.751   6.881   3.075
 8320SOL    HW137436   4.786   6.809   3.015
 8320SOL    HW237437   4.754   6.968   3.027
 8321SOL     OW37438   3.510   1.678   7.004
 8321SOL    HW137439   3.417   1.713   7.016
 8321SOL    HW237440   3.506   1.583   6.972
 8322SOL     OW37441   6.742   2.712   7.125
 8322SOL    HW137442   6.800   2.794   7.129
 8322SOL    HW237443   6.678   2.713   7.202
 8323SOL     OW37444   5.434   2.587   3.797
 8323SOL    HW137445   5.356   2.645   3.819
 8323SOL    HW237446   5.445   2.582   3.698
 8324SOL     OW37447   3.754   5.485   2.321
 8324SOL    HW137448   3.725   5.440   2.237
 8324SOL    HW237449   3.805   5.421   2.378
 8325SOL     OW37450   6.717   0.636   0.356
 8325SOL    HW137451   6.630   0.614   0.311
 8325SOL    HW237452   6.714   0.606   0.451
 8326SOL     OW37453   7.232   3.519   5.869
 8326SOL    HW137454   7.281   3.433   5.865
 8326SOL    HW237455   7.264   3.573   5.947
 8327SOL     OW37456   6.251   6.545   0.339
 8327SOL    HW137457   6.327   6.513   0.395
 8327SOL    HW237458   6.189   6.469   0.319
 8328SOL     OW37459   3.232   2.002   2.475
 8328SOL    HW137460   3.261   1.917   2.517
 8328SOL    HW237461   3.309   2.066   2.472
 8329SOL     OW37462   0.988   4.176   4.931
 8329SOL    HW137463   0.959   4.127   5.013
 8329SOL    HW237464   1.008   4.271   4.953
 8330SOL     OW37465   2.216   0.007   1.404
 8330SOL    HW137466   2.300   0.053   1.433
 8330SOL    HW237467   2.215   0.001   1.305
 8331SOL     OW37468   6.934   4.531   0.960
 8331SOL    HW137469   6.837   4.554   0.965
 8331SOL    HW237470   6.982   4.570   1.039
 8332SOL     OW37471   2.282   0.633   3.127
 8332SOL    HW137472   2.230   0.710   3.090
 8332SOL    HW237473   2.248   0.548   3.086
 8333SOL     OW37474   5.571   3.936   1.395
 8333SOL    HW137475   5.591   3.856   1.338
 8333SOL    HW237476   5.610   4.017   1.352
 8334SOL     OW37477   3.528   1.031   2.433
 8334SOL    HW137478   3.503   0.938   2.458
 8334SOL    HW237479   3.627   1.040   2.432
 8335SOL     OW37480   7.320   4.154   5.800
 8335SOL    HW137481   7.387   4.221   5.834
 8335SOL    HW237482   7.228   4.182   5.830
 8336SOL     OW37483   2.051   1.548   1.116
 8336SOL    HW137484   1.978   1.511   1.173
 8336SOL    HW237485   2.012   1.597   1.038
 8337SOL     OW37486   1.971   2.409   2.197
 8337SOL    HW137487   2.034   2.486   2.187
 8337SOL    HW237488   1.877   2.444   2.205
 8338SOL     OW37489   7.155   7.157   7.110
 8338SOL    HW137490   7.132   7.069   7.068
 8338SOL    HW237491   7.134   7.154   7.208
 8339SOL     OW37492   1.181   2.730   2.649
 8339SOL    HW137493   1.245   2.656   2.671
 8339SOL    HW237494   1.088   2.701   2.671
 8340SOL     OW37495   2.405   6.443   1.610
 8340SOL    HW137496   2.416   6.534   1.650
 8340SOL    HW237497   2.313   6.409   1.629
 8341SOL     OW37498   6.097   3.041   6.870
 8341SOL    HW137499   6.016   3.047   6.811
 8341SOL    HW237500   6.117   2.945   6.890
 8342SOL     OW37501   4.948   3.024   2.356
 8342SOL    HW137502   4.864   3.047   2.307
 8342SOL    HW237503   5.018   3.092   2.336
 8343SOL     OW37504   4.195   6.918   6.381
 8343SOL    HW137505   4.135   6.914   6.301
 8343SOL    HW237506   4.254   6.999   6.373
 8344SOL     OW37507   4.513   7.181   2.582
 8344SOL    HW137508   4.461   7.224   2.655
 8344SOL    HW237509   4.598   7.142   2.618
 8345SOL     OW37510   1.833   1.621   1.795
 8345SOL    HW137511   1.857   1.709   1.756
 8345SOL    HW237512   1.804   1.633   1.890
 8346SOL     OW37513   3.410   0.632   0.556
 8346SOL    HW137514   3.388   0.662   0.463
 8346SOL    HW237515   3.465   0.701   0.601
 8347SOL     OW37516   1.605   2.197   0.957
 8347SOL    HW137517   1.524   2.144   0.981
 8347SOL    HW237518   1.667   2.199   1.036
 8348SOL     OW37519   6.626   3.110   0.005
 8348SOL    HW137520   6.679   3.154  -0.068
 8348SOL    HW237521   6.605   3.176   0.076
 8349SOL     OW37522   1.697   2.361   2.903
 8349SOL    HW137523   1.636   2.362   2.824
 8349SOL    HW237524   1.730   2.268   2.918
 8350SOL     OW37525   0.680   1.131   0.787
 8350SOL    HW137526   0.648   1.224   0.804
 8350SOL    HW237527   0.774   1.134   0.752
 8351SOL     OW37528   3.553   0.141   6.356
 8351SOL    HW137529   3.513   0.158   6.447
 8351SOL    HW237530   3.611   0.218   6.330
 8352SOL     OW37531   7.124   3.216   4.756
 8352SOL    HW137532   7.203   3.183   4.807
 8352SOL    HW237533   7.106   3.156   4.679
 8353SOL     OW37534   0.395   5.079   4.771
 8353SOL    HW137535   0.334   5.110   4.843
 8353SOL    HW237536   0.489   5.081   4.804
 8354SOL     OW37537   4.531   0.466   2.648
 8354SOL    HW137538   4.454   0.530   2.656
 8354SOL    HW237539   4.521   0.413   2.563
 8355SOL     OW37540   2.944   0.828   1.980
 8355SOL    HW137541   2.959   0.751   1.918
 8355SOL    HW237542   3.032   0.867   2.006
 8356SOL     OW37543   1.993   4.632   2.320
 8356SOL    HW137544   1.947   4.552   2.281
 8356SOL    HW237545   1.956   4.715   2.278
 8357SOL     OW37546   4.900   0.070   6.595
 8357SOL    HW137547   4.964   0.146   6.582
 8357SOL    HW237548   4.839   0.090   6.671
 8358SOL     OW37549   4.177   3.686   3.578
 8358SOL    HW137550   4.117   3.613   3.610
 8358SOL    HW237551   4.145   3.718   3.488
 8359SOL     OW37552   4.352   1.267   4.844
 8359SOL    HW137553   4.298   1.321   4.779
 8359SOL    HW237554   4.333   1.170   4.829
 8360SOL     OW37555   4.969   2.223   3.341
 8360SOL    HW137556   4.925   2.277   3.270
 8360SOL    HW237557   4.932   2.249   3.431
 8361SOL     OW37558   4.970   4.931   6.929
 8361SOL    HW137559   5.007   5.023   6.940
 8361SOL    HW237560   5.035   4.875   6.878
 8362SOL     OW37561   6.050   4.314   2.104
 8362SOL    HW137562   6.038   4.246   2.032
 8362SOL    HW237563   5.989   4.391   2.087
 8363SOL     OW37564   4.653   6.881   3.932
 8363SOL    HW137565   4.604   6.794   3.936
 8363SOL    HW237566   4.633   6.935   4.013
 8364SOL     OW37567   1.512   4.328   4.096
 8364SOL    HW137568   1.440   4.271   4.057
 8364SOL    HW237569   1.476   4.380   4.174
 8365SOL     OW37570   3.853   6.359   4.761
 8365SOL    HW137571   3.896   6.450   4.760
 8365SOL    HW237572   3.755   6.369   4.782
 8366SOL     OW37573   5.477   5.805   5.878
 8366SOL    HW137574   5.570   5.767   5.876
 8366SOL    HW237575   5.469   5.872   5.952
 8367SOL     OW37576   0.079   1.980   6.200
 8367SOL    HW137577   0.164   1.939   6.166
 8367SOL    HW237578   0.101   2.054   6.263
 8368SOL     OW37579   7.281   3.871   2.314
 8368SOL    HW137580   7.376   3.883   2.345
 8368SOL    HW237581   7.259   3.774   2.311
 8369SOL     OW37582   2.153   1.138   3.391
 8369SOL    HW137583   2.224   1.180   3.448
 8369SOL    HW237584   2.185   1.132   3.297
 8370SOL     OW37585   4.927   5.043   3.026
 8370SOL    HW137586   4.848   4.994   3.064
 8370SOL    HW237587   4.895   5.103   2.952
 8371SOL     OW37588   4.542   0.013   2.368
 8371SOL    HW137589   4.542  -0.064   2.432
 8371SOL    HW237590   4.475  -0.004   2.296
 8372SOL     OW37591   3.174   5.660   5.145
 8372SOL    HW137592   3.208   5.664   5.239
 8372SOL    HW237593   3.179   5.566   5.112
 8373SOL     OW37594   6.837   1.886   4.421
 8373SOL    HW137595   6.763   1.818   4.426
 8373SOL    HW237596   6.817   1.961   4.484
 8374SOL     OW37597   0.583   2.816   5.388
 8374SOL    HW137598   0.659   2.871   5.423
 8374SOL    HW237599   0.598   2.796   5.292
 8375SOL     OW37600   4.816   3.162   3.192
 8375SOL    HW137601   4.789   3.107   3.272
 8375SOL    HW237602   4.851   3.101   3.121
 8376SOL     OW37603   7.244   2.169   1.758
 8376SOL    HW137604   7.339   2.167   1.727
 8376SOL    HW237605   7.241   2.199   1.853
 8377SOL     OW37606   2.982   1.868   6.448
 8377SOL    HW137607   2.995   1.949   6.506
 8377SOL    HW237608   2.887   1.863   6.417
 8378SOL     OW37609   4.808   2.528   1.896
 8378SOL    HW137610   4.754   2.600   1.851
 8378SOL    HW237611   4.871   2.569   1.961
 8379SOL     OW37612   0.784   2.915   7.266
 8379SOL    HW137613   0.685   2.901   7.261
 8379SOL    HW237614   0.807   3.007   7.234
 8380SOL     OW37615   4.214   3.754   4.941
 8380SOL    HW137616   4.121   3.768   4.975
 8380SOL    HW237617   4.280   3.791   5.007
 8381SOL     OW37618   3.340   1.298   5.054
 8381SOL    HW137619   3.310   1.210   5.016
 8381SOL    HW237620   3.293   1.372   5.006
 8382SOL     OW37621   5.090   6.775   4.335
 8382SOL    HW137622   5.109   6.854   4.276
 8382SOL    HW237623   5.158   6.772   4.409
 8383SOL     OW37624   3.275   3.519   6.044
 8383SOL    HW137625   3.268   3.587   6.117
 8383SOL    HW237626   3.213   3.443   6.064
 8384SOL     OW37627   3.058   6.835   1.427
 8384SOL    HW137628   3.072   6.934   1.419
 8384SOL    HW237629   2.984   6.816   1.491
 8385SOL     OW37630   0.597   0.619   1.730
 8385SOL    HW137631   0.503   0.586   1.726
 8385SOL    HW237632   0.615   0.658   1.820
 8386SOL     OW37633   5.858   1.758   2.776
 8386SOL    HW137634   5.833   1.709   2.860
 8386SOL    HW237635   5.775   1.793   2.733
 8387SOL     OW37636   1.002   6.165   4.509
 8387SOL    HW137637   1.066   6.101   4.466
 8387SOL    HW237638   0.929   6.115   4.553
 8388SOL     OW37639   0.064   4.322   3.712
 8388SOL    HW137640  -0.030   4.289   3.721
 8388SOL    HW237641   0.112   4.268   3.643
 8389SOL     OW37642   2.832   3.884   0.202
 8389SOL    HW137643   2.738   3.912   0.183
 8389SOL    HW237644   2.840   3.785   0.190
 8390SOL     OW37645   6.416   4.175   2.032
 8390SOL    HW137646   6.341   4.161   1.967
 8390SOL    HW237647   6.428   4.273   2.048
 8391SOL     OW37648   5.746   1.385   0.678
 8391SOL    HW137649   5.829   1.362   0.627
 8391SOL    HW237650   5.719   1.307   0.734
 8392SOL     OW37651   3.885   3.140   1.849
 8392SOL    HW137652   3.931   3.052   1.865
 8392SOL    HW237653   3.832   3.165   1.930
 8393SOL     OW37654   3.047   3.442   6.919
 8393SOL    HW137655   3.107   3.437   6.999
 8393SOL    HW237656   3.033   3.538   6.894
 8394SOL     OW37657   5.751   3.918   1.667
 8394SOL    HW137658   5.682   3.886   1.602
 8394SOL    HW237659   5.711   3.924   1.758
 8395SOL     OW37660   4.778   0.636   6.930
 8395SOL    HW137661   4.770   0.538   6.912
 8395SOL    HW237662   4.870   0.667   6.908
 8396SOL     OW37663   4.902   3.068   2.949
 8396SOL    HW137664   4.836   3.000   2.915
 8396SOL    HW237665   4.885   3.156   2.906
 8397SOL     OW37666   4.393   2.332   3.306
 8397SOL    HW137667   4.303   2.293   3.288
 8397SOL    HW237668   4.463   2.278   3.258
 8398SOL     OW37669   6.656   7.177   3.529
 8398SOL    HW137670   6.727   7.207   3.592
 8398SOL    HW237671   6.666   7.225   3.442
 8399SOL     OW37672   4.272   5.226   6.518
 8399SOL    HW137673   4.239   5.134   6.499
 8399SOL    HW237674   4.372   5.226   6.517
 8400SOL     OW37675   6.791   2.597   5.396
 8400SOL    HW137676   6.727   2.630   5.466
 8400SOL    HW237677   6.740   2.573   5.314
 8401SOL     OW37678   6.316   4.442   1.955
 8401SOL    HW137679   6.233   4.396   1.987
 8401SOL    HW237680   6.292   4.532   1.918
 8402SOL     OW37681   6.373   2.826   1.352
 8402SOL    HW137682   6.433   2.757   1.313
 8402SOL    HW237683   6.379   2.910   1.297
 8403SOL     OW37684   6.008   2.739   2.710
 8403SOL    HW137685   6.075   2.752   2.783
 8403SOL    HW237686   5.940   2.671   2.738
 8404SOL     OW37687   5.229   7.182   2.113
 8404SOL    HW137688   5.274   7.095   2.094
 8404SOL    HW237689   5.274   7.226   2.191
 8405SOL     OW37690   6.422   0.711   6.224
 8405SOL    HW137691   6.434   0.658   6.307
 8405SOL    HW237692   6.381   0.654   6.153
 8406SOL     OW37693   5.547   0.154   6.142
 8406SOL    HW137694   5.463   0.128   6.094
 8406SOL    HW237695   5.615   0.082   6.129
 8407SOL     OW37696   5.348   2.774   3.286
 8407SOL    HW137697   5.320   2.689   3.241
 8407SOL    HW237698   5.444   2.769   3.311
 8408SOL     OW37699   7.260   4.509   2.971
 8408SOL    HW137700   7.338   4.530   2.911
 8408SOL    HW237701   7.180   4.486   2.914
 8409SOL     OW37702   1.396   2.736   1.451
 8409SOL    HW137703   1.436   2.825   1.430
 8409SOL    HW237704   1.298   2.739   1.436
 8410SOL     OW37705   3.137   5.465   6.256
 8410SOL    HW137706   3.049   5.418   6.244
 8410SOL    HW237707   3.164   5.461   6.352
 8411SOL     OW37708   6.727   0.083   2.315
 8411SOL    HW137709   6.741   0.146   2.393
 8411SOL    HW237710   6.688  -0.002   2.348
 8412SOL     OW37711   2.343   4.599   3.756
 8412SOL    HW137712   2.398   4.598   3.673
 8412SOL    HW237713   2.254   4.642   3.736
 8413SOL     OW37714   6.425   3.919   4.574
 8413SOL    HW137715   6.333   3.918   4.612
 8413SOL    HW237716   6.491   3.893   4.644
 8414SOL     OW37717   3.653   6.296   5.718
 8414SOL    HW137718   3.647   6.341   5.629
 8414SOL    HW237719   3.729   6.231   5.717
 8415SOL     OW37720   3.950   3.397   6.219
 8415SOL    HW137721   4.047   3.420   6.217
 8415SOL    HW237722   3.918   3.398   6.314
 8416SOL     OW37723   3.443   6.907   0.665
 8416SOL    HW137724   3.517   6.937   0.605
 8416SOL    HW237725   3.465   6.818   0.704
 8417SOL     OW37726   2.853   4.503   1.397
 8417SOL    HW137727   2.806   4.426   1.438
 8417SOL    HW237728   2.952   4.493   1.409
 8418SOL     OW37729   1.803   2.606   4.318
 8418SOL    HW137730   1.745   2.531   4.286
 8418SOL    HW237731   1.877   2.568   4.374
 8419SOL     OW37732   5.491   5.813   5.009
 8419SOL    HW137733   5.514   5.865   5.091
 8419SOL    HW237734   5.445   5.728   5.035
 8420SOL     OW37735   3.805   1.683   1.974
 8420SOL    HW137736   3.720   1.727   2.002
 8420SOL    HW237737   3.785   1.606   1.913
 8421SOL     OW37738   5.164   3.629   5.924
 8421SOL    HW137739   5.130   3.589   5.839
 8421SOL    HW237740   5.092   3.683   5.967
 8422SOL     OW37741   5.886   1.542   1.461
 8422SOL    HW137742   5.854   1.561   1.368
 8422SOL    HW237743   5.899   1.444   1.472
 8423SOL     OW37744   5.241   3.691   6.828
 8423SOL    HW137745   5.268   3.661   6.919
 8423SOL    HW237746   5.312   3.666   6.762
 8424SOL     OW37747   4.869   1.714   2.480
 8424SOL    HW137748   4.907   1.797   2.521
 8424SOL    HW237749   4.821   1.661   2.550
 8425SOL     OW37750   1.594   2.233   6.471
 8425SOL    HW137751   1.542   2.166   6.525
 8425SOL    HW237752   1.536   2.312   6.452
 8426SOL     OW37753   4.315   2.636   5.757
 8426SOL    HW137754   4.398   2.593   5.794
 8426SOL    HW237755   4.298   2.722   5.805
 8427SOL     OW37756   7.202   2.850   5.545
 8427SOL    HW137757   7.182   2.783   5.474
 8427SOL    HW237758   7.135   2.842   5.619
 8428SOL     OW37759   6.537   5.639   1.511
 8428SOL    HW137760   6.443   5.658   1.539
 8428SOL    HW237761   6.585   5.725   1.496
 8429SOL     OW37762   5.739   5.353   5.861
 8429SOL    HW137763   5.819   5.320   5.811
 8429SOL    HW237764   5.763   5.435   5.913
 8430SOL     OW37765   0.426   4.407   5.341
 8430SOL    HW137766   0.405   4.357   5.426
 8430SOL    HW237767   0.341   4.447   5.305
 8431SOL     OW37768   0.094   2.613   5.356
 8431SOL    HW137769   0.011   2.652   5.317
 8431SOL    HW237770   0.154   2.686   5.388
 8432SOL     OW37771   1.336   7.164   5.667
 8432SOL    HW137772   1.405   7.188   5.735
 8432SOL    HW237773   1.325   7.064   5.664
 8433SOL     OW37774   6.876   1.657   4.723
 8433SOL    HW137775   6.930   1.640   4.641
 8433SOL    HW237776   6.917   1.732   4.775
 8434SOL     OW37777   6.812   2.784   6.726
 8434SOL    HW137778   6.718   2.814   6.705
 8434SOL    HW237779   6.873   2.863   6.727
 8435SOL     OW37780   3.674   0.097   1.371
 8435SOL    HW137781   3.730   0.086   1.453
 8435SOL    HW237782   3.686   0.017   1.311
 8436SOL     OW37783   2.270   2.232   4.779
 8436SOL    HW137784   2.349   2.253   4.721
 8436SOL    HW237785   2.286   2.268   4.871
 8437SOL     OW37786   4.325   5.332   2.827
 8437SOL    HW137787   4.237   5.344   2.780
 8437SOL    HW237788   4.371   5.420   2.835
 8438SOL     OW37789   0.907   2.615   1.143
 8438SOL    HW137790   0.863   2.651   1.061
 8438SOL    HW237791   0.850   2.543   1.183
 8439SOL     OW37792   3.065   2.700   6.633
 8439SOL    HW137793   2.968   2.683   6.651
 8439SOL    HW237794   3.121   2.647   6.697
 8440SOL     OW37795   5.719   4.453   6.101
 8440SOL    HW137796   5.785   4.482   6.032
 8440SOL    HW237797   5.750   4.368   6.143
 8441SOL     OW37798   4.478   6.415   5.118
 8441SOL    HW137799   4.435   6.496   5.076
 8441SOL    HW237800   4.446   6.333   5.072
 8442SOL     OW37801   1.556   3.350   5.707
 8442SOL    HW137802   1.531   3.369   5.612
 8442SOL    HW237803   1.636   3.404   5.732
 8443SOL     OW37804   6.915   6.924   0.683
 8443SOL    HW137805   6.936   7.013   0.723
 8443SOL    HW237806   6.909   6.855   0.755
 8444SOL     OW37807   3.022   4.110   4.029
 8444SOL    HW137808   3.011   4.082   4.124
 8444SOL    HW237809   3.006   4.208   4.021
 8445SOL     OW37810   5.529   0.727   4.013
 8445SOL    HW137811   5.579   0.677   4.084
 8445SOL    HW237812   5.588   0.799   3.975
 8446SOL     OW37813   2.587   6.142   0.587
 8446SOL    HW137814   2.573   6.224   0.532
 8446SOL    HW237815   2.500   6.096   0.602
 8447SOL     OW37816   3.823   4.814   3.674
 8447SOL    HW137817   3.781   4.878   3.739
 8447SOL    HW237818   3.897   4.765   3.719
 8448SOL     OW37819   1.304   0.760   4.357
 8448SOL    HW137820   1.315   0.817   4.439
 8448SOL    HW237821   1.294   0.664   4.384
 8449SOL     OW37822   1.752   3.024   3.029
 8449SOL    HW137823   1.800   2.939   3.053
 8449SOL    HW237824   1.739   3.028   2.930
 8450SOL     OW37825   6.188   7.223   2.254
 8450SOL    HW137826   6.127   7.234   2.176
 8450SOL    HW237827   6.263   7.162   2.229
 8451SOL     OW37828   3.238   3.773   5.476
 8451SOL    HW137829   3.139   3.763   5.482
 8451SOL    HW237830   3.282   3.696   5.523
 8452SOL     OW37831   5.245   6.736   2.229
 8452SOL    HW137832   5.276   6.654   2.181
 8452SOL    HW237833   5.300   6.814   2.200
 8453SOL     OW37834   2.455   0.395   1.480
 8453SOL    HW137835   2.386   0.424   1.547
 8453SOL    HW237836   2.534   0.457   1.485
 8454SOL     OW37837   2.181   7.349   3.473
 8454SOL    HW137838   2.231   7.271   3.508
 8454SOL    HW237839   2.245   7.416   3.434
 8455SOL     OW37840   2.025   4.484   1.220
 8455SOL    HW137841   1.960   4.550   1.257
 8455SOL    HW237842   1.975   4.403   1.187
 8456SOL     OW37843   4.435   2.083   3.486
 8456SOL    HW137844   4.465   2.142   3.560
 8456SOL    HW237845   4.378   2.135   3.422
 8457SOL     OW37846   5.160   5.640   4.693
 8457SOL    HW137847   5.162   5.739   4.675
 8457SOL    HW237848   5.129   5.592   4.611
 8458SOL     OW37849   1.654   6.922   6.507
 8458SOL    HW137850   1.664   7.021   6.500
 8458SOL    HW237851   1.663   6.895   6.603
 8459SOL     OW37852   6.971   0.419   6.016
 8459SOL    HW137853   6.889   0.439   6.070
 8459SOL    HW237854   6.964   0.327   5.977
 8460SOL     OW37855   6.618   3.212   4.194
 8460SOL    HW137856   6.577   3.174   4.277
 8460SOL    HW237857   6.661   3.300   4.215
 8461SOL     OW37858   3.601   1.722   2.781
 8461SOL    HW137859   3.584   1.820   2.770
 8461SOL    HW237860   3.537   1.671   2.723
 8462SOL     OW37861   1.998   3.451   2.466
 8462SOL    HW137862   2.021   3.529   2.407
 8462SOL    HW237863   1.918   3.404   2.429
 8463SOL     OW37864   1.872   7.332   0.345
 8463SOL    HW137865   1.814   7.382   0.409
 8463SOL    HW237866   1.874   7.380   0.257
 8464SOL     OW37867   3.679   5.227   0.699
 8464SOL    HW137868   3.684   5.325   0.683
 8464SOL    HW237869   3.746   5.180   0.641
 8465SOL     OW37870   3.830   3.747   0.217
 8465SOL    HW137871   3.794   3.656   0.196
 8465SOL    HW237872   3.923   3.738   0.254
 8466SOL     OW37873   4.642   0.162   3.875
 8466SOL    HW137874   4.669   0.119   3.789
 8466SOL    HW237875   4.714   0.225   3.905
 8467SOL     OW37876   1.160   3.772   7.137
 8467SOL    HW137877   1.217   3.801   7.214
 8467SOL    HW237878   1.105   3.692   7.164
 8468SOL     OW37879   2.771   1.466   2.258
 8468SOL    HW137880   2.752   1.507   2.169
 8468SOL    HW237881   2.688   1.425   2.295
 8469SOL     OW37882   2.722   2.235   0.286
 8469SOL    HW137883   2.797   2.249   0.221
 8469SOL    HW237884   2.639   2.213   0.235
 8470SOL     OW37885   5.704   4.461   3.065
 8470SOL    HW137886   5.678   4.417   2.979
 8470SOL    HW237887   5.633   4.445   3.134
 8471SOL     OW37888   3.395   2.980   1.135
 8471SOL    HW137889   3.397   3.012   1.230
 8471SOL    HW237890   3.306   3.000   1.095
 8472SOL     OW37891   6.673   0.254   6.113
 8472SOL    HW137892   6.582   0.234   6.147
 8472SOL    HW237893   6.667   0.313   6.032
 8473SOL     OW37894   0.752   3.122   4.345
 8473SOL    HW137895   0.724   3.185   4.273
 8473SOL    HW237896   0.671   3.080   4.386
 8474SOL     OW37897   0.337   3.960   5.367
 8474SOL    HW137898   0.396   4.009   5.431
 8474SOL    HW237899   0.391   3.931   5.288
 8475SOL     OW37900   2.967   1.854   3.801
 8475SOL    HW137901   3.062   1.824   3.813
 8475SOL    HW237902   2.962   1.915   3.721
 8476SOL     OW37903   1.249   3.488   2.659
 8476SOL    HW137904   1.161   3.530   2.684
 8476SOL    HW237905   1.301   3.552   2.602
 8477SOL     OW37906   5.737   0.062   3.827
 8477SOL    HW137907   5.705   0.142   3.879
 8477SOL    HW237908   5.765   0.091   3.736
 8478SOL     OW37909   1.010   6.382   0.553
 8478SOL    HW137910   1.019   6.345   0.461
 8478SOL    HW237911   0.916   6.413   0.568
 8479SOL     OW37912   1.439   3.058   1.479
 8479SOL    HW137913   1.362   3.060   1.543
 8479SOL    HW237914   1.405   3.069   1.386
 8480SOL     OW37915   5.072   1.816   4.880
 8480SOL    HW137916   5.109   1.860   4.962
 8480SOL    HW237917   5.137   1.748   4.847
 8481SOL     OW37918   5.681   1.955   2.280
 8481SOL    HW137919   5.730   1.873   2.306
 8481SOL    HW237920   5.666   1.955   2.181
 8482SOL     OW37921   0.481   6.225   6.025
 8482SOL    HW137922   0.434   6.262   5.944
 8482SOL    HW237923   0.576   6.255   6.025
 8483SOL     OW37924   1.958   4.750   3.925
 8483SOL    HW137925   1.980   4.743   3.828
 8483SOL    HW237926   1.892   4.824   3.939
 8484SOL     OW37927   5.589   3.711   2.989
 8484SOL    HW137928   5.571   3.748   3.080
 8484SOL    HW237929   5.687   3.698   2.977
 8485SOL     OW37930   3.596   7.081   3.496
 8485SOL    HW137931   3.565   7.114   3.407
 8485SOL    HW237932   3.663   7.007   3.482
 8486SOL     OW37933   4.504   4.952   5.603
 8486SOL    HW137934   4.593   4.908   5.591
 8486SOL    HW237935   4.468   4.932   5.694
 8487SOL     OW37936   1.019   5.543   7.111
 8487SOL    HW137937   1.023   5.478   7.035
 8487SOL    HW237938   1.009   5.492   7.197
 8488SOL     OW37939   0.969   0.309   1.673
 8488SOL    HW137940   0.930   0.374   1.739
 8488SOL    HW237941   0.942   0.335   1.580
 8489SOL     OW37942   0.423   3.391   2.110
 8489SOL    HW137943   0.394   3.472   2.161
 8489SOL    HW237944   0.423   3.412   2.012
 8490SOL     OW37945   3.112   3.350   1.936
 8490SOL    HW137946   3.148   3.266   1.975
 8490SOL    HW237947   3.143   3.428   1.990
 8491SOL     OW37948   4.467   4.350   2.717
 8491SOL    HW137949   4.389   4.346   2.655
 8491SOL    HW237950   4.538   4.409   2.679
 8492SOL     OW37951   6.419   0.721   3.151
 8492SOL    HW137952   6.440   0.785   3.226
 8492SOL    HW237953   6.493   0.723   3.084
 8493SOL     OW37954   6.441   1.017   3.274
 8493SOL    HW137955   6.411   1.029   3.180
 8493SOL    HW237956   6.539   1.039   3.281
 8494SOL     OW37957   5.919   4.285   0.541
 8494SOL    HW137958   6.009   4.273   0.582
 8494SOL    HW237959   5.917   4.240   0.452
 8495SOL     OW37960   4.849   1.102   5.165
 8495SOL    HW137961   4.772   1.123   5.225
 8495SOL    HW237962   4.827   1.022   5.109
 8496SOL     OW37963   6.953   0.556   1.880
 8496SOL    HW137964   6.882   0.621   1.852
 8496SOL    HW237965   7.040   0.605   1.892
 8497SOL     OW37966   0.160   4.066   5.626
 8497SOL    HW137967   0.096   4.077   5.702
 8497SOL    HW237968   0.153   3.974   5.589
 8498SOL     OW37969   2.375   1.755   0.514
 8498SOL    HW137970   2.444   1.686   0.534
 8498SOL    HW237971   2.395   1.797   0.425
 8499SOL     OW37972   2.821   1.449   6.078
 8499SOL    HW137973   2.732   1.450   6.032
 8499SOL    HW237974   2.844   1.356   6.105
 8500SOL     OW37975   7.067   2.221   4.573
 8500SOL    HW137976   7.102   2.132   4.544
 8500SOL    HW237977   7.111   2.248   4.658
 8501SOL     OW37978   6.178   2.650   7.329
 8501SOL    HW137979   6.216   2.702   7.405
 8501SOL    HW237980   6.171   2.708   7.248
 8502SOL     OW37981   3.892   0.500   3.697
 8502SOL    HW137982   3.866   0.516   3.792
 8502SOL    HW237983   3.848   0.569   3.639
 8503SOL     OW37984   3.268   2.870   4.127
 8503SOL    HW137985   3.201   2.801   4.156
 8503SOL    HW237986   3.319   2.837   4.049
 8504SOL     OW37987   4.345   2.975   7.212
 8504SOL    HW137988   4.296   2.891   7.231
 8504SOL    HW237989   4.317   3.012   7.124
 8505SOL     OW37990   2.579   6.893   6.157
 8505SOL    HW137991   2.510   6.842   6.106
 8505SOL    HW237992   2.605   6.975   6.107
 8506SOL     OW37993   0.176   0.845   1.711
 8506SOL    HW137994   0.084   0.873   1.739
 8506SOL    HW237995   0.234   0.837   1.793
 8507SOL     OW37996   2.350   5.715   5.623
 8507SOL    HW137997   2.388   5.762   5.543
 8507SOL    HW237998   2.271   5.660   5.595
 8508SOL     OW37999   4.114   5.068   6.057
 8508SOL    HW138000   4.192   5.044   6.115
 8508SOL    HW238001   4.057   4.988   6.043
 8509SOL     OW38002   5.383   6.658   3.784
 8509SOL    HW138003   5.480   6.638   3.775
 8509SOL    HW238004   5.340   6.661   3.694
 8510SOL     OW38005   5.802   3.732   2.717
 8510SOL    HW138006   5.835   3.645   2.754
 8510SOL    HW238007   5.863   3.806   2.746
 8511SOL     OW38008   0.502   3.509   5.283
 8511SOL    HW138009   0.424   3.453   5.253
 8511SOL    HW238010   0.492   3.530   5.380
 8512SOL     OW38011   6.321   4.972   0.267
 8512SOL    HW138012   6.399   4.988   0.205
 8512SOL    HW238013   6.270   4.892   0.236
 8513SOL     OW38014   3.904   2.596   6.035
 8513SOL    HW138015   3.874   2.690   6.018
 8513SOL    HW238016   3.981   2.597   6.099
 8514SOL     OW38017   1.919   2.348   6.883
 8514SOL    HW138018   1.876   2.264   6.913
 8514SOL    HW238019   1.991   2.327   6.816
 8515SOL     OW38020   5.004   1.367   0.228
 8515SOL    HW138021   4.971   1.430   0.158
 8515SOL    HW238022   4.930   1.305   0.255
 8516SOL     OW38023   0.932   3.824   4.975
 8516SOL    HW138024   1.003   3.808   4.906
 8516SOL    HW238025   0.849   3.774   4.949
 8517SOL     OW38026   2.562   5.033   0.612
 8517SOL    HW138027   2.555   5.035   0.712
 8517SOL    HW238028   2.522   4.949   0.577
 8518SOL     OW38029   1.780   0.515   5.676
 8518SOL    HW138030   1.877   0.531   5.662
 8518SOL    HW238031   1.764   0.418   5.694
 8519SOL     OW38032   2.202   6.302   1.924
 8519SOL    HW138033   2.160   6.211   1.921
 8519SOL    HW238034   2.163   6.359   1.852
 8520SOL     OW38035   6.108   1.911   1.538
 8520SOL    HW138036   6.126   2.006   1.512
 8520SOL    HW238037   6.156   1.890   1.623
 8521SOL     OW38038   2.747   3.513   1.851
 8521SOL    HW138039   2.674   3.496   1.918
 8521SOL    HW238040   2.766   3.429   1.800
 8522SOL     OW38041   2.209   6.370   1.251
 8522SOL    HW138042   2.196   6.460   1.292
 8522SOL    HW238043   2.301   6.336   1.272
 8523SOL     OW38044   0.683   4.603   4.419
 8523SOL    HW138045   0.620   4.577   4.492
 8523SOL    HW238046   0.705   4.700   4.427
 8524SOL     OW38047   5.099   2.521   4.076
 8524SOL    HW138048   5.144   2.592   4.022
 8524SOL    HW238049   5.024   2.481   4.023
 8525SOL     OW38050   0.914   4.444   5.192
 8525SOL    HW138051   0.920   4.510   5.267
 8525SOL    HW238052   0.973   4.473   5.117
 8526SOL     OW38053   6.313   0.607   6.495
 8526SOL    HW138054   6.338   0.510   6.493
 8526SOL    HW238055   6.275   0.629   6.585
 8527SOL     OW38056   5.736   0.349   2.768
 8527SOL    HW138057   5.664   0.414   2.745
 8527SOL    HW238058   5.822   0.397   2.780
 8528SOL     OW38059   1.890   5.253   5.881
 8528SOL    HW138060   1.892   5.183   5.952
 8528SOL    HW238061   1.913   5.342   5.920
 8529SOL     OW38062   3.026   1.426   1.546
 8529SOL    HW138063   3.045   1.471   1.634
 8529SOL    HW238064   3.078   1.471   1.474
 8530SOL     OW38065   2.627   7.150   1.153
 8530SOL    HW138066   2.711   7.117   1.196
 8530SOL    HW238067   2.569   7.073   1.129
 8531SOL     OW38068   1.428   2.599   5.846
 8531SOL    HW138069   1.498   2.605   5.775
 8531SOL    HW238070   1.338   2.609   5.804
 8532SOL     OW38071   3.652   1.911   5.784
 8532SOL    HW138072   3.598   1.877   5.860
 8532SOL    HW238073   3.621   2.002   5.758
 8533SOL     OW38074   5.347   5.170   7.168
 8533SOL    HW138075   5.310   5.211   7.084
 8533SOL    HW238076   5.386   5.081   7.147
 8534SOL     OW38077   0.158   3.724   3.697
 8534SOL    HW138078   0.189   3.724   3.792
 8534SOL    HW238079   0.233   3.697   3.637
 8535SOL     OW38080   7.077   3.138   1.550
 8535SOL    HW138081   6.994   3.172   1.595
 8535SOL    HW238082   7.064   3.141   1.451
 8536SOL     OW38083   5.708   0.885   0.947
 8536SOL    HW138084   5.802   0.858   0.925
 8536SOL    HW238085   5.701   0.904   1.045
 8537SOL     OW38086   2.933   2.118   6.892
 8537SOL    HW138087   2.869   2.059   6.942
 8537SOL    HW238088   3.004   2.150   6.954
 8538SOL     OW38089   6.754   2.548   6.921
 8538SOL    HW138090   6.743   2.607   7.001
 8538SOL    HW238091   6.719   2.595   6.840
 8539SOL     OW38092   2.801   3.220   3.178
 8539SOL    HW138093   2.863   3.179   3.245
 8539SOL    HW238094   2.849   3.231   3.091
 8540SOL     OW38095   2.912   2.455   6.512
 8540SOL    HW138096   2.857   2.402   6.447
 8540SOL    HW238097   3.008   2.450   6.485
 8541SOL     OW38098   3.255   2.591   4.812
 8541SOL    HW138099   3.309   2.517   4.853
 8541SOL    HW238100   3.301   2.624   4.730
 8542SOL     OW38101   4.056   4.994   2.322
 8542SOL    HW138102   4.114   4.914   2.337
 8542SOL    HW238103   4.103   5.059   2.262
 8543SOL     OW38104   3.104   5.270   1.369
 8543SOL    HW138105   3.198   5.289   1.339
 8543SOL    HW238106   3.075   5.181   1.335
 8544SOL     OW38107   2.668   4.738   5.415
 8544SOL    HW138108   2.726   4.814   5.385
 8544SOL    HW238109   2.675   4.727   5.514
 8545SOL     OW38110   5.449   6.769   6.575
 8545SOL    HW138111   5.368   6.716   6.599
 8545SOL    HW238112   5.504   6.719   6.508
 8546SOL     OW38113   1.783   4.454   3.274
 8546SOL    HW138114   1.882   4.453   3.266
 8546SOL    HW238115   1.744   4.380   3.219
 8547SOL     OW38116   0.724   5.444   6.467
 8547SOL    HW138117   0.760   5.353   6.448
 8547SOL    HW238118   0.640   5.459   6.414
 8548SOL     OW38119   3.436   7.142   1.782
 8548SOL    HW138120   3.374   7.215   1.754
 8548SOL    HW238121   3.420   7.061   1.726
 8549SOL     OW38122   3.774   7.206   1.520
 8549SOL    HW138123   3.707   7.134   1.500
 8549SOL    HW238124   3.864   7.178   1.486
 8550SOL     OW38125   0.861   3.478   3.019
 8550SOL    HW138126   0.956   3.485   2.988
 8550SOL    HW238127   0.838   3.556   3.077
 8551SOL     OW38128   2.937   6.928   0.529
 8551SOL    HW138129   3.022   6.959   0.571
 8551SOL    HW238130   2.907   6.843   0.573
 8552SOL     OW38131   5.741   6.925   3.323
 8552SOL    HW138132   5.718   6.830   3.301
 8552SOL    HW238133   5.741   6.980   3.240
 8553SOL     OW38134   6.397   1.761   0.603
 8553SOL    HW138135   6.397   1.859   0.586
 8553SOL    HW238136   6.490   1.725   0.593
 8554SOL     OW38137   4.874   3.070   1.912
 8554SOL    HW138138   4.870   3.129   1.832
 8554SOL    HW238139   4.845   2.978   1.888
 8555SOL     OW38140   6.723   1.865   6.203
 8555SOL    HW138141   6.649   1.928   6.225
 8555SOL    HW238142   6.742   1.807   6.283
 8556SOL     OW38143   2.459   2.020   2.002
 8556SOL    HW138144   2.496   1.951   2.065
 8556SOL    HW238145   2.376   2.059   2.040
 8557SOL     OW38146   1.444   3.110   4.419
 8557SOL    HW138147   1.467   3.153   4.332
 8557SOL    HW238148   1.522   3.057   4.451
 8558SOL     OW38149   2.852   1.637   1.865
 8558SOL    HW138150   2.756   1.615   1.886
 8558SOL    HW238151   2.906   1.553   1.868
 8559SOL     OW38152   5.530   4.313   4.261
 8559SOL    HW138153   5.465   4.385   4.286
 8559SOL    HW238154   5.495   4.261   4.184
 8560SOL     OW38155   2.771   1.253   0.608
 8560SOL    HW138156   2.834   1.235   0.684
 8560SOL    HW238157   2.818   1.304   0.536
 8561SOL     OW38158   0.778   1.976   6.431
 8561SOL    HW138159   0.821   2.039   6.366
 8561SOL    HW238160   0.802   2.003   6.524
 8562SOL     OW38161   4.010   0.683   1.105
 8562SOL    HW138162   4.051   0.619   1.169
 8562SOL    HW238163   4.017   0.646   1.012
 8563SOL     OW38164   5.509   3.967   7.236
 8563SOL    HW138165   5.442   4.023   7.189
 8563SOL    HW238166   5.572   3.927   7.168
 8564SOL     OW38167   4.217   4.955   2.676
 8564SOL    HW138168   4.118   4.965   2.675
 8564SOL    HW238169   4.254   4.976   2.586
 8565SOL     OW38170   3.897   6.285   0.338
 8565SOL    HW138171   3.920   6.196   0.377
 8565SOL    HW238172   3.978   6.345   0.340
 8566SOL     OW38173   6.644   1.158   7.223
 8566SOL    HW138174   6.604   1.197   7.140
 8566SOL    HW238175   6.660   1.232   7.289
 8567SOL     OW38176   7.050   2.084   0.397
 8567SOL    HW138177   7.115   2.049   0.330
 8567SOL    HW238178   6.959   2.047   0.378
 8568SOL     OW38179   5.273   5.966   2.790
 8568SOL    HW138180   5.330   5.911   2.729
 8568SOL    HW238181   5.235   5.907   2.862
 8569SOL     OW38182   7.241   3.757   4.744
 8569SOL    HW138183   7.201   3.819   4.812
 8569SOL    HW238184   7.209   3.664   4.761
 8570SOL     OW38185   6.323   5.694   4.522
 8570SOL    HW138186   6.257   5.694   4.447
 8570SOL    HW238187   6.302   5.768   4.585
 8571SOL     OW38188   5.148   3.359   5.758
 8571SOL    HW138189   5.080   3.422   5.721
 8571SOL    HW238190   5.115   3.321   5.844
 8572SOL     OW38191   6.066   6.611   5.632
 8572SOL    HW138192   6.140   6.553   5.599
 8572SOL    HW238193   5.978   6.567   5.617
 8573SOL     OW38194   6.319   2.341   1.048
 8573SOL    HW138195   6.231   2.359   1.004
 8573SOL    HW238196   6.391   2.391   0.999
 8574SOL     OW38197   5.626   5.579   6.357
 8574SOL    HW138198   5.623   5.600   6.455
 8574SOL    HW238199   5.673   5.492   6.343
 8575SOL     OW38200   2.726   6.436   5.645
 8575SOL    HW138201   2.637   6.398   5.674
 8575SOL    HW238202   2.798   6.398   5.703
 8576SOL     OW38203   4.986   0.130   7.274
 8576SOL    HW138204   4.914   0.177   7.326
 8576SOL    HW238205   4.983   0.032   7.294
 8577SOL     OW38206   3.839   6.338   7.207
 8577SOL    HW138207   3.877   6.375   7.292
 8577SOL    HW238208   3.757   6.389   7.182
 8578SOL     OW38209   4.141   4.180   2.045
 8578SOL    HW138210   4.196   4.259   2.020
 8578SOL    HW238211   4.085   4.152   1.966
 8579SOL     OW38212   6.550   2.916   0.190
 8579SOL    HW138213   6.585   2.933   0.098
 8579SOL    HW238214   6.600   2.840   0.231
 8580SOL     OW38215   2.551   2.598   2.890
 8580SOL    HW138216   2.549   2.574   2.793
 8580SOL    HW238217   2.535   2.696   2.900
 8581SOL     OW38218   0.964   5.397   6.891
 8581SOL    HW138219   0.870   5.418   6.919
 8581SOL    HW238220   0.967   5.304   6.854
 8582SOL     OW38221   1.525   1.480   7.065
 8582SOL    HW138222   1.619   1.502   7.092
 8582SOL    HW238223   1.526   1.436   6.975
 8583SOL     OW38224   3.689   5.829   5.795
 8583SOL    HW138225   3.751   5.752   5.774
 8583SOL    HW238226   3.608   5.823   5.736
 8584SOL     OW38227   3.752   0.382   5.912
 8584SOL    HW138228   3.803   0.377   5.826
 8584SOL    HW238229   3.722   0.290   5.938
 8585SOL     OW38230   0.861   4.840   5.787
 8585SOL    HW138231   0.948   4.792   5.788
 8585SOL    HW238232   0.786   4.774   5.790
 8586SOL     OW38233   2.046   2.269   0.105
 8586SOL    HW138234   1.971   2.215   0.144
 8586SOL    HW238235   2.084   2.329   0.176
 8587SOL     OW38236   4.012   0.728   5.121
 8587SOL    HW138237   3.915   0.722   5.098
 8587SOL    HW238238   4.056   0.640   5.102
 8588SOL     OW38239   3.640   5.326   3.727
 8588SOL    HW138240   3.667   5.286   3.814
 8588SOL    HW238241   3.685   5.278   3.652
 8589SOL     OW38242   4.429   4.421   5.668
 8589SOL    HW138243   4.491   4.440   5.744
 8589SOL    HW238244   4.437   4.324   5.642
 8590SOL     OW38245   3.550   6.770   6.693
 8590SOL    HW138246   3.543   6.813   6.603
 8590SOL    HW238247   3.557   6.840   6.763
 8591SOL     OW38248   3.791   4.225   6.432
 8591SOL    HW138249   3.817   4.187   6.521
 8591SOL    HW238250   3.735   4.159   6.383
 8592SOL     OW38251   4.331   2.735   3.172
 8592SOL    HW138252   4.376   2.778   3.093
 8592SOL    HW238253   4.277   2.804   3.221
 8593SOL     OW38254   6.363   1.545   7.279
 8593SOL    HW138255   6.330   1.519   7.370
 8593SOL    HW238256   6.329   1.480   7.211
 8594SOL     OW38257   6.991   0.632   0.346
 8594SOL    HW138258   7.001   0.613   0.443
 8594SOL    HW238259   6.935   0.714   0.333
 8595SOL     OW38260   4.229   1.098   5.943
 8595SOL    HW138261   4.219   1.003   5.973
 8595SOL    HW238262   4.222   1.159   6.021
 8596SOL     OW38263   6.345   1.061   0.467
 8596SOL    HW138264   6.392   0.976   0.489
 8596SOL    HW238265   6.413   1.132   0.446
 8597SOL     OW38266   2.848   1.658   1.352
 8597SOL    HW138267   2.859   1.579   1.291
 8597SOL    HW238268   2.838   1.741   1.298
 8598SOL     OW38269   4.810   6.940   0.171
 8598SOL    HW138270   4.772   6.997   0.098
 8598SOL    HW238271   4.788   6.980   0.260
 8599SOL     OW38272   1.556   2.189   4.477
 8599SOL    HW138273   1.488   2.118   4.490
 8599SOL    HW238274   1.570   2.205   4.379
 8600SOL     OW38275   5.332   2.389   1.766
 8600SOL    HW138276   5.267   2.459   1.796
 8600SOL    HW238277   5.333   2.314   1.832
 8601SOL     OW38278   4.564   4.668   5.281
 8601SOL    HW138279   4.571   4.569   5.292
 8601SOL    HW238280   4.629   4.698   5.212
 8602SOL     OW38281   0.001   6.810   6.286
 8602SOL    HW138282   0.060   6.877   6.242
 8602SOL    HW238283   0.026   6.718   6.256
 8603SOL     OW38284   6.265   3.252   2.050
 8603SOL    HW138285   6.218   3.171   2.087
 8603SOL    HW238286   6.363   3.242   2.064
 8604SOL     OW38287   2.971   5.810   2.219
 8604SOL    HW138288   2.945   5.760   2.302
 8604SOL    HW238289   2.998   5.903   2.244
 8605SOL     OW38290   3.777   0.696   3.941
 8605SOL    HW138291   3.678   0.709   3.947
 8605SOL    HW238292   3.799   0.600   3.956
 8606SOL     OW38293   2.993   4.140   5.360
 8606SOL    HW138294   3.061   4.214   5.365
 8606SOL    HW238295   3.011   4.073   5.432
 8607SOL     OW38296   5.047   1.925   6.173
 8607SOL    HW138297   5.104   2.007   6.160
 8607SOL    HW238298   4.958   1.940   6.132
 8608SOL     OW38299   4.058   4.586   5.025
 8608SOL    HW138300   4.098   4.584   4.934
 8608SOL    HW238301   4.130   4.586   5.094
 8609SOL     OW38302   1.017   5.716   6.803
 8609SOL    HW138303   0.938   5.691   6.747
 8609SOL    HW238304   1.034   5.645   6.871
 8610SOL     OW38305   1.672   6.045   6.530
 8610SOL    HW138306   1.582   6.073   6.496
 8610SOL    HW238307   1.728   6.127   6.545
 8611SOL     OW38308   1.109   4.375   6.979
 8611SOL    HW138309   1.145   4.306   7.041
 8611SOL    HW238310   1.056   4.331   6.907
 8612SOL     OW38311   1.887   0.788   6.237
 8612SOL    HW138312   1.809   0.727   6.251
 8612SOL    HW238313   1.969   0.747   6.277
 8613SOL     OW38314   3.680   0.335   6.659
 8613SOL    HW138315   3.588   0.296   6.657
 8613SOL    HW238316   3.693   0.388   6.743
 8614SOL     OW38317   1.500   4.265   7.245
 8614SOL    HW138318   1.484   4.349   7.194
 8614SOL    HW238319   1.598   4.255   7.262
 8615SOL     OW38320   0.063   2.784   0.745
 8615SOL    HW138321   0.009   2.743   0.818
 8615SOL    HW238322   0.009   2.857   0.702
 8616SOL     OW38323   6.019   5.141   1.733
 8616SOL    HW138324   6.075   5.204   1.680
 8616SOL    HW238325   5.929   5.182   1.748
 8617SOL     OW38326   2.647   7.282   2.103
 8617SOL    HW138327   2.653   7.309   2.007
 8617SOL    HW238328   2.559   7.313   2.140
 8618SOL     OW38329   7.333   0.859   0.945
 8618SOL    HW138330   7.286   0.858   1.033
 8618SOL    HW238331   7.361   0.952   0.924
 8619SOL     OW38332   0.567   1.304   0.392
 8619SOL    HW138333   0.640   1.329   0.456
 8619SOL    HW238334   0.605   1.249   0.318
 8620SOL     OW38335   5.379   6.242   1.529
 8620SOL    HW138336   5.335   6.242   1.619
 8620SOL    HW238337   5.308   6.234   1.458
 8621SOL     OW38338   3.257   4.180   4.313
 8621SOL    HW138339   3.250   4.272   4.350
 8621SOL    HW238340   3.168   4.134   4.319
 8622SOL     OW38341   6.361   7.203   4.795
 8622SOL    HW138342   6.330   7.167   4.883
 8622SOL    HW238343   6.313   7.289   4.775
 8623SOL     OW38344   3.505   3.045   2.330
 8623SOL    HW138345   3.457   3.009   2.410
 8623SOL    HW238346   3.478   3.139   2.314
 8624SOL     OW38347   4.890   6.392   5.686
 8624SOL    HW138348   4.864   6.371   5.592
 8624SOL    HW238349   4.989   6.384   5.696
 8625SOL     OW38350   2.963   2.444   3.050
 8625SOL    HW138351   2.991   2.537   3.023
 8625SOL    HW238352   2.884   2.450   3.111
 8626SOL     OW38353   5.789   2.694   1.377
 8626SOL    HW138354   5.838   2.641   1.308
 8626SOL    HW238355   5.811   2.657   1.468
 8627SOL     OW38356   2.305   1.342   2.106
 8627SOL    HW138357   2.391   1.364   2.152
 8627SOL    HW238358   2.243   1.421   2.111
 8628SOL     OW38359   7.157   6.303   7.143
 8628SOL    HW138360   7.063   6.334   7.133
 8628SOL    HW238361   7.166   6.250   7.228
 8629SOL     OW38362   3.170   7.278   0.187
 8629SOL    HW138363   3.097   7.258   0.253
 8629SOL    HW238364   3.251   7.309   0.237
 8630SOL     OW38365   3.977   1.145   1.052
 8630SOL    HW138366   3.885   1.156   1.014
 8630SOL    HW238367   3.976   1.073   1.122
 8631SOL     OW38368   7.037   2.516   6.968
 8631SOL    HW138369   7.072   2.426   6.996
 8631SOL    HW238370   6.938   2.510   6.955
 8632SOL     OW38371   4.023   2.765   5.134
 8632SOL    HW138372   4.002   2.852   5.178
 8632SOL    HW238373   4.078   2.782   5.051
 8633SOL     OW38374   5.026   7.174   3.068
 8633SOL    HW138375   5.103   7.204   3.124
 8633SOL    HW238376   5.029   7.221   2.980
 8634SOL     OW38377   5.880   1.934   6.603
 8634SOL    HW138378   5.849   1.839   6.595
 8634SOL    HW238379   5.962   1.947   6.548
 8635SOL     OW38380   6.446   4.297   3.623
 8635SOL    HW138381   6.384   4.221   3.643
 8635SOL    HW238382   6.484   4.287   3.532
 8636SOL     OW38383   5.226   0.606   6.590
 8636SOL    HW138384   5.260   0.513   6.596
 8636SOL    HW238385   5.270   0.662   6.660
 8637SOL     OW38386   4.883   0.648   6.539
 8637SOL    HW138387   4.947   0.639   6.463
 8637SOL    HW238388   4.813   0.715   6.516
 8638SOL     OW38389   1.432   0.183   5.827
 8638SOL    HW138390   1.376   0.116   5.875
 8638SOL    HW238391   1.405   0.275   5.856
 8639SOL     OW38392   6.188   0.665   6.729
 8639SOL    HW138393   6.100   0.711   6.738
 8639SOL    HW238394   6.253   0.706   6.793
 8640SOL     OW38395   3.749   3.110   0.041
 8640SOL    HW138396   3.721   3.107  -0.055
 8640SOL    HW238397   3.840   3.152   0.048
 8641SOL     OW38398   5.774   2.199   5.485
 8641SOL    HW138399   5.758   2.124   5.549
 8641SOL    HW238400   5.719   2.278   5.512
 8642SOL     OW38401   4.346   3.017   4.694
 8642SOL    HW138402   4.356   3.085   4.621
 8642SOL    HW238403   4.330   3.063   4.781
 8643SOL     OW38404   4.071   3.346   3.172
 8643SOL    HW138405   3.992   3.292   3.142
 8643SOL    HW238406   4.093   3.415   3.102
 8644SOL     OW38407   0.247   4.200   7.007
 8644SOL    HW138408   0.162   4.190   6.955
 8644SOL    HW238409   0.297   4.279   6.973
 8645SOL     OW38410   3.298   3.934   2.210
 8645SOL    HW138411   3.257   4.013   2.258
 8645SOL    HW238412   3.225   3.871   2.182
 8646SOL     OW38413   3.966   6.306   5.289
 8646SOL    HW138414   3.903   6.369   5.243
 8646SOL    HW238415   3.943   6.212   5.265
 8647SOL     OW38416   0.909   3.396   6.558
 8647SOL    HW138417   0.966   3.322   6.596
 8647SOL    HW238418   0.889   3.463   6.630
 8648SOL     OW38419   1.765   3.916   4.805
 8648SOL    HW138420   1.738   3.841   4.866
 8648SOL    HW238421   1.837   3.885   4.744
 8649SOL     OW38422   0.636   1.822   2.787
 8649SOL    HW138423   0.539   1.799   2.799
 8649SOL    HW238424   0.674   1.764   2.715
 8650SOL     OW38425   0.154   3.295   2.996
 8650SOL    HW138426   0.162   3.380   3.047
 8650SOL    HW238427   0.245   3.253   2.987
 8651SOL     OW38428   6.668   5.237   6.897
 8651SOL    HW138429   6.743   5.303   6.888
 8651SOL    HW238430   6.701   5.146   6.868
 8652SOL     OW38431   0.996   0.115   7.317
 8652SOL    HW138432   0.898   0.102   7.303
 8652SOL    HW238433   1.011   0.168   7.401
 8653SOL     OW38434   1.068   0.975   1.649
 8653SOL    HW138435   1.102   0.927   1.569
 8653SOL    HW238436   1.135   1.044   1.677
 8654SOL     OW38437   0.636   2.551   2.928
 8654SOL    HW138438   0.542   2.521   2.946
 8654SOL    HW238439   0.694   2.525   3.006
 8655SOL     OW38440   3.248   2.867   1.823
 8655SOL    HW138441   3.180   2.817   1.876
 8655SOL    HW238442   3.203   2.942   1.774
 8656SOL     OW38443   2.153   3.226   0.536
 8656SOL    HW138444   2.223   3.270   0.592
 8656SOL    HW238445   2.187   3.137   0.504
 8657SOL     OW38446   3.198   6.201   1.554
 8657SOL    HW138447   3.243   6.231   1.638
 8657SOL    HW238448   3.102   6.228   1.557
 8658SOL     OW38449   0.522   3.737   4.377
 8658SOL    HW138450   0.528   3.744   4.476
 8658SOL    HW238451   0.460   3.808   4.342
 8659SOL     OW38452   3.948   1.139   1.825
 8659SOL    HW138453   3.871   1.096   1.778
 8659SOL    HW238454   3.956   1.101   1.917
 8660SOL     OW38455   4.276   1.232   2.534
 8660SOL    HW138456   4.238   1.148   2.573
 8660SOL    HW238457   4.376   1.227   2.532
 8661SOL     OW38458   5.125   3.487   4.207
 8661SOL    HW138459   5.141   3.515   4.112
 8661SOL    HW238460   5.174   3.548   4.269
 8662SOL     OW38461   6.025   5.581   1.348
 8662SOL    HW138462   6.048   5.553   1.255
 8662SOL    HW238463   5.944   5.531   1.379
 8663SOL     OW38464   2.511   0.978   6.061
 8663SOL    HW138465   2.473   0.890   6.088
 8663SOL    HW238466   2.604   0.986   6.097
 8664SOL     OW38467   3.623   4.174   0.074
 8664SOL    HW138468   3.573   4.088   0.082
 8664SOL    HW238469   3.721   4.157   0.084
 8665SOL     OW38470   0.285   1.425   3.643
 8665SOL    HW138471   0.355   1.356   3.661
 8665SOL    HW238472   0.224   1.392   3.571
 8666SOL     OW38473   1.083   3.991   3.592
 8666SOL    HW138474   1.130   3.922   3.536
 8666SOL    HW238475   0.985   3.973   3.593
 8667SOL     OW38476   2.122   1.283   6.724
 8667SOL    HW138477   2.112   1.237   6.636
 8667SOL    HW238478   2.208   1.255   6.767
 8668SOL     OW38479   6.617   5.087   3.912
 8668SOL    HW138480   6.518   5.086   3.900
 8668SOL    HW238481   6.658   5.146   3.842
 8669SOL     OW38482   3.018   2.665   5.569
 8669SOL    HW138483   2.961   2.601   5.621
 8669SOL    HW238484   3.101   2.618   5.539
 8670SOL     OW38485   0.436   6.843   0.615
 8670SOL    HW138486   0.528   6.881   0.629
 8670SOL    HW238487   0.392   6.890   0.539
 8671SOL     OW38488   1.528   4.419   7.000
 8671SOL    HW138489   1.552   4.503   6.952
 8671SOL    HW238490   1.455   4.371   6.952
 8672SOL     OW38491   3.366   4.868   5.795
 8672SOL    HW138492   3.435   4.846   5.726
 8672SOL    HW238493   3.294   4.798   5.794
 8673SOL     OW38494   1.045   1.593   2.518
 8673SOL    HW138495   1.040   1.493   2.510
 8673SOL    HW238496   1.131   1.618   2.562
 8674SOL     OW38497   4.578   0.379   6.919
 8674SOL    HW138498   4.505   0.357   6.984
 8674SOL    HW238499   4.539   0.425   6.839
 8675SOL     OW38500   4.321   1.169   1.376
 8675SOL    HW138501   4.274   1.092   1.419
 8675SOL    HW238502   4.326   1.153   1.277
 8676SOL     OW38503   6.937   2.835   2.080
 8676SOL    HW138504   6.993   2.891   2.141
 8676SOL    HW238505   6.985   2.820   1.994
 8677SOL     OW38506   1.711   4.857   4.234
 8677SOL    HW138507   1.669   4.767   4.243
 8677SOL    HW238508   1.786   4.866   4.300
 8678SOL     OW38509   2.389   2.796   5.793
 8678SOL    HW138510   2.463   2.748   5.746
 8678SOL    HW238511   2.424   2.877   5.839
 8679SOL     OW38512   2.421   5.027   6.179
 8679SOL    HW138513   2.348   5.022   6.247
 8679SOL    HW238514   2.463   4.936   6.169
 8680SOL     OW38515   2.597   5.915   6.707
 8680SOL    HW138516   2.576   5.979   6.633
 8680SOL    HW238517   2.607   5.965   6.793
 8681SOL     OW38518   3.596   0.022   0.845
 8681SOL    HW138519   3.685   0.018   0.890
 8681SOL    HW238520   3.584   0.111   0.801
 8682SOL     OW38521   2.873   1.181   6.183
 8682SOL    HW138522   2.950   1.181   6.247
 8682SOL    HW238523   2.826   1.093   6.187
 8683SOL     OW38524   4.537   2.496   1.172
 8683SOL    HW138525   4.512   2.571   1.110
 8683SOL    HW238526   4.622   2.454   1.140
 8684SOL     OW38527   3.455   5.038   4.458
 8684SOL    HW138528   3.442   4.949   4.502
 8684SOL    HW238529   3.453   5.110   4.528
 8685SOL     OW38530   2.204   4.142   4.302
 8685SOL    HW138531   2.106   4.129   4.290
 8685SOL    HW238532   2.221   4.192   4.387
 8686SOL     OW38533   4.794   0.012   5.065
 8686SOL    HW138534   4.746  -0.006   4.979
 8686SOL    HW238535   4.891  -0.010   5.054
 8687SOL     OW38536   5.531   2.794   5.270
 8687SOL    HW138537   5.518   2.695   5.273
 8687SOL    HW238538   5.553   2.827   5.362
 8688SOL     OW38539   7.070   5.802   5.205
 8688SOL    HW138540   7.029   5.752   5.282
 8688SOL    HW238541   7.087   5.738   5.130
 8689SOL     OW38542   3.462   3.434   1.355
 8689SOL    HW138543   3.397   3.377   1.305
 8689SOL    HW238544   3.419   3.465   1.441
 8690SOL     OW38545   5.579   1.420   3.806
 8690SOL    HW138546   5.649   1.426   3.735
 8690SOL    HW238547   5.499   1.372   3.771
 8691SOL     OW38548   1.132   2.669   0.713
 8691SOL    HW138549   1.084   2.742   0.664
 8691SOL    HW238550   1.079   2.644   0.794
 8692SOL     OW38551   5.287   4.582   4.857
 8692SOL    HW138552   5.358   4.537   4.801
 8692SOL    HW238553   5.310   4.678   4.868
 8693SOL     OW38554   6.612   2.369   7.028
 8693SOL    HW138555   6.659   2.282   7.045
 8693SOL    HW238556   6.667   2.425   6.967
 8694SOL     OW38557   5.387   7.087   1.289
 8694SOL    HW138558   5.468   7.094   1.346
 8694SOL    HW238559   5.381   7.167   1.229
 8695SOL     OW38560   0.317   2.828   3.780
 8695SOL    HW138561   0.322   2.899   3.851
 8695SOL    HW238562   0.301   2.739   3.823
 8696SOL     OW38563   3.459   1.848   5.976
 8696SOL    HW138564   3.491   1.845   6.071
 8696SOL    HW238565   3.364   1.880   5.974
 8697SOL     OW38566   4.251   6.694   5.715
 8697SOL    HW138567   4.304   6.767   5.674
 8697SOL    HW238568   4.259   6.698   5.815
 8698SOL     OW38569   5.720   2.839   4.007
 8698SOL    HW138570   5.795   2.873   4.064
 8698SOL    HW238571   5.665   2.774   4.059
 8699SOL     OW38572   6.674   5.072   2.314
 8699SOL    HW138573   6.709   5.163   2.339
 8699SOL    HW238574   6.732   5.034   2.241
 8700SOL     OW38575   6.269   0.070   5.500
 8700SOL    HW138576   6.192   0.033   5.552
 8700SOL    HW238577   6.323   0.130   5.559
 8701SOL     OW38578   0.554   3.150   2.092
 8701SOL    HW138579   0.512   3.241   2.094
 8701SOL    HW238580   0.506   3.089   2.154
 8702SOL     OW38581   0.786   4.365   2.364
 8702SOL    HW138582   0.718   4.395   2.297
 8702SOL    HW238583   0.787   4.430   2.441
 8703SOL     OW38584   4.806   6.498   3.226
 8703SOL    HW138585   4.796   6.499   3.126
 8703SOL    HW238586   4.858   6.579   3.254
 8704SOL     OW38587   0.997   7.000   6.876
 8704SOL    HW138588   1.065   7.070   6.897
 8704SOL    HW238589   0.915   7.043   6.840
 8705SOL     OW38590   5.654   7.301   6.744
 8705SOL    HW138591   5.613   7.230   6.686
 8705SOL    HW238592   5.684   7.260   6.830
 8706SOL     OW38593   3.103   4.497   1.101
 8706SOL    HW138594   3.094   4.588   1.142
 8706SOL    HW238595   3.143   4.506   1.009
 8707SOL     OW38596   7.097   3.001   2.278
 8707SOL    HW138597   7.133   3.072   2.217
 8707SOL    HW238598   7.118   3.025   2.373
 8708SOL     OW38599   5.568   4.824   6.794
 8708SOL    HW138600   5.520   4.737   6.794
 8708SOL    HW238601   5.661   4.811   6.759
 8709SOL     OW38602   0.046   4.472   6.837
 8709SOL    HW138603   0.005   4.556   6.799
 8709SOL    HW238604   0.006   4.393   6.792
 8710SOL     OW38605   1.678   2.875   1.838
 8710SOL    HW138606   1.663   2.792   1.890
 8710SOL    HW238607   1.740   2.857   1.762
 8711SOL     OW38608   6.638   0.897   6.503
 8711SOL    HW138609   6.666   0.976   6.557
 8711SOL    HW238610   6.688   0.896   6.417
 8712SOL     OW38611   0.434   4.579   0.368
 8712SOL    HW138612   0.345   4.537   0.379
 8712SOL    HW238613   0.503   4.526   0.417
 8713SOL     OW38614   1.321   5.346   2.292
 8713SOL    HW138615   1.302   5.381   2.384
 8713SOL    HW238616   1.323   5.246   2.295
 8714SOL     OW38617   0.559   0.851   2.580
 8714SOL    HW138618   0.494   0.894   2.642
 8714SOL    HW238619   0.545   0.887   2.487
 8715SOL     OW38620   7.262   1.468   2.588
 8715SOL    HW138621   7.180   1.411   2.600
 8715SOL    HW238622   7.237   1.564   2.599
 8716SOL     OW38623   5.907   6.626   6.830
 8716SOL    HW138624   5.933   6.577   6.913
 8716SOL    HW238625   5.985   6.631   6.769
 8717SOL     OW38626   0.697   3.687   1.179
 8717SOL    HW138627   0.784   3.713   1.138
 8717SOL    HW238628   0.626   3.685   1.108
 8718SOL     OW38629   5.864   6.871   1.706
 8718SOL    HW138630   5.867   6.969   1.685
 8718SOL    HW238631   5.835   6.859   1.801
 8719SOL     OW38632   2.089   3.005   2.749
 8719SOL    HW138633   2.065   3.101   2.741
 8719SOL    HW238634   2.006   2.951   2.764
 8720SOL     OW38635   1.421   3.424   5.418
 8720SOL    HW138636   1.433   3.507   5.472
 8720SOL    HW238637   1.331   3.424   5.376
 8721SOL     OW38638   1.090   2.168   1.415
 8721SOL    HW138639   1.054   2.225   1.341
 8721SOL    HW238640   1.028   2.093   1.432
 8722SOL     OW38641   3.023   5.654   1.300
 8722SOL    HW138642   2.958   5.584   1.329
 8722SOL    HW238643   2.981   5.745   1.309
 8723SOL     OW38644   0.881   3.723   0.009
 8723SOL    HW138645   0.857   3.705   0.105
 8723SOL    HW238646   0.809   3.778  -0.033
 8724SOL     OW38647   5.315   3.391   3.951
 8724SOL    HW138648   5.228   3.406   3.905
 8724SOL    HW238649   5.313   3.303   3.999
 8725SOL     OW38650   2.148   5.158   3.827
 8725SOL    HW138651   2.140   5.193   3.734
 8725SOL    HW238652   2.234   5.191   3.868
 8726SOL     OW38653   6.963   1.077   6.911
 8726SOL    HW138654   6.971   1.176   6.920
 8726SOL    HW238655   7.020   1.044   6.836
 8727SOL     OW38656   6.423   3.276   3.437
 8727SOL    HW138657   6.428   3.347   3.508
 8727SOL    HW238658   6.397   3.319   3.350
 8728SOL     OW38659   0.434   2.727   1.104
 8728SOL    HW138660   0.502   2.713   1.176
 8728SOL    HW238661   0.480   2.750   1.018
 8729SOL     OW38662   3.845   6.940   4.230
 8729SOL    HW138663   3.763   6.934   4.172
 8729SOL    HW238664   3.854   7.033   4.265
 8730SOL     OW38665   5.615   0.377   4.398
 8730SOL    HW138666   5.632   0.403   4.493
 8730SOL    HW238667   5.644   0.282   4.384
 8731SOL     OW38668   4.676   7.119   1.623
 8731SOL    HW138669   4.742   7.173   1.676
 8731SOL    HW238670   4.701   7.023   1.627
 8732SOL     OW38671   3.108   6.600   1.282
 8732SOL    HW138672   3.198   6.626   1.247
 8732SOL    HW238673   3.061   6.681   1.317
 8733SOL     OW38674   4.267   6.728   3.629
 8733SOL    HW138675   4.309   6.685   3.548
 8733SOL    HW238676   4.311   6.816   3.646
 8734SOL     OW38677   4.531   3.142   6.249
 8734SOL    HW138678   4.562   3.233   6.224
 8734SOL    HW238679   4.589   3.105   6.322
 8735SOL     OW38680   4.868   0.954   6.463
 8735SOL    HW138681   4.836   0.911   6.378
 8735SOL    HW238682   4.889   1.050   6.445
 8736SOL     OW38683   3.822   5.153   7.106
 8736SOL    HW138684   3.844   5.064   7.147
 8736SOL    HW238685   3.815   5.222   7.178
 8737SOL     OW38686   4.842   7.256   1.783
 8737SOL    HW138687   4.930   7.297   1.809
 8737SOL    HW238688   4.771   7.287   1.847
 8738SOL     OW38689   3.962   1.451   6.734
 8738SOL    HW138690   3.893   1.380   6.746
 8738SOL    HW238691   4.049   1.410   6.708
 8739SOL     OW38692   4.758   4.479   6.653
 8739SOL    HW138693   4.672   4.506   6.608
 8739SOL    HW238694   4.772   4.381   6.642
 8740SOL     OW38695   5.865   3.742   3.076
 8740SOL    HW138696   5.957   3.728   3.041
 8740SOL    HW238697   5.863   3.727   3.174
 8741SOL     OW38698   7.015   2.779   3.607
 8741SOL    HW138699   7.066   2.761   3.691
 8741SOL    HW238700   7.060   2.733   3.530
 8742SOL     OW38701   0.585   4.500   0.134
 8742SOL    HW138702   0.534   4.531   0.214
 8742SOL    HW238703   0.678   4.476   0.161
 8743SOL     OW38704   5.973   5.425   0.416
 8743SOL    HW138705   5.911   5.454   0.343
 8743SOL    HW238706   6.037   5.357   0.381
 8744SOL     OW38707   3.618   4.245   6.113
 8744SOL    HW138708   3.669   4.330   6.127
 8744SOL    HW238709   3.595   4.235   6.017
 8745SOL     OW38710   7.258   5.241   7.064
 8745SOL    HW138711   7.283   5.281   6.976
 8745SOL    HW238712   7.271   5.142   7.061
 8746SOL     OW38713   3.133   0.326   7.233
 8746SOL    HW138714   3.224   0.346   7.269
 8746SOL    HW238715   3.076   0.287   7.305
 8747SOL     OW38716   3.867   7.261   0.861
 8747SOL    HW138717   3.801   7.186   0.856
 8747SOL    HW238718   3.875   7.292   0.955
 8748SOL     OW38719   1.918   3.691   2.965
 8748SOL    HW138720   1.863   3.614   2.996
 8748SOL    HW238721   2.015   3.666   2.968
 8749SOL     OW38722   0.008   2.480   0.669
 8749SOL    HW138723   0.049   2.571   0.679
 8749SOL    HW238724  -0.046   2.477   0.586
 8750SOL     OW38725   6.658   4.603   2.690
 8750SOL    HW138726   6.678   4.577   2.596
 8750SOL    HW238727   6.631   4.522   2.742
 8751SOL     OW38728   5.792   6.469   4.581
 8751SOL    HW138729   5.803   6.545   4.645
 8751SOL    HW238730   5.815   6.499   4.489
 8752SOL     OW38731   2.551   1.678   1.674
 8752SOL    HW138732   2.577   1.765   1.633
 8752SOL    HW238733   2.485   1.694   1.748
 8753SOL     OW38734   4.405   7.171   3.886
 8753SOL    HW138735   4.459   7.139   3.964
 8753SOL    HW238736   4.434   7.263   3.862
 8754SOL     OW38737   2.382   5.239   2.079
 8754SOL    HW138738   2.457   5.299   2.052
 8754SOL    HW238739   2.417   5.147   2.096
 8755SOL     OW38740   5.275   4.616   7.100
 8755SOL    HW138741   5.346   4.548   7.117
 8755SOL    HW238742   5.247   4.613   7.004
 8756SOL     OW38743   2.499   1.677   7.127
 8756SOL    HW138744   2.492   1.735   7.208
 8756SOL    HW238745   2.467   1.585   7.148
 8757SOL     OW38746   3.088   0.167   0.122
 8757SOL    HW138747   3.002   0.144   0.076
 8757SOL    HW238748   3.136   0.082   0.145
 8758SOL     OW38749   2.301   2.293   0.429
 8758SOL    HW138750   2.252   2.367   0.382
 8758SOL    HW238751   2.282   2.206   0.383
 8759SOL     OW38752   5.944   6.577   3.286
 8759SOL    HW138753   5.953   6.479   3.273
 8759SOL    HW238754   5.975   6.625   3.204
 8760SOL     OW38755   1.074   1.610   3.961
 8760SOL    HW138756   1.169   1.640   3.974
 8760SOL    HW238757   1.020   1.686   3.925
 8761SOL     OW38758   5.794   1.977   1.746
 8761SOL    HW138759   5.867   2.042   1.727
 8761SOL    HW238760   5.819   1.887   1.710
 8762SOL     OW38761   4.038   1.570   7.214
 8762SOL    HW138762   4.003   1.476   7.217
 8762SOL    HW238763   3.966   1.632   7.184
 8763SOL     OW38764   1.019   0.111   1.429
 8763SOL    HW138765   0.976   0.020   1.425
 8763SOL    HW238766   0.949   0.179   1.453
 8764SOL     OW38767   4.461   3.538   6.315
 8764SOL    HW138768   4.390   3.494   6.260
 8764SOL    HW238769   4.448   3.514   6.411
 8765SOL     OW38770   6.138   0.389   6.372
 8765SOL    HW138771   6.212   0.359   6.433
 8765SOL    HW238772   6.064   0.427   6.427
 8766SOL     OW38773   3.659   1.913   0.988
 8766SOL    HW138774   3.736   1.872   1.037
 8766SOL    HW238775   3.577   1.908   1.044
 8767SOL     OW38776   4.576   6.373   6.232
 8767SOL    HW138777   4.509   6.345   6.300
 8767SOL    HW238778   4.650   6.307   6.228
 8768SOL     OW38779   3.559   0.796   3.368
 8768SOL    HW138780   3.579   0.756   3.279
 8768SOL    HW238781   3.467   0.836   3.367
 8769SOL     OW38782   2.919   4.213   1.493
 8769SOL    HW138783   2.948   4.169   1.408
 8769SOL    HW238784   2.999   4.252   1.538
 8770SOL     OW38785   0.743   2.002   0.599
 8770SOL    HW138786   0.656   1.954   0.584
 8770SOL    HW238787   0.818   1.936   0.595
 8771SOL     OW38788   5.596   3.413   0.259
 8771SOL    HW138789   5.570   3.443   0.350
 8771SOL    HW238790   5.526   3.441   0.193
 8772SOL     OW38791   6.838   2.163   2.604
 8772SOL    HW138792   6.757   2.136   2.552
 8772SOL    HW238793   6.877   2.083   2.650
 8773SOL     OW38794   4.099   1.975   7.255
 8773SOL    HW138795   4.006   1.990   7.222
 8773SOL    HW238796   4.100   1.897   7.318
 8774SOL     OW38797   2.802   3.989   3.860
 8774SOL    HW138798   2.719   3.957   3.904
 8774SOL    HW238799   2.866   4.021   3.930
 8775SOL     OW38800   6.367   3.506   6.518
 8775SOL    HW138801   6.361   3.545   6.427
 8775SOL    HW238802   6.313   3.422   6.522
 8776SOL     OW38803   5.283   7.264   2.498
 8776SOL    HW138804   5.201   7.298   2.452
 8776SOL    HW238805   5.328   7.339   2.546
 8777SOL     OW38806   6.319   3.152   5.983
 8777SOL    HW138807   6.356   3.227   5.928
 8777SOL    HW238808   6.237   3.115   5.938
 8778SOL     OW38809   3.314   5.327   3.008
 8778SOL    HW138810   3.248   5.284   2.946
 8778SOL    HW238811   3.297   5.425   3.012
 8779SOL     OW38812   5.057   3.263   5.995
 8779SOL    HW138813   5.032   3.167   6.010
 8779SOL    HW238814   5.137   3.286   6.052
 8780SOL     OW38815   5.410   1.195   2.684
 8780SOL    HW138816   5.364   1.268   2.734
 8780SOL    HW238817   5.445   1.126   2.748
 8781SOL     OW38818   7.284   3.099   4.168
 8781SOL    HW138819   7.216   3.168   4.191
 8781SOL    HW238820   7.314   3.053   4.251
 8782SOL     OW38821   2.441   3.525   0.835
 8782SOL    HW138822   2.534   3.562   0.835
 8782SOL    HW238823   2.430   3.462   0.759
 8783SOL     OW38824   2.326   0.717   5.692
 8783SOL    HW138825   2.382   0.651   5.641
 8783SOL    HW238826   2.372   0.806   5.692
 8784SOL     OW38827   0.993   1.090   4.541
 8784SOL    HW138828   0.987   1.190   4.529
 8784SOL    HW238829   1.001   1.047   4.452
 8785SOL     OW38830   5.447   4.230   6.418
 8785SOL    HW138831   5.418   4.237   6.513
 8785SOL    HW238832   5.462   4.134   6.394
 8786SOL     OW38833   6.557   4.882   7.148
 8786SOL    HW138834   6.634   4.818   7.151
 8786SOL    HW238835   6.515   4.878   7.057
 8787SOL     OW38836   3.343   4.935   6.073
 8787SOL    HW138837   3.356   4.901   5.979
 8787SOL    HW238838   3.330   5.034   6.070
 8788SOL     OW38839   4.101   6.323   0.011
 8788SOL    HW138840   4.047   6.351   0.090
 8788SOL    HW238841   4.142   6.404  -0.032
 8789SOL     OW38842   6.925   6.852   0.110
 8789SOL    HW138843   6.882   6.936   0.077
 8789SOL    HW238844   6.891   6.832   0.202
 8790SOL     OW38845   6.116   5.894   1.296
 8790SOL    HW138846   6.121   5.863   1.201
 8790SOL    HW238847   6.067   5.827   1.350
 8791SOL     OW38848   0.944   1.276   1.960
 8791SOL    HW138849   0.871   1.297   1.895
 8791SOL    HW238850   0.972   1.360   2.007
 8792SOL     OW38851   2.355   3.328   6.360
 8792SOL    HW138852   2.283   3.353   6.295
 8792SOL    HW238853   2.318   3.326   6.453
 8793SOL     OW38854   6.008   7.111   2.972
 8793SOL    HW138855   5.954   7.188   3.007
 8793SOL    HW238856   6.089   7.099   3.029
 8794SOL     OW38857   4.034   4.029   3.002
 8794SOL    HW138858   3.988   4.004   2.917
 8794SOL    HW238859   4.121   4.073   2.981
 8795SOL     OW38860   4.109   1.745   5.656
 8795SOL    HW138861   4.165   1.699   5.725
 8795SOL    HW238862   4.013   1.741   5.683
 8796SOL     OW38863   1.196   1.860   6.329
 8796SOL    HW138864   1.262   1.795   6.293
 8796SOL    HW238865   1.105   1.818   6.331
 8797SOL     OW38866   3.551   6.678   3.533
 8797SOL    HW138867   3.566   6.596   3.589
 8797SOL    HW238868   3.479   6.660   3.466
 8798SOL     OW38869   5.975   3.891   2.449
 8798SOL    HW138870   5.964   3.914   2.546
 8798SOL    HW238871   6.042   3.953   2.408
 8799SOL     OW38872   5.250   5.485   6.102
 8799SOL    HW138873   5.187   5.554   6.065
 8799SOL    HW238874   5.232   5.397   6.059
 8800SOL     OW38875   7.343   4.350   0.050
 8800SOL    HW138876   7.420   4.338  -0.012
 8800SOL    HW238877   7.315   4.446   0.050
 8801SOL     OW38878   4.786   3.935   6.191
 8801SOL    HW138879   4.770   4.017   6.136
 8801SOL    HW238880   4.710   3.871   6.178
 8802SOL     OW38881   3.570   3.799   6.251
 8802SOL    HW138882   3.486   3.825   6.204
 8802SOL    HW238883   3.624   3.739   6.191
 8803SOL     OW38884   0.195   3.388   1.548
 8803SOL    HW138885   0.275   3.407   1.492
 8803SOL    HW238886   0.132   3.328   1.498
 8804SOL     OW38887   5.587   5.071   0.051
 8804SOL    HW138888   5.597   5.048  -0.045
 8804SOL    HW238889   5.596   5.170   0.063
 8805SOL     OW38890   2.733   2.905   6.661
 8805SOL    HW138891   2.705   2.957   6.580
 8805SOL    HW238892   2.666   2.919   6.734
 8806SOL     OW38893   5.062   2.095   4.589
 8806SOL    HW138894   5.082   2.136   4.500
 8806SOL    HW238895   5.143   2.101   4.647
 8807SOL     OW38896   6.452   3.970   0.785
 8807SOL    HW138897   6.489   3.980   0.878
 8807SOL    HW238898   6.432   3.873   0.768
 8808SOL     OW38899   5.715   7.331   6.042
 8808SOL    HW138900   5.801   7.319   6.093
 8808SOL    HW238901   5.735   7.364   5.950
 8809SOL     OW38902   0.330   1.986   3.596
 8809SOL    HW138903   0.398   1.941   3.655
 8809SOL    HW238904   0.246   1.931   3.594
 8810SOL     OW38905   4.615   2.201   3.197
 8810SOL    HW138906   4.670   2.142   3.256
 8810SOL    HW238907   4.644   2.189   3.102
 8811SOL     OW38908   4.247   6.517   0.692
 8811SOL    HW138909   4.297   6.568   0.622
 8811SOL    HW238910   4.309   6.491   0.765
 8812SOL     OW38911   4.656   3.807   3.584
 8812SOL    HW138912   4.714   3.841   3.658
 8812SOL    HW238913   4.579   3.757   3.623
 8813SOL     OW38914   5.351   0.679   6.812
 8813SOL    HW138915   5.321   0.596   6.859
 8813SOL    HW238916   5.398   0.738   6.878
 8814SOL     OW38917   5.664   5.684   1.485
 8814SOL    HW138918   5.705   5.768   1.520
 8814SOL    HW238919   5.673   5.680   1.386
 8815SOL     OW38920   3.215   4.561   4.070
 8815SOL    HW138921   3.150   4.485   4.066
 8815SOL    HW238922   3.308   4.525   4.063
 8816SOL     OW38923   7.097   3.512   3.221
 8816SOL    HW138924   7.182   3.525   3.272
 8816SOL    HW238925   7.118   3.505   3.123
 8817SOL     OW38926   0.670   5.133   4.793
 8817SOL    HW138927   0.762   5.157   4.824
 8817SOL    HW238928   0.646   5.190   4.714
 8818SOL     OW38929   5.222   2.793   3.588
 8818SOL    HW138930   5.300   2.840   3.630
 8818SOL    HW238931   5.184   2.850   3.515
 8819SOL     OW38932   1.990   7.089   3.489
 8819SOL    HW138933   2.089   7.093   3.474
 8819SOL    HW238934   1.967   7.002   3.533
 8820SOL     OW38935   4.291   2.445   6.160
 8820SOL    HW138936   4.371   2.481   6.112
 8820SOL    HW238937   4.314   2.358   6.203
 8821SOL     OW38938   6.785   6.492   0.804
 8821SOL    HW138939   6.860   6.440   0.846
 8821SOL    HW238940   6.731   6.431   0.746
 8822SOL     OW38941   1.523   4.436   0.712
 8822SOL    HW138942   1.614   4.405   0.684
 8822SOL    HW238943   1.484   4.494   0.641
 8823SOL     OW38944   3.218   5.282   2.015
 8823SOL    HW138945   3.186   5.325   2.100
 8823SOL    HW238946   3.192   5.185   2.015
 8824SOL     OW38947   3.155   6.263   6.397
 8824SOL    HW138948   3.227   6.195   6.411
 8824SOL    HW238949   3.121   6.294   6.486
 8825SOL     OW38950   0.784   1.212   3.083
 8825SOL    HW138951   0.717   1.208   3.009
 8825SOL    HW238952   0.765   1.140   3.150
 8826SOL     OW38953   0.801   6.251   7.022
 8826SOL    HW138954   0.777   6.302   7.105
 8826SOL    HW238955   0.860   6.308   6.965
 8827SOL     OW38956   0.862   3.216   6.267
 8827SOL    HW138957   0.851   3.229   6.169
 8827SOL    HW238958   0.925   3.285   6.302
 8828SOL     OW38959   3.256   4.718   4.317
 8828SOL    HW138960   3.191   4.657   4.362
 8828SOL    HW238961   3.271   4.688   4.223
 8829SOL     OW38962   3.482   5.600   4.509
 8829SOL    HW138963   3.410   5.536   4.482
 8829SOL    HW238964   3.512   5.652   4.428
 8830SOL     OW38965   2.244   1.950   7.207
 8830SOL    HW138966   2.215   1.944   7.112
 8830SOL    HW238967   2.250   2.046   7.234
 8831SOL     OW38968   2.280   0.955   6.708
 8831SOL    HW138969   2.241   0.871   6.745
 8831SOL    HW238970   2.378   0.957   6.728
 8832SOL     OW38971   5.064   2.500   2.796
 8832SOL    HW138972   5.010   2.450   2.728
 8832SOL    HW238973   5.023   2.489   2.886
 8833SOL     OW38974   2.432   2.392   7.350
 8833SOL    HW138975   2.505   2.392   7.282
 8833SOL    HW238976   2.449   2.463   7.418
 8834SOL     OW38977   0.130   4.454   5.338
 8834SOL    HW138978   0.037   4.459   5.302
 8834SOL    HW238979   0.166   4.547   5.351
 8835SOL     OW38980   5.665   7.034   2.820
 8835SOL    HW138981   5.734   6.978   2.865
 8835SOL    HW238982   5.639   6.992   2.733
 8836SOL     OW38983   4.027   0.737   2.914
 8836SOL    HW138984   4.006   0.726   2.817
 8836SOL    HW238985   4.105   0.799   2.924
 8837SOL     OW38986   3.893   0.507   2.346
 8837SOL    HW138987   3.892   0.606   2.364
 8837SOL    HW238988   3.817   0.464   2.395
 8838SOL     OW38989   4.154   6.045   1.089
 8838SOL    HW138990   4.208   5.976   1.136
 8838SOL    HW238991   4.087   6.001   1.030
 8839SOL     OW38992   4.556   5.552   6.406
 8839SOL    HW138993   4.622   5.497   6.355
 8839SOL    HW238994   4.575   5.546   6.504
 8840SOL     OW38995   0.347   4.194   4.953
 8840SOL    HW138996   0.356   4.161   4.859
 8840SOL    HW238997   0.260   4.163   4.991
 8841SOL     OW38998   5.314   1.346   4.373
 8841SOL    HW138999   5.372   1.285   4.428
 8841SOL    HW239000   5.369   1.421   4.338
 8842SOL     OW39001   1.600   0.474   6.935
 8842SOL    HW139002   1.530   0.477   7.006
 8842SOL    HW239003   1.685   0.514   6.970
 8843SOL     OW39004   2.646   0.788   3.087
 8843SOL    HW139005   2.591   0.752   3.161
 8843SOL    HW239006   2.593   0.789   3.002
 8844SOL     OW39007   0.182   1.245   2.216
 8844SOL    HW139008   0.129   1.258   2.299
 8844SOL    HW239009   0.126   1.198   2.148
 8845SOL     OW39010   3.665   0.464   6.926
 8845SOL    HW139011   3.626   0.374   6.943
 8845SOL    HW239012   3.704   0.500   7.011
 8846SOL     OW39013   5.948   3.509   5.049
 8846SOL    HW139014   5.994   3.453   4.979
 8846SOL    HW239015   5.856   3.532   5.017
 8847SOL     OW39016   3.569   2.014   2.781
 8847SOL    HW139017   3.508   2.088   2.809
 8847SOL    HW239018   3.662   2.033   2.813
 8848SOL     OW39019   5.376   5.462   4.746
 8848SOL    HW139020   5.340   5.369   4.750
 8848SOL    HW239021   5.301   5.526   4.732
 8849SOL     OW39022   1.568   3.110   5.277
 8849SOL    HW139023   1.481   3.062   5.265
 8849SOL    HW239024   1.556   3.185   5.341
 8850SOL     OW39025   5.766   7.334   5.762
 8850SOL    HW139026   5.722   7.393   5.695
 8850SOL    HW239027   5.865   7.337   5.749
 8851SOL     OW39028   0.797   5.047   0.191
 8851SOL    HW139029   0.782   5.120   0.124
 8851SOL    HW239030   0.810   4.960   0.144
 8852SOL     OW39031   5.791   4.341   3.581
 8852SOL    HW139032   5.857   4.332   3.656
 8852SOL    HW239033   5.768   4.438   3.569
 8853SOL     OW39034   2.224   5.267   3.579
 8853SOL    HW139035   2.314   5.228   3.598
 8853SOL    HW239036   2.234   5.363   3.550
 8854SOL     OW39037   4.251   0.478   3.552
 8854SOL    HW139038   4.334   0.499   3.501
 8854SOL    HW239039   4.186   0.430   3.493
 8855SOL     OW39040   6.636   3.165   5.674
 8855SOL    HW139041   6.716   3.117   5.638
 8855SOL    HW239042   6.664   3.252   5.715
 8856SOL     OW39043   2.481   2.833   0.757
 8856SOL    HW139044   2.519   2.784   0.678
 8856SOL    HW239045   2.385   2.808   0.769
 8857SOL     OW39046   4.785   7.247   1.020
 8857SOL    HW139047   4.839   7.289   1.093
 8857SOL    HW239048   4.834   7.252   0.934
 8858SOL     OW39049   1.571   3.171   6.353
 8858SOL    HW139050   1.578   3.083   6.306
 8858SOL    HW239051   1.655   3.188   6.405
 8859SOL     OW39052   5.834   4.566   4.449
 8859SOL    HW139053   5.922   4.590   4.409
 8859SOL    HW239054   5.836   4.472   4.481
 8860SOL     OW39055   1.436   3.759   0.134
 8860SOL    HW139056   1.346   3.769   0.176
 8860SOL    HW239057   1.473   3.669   0.154
 8861SOL     OW39058   2.898   5.468   0.262
 8861SOL    HW139059   2.959   5.405   0.310
 8861SOL    HW239060   2.939   5.496   0.176
 8862SOL     OW39061   1.581   7.184   0.211
 8862SOL    HW139062   1.560   7.259   0.275
 8862SOL    HW239063   1.601   7.101   0.263
 8863SOL     OW39064   6.250   6.863   6.677
 8863SOL    HW139065   6.338   6.824   6.705
 8863SOL    HW239066   6.251   6.880   6.578
 8864SOL     OW39067   1.727   2.617   2.996
 8864SOL    HW139068   1.730   2.526   2.956
 8864SOL    HW239069   1.652   2.621   3.063
 8865SOL     OW39070   5.784   1.619   4.377
 8865SOL    HW139071   5.767   1.523   4.352
 8865SOL    HW239072   5.710   1.676   4.341
 8866SOL     OW39073   6.845   7.115   0.045
 8866SOL    HW139074   6.918   7.179   0.022
 8866SOL    HW239075   6.786   7.155   0.114
 8867SOL     OW39076   4.713   7.037   0.470
 8867SOL    HW139077   4.748   7.110   0.412
 8867SOL    HW239078   4.787   7.001   0.527
 8868SOL     OW39079   0.692   3.358   4.163
 8868SOL    HW139080   0.755   3.310   4.102
 8868SOL    HW239081   0.606   3.376   4.114
 8869SOL     OW39082   1.134   5.010   1.847
 8869SOL    HW139083   1.145   5.106   1.872
 8869SOL    HW239084   1.067   4.967   1.909
 8870SOL     OW39085   0.482   3.459   6.710
 8870SOL    HW139086   0.473   3.360   6.711
 8870SOL    HW239087   0.550   3.488   6.777
 8871SOL     OW39088   4.086   1.675   1.985
 8871SOL    HW139089   3.987   1.667   1.978
 8871SOL    HW239090   4.123   1.594   2.030
 8872SOL     OW39091   1.065   6.614   6.336
 8872SOL    HW139092   1.050   6.592   6.239
 8872SOL    HW239093   1.142   6.560   6.370
 8873SOL     OW39094   3.304   2.631   5.332
 8873SOL    HW139095   3.364   2.603   5.258
 8873SOL    HW239096   3.225   2.680   5.294
 8874SOL     OW39097   2.062   4.246   5.855
 8874SOL    HW139098   1.975   4.289   5.880
 8874SOL    HW239099   2.111   4.219   5.938
 8875SOL     OW39100   5.335   6.437   2.610
 8875SOL    HW139101   5.295   6.503   2.546
 8875SOL    HW239102   5.292   6.348   2.597
 8876SOL     OW39103   3.558   2.659   7.037
 8876SOL    HW139104   3.555   2.709   6.950
 8876SOL    HW239105   3.594   2.567   7.021
 8877SOL     OW39106   3.517   0.989   6.432
 8877SOL    HW139107   3.605   1.016   6.394
 8877SOL    HW239108   3.526   0.901   6.478
 8878SOL     OW39109   5.767   0.557   6.795
 8878SOL    HW139110   5.823   0.627   6.751
 8878SOL    HW239111   5.696   0.601   6.851
 8879SOL     OW39112   5.785   3.281   1.776
 8879SOL    HW139113   5.802   3.223   1.697
 8879SOL    HW239114   5.859   3.270   1.843
 8880SOL     OW39115   1.619   4.350   1.243
 8880SOL    HW139116   1.563   4.267   1.249
 8880SOL    HW239117   1.568   4.427   1.281
 8881SOL     OW39118   2.153   5.063   1.749
 8881SOL    HW139119   2.220   5.138   1.757
 8881SOL    HW239120   2.154   5.009   1.832
 8882SOL     OW39121   6.512   5.044   4.239
 8882SOL    HW139122   6.511   5.023   4.141
 8882SOL    HW239123   6.606   5.051   4.271
 8883SOL     OW39124   0.177   5.736   6.695
 8883SOL    HW139125   0.240   5.714   6.620
 8883SOL    HW239126   0.161   5.835   6.696
 8884SOL     OW39127   5.204   2.233   2.601
 8884SOL    HW139128   5.174   2.144   2.567
 8884SOL    HW239129   5.126   2.295   2.602
 8885SOL     OW39130   3.868   5.902   4.882
 8885SOL    HW139131   3.883   5.920   4.785
 8885SOL    HW239132   3.955   5.903   4.931
 8886SOL     OW39133   7.341   5.288   5.656
 8886SOL    HW139134   7.407   5.235   5.602
 8886SOL    HW239135   7.363   5.279   5.753
 8887SOL     OW39136   4.602   5.357   3.816
 8887SOL    HW139137   4.702   5.361   3.813
 8887SOL    HW239138   4.569   5.395   3.903
 8888SOL     OW39139   2.435   5.157   1.231
 8888SOL    HW139140   2.491   5.079   1.262
 8888SOL    HW239141   2.376   5.128   1.156
 8889SOL     OW39142   2.886   3.199   6.899
 8889SOL    HW139143   2.930   3.288   6.893
 8889SOL    HW239144   2.873   3.161   6.807
 8890SOL     OW39145   5.658   5.050   0.329
 8890SOL    HW139146   5.644   5.079   0.235
 8890SOL    HW239147   5.569   5.032   0.372
 8891SOL     OW39148   2.972   0.415   1.982
 8891SOL    HW139149   2.936   0.467   1.905
 8891SOL    HW239150   2.972   0.472   2.064
 8892SOL     OW39151   1.157   6.156   7.341
 8892SOL    HW139152   1.070   6.108   7.351
 8892SOL    HW239153   1.214   6.140   7.421
 8893SOL     OW39154   2.340   4.231   3.436
 8893SOL    HW139155   2.438   4.234   3.418
 8893SOL    HW239156   2.322   4.263   3.529
 8894SOL     OW39157   2.349   6.276   0.872
 8894SOL    HW139158   2.431   6.229   0.906
 8894SOL    HW239159   2.325   6.350   0.934
 8895SOL     OW39160   6.720   1.829   1.185
 8895SOL    HW139161   6.622   1.843   1.169
 8895SOL    HW239162   6.749   1.885   1.263
 8896SOL     OW39163   2.696   3.220   4.817
 8896SOL    HW139164   2.704   3.161   4.898
 8896SOL    HW239165   2.614   3.276   4.825
 8897SOL     OW39166   2.567   0.766   1.708
 8897SOL    HW139167   2.523   0.855   1.690
 8897SOL    HW239168   2.522   0.722   1.785
 8898SOL     OW39169   1.887   5.688   5.668
 8898SOL    HW139170   1.870   5.742   5.750
 8898SOL    HW239171   1.852   5.596   5.681
 8899SOL     OW39172   3.184   5.903   2.507
 8899SOL    HW139173   3.187   5.940   2.414
 8899SOL    HW239174   3.125   5.823   2.509
 8900SOL     OW39175   2.697   7.133   4.664
 8900SOL    HW139176   2.598   7.134   4.649
 8900SOL    HW239177   2.717   7.095   4.755
 8901SOL     OW39178   6.366   0.792   6.900
 8901SOL    HW139179   6.373   0.877   6.848
 8901SOL    HW239180   6.454   0.771   6.942
 8902SOL     OW39181   4.207   6.786   4.305
 8902SOL    HW139182   4.133   6.791   4.238
 8902SOL    HW239183   4.242   6.693   4.309
 8903SOL     OW39184   4.747   6.423   6.553
 8903SOL    HW139185   4.662   6.476   6.558
 8903SOL    HW239186   4.801   6.455   6.476
 8904SOL     OW39187   0.727   6.842   4.685
 8904SOL    HW139188   0.692   6.749   4.688
 8904SOL    HW239189   0.744   6.869   4.590
 8905SOL     OW39190   5.467   5.462   2.361
 8905SOL    HW139191   5.444   5.443   2.266
 8905SOL    HW239192   5.391   5.509   2.405
 8906SOL     OW39193   6.555   2.260   1.549
 8906SOL    HW139194   6.485   2.198   1.586
 8906SOL    HW239195   6.576   2.233   1.455
 8907SOL     OW39196   6.812   3.064   4.975
 8907SOL    HW139197   6.801   3.112   4.888
 8907SOL    HW239198   6.909   3.056   4.997
 8908SOL     OW39199   6.887   6.731   0.881
 8908SOL    HW139200   6.842   6.651   0.843
 8908SOL    HW239201   6.960   6.703   0.943
 8909SOL     OW39202   1.130   0.661   1.753
 8909SOL    HW139203   1.207   0.619   1.800
 8909SOL    HW239204   1.089   0.732   1.810
 8910SOL     OW39205   0.386   3.750   0.505
 8910SOL    HW139206   0.427   3.810   0.573
 8910SOL    HW239207   0.337   3.676   0.551
 8911SOL     OW39208   4.530   5.221   2.694
 8911SOL    HW139209   4.555   5.295   2.632
 8911SOL    HW239210   4.441   5.241   2.735
 8912SOL     OW39211   5.097   2.291   3.037
 8912SOL    HW139212   5.058   2.336   3.117
 8912SOL    HW239213   5.076   2.193   3.039
 8913SOL     OW39214   5.823   4.085   0.134
 8913SOL    HW139215   5.890   4.159   0.136
 8913SOL    HW239216   5.823   4.042   0.043
 8914SOL     OW39217   4.284   7.179   4.690
 8914SOL    HW139218   4.355   7.250   4.691
 8914SOL    HW239219   4.228   7.189   4.608
 8915SOL     OW39220   6.075   5.730   3.399
 8915SOL    HW139221   6.145   5.672   3.358
 8915SOL    HW239222   6.022   5.774   3.327
 8916SOL     OW39223   7.251   4.608   5.237
 8916SOL    HW139224   7.174   4.545   5.244
 8916SOL    HW239225   7.293   4.600   5.146
 8917SOL     OW39226   3.782   4.895   5.535
 8917SOL    HW139227   3.836   4.838   5.597
 8917SOL    HW239228   3.734   4.965   5.588
 8918SOL     OW39229   4.029   5.501   5.130
 8918SOL    HW139230   3.995   5.509   5.037
 8918SOL    HW239231   4.080   5.416   5.140
 8919SOL     OW39232   1.029   2.324   5.457
 8919SOL    HW139233   1.108   2.321   5.519
 8919SOL    HW239234   1.051   2.381   5.378
 8920SOL     OW39235   0.202   3.942   3.136
 8920SOL    HW139236   0.138   3.942   3.213
 8920SOL    HW239237   0.220   3.847   3.108
 8921SOL     OW39238   1.116   4.278   2.610
 8921SOL    HW139239   1.131   4.261   2.513
 8921SOL    HW239240   1.124   4.376   2.629
 8922SOL     OW39241   3.072   4.686   7.033
 8922SOL    HW139242   3.094   4.772   7.079
 8922SOL    HW239243   3.133   4.673   6.955
 8923SOL     OW39244   3.028   3.446   1.169
 8923SOL    HW139245   2.942   3.401   1.191
 8923SOL    HW239246   3.012   3.516   1.099
 8924SOL     OW39247   0.369   0.843   5.284
 8924SOL    HW139248   0.362   0.943   5.286
 8924SOL    HW239249   0.465   0.816   5.290
 8925SOL     OW39250   6.040   3.797   3.368
 8925SOL    HW139251   5.943   3.782   3.355
 8925SOL    HW239252   6.077   3.727   3.429
 8926SOL     OW39253   5.679   3.226   6.130
 8926SOL    HW139254   5.688   3.319   6.097
 8926SOL    HW239255   5.654   3.165   6.055
 8927SOL     OW39256   4.979   4.280   4.480
 8927SOL    HW139257   5.051   4.339   4.444
 8927SOL    HW239258   5.018   4.191   4.502
 8928SOL     OW39259   1.870   3.852   0.192
 8928SOL    HW139260   1.856   3.948   0.217
 8928SOL    HW239261   1.907   3.803   0.271
 8929SOL     OW39262   0.889   2.215   5.890
 8929SOL    HW139263   0.902   2.257   5.980
 8929SOL    HW239264   0.978   2.206   5.845
 8930SOL     OW39265   4.630   4.353   1.899
 8930SOL    HW139266   4.655   4.447   1.875
 8930SOL    HW239267   4.603   4.350   1.995
 8931SOL     OW39268   1.650   2.846   1.372
 8931SOL    HW139269   1.650   2.797   1.285
 8931SOL    HW239270   1.590   2.926   1.365
 8932SOL     OW39271   4.139   0.451   7.252
 8932SOL    HW139272   4.132   0.436   7.351
 8932SOL    HW239273   4.155   0.364   7.206
 8933SOL     OW39274   2.114   2.829   7.310
 8933SOL    HW139275   2.028   2.853   7.264
 8933SOL    HW239276   2.156   2.753   7.263
 8934SOL     OW39277   6.655   7.166   7.023
 8934SOL    HW139278   6.731   7.140   7.082
 8934SOL    HW239279   6.680   7.150   6.927
 8935SOL     OW39280   4.788   5.971   5.995
 8935SOL    HW139281   4.831   5.924   5.918
 8935SOL    HW239282   4.784   6.069   5.977
 8936SOL     OW39283   1.204   4.078   4.213
 8936SOL    HW139284   1.241   4.067   4.305
 8936SOL    HW239285   1.149   4.162   4.209
 8937SOL     OW39286   0.374   5.906   1.591
 8937SOL    HW139287   0.329   5.892   1.503
 8937SOL    HW239288   0.371   6.003   1.615
 8938SOL     OW39289   4.544   1.528   3.290
 8938SOL    HW139290   4.585   1.561   3.205
 8938SOL    HW239291   4.585   1.440   3.316
 8939SOL     OW39292   2.538   2.744   7.194
 8939SOL    HW139293   2.603   2.810   7.158
 8939SOL    HW239294   2.445   2.776   7.176
 8940SOL     OW39295   2.727   1.896   3.892
 8940SOL    HW139296   2.727   1.947   3.979
 8940SOL    HW239297   2.821   1.868   3.871
 8941SOL     OW39298   3.613   5.597   4.957
 8941SOL    HW139299   3.599   5.684   4.909
 8941SOL    HW239300   3.575   5.605   5.050
 8942SOL     OW39301   0.126   4.027   6.412
 8942SOL    HW139302   0.140   3.928   6.415
 8942SOL    HW239303   0.028   4.047   6.412
 8943SOL     OW39304   5.633   3.666   6.839
 8943SOL    HW139305   5.712   3.705   6.792
 8943SOL    HW239306   5.551   3.679   6.782
 8944SOL     OW39307   0.337   1.154   1.183
 8944SOL    HW139308   0.334   1.115   1.090
 8944SOL    HW239309   0.244   1.168   1.217
 8945SOL     OW39310   0.224   1.848   3.195
 8945SOL    HW139311   0.155   1.869   3.264
 8945SOL    HW239312   0.249   1.752   3.200
 8946SOL     OW39313   2.577   0.056   4.853
 8946SOL    HW139314   2.669   0.069   4.890
 8946SOL    HW239315   2.511   0.107   4.908
 8947SOL     OW39316   5.573   6.383   5.918
 8947SOL    HW139317   5.620   6.391   5.830
 8947SOL    HW239318   5.517   6.300   5.919
 8948SOL     OW39319   0.982   5.512   4.991
 8948SOL    HW139320   0.951   5.592   4.939
 8948SOL    HW239321   0.976   5.431   4.933
 8949SOL     OW39322   5.640   0.534   0.451
 8949SOL    HW139323   5.658   0.589   0.533
 8949SOL    HW239324   5.724   0.486   0.425
 8950SOL     OW39325   2.534   5.175   5.663
 8950SOL    HW139326   2.517   5.148   5.758
 8950SOL    HW239327   2.461   5.140   5.605
 8951SOL     OW39328   4.437   0.834   5.786
 8951SOL    HW139329   4.443   0.927   5.749
 8951SOL    HW239330   4.529   0.801   5.806
 8952SOL     OW39331   4.945   0.827   5.415
 8952SOL    HW139332   4.972   0.796   5.506
 8952SOL    HW239333   5.026   0.838   5.358
 8953SOL     OW39334   1.179   7.053   0.739
 8953SOL    HW139335   1.221   7.095   0.819
 8953SOL    HW239336   1.249   7.038   0.669
 8954SOL     OW39337   6.264   2.365   3.268
 8954SOL    HW139338   6.358   2.393   3.252
 8954SOL    HW239339   6.213   2.440   3.310
 8955SOL     OW39340   5.456   0.716   5.963
 8955SOL    HW139341   5.504   0.632   5.940
 8955SOL    HW239342   5.492   0.792   5.909
 8956SOL     OW39343   4.715   6.075   5.277
 8956SOL    HW139344   4.711   6.044   5.372
 8956SOL    HW239345   4.669   6.163   5.269
 8957SOL     OW39346   3.634   3.891   0.396
 8957SOL    HW139347   3.611   3.840   0.479
 8957SOL    HW239348   3.678   3.829   0.330
 8958SOL     OW39349   3.437   5.455   5.302
 8958SOL    HW139350   3.506   5.508   5.251
 8958SOL    HW239351   3.374   5.518   5.347
 8959SOL     OW39352   7.056   3.765   3.689
 8959SOL    HW139353   7.134   3.778   3.628
 8959SOL    HW239354   7.022   3.671   3.680
 8960SOL     OW39355   4.182   2.355   3.973
 8960SOL    HW139356   4.162   2.299   4.053
 8960SOL    HW239357   4.240   2.432   4.001
 8961SOL     OW39358   4.229   1.141   6.923
 8961SOL    HW139359   4.174   1.121   7.004
 8961SOL    HW239360   4.183   1.210   6.867
 8962SOL     OW39361   1.636   1.839   7.071
 8962SOL    HW139362   1.716   1.817   7.015
 8962SOL    HW239363   1.662   1.839   7.168
 8963SOL     OW39364   0.596   4.227   2.101
 8963SOL    HW139365   0.692   4.201   2.116
 8963SOL    HW239366   0.542   4.145   2.080
 8964SOL     OW39367   3.390   0.278   7.332
 8964SOL    HW139368   3.444   0.294   7.415
 8964SOL    HW239369   3.382   0.180   7.316
 8965SOL     OW39370   2.745   2.269   6.336
 8965SOL    HW139371   2.759   2.224   6.247
 8965SOL    HW239372   2.703   2.359   6.321
 8966SOL     OW39373   2.099   3.766   4.906
 8966SOL    HW139374   2.113   3.823   4.987
 8966SOL    HW239375   2.153   3.801   4.830
 8967SOL     OW39376   7.218   4.206   5.153
 8967SOL    HW139377   7.209   4.106   5.147
 8967SOL    HW239378   7.311   4.233   5.130
 8968SOL     OW39379   4.482   1.202   0.527
 8968SOL    HW139380   4.530   1.280   0.486
 8968SOL    HW239381   4.439   1.231   0.613
 8969SOL     OW39382   1.799   2.955   0.612
 8969SOL    HW139383   1.823   3.050   0.588
 8969SOL    HW239384   1.808   2.897   0.531
 8970SOL     OW39385   6.864   2.586   1.731
 8970SOL    HW139386   6.949   2.624   1.768
 8970SOL    HW239387   6.834   2.642   1.654
 8971SOL     OW39388   2.853   4.376   1.125
 8971SOL    HW139389   2.826   4.376   1.029
 8971SOL    HW239390   2.938   4.428   1.137
 8972SOL     OW39391   0.112   0.991   6.445
 8972SOL    HW139392   0.057   0.932   6.504
 8972SOL    HW239393   0.093   0.969   6.350
 8973SOL     OW39394   5.645   5.235   3.090
 8973SOL    HW139395   5.609   5.149   3.125
 8973SOL    HW239396   5.633   5.238   2.990
 8974SOL     OW39397   3.179   2.875   3.759
 8974SOL    HW139398   3.135   2.810   3.697
 8974SOL    HW239399   3.250   2.827   3.811
 8975SOL     OW39400   4.572   0.316   3.218
 8975SOL    HW139401   4.521   0.337   3.134
 8975SOL    HW239402   4.521   0.248   3.271
 8976SOL     OW39403   5.626   2.778   0.770
 8976SOL    HW139404   5.663   2.736   0.686
 8976SOL    HW239405   5.570   2.857   0.746
 8977SOL     OW39406   5.169   1.548   4.007
 8977SOL    HW139407   5.264   1.521   4.024
 8977SOL    HW239408   5.127   1.578   4.092
 8978SOL     OW39409   4.922   4.345   2.757
 8978SOL    HW139410   4.974   4.358   2.841
 8978SOL    HW239411   4.955   4.264   2.709
 8979SOL     OW39412   1.593   3.511   0.108
 8979SOL    HW139413   1.666   3.569   0.070
 8979SOL    HW239414   1.584   3.428   0.053
 8980SOL     OW39415   7.037   6.019   2.562
 8980SOL    HW139416   6.972   5.984   2.495
 8980SOL    HW239417   6.994   6.025   2.652
 8981SOL     OW39418   5.054   0.418   6.908
 8981SOL    HW139419   5.048   0.321   6.929
 8981SOL    HW239420   5.150   0.447   6.913
 8982SOL     OW39421   6.214   5.164   3.552
 8982SOL    HW139422   6.226   5.161   3.651
 8982SOL    HW239423   6.123   5.130   3.528
 8983SOL     OW39424   6.158   1.741   3.107
 8983SOL    HW139425   6.173   1.749   3.205
 8983SOL    HW239426   6.149   1.645   3.082
 8984SOL     OW39427   3.958   4.375   6.265
 8984SOL    HW139428   3.907   4.401   6.183
 8984SOL    HW239429   3.894   4.345   6.336
 8985SOL     OW39430   1.410   1.697   7.126
 8985SOL    HW139431   1.485   1.747   7.082
 8985SOL    HW239432   1.430   1.599   7.125
 8986SOL     OW39433   6.204   4.693   1.947
 8986SOL    HW139434   6.189   4.772   1.887
 8986SOL    HW239435   6.138   4.696   2.022
 8987SOL     OW39436   2.476   5.189   3.600
 8987SOL    HW139437   2.514   5.179   3.509
 8987SOL    HW239438   2.550   5.200   3.667
 8988SOL     OW39439   1.758   3.652   6.132
 8988SOL    HW139440   1.753   3.700   6.045
 8988SOL    HW239441   1.852   3.651   6.165
 8989SOL     OW39442   3.175   7.314   5.254
 8989SOL    HW139443   3.182   7.239   5.189
 8989SOL    HW239444   3.096   7.298   5.314
 8990SOL     OW39445   6.654   5.646   5.645
 8990SOL    HW139446   6.577   5.581   5.649
 8990SOL    HW239447   6.688   5.652   5.552
 8991SOL     OW39448   5.979   6.858   4.355
 8991SOL    HW139449   5.882   6.833   4.351
 8991SOL    HW239450   5.994   6.922   4.431
 8992SOL     OW39451   4.888   4.081   1.976
 8992SOL    HW139452   4.887   4.015   1.901
 8992SOL    HW239453   4.964   4.060   2.038
 8993SOL     OW39454   1.569   1.184   3.536
 8993SOL    HW139455   1.502   1.251   3.567
 8993SOL    HW239456   1.534   1.135   3.457
 8994SOL     OW39457   0.790   2.999   5.430
 8994SOL    HW139458   0.805   3.039   5.339
 8994SOL    HW239459   0.878   2.976   5.471
 8995SOL     OW39460   0.541   4.371   4.650
 8995SOL    HW139461   0.478   4.297   4.675
 8995SOL    HW239462   0.598   4.342   4.574
 8996SOL     OW39463   1.759   5.024   1.095
 8996SOL    HW139464   1.727   5.108   1.138
 8996SOL    HW239465   1.858   5.016   1.105
 8997SOL     OW39466   6.432   5.167   1.569
 8997SOL    HW139467   6.508   5.157   1.504
 8997SOL    HW239468   6.467   5.200   1.656
 8998SOL     OW39469   5.788   1.836   5.896
 8998SOL    HW139470   5.774   1.744   5.860
 8998SOL    HW239471   5.822   1.830   5.990
 8999SOL     OW39472   0.519   3.583   5.535
 8999SOL    HW139473   0.608   3.628   5.533
 8999SOL    HW239474   0.458   3.631   5.597
 9000SOL     OW39475   3.990   1.699   6.858
 9000SOL    HW139476   3.984   1.606   6.822
 9000SOL    HW239477   3.910   1.718   6.916
 9001SOL     OW39478   7.066   0.133   5.435
 9001SOL    HW139479   7.066   0.046   5.483
 9001SOL    HW239480   6.972   0.162   5.418
 9002SOL     OW39481   4.899   5.933   0.570
 9002SOL    HW139482   4.931   5.898   0.657
 9002SOL    HW239483   4.931   6.027   0.558
 9003SOL     OW39484   1.307   2.266   1.189
 9003SOL    HW139485   1.338   2.360   1.170
 9003SOL    HW239486   1.308   2.250   1.287
 9004SOL     OW39487   2.168   2.827   1.114
 9004SOL    HW139488   2.100   2.759   1.139
 9004SOL    HW239489   2.246   2.821   1.177
 9005SOL     OW39490   4.497   5.678   6.159
 9005SOL    HW139491   4.478   5.616   6.083
 9005SOL    HW239492   4.510   5.625   6.243
 9006SOL     OW39493   4.844   6.097   5.022
 9006SOL    HW139494   4.839   6.080   5.120
 9006SOL    HW239495   4.815   6.191   5.003
 9007SOL     OW39496   0.886   0.535   2.153
 9007SOL    HW139497   0.892   0.631   2.180
 9007SOL    HW239498   0.833   0.484   2.221
 9008SOL     OW39499   6.176   6.537   2.873
 9008SOL    HW139500   6.232   6.459   2.902
 9008SOL    HW239501   6.080   6.513   2.879
 9009SOL     OW39502   2.623   4.301   6.173
 9009SOL    HW139503   2.556   4.334   6.106
 9009SOL    HW239504   2.711   4.345   6.156
 9010SOL     OW39505   5.958   5.243   3.848
 9010SOL    HW139506   5.870   5.203   3.873
 9010SOL    HW239507   5.949   5.295   3.763
 9011SOL     OW39508   1.776   5.335   4.672
 9011SOL    HW139509   1.850   5.319   4.606
 9011SOL    HW239510   1.707   5.263   4.664
 9012SOL     OW39511   4.001   1.977   6.249
 9012SOL    HW139512   3.938   1.961   6.325
 9012SOL    HW239513   4.016   2.075   6.237
 9013SOL     OW39514   3.410   6.816   5.717
 9013SOL    HW139515   3.485   6.881   5.706
 9013SOL    HW239516   3.323   6.860   5.694
 9014SOL     OW39517   3.324   5.369   4.226
 9014SOL    HW139518   3.237   5.329   4.197
 9014SOL    HW239519   3.373   5.403   4.145
 9015SOL     OW39520   3.242   7.048   2.504
 9015SOL    HW139521   3.267   7.144   2.516
 9015SOL    HW239522   3.278   6.995   2.581
 9016SOL     OW39523   4.302   1.535   1.691
 9016SOL    HW139524   4.247   1.611   1.726
 9016SOL    HW239525   4.372   1.511   1.758
 9017SOL     OW39526   1.084   3.040   6.306
 9017SOL    HW139527   1.141   3.102   6.360
 9017SOL    HW239528   0.998   3.085   6.283
 9018SOL     OW39529   4.956   3.435   3.523
 9018SOL    HW139530   4.888   3.501   3.493
 9018SOL    HW239531   4.984   3.378   3.446
 9019SOL     OW39532   4.620   7.311   4.118
 9019SOL    HW139533   4.640   7.342   4.211
 9019SOL    HW239534   4.636   7.386   4.054
 9020SOL     OW39535   1.581   6.871   6.245
 9020SOL    HW139536   1.625   6.800   6.189
 9020SOL    HW239537   1.589   6.847   6.342
 9021SOL     OW39538   1.082   6.749   6.825
 9021SOL    HW139539   1.049   6.843   6.834
 9021SOL    HW239540   1.042   6.693   6.896
 9022SOL     OW39541   4.403   0.259   3.654
 9022SOL    HW139542   4.308   0.288   3.663
 9022SOL    HW239543   4.417   0.173   3.702
 9023SOL     OW39544   7.316   1.849   4.215
 9023SOL    HW139545   7.390   1.783   4.198
 9023SOL    HW239546   7.234   1.799   4.244
 9024SOL     OW39547   4.603   1.150   1.371
 9024SOL    HW139548   4.512   1.123   1.400
 9024SOL    HW239549   4.639   1.221   1.432
 9025SOL     OW39550   7.289   3.754   3.548
 9025SOL    HW139551   7.378   3.777   3.590
 9025SOL    HW239552   7.301   3.676   3.487
 9026SOL     OW39553   2.617   4.042   2.799
 9026SOL    HW139554   2.614   3.944   2.821
 9026SOL    HW239555   2.614   4.054   2.700
 9027SOL     OW39556   1.858   2.494   2.699
 9027SOL    HW139557   1.894   2.402   2.706
 9027SOL    HW239558   1.787   2.508   2.768
 9028SOL     OW39559   1.937   6.625   1.498
 9028SOL    HW139560   1.927   6.702   1.560
 9028SOL    HW239561   1.847   6.598   1.463
 9029SOL     OW39562   6.925   2.916   1.148
 9029SOL    HW139563   6.852   2.967   1.103
 9029SOL    HW239564   7.004   2.909   1.087
 9030SOL     OW39565   4.420   6.936   4.572
 9030SOL    HW139566   4.377   7.006   4.628
 9030SOL    HW239567   4.411   6.961   4.475
 9031SOL     OW39568   5.218   5.663   2.084
 9031SOL    HW139569   5.219   5.695   2.178
 9031SOL    HW239570   5.129   5.682   2.043
 9032SOL     OW39571   2.647   5.331   1.207
 9032SOL    HW139572   2.561   5.290   1.238
 9032SOL    HW239573   2.637   5.362   1.113
 9033SOL     OW39574   1.807   2.450   5.880
 9033SOL    HW139575   1.757   2.454   5.967
 9033SOL    HW239576   1.805   2.356   5.846
 9034SOL     OW39577   7.343   0.357   4.875
 9034SOL    HW139578   7.337   0.420   4.952
 9034SOL    HW239579   7.410   0.392   4.808
 9035SOL     OW39580   2.414   5.494   4.249
 9035SOL    HW139581   2.335   5.485   4.188
 9035SOL    HW239582   2.471   5.412   4.242
 9036SOL     OW39583   5.580   6.385   4.263
 9036SOL    HW139584   5.510   6.415   4.328
 9036SOL    HW239585   5.667   6.374   4.311
 9037SOL     OW39586   5.945   3.141   0.327
 9037SOL    HW139587   5.942   3.051   0.369
 9037SOL    HW239588   5.873   3.149   0.258
 9038SOL     OW39589   3.562   0.842   0.167
 9038SOL    HW139590   3.607   0.760   0.205
 9038SOL    HW239591   3.618   0.923   0.188
 9039SOL     OW39592   0.103   5.402   7.195
 9039SOL    HW139593   0.057   5.321   7.158
 9039SOL    HW239594   0.074   5.483   7.146
 9040SOL     OW39595   2.330   0.859   1.185
 9040SOL    HW139596   2.408   0.848   1.246
 9040SOL    HW239597   2.267   0.926   1.223
 9041SOL     OW39598   2.531   3.709   3.410
 9041SOL    HW139599   2.564   3.801   3.389
 9041SOL    HW239600   2.593   3.665   3.475
 9042SOL     OW39601   5.885   0.001   6.261
 9042SOL    HW139602   5.943   0.077   6.231
 9042SOL    HW239603   5.857   0.015   6.356
 9043SOL     OW39604   4.564   0.554   6.687
 9043SOL    HW139605   4.662   0.547   6.669
 9043SOL    HW239606   4.547   0.628   6.752
 9044SOL     OW39607   5.948   4.788   2.635
 9044SOL    HW139608   6.043   4.755   2.636
 9044SOL    HW239609   5.903   4.761   2.720
 9045SOL     OW39610   6.069   7.071   4.887
 9045SOL    HW139611   6.136   7.040   4.954
 9045SOL    HW239612   6.000   7.128   4.932
 9046SOL     OW39613   0.326   5.272   0.428
 9046SOL    HW139614   0.289   5.179   0.420
 9046SOL    HW239615   0.252   5.338   0.420
 9047SOL     OW39616   6.322   6.635   3.628
 9047SOL    HW139617   6.393   6.617   3.697
 9047SOL    HW239618   6.233   6.642   3.674
 9048SOL     OW39619   0.411   5.060   0.835
 9048SOL    HW139620   0.466   5.039   0.754
 9048SOL    HW239621   0.383   5.156   0.833
 9049SOL     OW39622   1.604   2.314   7.060
 9049SOL    HW139623   1.583   2.359   6.974
 9049SOL    HW239624   1.545   2.234   7.071
 9050SOL     OW39625   2.887   0.683   3.079
 9050SOL    HW139626   2.806   0.741   3.082
 9050SOL    HW239627   2.888   0.624   3.160
 9051SOL     OW39628   0.055   0.006   1.791
 9051SOL    HW139629   0.049  -0.090   1.764
 9051SOL    HW239630  -0.001   0.062   1.730
 9052SOL     OW39631   0.736   7.069   6.792
 9052SOL    HW139632   0.654   7.041   6.843
 9052SOL    HW239633   0.710   7.131   6.719
 9053SOL     OW39634   0.336   0.933   2.828
 9053SOL    HW139635   0.391   0.975   2.900
 9053SOL    HW239636   0.243   0.970   2.831
 9054SOL     OW39637   1.984   7.148   0.517
 9054SOL    HW139638   1.999   7.217   0.588
 9054SOL    HW239639   1.941   7.191   0.437
 9055SOL     OW39640   4.574   3.694   1.262
 9055SOL    HW139641   4.613   3.775   1.219
 9055SOL    HW239642   4.476   3.709   1.279
 9056SOL     OW39643   6.385   2.937   5.220
 9056SOL    HW139644   6.348   3.027   5.195
 9056SOL    HW239645   6.471   2.949   5.270
 9057SOL     OW39646   1.824   5.821   5.903
 9057SOL    HW139647   1.919   5.850   5.891
 9057SOL    HW239648   1.785   5.867   5.983
 9058SOL     OW39649   2.399   5.937   1.146
 9058SOL    HW139650   2.420   5.923   1.242
 9058SOL    HW239651   2.422   6.030   1.119
 9059SOL     OW39652   0.353   1.906   5.549
 9059SOL    HW139653   0.393   1.816   5.562
 9059SOL    HW239654   0.369   1.962   5.630
 9060SOL     OW39655   5.229   2.956   1.728
 9060SOL    HW139656   5.168   2.877   1.728
 9060SOL    HW239657   5.210   3.014   1.807
 9061SOL     OW39658   2.486   5.366   5.269
 9061SOL    HW139659   2.419   5.305   5.227
 9061SOL    HW239660   2.467   5.375   5.367
 9062SOL     OW39661   4.127   2.604   0.233
 9062SOL    HW139662   4.104   2.559   0.320
 9062SOL    HW239663   4.190   2.545   0.182
 9063SOL     OW39664   7.334   6.804   6.584
 9063SOL    HW139665   7.383   6.791   6.498
 9063SOL    HW239666   7.245   6.848   6.566
 9064SOL     OW39667   6.118   7.279   0.101
 9064SOL    HW139668   6.176   7.328   0.035
 9064SOL    HW239669   6.175   7.227   0.164
 9065SOL     OW39670   3.994   0.932   5.522
 9065SOL    HW139671   4.077   0.878   5.508
 9065SOL    HW239672   4.002   0.983   5.608
 9066SOL     OW39673   3.362   7.021   6.016
 9066SOL    HW139674   3.309   7.068   6.086
 9066SOL    HW239675   3.350   6.922   6.025
 9067SOL     OW39676   4.241   2.237   1.462
 9067SOL    HW139677   4.290   2.275   1.383
 9067SOL    HW239678   4.289   2.263   1.546
 9068SOL     OW39679   5.254   6.342   7.088
 9068SOL    HW139680   5.206   6.329   7.175
 9068SOL    HW239681   5.274   6.439   7.075
 9069SOL     OW39682   1.056   6.332   0.993
 9069SOL    HW139683   1.045   6.252   0.934
 9069SOL    HW239684   0.991   6.403   0.966
 9070SOL     OW39685   2.141   5.578   0.604
 9070SOL    HW139686   2.167   5.674   0.612
 9070SOL    HW239687   2.217   5.527   0.562
 9071SOL     OW39688   1.292   1.147   1.717
 9071SOL    HW139689   1.329   1.089   1.644
 9071SOL    HW239690   1.252   1.230   1.678
 9072SOL     OW39691   6.035   3.515   2.723
 9072SOL    HW139692   6.087   3.554   2.647
 9072SOL    HW239693   6.062   3.560   2.808
 9073SOL     OW39694   5.056   6.996   4.804
 9073SOL    HW139695   5.001   6.964   4.882
 9073SOL    HW239696   5.119   6.923   4.776
 9074SOL     OW39697   1.077   2.979   5.509
 9074SOL    HW139698   1.131   2.922   5.447
 9074SOL    HW239699   1.085   2.943   5.602
 9075SOL     OW39700   3.541   6.691   6.038
 9075SOL    HW139701   3.457   6.697   5.984
 9075SOL    HW239702   3.618   6.725   5.983
 9076SOL     OW39703   4.164   6.503   1.175
 9076SOL    HW139704   4.183   6.421   1.120
 9076SOL    HW239705   4.119   6.572   1.118
 9077SOL     OW39706   6.982   1.637   2.560
 9077SOL    HW139707   6.903   1.698   2.558
 9077SOL    HW239708   7.063   1.688   2.588
 9078SOL     OW39709   5.385   3.089   6.028
 9078SOL    HW139710   5.482   3.091   6.005
 9078SOL    HW239711   5.354   3.181   6.052
 9079SOL     OW39712   3.635   6.973   2.847
 9079SOL    HW139713   3.538   6.995   2.855
 9079SOL    HW239714   3.663   6.917   2.925
 9080SOL     OW39715   3.828   7.252   0.186
 9080SOL    HW139716   3.807   7.161   0.150
 9080SOL    HW239717   3.910   7.248   0.242
 9081SOL     OW39718   2.327   3.879   0.396
 9081SOL    HW139719   2.405   3.819   0.377
 9081SOL    HW239720   2.355   3.974   0.381
 9082SOL     OW39721   7.052   7.318   0.028
 9082SOL    HW139722   7.015   7.356   0.113
 9082SOL    HW239723   7.143   7.358   0.011
 9083SOL     OW39724   4.142   0.943   6.706
 9083SOL    HW139725   4.156   1.021   6.767
 9083SOL    HW239726   4.172   0.860   6.752
 9084SOL     OW39727   5.867   1.305   1.556
 9084SOL    HW139728   5.899   1.211   1.548
 9084SOL    HW239729   5.804   1.312   1.633
 9085SOL     OW39730   5.702   1.358   2.735
 9085SOL    HW139731   5.798   1.332   2.736
 9085SOL    HW239732   5.645   1.276   2.742
 9086SOL     OW39733   6.180   3.289   6.836
 9086SOL    HW139734   6.152   3.200   6.872
 9086SOL    HW239735   6.103   3.329   6.785
 9087SOL     OW39736   4.963   4.735   2.836
 9087SOL    HW139737   4.970   4.834   2.841
 9087SOL    HW239738   4.867   4.707   2.839
 9088SOL     OW39739   1.075   3.398   6.312
 9088SOL    HW139740   1.059   3.444   6.400
 9088SOL    HW239741   1.157   3.436   6.269
 9089SOL     OW39742   2.153   5.577   6.426
 9089SOL    HW139743   2.058   5.584   6.453
 9089SOL    HW239744   2.168   5.629   6.342
 9090SOL     OW39745   1.746   2.933   5.963
 9090SOL    HW139746   1.679   2.941   5.889
 9090SOL    HW239747   1.804   2.853   5.946
 9091SOL     OW39748   6.965   2.454   6.100
 9091SOL    HW139749   7.032   2.432   6.029
 9091SOL    HW239750   6.977   2.391   6.177
 9092SOL     OW39751   5.169   4.934   0.803
 9092SOL    HW139752   5.212   4.913   0.891
 9092SOL    HW239753   5.156   4.849   0.751
 9093SOL     OW39754   2.897   6.576   1.792
 9093SOL    HW139755   2.833   6.517   1.744
 9093SOL    HW239756   2.990   6.555   1.762
 9094SOL     OW39757   0.401   1.125   3.088
 9094SOL    HW139758   0.304   1.136   3.067
 9094SOL    HW239759   0.456   1.145   3.006
 9095SOL     OW39760   0.926   5.106   5.001
 9095SOL    HW139761   0.862   5.143   5.068
 9095SOL    HW239762   0.955   5.014   5.031
 9096SOL     OW39763   3.725   3.168   4.768
 9096SOL    HW139764   3.630   3.167   4.739
 9096SOL    HW239765   3.730   3.148   4.866
 9097SOL     OW39766   0.920   2.645   2.704
 9097SOL    HW139767   0.928   2.575   2.633
 9097SOL    HW239768   0.971   2.616   2.785
 9098SOL     OW39769   1.746   4.528   3.607
 9098SOL    HW139770   1.686   4.605   3.584
 9098SOL    HW239771   1.723   4.450   3.549
 9099SOL     OW39772   0.820   6.891   5.396
 9099SOL    HW139773   0.909   6.845   5.395
 9099SOL    HW239774   0.825   6.974   5.340
 9100SOL     OW39775   2.242   4.323   7.153
 9100SOL    HW139776   2.155   4.275   7.163
 9100SOL    HW239777   2.277   4.311   7.060
 9101SOL     OW39778   4.374   0.594   7.185
 9101SOL    HW139779   4.381   0.692   7.167
 9101SOL    HW239780   4.281   0.572   7.214
 9102SOL     OW39781   2.199   4.883   3.954
 9102SOL    HW139782   2.130   4.813   3.934
 9102SOL    HW239783   2.171   4.970   3.912
 9103SOL     OW39784   5.405   2.747   0.948
 9103SOL    HW139785   5.499   2.756   0.916
 9103SOL    HW239786   5.341   2.766   0.873
 9104SOL     OW39787   1.029   5.650   2.025
 9104SOL    HW139788   1.104   5.591   2.056
 9104SOL    HW239789   0.941   5.609   2.052
 9105SOL     OW39790   4.625   1.793   3.675
 9105SOL    HW139791   4.673   1.708   3.655
 9105SOL    HW239792   4.690   1.861   3.709
 9106SOL     OW39793   0.954   3.377   2.034
 9106SOL    HW139794   0.965   3.449   2.102
 9106SOL    HW239795   1.039   3.367   1.982
 9107SOL     OW39796   6.110   5.208   4.557
 9107SOL    HW139797   6.159   5.284   4.597
 9107SOL    HW239798   6.014   5.211   4.585
 9108SOL     OW39799   6.998   3.424   5.729
 9108SOL    HW139800   6.966   3.501   5.674
 9108SOL    HW239801   7.074   3.453   5.786
 9109SOL     OW39802   7.333   6.546   7.084
 9109SOL    HW139803   7.312   6.473   7.149
 9109SOL    HW239804   7.408   6.517   7.025
 9110SOL     OW39805   2.853   1.664   0.202
 9110SOL    HW139806   2.920   1.611   0.150
 9110SOL    HW239807   2.866   1.646   0.300
 9111SOL     OW39808   2.438   6.677   1.733
 9111SOL    HW139809   2.390   6.688   1.820
 9111SOL    HW239810   2.530   6.717   1.740
 9112SOL     OW39811   6.321   3.912   2.634
 9112SOL    HW139812   6.393   3.906   2.565
 9112SOL    HW239813   6.285   4.006   2.636
 9113SOL     OW39814   5.858   1.789   6.148
 9113SOL    HW139815   5.827   1.695   6.135
 9113SOL    HW239816   5.949   1.789   6.190
 9114SOL     OW39817   3.931   5.577   2.040
 9114SOL    HW139818   3.937   5.613   1.947
 9114SOL    HW239819   3.871   5.497   2.041
 9115SOL     OW39820   3.816   2.914   2.585
 9115SOL    HW139821   3.782   3.006   2.565
 9115SOL    HW239822   3.911   2.906   2.554
 9116SOL     OW39823   7.254   4.889   7.260
 9116SOL    HW139824   7.294   4.929   7.342
 9116SOL    HW239825   7.327   4.858   7.199
 9117SOL     OW39826   2.500   3.448   3.757
 9117SOL    HW139827   2.484   3.423   3.662
 9117SOL    HW239828   2.441   3.394   3.817
 9118SOL     OW39829   0.827   5.755   2.328
 9118SOL    HW139830   0.881   5.839   2.319
 9118SOL    HW239831   0.758   5.753   2.256
 9119SOL     OW39832   3.505   5.299   2.010
 9119SOL    HW139833   3.497   5.202   1.989
 9119SOL    HW239834   3.417   5.335   2.040
 9120SOL     OW39835   5.901   5.943   2.655
 9120SOL    HW139836   5.897   5.952   2.556
 9120SOL    HW239837   5.959   5.866   2.680
 9121SOL     OW39838   5.339   4.852   4.904
 9121SOL    HW139839   5.429   4.881   4.869
 9121SOL    HW239840   5.329   4.885   4.998
 9122SOL     OW39841   3.710   5.758   7.081
 9122SOL    HW139842   3.678   5.756   7.175
 9122SOL    HW239843   3.791   5.817   7.074
 9123SOL     OW39844   5.843   6.965   3.831
 9123SOL    HW139845   5.869   6.882   3.880
 9123SOL    HW239846   5.924   7.007   3.791
 9124SOL     OW39847   3.241   1.081   4.948
 9124SOL    HW139848   3.327   1.050   4.905
 9124SOL    HW239849   3.174   1.006   4.945
 9125SOL     OW39850   4.596   2.396   3.949
 9125SOL    HW139851   4.589   2.329   3.875
 9125SOL    HW239852   4.505   2.429   3.973
 9126SOL     OW39853   4.948   6.483   4.619
 9126SOL    HW139854   4.918   6.387   4.624
 9126SOL    HW239855   4.882   6.536   4.566
 9127SOL     OW39856   3.873   3.380   2.569
 9127SOL    HW139857   3.840   3.412   2.480
 9127SOL    HW239858   3.973   3.379   2.570
 9128SOL     OW39859   5.824   7.145   1.631
 9128SOL    HW139860   5.901   7.208   1.633
 9128SOL    HW239861   5.783   7.139   1.722
 9129SOL     OW39862   3.596   5.283   6.410
 9129SOL    HW139863   3.526   5.277   6.481
 9129SOL    HW239864   3.574   5.357   6.347
 9130SOL     OW39865   6.806   4.220   6.446
 9130SOL    HW139866   6.836   4.247   6.537
 9130SOL    HW239867   6.725   4.272   6.421
 9131SOL     OW39868   1.536   4.551   4.644
 9131SOL    HW139869   1.613   4.564   4.582
 9131SOL    HW239870   1.488   4.467   4.620
 9132SOL     OW39871   3.650   0.380   6.211
 9132SOL    HW139872   3.650   0.476   6.238
 9132SOL    HW239873   3.694   0.371   6.121
 9133SOL     OW39874   5.249   3.934   2.347
 9133SOL    HW139875   5.261   3.954   2.444
 9133SOL    HW239876   5.236   3.836   2.334
 9134SOL     OW39877   0.904   2.672   5.521
 9134SOL    HW139878   0.847   2.591   5.512
 9134SOL    HW239879   0.918   2.714   5.431
 9135SOL     OW39880   7.093   5.001   6.892
 9135SOL    HW139881   7.192   4.988   6.894
 9135SOL    HW239882   7.072   5.088   6.845
 9136SOL     OW39883   3.584   2.525   6.080
 9136SOL    HW139884   3.662   2.474   6.043
 9136SOL    HW239885   3.579   2.511   6.179
 9137SOL     OW39886   5.138   6.581   2.438
 9137SOL    HW139887   5.181   6.638   2.367
 9137SOL    HW239888   5.102   6.498   2.397
 9138SOL     OW39889   1.891   6.411   7.172
 9138SOL    HW139890   1.810   6.436   7.226
 9138SOL    HW239891   1.895   6.311   7.163
 9139SOL     OW39892   2.845   1.709   6.011
 9139SOL    HW139893   2.804   1.735   5.924
 9139SOL    HW239894   2.814   1.618   6.038
 9140SOL     OW39895   3.328   5.517   6.077
 9140SOL    HW139896   3.300   5.494   5.984
 9140SOL    HW239897   3.251   5.504   6.140
 9141SOL     OW39898   4.785   0.388   6.525
 9141SOL    HW139899   4.786   0.477   6.480
 9141SOL    HW239900   4.877   0.366   6.558
 9142SOL     OW39901   3.639   6.395   1.098
 9142SOL    HW139902   3.714   6.360   1.154
 9142SOL    HW239903   3.605   6.322   1.038
 9143SOL     OW39904   6.668   3.502   6.510
 9143SOL    HW139905   6.697   3.407   6.514
 9143SOL    HW239906   6.568   3.507   6.513
 9144SOL     OW39907   0.905   4.278   6.231
 9144SOL    HW139908   0.984   4.240   6.279
 9144SOL    HW239909   0.838   4.206   6.215
 9145SOL     OW39910   0.759   4.032   1.801
 9145SOL    HW139911   0.696   3.955   1.810
 9145SOL    HW239912   0.847   4.009   1.840
 9146SOL     OW39913   5.815   0.303   3.423
 9146SOL    HW139914   5.890   0.325   3.361
 9146SOL    HW239915   5.728   0.332   3.382
 9147SOL     OW39916   6.171   4.647   7.327
 9147SOL    HW139917   6.199   4.714   7.396
 9147SOL    HW239918   6.236   4.572   7.325
 9148SOL     OW39919   2.858   3.687   3.151
 9148SOL    HW139920   2.763   3.660   3.164
 9148SOL    HW239921   2.895   3.721   3.237
 9149SOL     OW39922   7.236   0.636   1.512
 9149SOL    HW139923   7.289   0.591   1.584
 9149SOL    HW239924   7.189   0.715   1.551
 9150SOL     OW39925   1.485   3.604   4.396
 9150SOL    HW139926   1.540   3.552   4.331
 9150SOL    HW239927   1.535   3.612   4.482
 9151SOL     OW39928   6.383   6.734   3.304
 9151SOL    HW139929   6.377   6.655   3.365
 9151SOL    HW239930   6.294   6.751   3.263
 9152SOL     OW39931   1.729   7.298   6.895
 9152SOL    HW139932   1.808   7.247   6.863
 9152SOL    HW239933   1.667   7.313   6.818
 9153SOL     OW39934   0.078   6.351   2.080
 9153SOL    HW139935  -0.005   6.370   2.027
 9153SOL    HW239936   0.156   6.343   2.017
 9154SOL     OW39937   6.975   0.475   6.398
 9154SOL    HW139938   6.893   0.482   6.342
 9154SOL    HW239939   7.056   0.475   6.339
 9155SOL     OW39940   4.787   4.377   0.124
 9155SOL    HW139941   4.716   4.405   0.059
 9155SOL    HW239942   4.856   4.449   0.132
 9156SOL     OW39943   1.266   1.375   2.676
 9156SOL    HW139944   1.211   1.392   2.757
 9156SOL    HW239945   1.350   1.428   2.681
 9157SOL     OW39946   5.971   4.772   2.065
 9157SOL    HW139947   5.913   4.807   1.991
 9157SOL    HW239948   6.013   4.848   2.113
 9158SOL     OW39949   6.414   3.445   6.783
 9158SOL    HW139950   6.411   3.482   6.690
 9158SOL    HW239951   6.341   3.378   6.794
 9159SOL     OW39952   0.909   3.653   6.753
 9159SOL    HW139953   0.815   3.644   6.787
 9159SOL    HW239954   0.931   3.749   6.740
 9160SOL     OW39955   5.242   0.130   6.929
 9160SOL    HW139956   5.306   0.079   6.871
 9160SOL    HW239957   5.254   0.102   7.024
 9161SOL     OW39958   3.351   1.941   4.632
 9161SOL    HW139959   3.427   1.923   4.694
 9161SOL    HW239960   3.365   1.890   4.547
 9162SOL     OW39961   0.987   4.674   1.509
 9162SOL    HW139962   0.946   4.753   1.463
 9162SOL    HW239963   1.044   4.706   1.585
 9163SOL     OW39964   5.926   2.285   2.587
 9163SOL    HW139965   5.840   2.253   2.549
 9163SOL    HW239966   6.002   2.238   2.542
 9164SOL     OW39967   1.986   6.618   6.930
 9164SOL    HW139968   2.042   6.588   7.007
 9164SOL    HW239969   2.017   6.708   6.899
 9165SOL     OW39970   3.734   1.367   2.760
 9165SOL    HW139971   3.696   1.402   2.675
 9165SOL    HW239972   3.803   1.430   2.794
 9166SOL     OW39973   5.458   2.100   3.844
 9166SOL    HW139974   5.476   2.033   3.916
 9166SOL    HW239975   5.505   2.072   3.760
 9167SOL     OW39976   5.661   1.285   0.408
 9167SOL    HW139977   5.632   1.377   0.433
 9167SOL    HW239978   5.747   1.263   0.454
 9168SOL     OW39979   3.666   0.388   3.577
 9168SOL    HW139980   3.751   0.422   3.617
 9168SOL    HW239981   3.589   0.444   3.609
 9169SOL     OW39982   2.848   5.356   4.266
 9169SOL    HW139983   2.861   5.448   4.303
 9169SOL    HW239984   2.756   5.324   4.287
 9170SOL     OW39985   4.975   3.835   0.477
 9170SOL    HW139986   4.940   3.892   0.402
 9170SOL    HW239987   4.970   3.739   0.451
 9171SOL     OW39988   3.923   3.860   1.802
 9171SOL    HW139989   3.994   3.810   1.853
 9171SOL    HW239990   3.865   3.910   1.866
 9172SOL     OW39991   0.355   2.991   3.310
 9172SOL    HW139992   0.453   2.989   3.289
 9172SOL    HW239993   0.341   2.982   3.408
 9173SOL     OW39994   3.988   6.630   4.682
 9173SOL    HW139995   4.085   6.606   4.670
 9173SOL    HW239996   3.964   6.701   4.616
 9174SOL     OW39997   2.476   6.908   1.088
 9174SOL    HW139998   2.405   6.927   1.020
 9174SOL    HW239999   2.439   6.848   1.159
 9175SOL     OW40000   2.781   6.266   6.130
 9175SOL    HW140001   2.788   6.195   6.201
 9175SOL    HW240002   2.799   6.355   6.170
 9176SOL     OW40003   4.382   6.570   1.344
 9176SOL    HW140004   4.470   6.544   1.304
 9176SOL    HW240005   4.308   6.531   1.289
 9177SOL     OW40006   0.742   3.864   4.004
 9177SOL    HW140007   0.777   3.853   4.097
 9177SOL    HW240008   0.659   3.810   3.993
 9178SOL     OW40009   2.636   2.293   2.030
 9178SOL    HW140010   2.704   2.259   1.965
 9178SOL    HW240011   2.569   2.221   2.048
 9179SOL     OW40012   3.240   2.509   6.731
 9179SOL    HW140013   3.205   2.456   6.654
 9179SOL    HW240014   3.327   2.551   6.707
 9180SOL     OW40015   4.454   4.821   6.024
 9180SOL    HW140016   4.476   4.724   6.013
 9180SOL    HW240017   4.538   4.875   6.019
 9181SOL     OW40018   2.171   4.808   4.229
 9181SOL    HW140019   2.164   4.865   4.148
 9181SOL    HW240020   2.234   4.732   4.211
 9182SOL     OW40021   6.096   3.100   3.549
 9182SOL    HW140022   6.188   3.062   3.533
 9182SOL    HW240023   6.035   3.069   3.476
 9183SOL     OW40024   5.692   5.579   0.801
 9183SOL    HW140025   5.657   5.656   0.748
 9183SOL    HW240026   5.625   5.504   0.800
 9184SOL     OW40027   0.888   4.962   6.725
 9184SOL    HW140028   0.938   5.034   6.677
 9184SOL    HW240029   0.952   4.910   6.783
 9185SOL     OW40030   3.894   7.178   2.720
 9185SOL    HW140031   3.813   7.119   2.722
 9185SOL    HW240032   3.960   7.148   2.788
 9186SOL     OW40033   3.626   5.427   1.778
 9186SOL    HW140034   3.626   5.408   1.876
 9186SOL    HW240035   3.600   5.345   1.728
 9187SOL     OW40036   0.920   6.676   3.697
 9187SOL    HW140037   0.899   6.751   3.634
 9187SOL    HW240038   0.955   6.713   3.783
 9188SOL     OW40039   6.514   2.773   3.515
 9188SOL    HW140040   6.541   2.712   3.440
 9188SOL    HW240041   6.529   2.727   3.602
 9189SOL     OW40042   3.426   0.236   6.592
 9189SOL    HW140043   3.387   0.251   6.683
 9189SOL    HW240044   3.391   0.306   6.529
 9190SOL     OW40045   0.354   1.047   1.843
 9190SOL    HW140046   0.417   1.068   1.769
 9190SOL    HW240047   0.260   1.066   1.815
 9191SOL     OW40048   6.247   6.692   4.062
 9191SOL    HW140049   6.345   6.679   4.074
 9191SOL    HW240050   6.230   6.761   3.992
 9192SOL     OW40051   5.056   5.896   3.671
 9192SOL    HW140052   5.045   5.995   3.662
 9192SOL    HW240053   4.978   5.858   3.720
 9193SOL     OW40054   6.632   3.686   4.340
 9193SOL    HW140055   6.598   3.640   4.422
 9193SOL    HW240056   6.589   3.776   4.333
 9194SOL     OW40057   1.344   5.186   0.805
 9194SOL    HW140058   1.439   5.216   0.810
 9194SOL    HW240059   1.286   5.264   0.778
 9195SOL     OW40060   1.718   4.039   5.980
 9195SOL    HW140061   1.746   3.949   5.947
 9195SOL    HW240062   1.619   4.049   5.969
 9196SOL     OW40063   2.794   4.568   0.247
 9196SOL    HW140064   2.867   4.613   0.196
 9196SOL    HW240065   2.727   4.530   0.184
 9197SOL     OW40066   4.405   7.307   5.636
 9197SOL    HW140067   4.338   7.363   5.588
 9197SOL    HW240068   4.486   7.294   5.578
 9198SOL     OW40069   0.762   2.437   1.298
 9198SOL    HW140070   0.710   2.520   1.319
 9198SOL    HW240071   0.837   2.428   1.363
 9199SOL     OW40072   1.650   0.750   3.598
 9199SOL    HW140073   1.689   0.674   3.650
 9199SOL    HW240074   1.556   0.727   3.572
 9200SOL     OW40075   1.051   3.637   4.119
 9200SOL    HW140076   1.139   3.651   4.165
 9200SOL    HW240077   1.057   3.675   4.026
 9201SOL     OW40078   0.014   2.680   2.505
 9201SOL    HW140079   0.019   2.608   2.437
 9201SOL    HW240080  -0.016   2.765   2.461
 9202SOL     OW40081   6.138   0.332   2.069
 9202SOL    HW140082   6.175   0.388   1.994
 9202SOL    HW240083   6.078   0.388   2.125
 9203SOL     OW40084   3.879   3.389   6.485
 9203SOL    HW140085   3.938   3.309   6.485
 9203SOL    HW240086   3.834   3.397   6.574
 9204SOL     OW40087   6.087   0.301   1.509
 9204SOL    HW140088   6.157   0.260   1.567
 9204SOL    HW240089   6.130   0.338   1.426
 9205SOL     OW40090   4.094   6.054   7.167
 9205SOL    HW140091   4.076   6.124   7.236
 9205SOL    HW240092   4.193   6.044   7.155
 9206SOL     OW40093   2.131   0.866   3.126
 9206SOL    HW140094   2.203   0.930   3.153
 9206SOL    HW240095   2.093   0.895   3.038
 9207SOL     OW40096   4.959   6.901   6.705
 9207SOL    HW140097   4.956   7.001   6.708
 9207SOL    HW240098   4.888   6.867   6.644
 9208SOL     OW40099   0.577   4.479   6.865
 9208SOL    HW140100   0.480   4.483   6.841
 9208SOL    HW240101   0.601   4.385   6.890
 9209SOL     OW40102   5.665   1.763   0.519
 9209SOL    HW140103   5.724   1.827   0.472
 9209SOL    HW240104   5.591   1.813   0.565
 9210SOL     OW40105   6.580   2.607   3.784
 9210SOL    HW140106   6.628   2.582   3.700
 9210SOL    HW240107   6.619   2.691   3.822
 9211SOL     OW40108   6.723   7.243   0.287
 9211SOL    HW140109   6.718   7.167   0.352
 9211SOL    HW240110   6.650   7.309   0.307
 9212SOL     OW40111   2.498   3.912   1.494
 9212SOL    HW140112   2.470   3.857   1.415
 9212SOL    HW240113   2.593   3.892   1.517
 9213SOL     OW40114   5.464   2.864   1.634
 9213SOL    HW140115   5.397   2.921   1.682
 9213SOL    HW240116   5.424   2.775   1.615
 9214SOL     OW40117   2.421   4.037   4.855
 9214SOL    HW140118   2.346   3.983   4.816
 9214SOL    HW240119   2.505   3.984   4.853
 9215SOL     OW40120   2.286   5.095   5.478
 9215SOL    HW140121   2.273   5.116   5.381
 9215SOL    HW240122   2.231   5.157   5.533
 9216SOL     OW40123   1.341   6.730   5.450
 9216SOL    HW140124   1.412   6.735   5.379
 9216SOL    HW240125   1.378   6.684   5.530
 9217SOL     OW40126   6.901   2.058   6.930
 9217SOL    HW140127   6.948   1.974   6.959
 9217SOL    HW240128   6.950   2.099   6.853
 9218SOL     OW40129   6.470   5.865   2.760
 9218SOL    HW140130   6.461   5.961   2.734
 9218SOL    HW240131   6.383   5.819   2.747
 9219SOL     OW40132   6.436   4.952   3.475
 9219SOL    HW140133   6.523   4.998   3.458
 9219SOL    HW240134   6.373   4.971   3.400
 9220SOL     OW40135   3.020   5.111   5.880
 9220SOL    HW140136   3.018   5.121   5.980
 9220SOL    HW240137   3.114   5.109   5.848
 9221SOL     OW40138   4.198   1.648   4.165
 9221SOL    HW140139   4.203   1.580   4.091
 9221SOL    HW240140   4.265   1.720   4.148
 9222SOL     OW40141   0.969   6.102   4.835
 9222SOL    HW140142   1.065   6.109   4.809
 9222SOL    HW240143   0.962   6.100   4.935
 9223SOL     OW40144   7.241   3.232   3.662
 9223SOL    HW140145   7.227   3.210   3.565
 9223SOL    HW240146   7.291   3.319   3.669
 9224SOL     OW40147   4.185   3.285   1.561
 9224SOL    HW140148   4.151   3.205   1.611
 9224SOL    HW240149   4.128   3.365   1.583
 9225SOL     OW40150   4.751   0.124   1.538
 9225SOL    HW140151   4.845   0.116   1.572
 9225SOL    HW240152   4.752   0.166   1.447
 9226SOL     OW40153   5.797   4.928   4.688
 9226SOL    HW140154   5.750   4.874   4.618
 9226SOL    HW240155   5.821   5.017   4.650
 9227SOL     OW40156   0.955   0.669   6.260
 9227SOL    HW140157   0.976   0.740   6.193
 9227SOL    HW240158   0.864   0.631   6.241
 9228SOL     OW40159   6.527   4.899   2.680
 9228SOL    HW140160   6.507   4.901   2.582
 9228SOL    HW240161   6.538   4.804   2.710
 9229SOL     OW40162   6.373   3.773   1.745
 9229SOL    HW140163   6.456   3.727   1.712
 9229SOL    HW240164   6.292   3.725   1.712
 9230SOL     OW40165   2.518   5.682   1.143
 9230SOL    HW140166   2.560   5.645   1.226
 9230SOL    HW240167   2.501   5.780   1.155
 9231SOL     OW40168   6.115   4.620   4.849
 9231SOL    HW140169   6.070   4.710   4.852
 9231SOL    HW240170   6.118   4.588   4.755
 9232SOL     OW40171   6.206   4.454   2.916
 9232SOL    HW140172   6.138   4.471   2.846
 9232SOL    HW240173   6.204   4.358   2.943
 9233SOL     OW40174   5.670   1.039   1.800
 9233SOL    HW140175   5.600   0.968   1.811
 9233SOL    HW240176   5.629   1.119   1.757
 9234SOL     OW40177   5.180   0.041   3.505
 9234SOL    HW140178   5.179  -0.053   3.473
 9234SOL    HW240179   5.086   0.075   3.511
 9235SOL     OW40180   2.566   6.041   6.967
 9235SOL    HW140181   2.624   6.014   7.044
 9235SOL    HW240182   2.470   6.022   6.990
 9236SOL     OW40183   5.050   7.017   0.017
 9236SOL    HW140184   5.001   7.067  -0.054
 9236SOL    HW240185   4.988   6.997   0.093
 9237SOL     OW40186   0.342   5.588   3.820
 9237SOL    HW140187   0.295   5.653   3.761
 9237SOL    HW240188   0.308   5.496   3.801
 9238SOL     OW40189   0.734   0.120   7.262
 9238SOL    HW140190   0.779   0.080   7.182
 9238SOL    HW240191   0.677   0.197   7.234
 9239SOL     OW40192   1.145   0.058   7.082
 9239SOL    HW140193   1.216   0.129   7.082
 9239SOL    HW240194   1.107   0.050   7.175
 9240SOL     OW40195   5.345   5.439   2.119
 9240SOL    HW140196   5.288   5.366   2.079
 9240SOL    HW240197   5.304   5.528   2.099
 9241SOL     OW40198   1.013   3.396   4.288
 9241SOL    HW140199   0.914   3.386   4.303
 9241SOL    HW240200   1.029   3.464   4.217
 9242SOL     OW40201   4.719   6.843   5.241
 9242SOL    HW140202   4.679   6.934   5.254
 9242SOL    HW240203   4.759   6.812   5.327
 9243SOL     OW40204   3.556   4.161   3.424
 9243SOL    HW140205   3.588   4.068   3.445
 9243SOL    HW240206   3.468   4.176   3.468
 9244SOL     OW40207   0.863   2.048   7.105
 9244SOL    HW140208   0.901   1.956   7.092
 9244SOL    HW240209   0.887   2.081   7.197
 9245SOL     OW40210   7.029   4.841   7.105
 9245SOL    HW140211   7.028   4.900   7.024
 9245SOL    HW240212   7.100   4.874   7.167
 9246SOL     OW40213   6.086   6.664   6.275
 9246SOL    HW140214   6.061   6.716   6.356
 9246SOL    HW240215   6.134   6.580   6.302
 9247SOL     OW40216   4.296   2.483   0.930
 9247SOL    HW140217   4.246   2.501   1.015
 9247SOL    HW240218   4.374   2.545   0.923
 9248SOL     OW40219   1.032   4.270   0.862
 9248SOL    HW140220   1.010   4.339   0.930
 9248SOL    HW240221   1.053   4.314   0.775
 9249SOL     OW40222   2.145   5.078   7.125
 9249SOL    HW140223   2.235   5.045   7.155
 9249SOL    HW240224   2.101   5.008   7.069
 9250SOL     OW40225   6.502   5.449   3.117
 9250SOL    HW140226   6.509   5.351   3.097
 9250SOL    HW240227   6.496   5.462   3.216
 9251SOL     OW40228   4.670   4.189   6.113
 9251SOL    HW140229   4.671   4.238   6.201
 9251SOL    HW240230   4.575   4.172   6.085
 9252SOL     OW40231   6.024   4.270   0.073
 9252SOL    HW140232   6.088   4.194   0.086
 9252SOL    HW240233   6.033   4.305  -0.020
 9253SOL     OW40234   4.751   1.474   2.156
 9253SOL    HW140235   4.687   1.443   2.226
 9253SOL    HW240236   4.772   1.571   2.170
 9254SOL     OW40237   5.228   4.201   4.227
 9254SOL    HW140238   5.287   4.180   4.149
 9254SOL    HW240239   5.134   4.171   4.206
 9255SOL     OW40240   1.307   1.100   2.653
 9255SOL    HW140241   1.305   1.198   2.635
 9255SOL    HW240242   1.373   1.080   2.726
 9256SOL     OW40243   2.514   4.737   0.508
 9256SOL    HW140244   2.537   4.794   0.430
 9256SOL    HW240245   2.490   4.645   0.477
 9257SOL     OW40246   1.764   4.219   2.745
 9257SOL    HW140247   1.785   4.221   2.842
 9257SOL    HW240248   1.797   4.133   2.705
 9258SOL     OW40249   6.062   3.262   1.445
 9258SOL    HW140250   6.002   3.204   1.500
 9258SOL    HW240251   6.048   3.358   1.471
 9259SOL     OW40252   7.151   2.282   1.494
 9259SOL    HW140253   7.195   2.234   1.418
 9259SOL    HW240254   7.180   2.242   1.580
 9260SOL     OW40255   6.931   1.891   4.916
 9260SOL    HW140256   6.872   1.971   4.913
 9260SOL    HW240257   6.925   1.848   5.006
 9261SOL     OW40258   6.141   2.790   6.940
 9261SOL    HW140259   6.082   2.798   7.020
 9261SOL    HW240260   6.234   2.766   6.969
 9262SOL     OW40261   6.925   3.482   3.986
 9262SOL    HW140262   6.896   3.459   4.079
 9262SOL    HW240263   6.971   3.404   3.945
 9263SOL     OW40264   0.412   2.622   7.107
 9263SOL    HW140265   0.511   2.629   7.099
 9263SOL    HW240266   0.382   2.663   7.193
 9264SOL     OW40267   2.505   5.678   0.856
 9264SOL    HW140268   2.510   5.637   0.946
 9264SOL    HW240269   2.596   5.710   0.829
 9265SOL     OW40270   5.883   6.402   4.048
 9265SOL    HW140271   5.841   6.317   4.016
 9265SOL    HW240272   5.969   6.417   3.999
 9266SOL     OW40273   0.106   5.189   0.750
 9266SOL    HW140274   0.164   5.270   0.760
 9266SOL    HW240275   0.083   5.154   0.841
 9267SOL     OW40276   4.567   0.822   0.040
 9267SOL    HW140277   4.637   0.884   0.076
 9267SOL    HW240278   4.604   0.773  -0.039
 9268SOL     OW40279   1.080   2.766   3.465
 9268SOL    HW140280   1.074   2.666   3.458
 9268SOL    HW240281   1.124   2.802   3.383
 9269SOL     OW40282   1.188   4.843   3.240
 9269SOL    HW140283   1.228   4.753   3.229
 9269SOL    HW240284   1.199   4.874   3.334
 9270SOL     OW40285   2.363   7.005   4.637
 9270SOL    HW140286   2.359   7.075   4.708
 9270SOL    HW240287   2.281   6.947   4.642
 9271SOL     OW40288   7.239   0.583   2.112
 9271SOL    HW140289   7.316   0.547   2.165
 9271SOL    HW240290   7.171   0.511   2.099
 9272SOL     OW40291   5.343   2.970   7.260
 9272SOL    HW140292   5.303   3.002   7.174
 9272SOL    HW240293   5.431   2.925   7.241
 9273SOL     OW40294   2.332   4.896   0.182
 9273SOL    HW140295   2.341   4.798   0.198
 9273SOL    HW240296   2.420   4.934   0.152
 9274SOL     OW40297   1.613   1.384   0.604
 9274SOL    HW140298   1.587   1.295   0.566
 9274SOL    HW240299   1.681   1.370   0.676
 9275SOL     OW40300   6.072   3.666   0.844
 9275SOL    HW140301   6.055   3.658   0.746
 9275SOL    HW240302   6.168   3.688   0.860
 9276SOL     OW40303   4.184   0.792   2.514
 9276SOL    HW140304   4.192   0.816   2.417
 9276SOL    HW240305   4.139   0.866   2.563
 9277SOL     OW40306   2.702   0.083   0.256
 9277SOL    HW140307   2.678   0.086   0.353
 9277SOL    HW240308   2.783   0.025   0.244
 9278SOL     OW40309   2.075   6.603   5.819
 9278SOL    HW140310   1.977   6.584   5.827
 9278SOL    HW240311   2.124   6.554   5.891
 9279SOL     OW40312   2.672   3.473   5.759
 9279SOL    HW140313   2.575   3.456   5.776
 9279SOL    HW240314   2.705   3.410   5.689
 9280SOL     OW40315   1.419   4.072   0.582
 9280SOL    HW140316   1.387   4.159   0.621
 9280SOL    HW240317   1.505   4.088   0.533
 9281SOL     OW40318   0.277   3.695   1.362
 9281SOL    HW140319   0.313   3.737   1.279
 9281SOL    HW240320   0.351   3.649   1.411
 9282SOL     OW40321   5.414   0.214   4.624
 9282SOL    HW140322   5.323   0.242   4.655
 9282SOL    HW240323   5.476   0.292   4.626
 9283SOL     OW40324   6.344   6.341   7.308
 9283SOL    HW140325   6.310   6.334   7.214
 9283SOL    HW240326   6.325   6.256   7.357
 9284SOL     OW40327   1.318   0.788   1.154
 9284SOL    HW140328   1.300   0.808   1.251
 9284SOL    HW240329   1.342   0.692   1.145
 9285SOL     OW40330   4.633   5.114   3.473
 9285SOL    HW140331   4.677   5.200   3.497
 9285SOL    HW240332   4.534   5.123   3.485
 9286SOL     OW40333   2.006   4.187   7.195
 9286SOL    HW140334   1.996   4.088   7.205
 9286SOL    HW240335   1.920   4.226   7.161
 9287SOL     OW40336   5.916   3.511   2.090
 9287SOL    HW140337   5.837   3.537   2.034
 9287SOL    HW240338   5.917   3.568   2.173
 9288SOL     OW40339   4.729   1.002   0.142
 9288SOL    HW140340   4.754   1.074   0.078
 9288SOL    HW240341   4.648   1.029   0.194
 9289SOL     OW40342   1.983   3.453   5.795
 9289SOL    HW140343   2.047   3.444   5.719
 9289SOL    HW240344   1.968   3.363   5.836
 9290SOL     OW40345   1.505   0.055   0.359
 9290SOL    HW140346   1.437   0.111   0.312
 9290SOL    HW240347   1.577   0.113   0.398
 9291SOL     OW40348   2.261   4.203   0.828
 9291SOL    HW140349   2.216   4.266   0.891
 9291SOL    HW240350   2.340   4.248   0.786
 9292SOL     OW40351   1.760   3.999   2.013
 9292SOL    HW140352   1.721   4.065   1.949
 9292SOL    HW240353   1.818   3.934   1.964
 9293SOL     OW40354   2.000   2.758   5.699
 9293SOL    HW140355   1.990   2.757   5.798
 9293SOL    HW240356   1.950   2.836   5.661
 9294SOL     OW40357   1.452   4.527   5.065
 9294SOL    HW140358   1.365   4.534   5.114
 9294SOL    HW240359   1.510   4.604   5.088
 9295SOL     OW40360   4.409   1.503   4.406
 9295SOL    HW140361   4.342   1.492   4.479
 9295SOL    HW240362   4.364   1.539   4.325
 9296SOL     OW40363   3.605   4.180   4.447
 9296SOL    HW140364   3.557   4.159   4.533
 9296SOL    HW240365   3.620   4.279   4.441
 9297SOL     OW40366   5.045   7.240   5.028
 9297SOL    HW140367   5.057   7.181   4.948
 9297SOL    HW240368   5.021   7.185   5.107
 9298SOL     OW40369   6.610   5.279   5.539
 9298SOL    HW140370   6.553   5.334   5.599
 9298SOL    HW240371   6.558   5.252   5.458
 9299SOL     OW40372   4.224   4.579   1.836
 9299SOL    HW140373   4.270   4.570   1.925
 9299SOL    HW240374   4.193   4.673   1.825
 9300SOL     OW40375   4.569   3.546   5.229
 9300SOL    HW140376   4.668   3.530   5.230
 9300SOL    HW240377   4.548   3.629   5.279
 9301SOL     OW40378   0.160   2.652   2.722
 9301SOL    HW140379   0.111   2.665   2.636
 9301SOL    HW240380   0.206   2.737   2.748
 9302SOL     OW40381   2.916   2.086   0.729
 9302SOL    HW140382   2.858   2.151   0.777
 9302SOL    HW240383   2.985   2.135   0.676
 9303SOL     OW40384   7.340   2.799   0.094
 9303SOL    HW140385   7.333   2.778  -0.004
 9303SOL    HW240386   7.251   2.833   0.127
 9304SOL     OW40387   0.575   3.940   5.883
 9304SOL    HW140388   0.590   3.842   5.889
 9304SOL    HW240389   0.488   3.964   5.927
 9305SOL     OW40390   6.730   7.228   2.670
 9305SOL    HW140391   6.716   7.136   2.708
 9305SOL    HW240392   6.685   7.234   2.581
 9306SOL     OW40393   6.219   0.670   5.032
 9306SOL    HW140394   6.155   0.693   4.959
 9306SOL    HW240395   6.312   0.673   4.997
 9307SOL     OW40396   2.602   2.573   4.109
 9307SOL    HW140397   2.541   2.530   4.043
 9307SOL    HW240398   2.572   2.667   4.126
 9308SOL     OW40399   6.152   7.064   2.490
 9308SOL    HW140400   6.165   7.141   2.428
 9308SOL    HW240401   6.106   6.990   2.442
 9309SOL     OW40402   2.808   2.974   4.176
 9309SOL    HW140403   2.834   2.952   4.270
 9309SOL    HW240404   2.866   2.923   4.113
 9310SOL     OW40405   2.795   7.110   2.275
 9310SOL    HW140406   2.748   7.162   2.204
 9310SOL    HW240407   2.735   7.038   2.310
 9311SOL     OW40408   7.309   2.932   2.745
 9311SOL    HW140409   7.404   2.902   2.750
 9311SOL    HW240410   7.289   2.993   2.822
 9312SOL     OW40411   2.112   6.745   5.580
 9312SOL    HW140412   2.209   6.723   5.577
 9312SOL    HW240413   2.069   6.698   5.658
 9313SOL     OW40414   5.995   7.338   4.641
 9313SOL    HW140415   5.974   7.379   4.552
 9313SOL    HW240416   6.042   7.251   4.627
 9314SOL     OW40417   1.842   3.157   6.376
 9314SOL    HW140418   1.896   3.241   6.389
 9314SOL    HW240419   1.843   3.132   6.279
 9315SOL     OW40420   1.218   4.910   3.791
 9315SOL    HW140421   1.247   4.838   3.729
 9315SOL    HW240422   1.153   4.970   3.744
 9316SOL     OW40423   6.187   3.671   2.578
 9316SOL    HW140424   6.207   3.665   2.480
 9316SOL    HW240425   6.214   3.761   2.612
 9317SOL     OW40426   2.924   1.936   1.852
 9317SOL    HW140427   2.843   1.990   1.873
 9317SOL    HW240428   2.900   1.839   1.845
 9318SOL     OW40429   3.658   0.613   0.292
 9318SOL    HW140430   3.733   0.547   0.298
 9318SOL    HW240431   3.582   0.582   0.349
 9319SOL     OW40432   1.614   4.880   1.819
 9319SOL    HW140433   1.704   4.872   1.861
 9319SOL    HW240434   1.622   4.871   1.719
 9320SOL     OW40435   3.825   0.493   6.482
 9320SOL    HW140436   3.750   0.437   6.518
 9320SOL    HW240437   3.910   0.469   6.529
 9321SOL     OW40438   4.677   5.204   1.725
 9321SOL    HW140439   4.740   5.214   1.648
 9321SOL    HW240440   4.630   5.290   1.741
 9322SOL     OW40441   4.908   0.990   3.719
 9322SOL    HW140442   4.976   1.061   3.736
 9322SOL    HW240443   4.941   0.903   3.758
 9323SOL     OW40444   0.544   3.725   0.284
 9323SOL    HW140445   0.615   3.782   0.326
 9323SOL    HW240446   0.463   3.725   0.342
 9324SOL     OW40447   5.082   6.292   7.343
 9324SOL    HW140448   5.047   6.328   7.429
 9324SOL    HW240449   5.007   6.251   7.291
 9325SOL     OW40450   1.553   3.013   2.436
 9325SOL    HW140451   1.575   3.105   2.469
 9325SOL    HW240452   1.478   2.975   2.491
 9326SOL     OW40453   3.235   2.474   5.526
 9326SOL    HW140454   3.274   2.535   5.457
 9326SOL    HW240455   3.299   2.464   5.602
 9327SOL     OW40456   7.172   6.758   0.979
 9327SOL    HW140457   7.236   6.787   1.050
 9327SOL    HW240458   7.190   6.807   0.894
 9328SOL     OW40459   5.883   2.974   2.627
 9328SOL    HW140460   5.892   2.896   2.689
 9328SOL    HW240461   5.876   2.941   2.532
 9329SOL     OW40462   2.160   6.177   7.316
 9329SOL    HW140463   2.237   6.213   7.263
 9329SOL    HW240464   2.192   6.107   7.379
 9330SOL     OW40465   6.850   1.942   5.956
 9330SOL    HW140466   6.829   1.921   6.051
 9330SOL    HW240467   6.840   2.040   5.940
 9331SOL     OW40468   2.561   2.622   5.666
 9331SOL    HW140469   2.503   2.543   5.688
 9331SOL    HW240470   2.657   2.594   5.670
 9332SOL     OW40471   3.775   3.617   2.311
 9332SOL    HW140472   3.711   3.627   2.387
 9332SOL    HW240473   3.724   3.588   2.229
 9333SOL     OW40474   4.778   2.589   3.407
 9333SOL    HW140475   4.757   2.647   3.486
 9333SOL    HW240476   4.711   2.607   3.334
 9334SOL     OW40477   2.780   0.348   1.413
 9334SOL    HW140478   2.880   0.353   1.401
 9334SOL    HW240479   2.760   0.311   1.503
 9335SOL     OW40480   5.110   5.782   3.390
 9335SOL    HW140481   5.068   5.698   3.355
 9335SOL    HW240482   5.078   5.799   3.483
 9336SOL     OW40483   3.463   7.189   2.046
 9336SOL    HW140484   3.502   7.280   2.057
 9336SOL    HW240485   3.467   7.162   1.950
 9337SOL     OW40486   0.773   3.816   5.448
 9337SOL    HW140487   0.747   3.779   5.359
 9337SOL    HW240488   0.790   3.915   5.439
 9338SOL     OW40489   6.549   3.903   6.365
 9338SOL    HW140490   6.621   3.905   6.295
 9338SOL    HW240491   6.490   3.824   6.350
 9339SOL     OW40492   3.902   3.341   5.101
 9339SOL    HW140493   3.937   3.419   5.153
 9339SOL    HW240494   3.919   3.355   5.004
 9340SOL     OW40495   1.564   2.000   5.185
 9340SOL    HW140496   1.557   2.013   5.086
 9340SOL    HW240497   1.646   2.047   5.219
 9341SOL     OW40498   0.848   6.898   3.561
 9341SOL    HW140499   0.928   6.956   3.547
 9341SOL    HW240500   0.767   6.955   3.573
 9342SOL     OW40501   2.464   7.086   4.398
 9342SOL    HW140502   2.530   7.161   4.395
 9342SOL    HW240503   2.455   7.053   4.492
 9343SOL     OW40504   0.422   2.168   6.984
 9343SOL    HW140505   0.514   2.174   6.946
 9343SOL    HW240506   0.427   2.159   7.083
 9344SOL     OW40507   4.170   3.456   2.699
 9344SOL    HW140508   4.248   3.503   2.741
 9344SOL    HW240509   4.085   3.499   2.728
 9345SOL     OW40510   4.237   4.656   5.626
 9345SOL    HW140511   4.281   4.569   5.645
 9345SOL    HW240512   4.290   4.707   5.559
 9346SOL     OW40513   2.485   5.885   1.406
 9346SOL    HW140514   2.449   5.792   1.398
 9346SOL    HW240515   2.495   5.908   1.503
 9347SOL     OW40516   1.029   0.057   4.328
 9347SOL    HW140517   0.961   0.131   4.331
 9347SOL    HW240518   1.102   0.078   4.393
 9348SOL     OW40519   2.448   5.106   5.026
 9348SOL    HW140520   2.538   5.085   4.990
 9348SOL    HW240521   2.407   5.181   4.973
 9349SOL     OW40522   0.285   3.393   0.865
 9349SOL    HW140523   0.311   3.403   0.961
 9349SOL    HW240524   0.224   3.315   0.855
 9350SOL     OW40525   0.914   7.108   6.014
 9350SOL    HW140526   0.896   7.200   5.978
 9350SOL    HW240527   0.848   7.088   6.087
 9351SOL     OW40528   2.685   4.587   5.163
 9351SOL    HW140529   2.662   4.677   5.200
 9351SOL    HW240530   2.637   4.517   5.214
 9352SOL     OW40531   0.609   5.409   7.081
 9352SOL    HW140532   0.647   5.485   7.027
 9352SOL    HW240533   0.522   5.438   7.123
 9353SOL     OW40534   4.044   1.412   4.375
 9353SOL    HW140535   4.066   1.338   4.311
 9353SOL    HW240536   4.037   1.498   4.325
 9354SOL     OW40537   3.783   2.259   1.112
 9354SOL    HW140538   3.802   2.352   1.081
 9354SOL    HW240539   3.791   2.195   1.035
 9355SOL     OW40540   3.607   0.872   5.064
 9355SOL    HW140541   3.634   0.961   5.101
 9355SOL    HW240542   3.565   0.885   4.974
 9356SOL     OW40543   0.952   1.360   3.855
 9356SOL    HW140544   0.984   1.442   3.901
 9356SOL    HW240545   0.888   1.384   3.783
 9357SOL     OW40546   2.055   7.129   2.010
 9357SOL    HW140547   2.073   7.176   2.096
 9357SOL    HW240548   2.094   7.036   2.014
 9358SOL     OW40549   3.428   1.881   1.140
 9358SOL    HW140550   3.361   1.845   1.076
 9358SOL    HW240551   3.390   1.960   1.188
 9359SOL     OW40552   0.608   3.293   5.905
 9359SOL    HW140553   0.558   3.283   5.819
 9359SOL    HW240554   0.694   3.242   5.898
 9360SOL     OW40555   6.698   4.132   1.955
 9360SOL    HW140556   6.622   4.099   2.012
 9360SOL    HW240557   6.671   4.217   1.910
 9361SOL     OW40558   1.818   5.268   3.480
 9361SOL    HW140559   1.816   5.367   3.492
 9361SOL    HW240560   1.845   5.224   3.566
 9362SOL     OW40561   2.856   2.405   4.130
 9362SOL    HW140562   2.852   2.401   4.230
 9362SOL    HW240563   2.764   2.417   4.094
 9363SOL     OW40564   7.119   3.301   1.009
 9363SOL    HW140565   7.147   3.396   1.019
 9363SOL    HW240566   7.193   3.240   1.039
 9364SOL     OW40567   3.084   1.140   6.351
 9364SOL    HW140568   3.065   1.081   6.429
 9364SOL    HW240569   3.172   1.186   6.365
 9365SOL     OW40570   4.899   2.375   3.953
 9365SOL    HW140571   4.895   2.275   3.953
 9365SOL    HW240572   4.807   2.412   3.944
 9366SOL     OW40573   2.115   0.345   3.336
 9366SOL    HW140574   2.197   0.297   3.369
 9366SOL    HW240575   2.035   0.315   3.389
 9367SOL     OW40576   5.147   7.026   4.248
 9367SOL    HW140577   5.117   7.011   4.154
 9367SOL    HW240578   5.130   7.121   4.274
 9368SOL     OW40579   0.943   6.347   3.729
 9368SOL    HW140580   0.904   6.301   3.649
 9368SOL    HW240581   0.906   6.440   3.734
 9369SOL     OW40582   4.280   7.137   1.573
 9369SOL    HW140583   4.339   7.118   1.494
 9369SOL    HW240584   4.186   7.149   1.541
 9370SOL     OW40585   4.109   0.484   2.190
 9370SOL    HW140586   4.014   0.489   2.222
 9370SOL    HW240587   4.115   0.518   2.097
 9371SOL     OW40588   4.504   5.679   4.699
 9371SOL    HW140589   4.407   5.702   4.706
 9371SOL    HW240590   4.524   5.599   4.757
 9372SOL     OW40591   3.043   6.016   0.710
 9372SOL    HW140592   3.062   5.957   0.788
 9372SOL    HW240593   2.952   5.995   0.673
 9373SOL     OW40594   5.926   5.575   0.640
 9373SOL    HW140595   5.949   5.525   0.556
 9373SOL    HW240596   5.838   5.542   0.674
 9374SOL     OW40597   4.781   5.697   7.330
 9374SOL    HW140598   4.784   5.640   7.411
 9374SOL    HW240599   4.721   5.656   7.261
 9375SOL     OW40600   7.071   4.351   0.548
 9375SOL    HW140601   7.109   4.312   0.464
 9375SOL    HW240602   7.005   4.422   0.524
 9376SOL     OW40603   1.420   4.928   5.042
 9376SOL    HW140604   1.416   4.864   4.966
 9376SOL    HW240605   1.515   4.933   5.076
 9377SOL     OW40606   2.411   5.604   1.408
 9377SOL    HW140607   2.371   5.516   1.382
 9377SOL    HW240608   2.493   5.588   1.464
 9378SOL     OW40609   0.686   1.407   6.967
 9378SOL    HW140610   0.616   1.478   6.961
 9378SOL    HW240611   0.646   1.325   7.009
 9379SOL     OW40612   4.884   5.280   1.543
 9379SOL    HW140613   4.879   5.245   1.449
 9379SOL    HW240614   4.968   5.249   1.586
 9380SOL     OW40615   5.603   3.658   1.269
 9380SOL    HW140616   5.584   3.578   1.212
 9380SOL    HW240617   5.701   3.674   1.273
 9381SOL     OW40618   1.476   1.872   3.161
 9381SOL    HW140619   1.553   1.812   3.180
 9381SOL    HW240620   1.392   1.818   3.153
 9382SOL     OW40621   0.105   0.270   1.415
 9382SOL    HW140622   0.110   0.369   1.400
 9382SOL    HW240623   0.089   0.224   1.327
 9383SOL     OW40624   0.823   0.219   2.221
 9383SOL    HW140625   0.786   0.272   2.297
 9383SOL    HW240626   0.759   0.219   2.145
 9384SOL     OW40627   0.001   5.420   1.841
 9384SOL    HW140628   0.057   5.367   1.776
 9384SOL    HW240629   0.060   5.481   1.894
 9385SOL     OW40630   1.957   0.162   3.464
 9385SOL    HW140631   2.034   0.106   3.493
 9385SOL    HW240632   1.901   0.111   3.398
 9386SOL     OW40633   3.994   7.022   2.155
 9386SOL    HW140634   4.074   6.978   2.116
 9386SOL    HW240635   3.925   6.953   2.176
 9387SOL     OW40636   4.308   2.836   1.686
 9387SOL    HW140637   4.376   2.876   1.747
 9387SOL    HW240638   4.339   2.844   1.591
 9388SOL     OW40639   4.400   0.022   1.292
 9388SOL    HW140640   4.452  -0.044   1.346
 9388SOL    HW240641   4.338   0.073   1.352
 9389SOL     OW40642   5.157   1.898   0.003
 9389SOL    HW140643   5.161   1.872  -0.093
 9389SOL    HW240644   5.211   1.833   0.057
 9390SOL     OW40645   6.750   0.698   6.664
 9390SOL    HW140646   6.713   0.779   6.619
 9390SOL    HW240647   6.699   0.680   6.748
 9391SOL     OW40648   5.453   1.559   4.293
 9391SOL    HW140649   5.503   1.644   4.308
 9391SOL    HW240650   5.459   1.533   4.196
 9392SOL     OW40651   4.304   2.771   2.676
 9392SOL    HW140652   4.352   2.789   2.590
 9392SOL    HW240653   4.251   2.687   2.668
 9393SOL     OW40654   2.257   1.515   0.910
 9393SOL    HW140655   2.286   1.476   0.997
 9393SOL    HW240656   2.157   1.523   0.909
 9394SOL     OW40657   7.094   4.332   2.565
 9394SOL    HW140658   7.140   4.417   2.537
 9394SOL    HW240659   7.160   4.271   2.607
 9395SOL     OW40660   6.787   0.823   5.848
 9395SOL    HW140661   6.871   0.800   5.799
 9395SOL    HW240662   6.772   0.922   5.843
 9396SOL     OW40663   6.967   6.351   0.951
 9396SOL    HW140664   6.984   6.253   0.968
 9396SOL    HW240665   7.015   6.405   1.021
 9397SOL     OW40666   6.720   6.517   3.237
 9397SOL    HW140667   6.721   6.616   3.231
 9397SOL    HW240668   6.754   6.488   3.326
 9398SOL     OW40669   1.781   0.628   0.922
 9398SOL    HW140670   1.838   0.697   0.877
 9398SOL    HW240671   1.720   0.672   0.988
 9399SOL     OW40672   2.307   5.343   5.878
 9399SOL    HW140673   2.378   5.277   5.906
 9399SOL    HW240674   2.243   5.356   5.954
 9400SOL     OW40675   7.298   5.967   6.529
 9400SOL    HW140676   7.376   6.009   6.575
 9400SOL    HW240677   7.234   6.038   6.498
 9401SOL     OW40678   5.837   5.538   1.679
 9401SOL    HW140679   5.818   5.530   1.581
 9401SOL    HW240680   5.786   5.615   1.717
 9402SOL     OW40681   2.910   4.648   5.637
 9402SOL    HW140682   2.862   4.724   5.681
 9402SOL    HW240683   2.872   4.633   5.546
 9403SOL     OW40684   0.656   2.291   5.738
 9403SOL    HW140685   0.749   2.262   5.761
 9403SOL    HW240686   0.608   2.319   5.821
 9404SOL     OW40687   1.789   6.696   0.844
 9404SOL    HW140688   1.846   6.688   0.926
 9404SOL    HW240689   1.831   6.759   0.779
 9405SOL     OW40690   1.916   5.472   0.082
 9405SOL    HW140691   1.842   5.442   0.142
 9405SOL    HW240692   1.962   5.551   0.123
 9406SOL     OW40693   2.470   1.385   6.795
 9406SOL    HW140694   2.482   1.303   6.852
 9406SOL    HW240695   2.528   1.377   6.713
 9407SOL     OW40696   2.417   2.368   1.857
 9407SOL    HW140697   2.413   2.278   1.814
 9407SOL    HW240698   2.482   2.366   1.933
 9408SOL     OW40699   6.362   1.369   3.193
 9408SOL    HW140700   6.309   1.407   3.268
 9408SOL    HW240701   6.301   1.347   3.117
 9409SOL     OW40702   3.258   5.744   1.434
 9409SOL    HW140703   3.180   5.692   1.398
 9409SOL    HW240704   3.307   5.788   1.359
 9410SOL     OW40705   6.062   7.316   5.822
 9410SOL    HW140706   6.058   7.242   5.889
 9410SOL    HW240707   6.049   7.280   5.730
 9411SOL     OW40708   6.124   1.143   7.102
 9411SOL    HW140709   6.027   1.122   7.117
 9411SOL    HW240710   6.176   1.120   7.185
 9412SOL     OW40711   4.291   0.560   2.891
 9412SOL    HW140712   4.314   0.638   2.832
 9412SOL    HW240713   4.255   0.594   2.978
 9413SOL     OW40714   6.062   2.090   6.449
 9413SOL    HW140715   6.097   2.178   6.416
 9413SOL    HW240716   6.130   2.019   6.433
 9414SOL     OW40717   2.027   2.521   6.555
 9414SOL    HW140718   1.949   2.520   6.493
 9414SOL    HW240719   2.093   2.590   6.526
 9415SOL     OW40720   2.673   2.051   1.839
 9415SOL    HW140721   2.676   1.979   1.770
 9415SOL    HW240722   2.591   2.039   1.896
 9416SOL     OW40723   0.397   3.858   6.539
 9416SOL    HW140724   0.440   3.907   6.463
 9416SOL    HW240725   0.307   3.897   6.558
 9417SOL     OW40726   4.599   3.071   0.630
 9417SOL    HW140727   4.664   3.142   0.658
 9417SOL    HW240728   4.597   2.999   0.698
 9418SOL     OW40729   7.058   5.257   5.708
 9418SOL    HW140730   7.069   5.263   5.807
 9418SOL    HW240731   7.147   5.263   5.663
 9419SOL     OW40732   3.622   5.380   3.009
 9419SOL    HW140733   3.660   5.464   3.049
 9419SOL    HW240734   3.522   5.382   3.016
 9420SOL     OW40735   5.982   6.920   1.242
 9420SOL    HW140736   5.928   6.876   1.314
 9420SOL    HW240737   5.999   6.855   1.168
 9421SOL     OW40738   0.533   3.806   4.755
 9421SOL    HW140739   0.537   3.894   4.707
 9421SOL    HW240740   0.448   3.801   4.807
 9422SOL     OW40741   3.196   1.782   5.537
 9422SOL    HW140742   3.159   1.693   5.507
 9422SOL    HW240743   3.296   1.777   5.540
 9423SOL     OW40744   3.352   6.900   7.059
 9423SOL    HW140745   3.328   6.973   7.124
 9423SOL    HW240746   3.322   6.926   6.968
 9424SOL     OW40747   1.134   2.681   6.208
 9424SOL    HW140748   1.100   2.656   6.299
 9424SOL    HW240749   1.181   2.769   6.213
 9425SOL     OW40750   0.250   3.307   5.747
 9425SOL    HW140751   0.188   3.318   5.670
 9425SOL    HW240752   0.345   3.315   5.716
 9426SOL     OW40753   3.946   6.151   5.060
 9426SOL    HW140754   4.046   6.154   5.063
 9426SOL    HW240755   3.915   6.141   4.966
 9427SOL     OW40756   3.002   6.340   5.797
 9427SOL    HW140757   3.030   6.384   5.882
 9427SOL    HW240758   3.083   6.311   5.746
 9428SOL     OW40759   4.570   2.499   5.813
 9428SOL    HW140760   4.553   2.540   5.903
 9428SOL    HW240761   4.543   2.403   5.815
 9429SOL     OW40762   4.267   6.635   3.048
 9429SOL    HW140763   4.267   6.537   3.028
 9429SOL    HW240764   4.361   6.667   3.055
 9430SOL     OW40765   2.456   4.450   2.149
 9430SOL    HW140766   2.359   4.426   2.150
 9430SOL    HW240767   2.506   4.380   2.098
 9431SOL     OW40768   5.456   5.366   5.895
 9431SOL    HW140769   5.427   5.313   5.974
 9431SOL    HW240770   5.556   5.371   5.893
 9432SOL     OW40771   1.010   1.877   2.533
 9432SOL    HW140772   1.061   1.792   2.521
 9432SOL    HW240773   0.912   1.859   2.532
 9433SOL     OW40774   3.787   1.977   6.494
 9433SOL    HW140775   3.793   1.881   6.522
 9433SOL    HW240776   3.713   2.022   6.544
 9434SOL     OW40777   5.320   6.824   4.495
 9434SOL    HW140778   5.294   6.807   4.590
 9434SOL    HW240779   5.350   6.919   4.485
 9435SOL     OW40780   3.231   2.478   2.366
 9435SOL    HW140781   3.227   2.431   2.454
 9435SOL    HW240782   3.323   2.470   2.328
 9436SOL     OW40783   6.252   3.072   3.863
 9436SOL    HW140784   6.179   3.138   3.847
 9436SOL    HW240785   6.274   3.025   3.777
 9437SOL     OW40786   2.525   4.321   4.685
 9437SOL    HW140787   2.427   4.341   4.682
 9437SOL    HW240788   2.556   4.320   4.780
 9438SOL     OW40789   1.621   2.899   6.915
 9438SOL    HW140790   1.587   2.876   6.824
 9438SOL    HW240791   1.557   2.962   6.960
 9439SOL     OW40792   2.047   1.108   5.643
 9439SOL    HW140793   1.999   1.164   5.710
 9439SOL    HW240794   2.115   1.164   5.595
 9440SOL     OW40795   4.552   4.116   0.912
 9440SOL    HW140796   4.495   4.093   0.991
 9440SOL    HW240797   4.636   4.160   0.943
 9441SOL     OW40798   4.125   1.742   0.893
 9441SOL    HW140799   4.087   1.662   0.846
 9441SOL    HW240800   4.121   1.727   0.992
 9442SOL     OW40801   6.140   6.815   2.908
 9442SOL    HW140802   6.160   6.717   2.905
 9442SOL    HW240803   6.217   6.866   2.871
 9443SOL     OW40804   5.575   4.408   6.863
 9443SOL    HW140805   5.673   4.427   6.870
 9443SOL    HW240806   5.539   4.383   6.952
 9444SOL     OW40807   5.747   1.028   6.432
 9444SOL    HW140808   5.659   1.015   6.477
 9444SOL    HW240809   5.777   0.941   6.392
 9445SOL     OW40810   1.672   5.490   5.360
 9445SOL    HW140811   1.750   5.553   5.365
 9445SOL    HW240812   1.594   5.537   5.319
 9446SOL     OW40813   6.652   1.075   2.163
 9446SOL    HW140814   6.683   0.986   2.128
 9446SOL    HW240815   6.555   1.087   2.142
 9447SOL     OW40816   3.275   1.528   6.679
 9447SOL    HW140817   3.288   1.517   6.581
 9447SOL    HW240818   3.195   1.585   6.696
 9448SOL     OW40819   2.395   4.056   4.562
 9448SOL    HW140820   2.327   4.123   4.533
 9448SOL    HW240821   2.467   4.101   4.614
 9449SOL     OW40822   7.036   4.367   7.357
 9449SOL    HW140823   7.134   4.355   7.338
 9449SOL    HW240824   7.021   4.456   7.399
 9450SOL     OW40825   2.029   5.044   3.535
 9450SOL    HW140826   1.960   5.072   3.603
 9450SOL    HW240827   2.059   5.124   3.483
 9451SOL     OW40828   0.638   2.718   5.141
 9451SOL    HW140829   0.598   2.630   5.166
 9451SOL    HW240830   0.710   2.703   5.073
 9452SOL     OW40831   1.095   1.368   0.576
 9452SOL    HW140832   1.185   1.333   0.604
 9452SOL    HW240833   1.101   1.405   0.483
 9453SOL     OW40834   5.258   4.364   2.786
 9453SOL    HW140835   5.299   4.308   2.713
 9453SOL    HW240836   5.301   4.342   2.873
 9454SOL     OW40837   4.687   1.178   3.692
 9454SOL    HW140838   4.738   1.262   3.712
 9454SOL    HW240839   4.746   1.098   3.709
 9455SOL     OW40840   1.701   0.196   0.489
 9455SOL    HW140841   1.765   0.273   0.490
 9455SOL    HW240842   1.647   0.197   0.574
 9456SOL     OW40843   2.484   6.755   0.580
 9456SOL    HW140844   2.418   6.822   0.547
 9456SOL    HW240845   2.558   6.745   0.514
 9457SOL     OW40846   0.240   2.882   1.390
 9457SOL    HW140847   0.280   2.801   1.433
 9457SOL    HW240848   0.168   2.919   1.449
 9458SOL     OW40849   1.025   6.130   0.720
 9458SOL    HW140850   1.047   6.212   0.667
 9458SOL    HW240851   1.025   6.050   0.660
 9459SOL     OW40852   7.095   1.004   2.641
 9459SOL    HW140853   7.076   0.962   2.729
 9459SOL    HW240854   7.154   0.943   2.587
 9460SOL     OW40855   6.238   6.245   2.839
 9460SOL    HW140856   6.152   6.220   2.794
 9460SOL    HW240857   6.236   6.214   2.934
 9461SOL     OW40858   4.089   4.177   4.105
 9461SOL    HW140859   4.046   4.115   4.041
 9461SOL    HW240860   4.103   4.131   4.192
 9462SOL     OW40861   4.938   6.761   0.814
 9462SOL    HW140862   4.840   6.758   0.835
 9462SOL    HW240863   4.990   6.726   0.893
 9463SOL     OW40864   6.760   1.514   2.906
 9463SOL    HW140865   6.858   1.525   2.895
 9463SOL    HW240866   6.741   1.454   2.983
 9464SOL     OW40867   6.007   6.172   5.571
 9464SOL    HW140868   6.004   6.095   5.506
 9464SOL    HW240869   5.932   6.234   5.552
 9465SOL     OW40870   5.654   3.982   6.083
 9465SOL    HW140871   5.599   4.017   6.007
 9465SOL    HW240872   5.706   3.902   6.052
 9466SOL     OW40873   1.126   1.344   6.923
 9466SOL    HW140874   1.137   1.277   6.996
 9466SOL    HW240875   1.151   1.302   6.835
 9467SOL     OW40876   0.549   3.518   6.010
 9467SOL    HW140877   0.598   3.438   5.976
 9467SOL    HW240878   0.590   3.601   5.970
 9468SOL     OW40879   0.828   2.086   6.679
 9468SOL    HW140880   0.772   2.052   6.754
 9468SOL    HW240881   0.911   2.129   6.715
 9469SOL     OW40882   5.495   6.728   6.867
 9469SOL    HW140883   5.556   6.649   6.865
 9469SOL    HW240884   5.488   6.767   6.775
 9470SOL     OW40885   2.646   5.453   5.035
 9470SOL    HW140886   2.554   5.431   5.068
 9470SOL    HW240887   2.714   5.414   5.097
 9471SOL     OW40888   6.313   3.786   6.690
 9471SOL    HW140889   6.254   3.866   6.699
 9471SOL    HW240890   6.408   3.816   6.680
 9472SOL     OW40891   0.939   5.142   4.048
 9472SOL    HW140892   0.866   5.207   4.069
 9472SOL    HW240893   0.920   5.098   3.960
 9473SOL     OW40894   5.836   6.777   5.389
 9473SOL    HW140895   5.897   6.838   5.339
 9473SOL    HW240896   5.753   6.761   5.335
 9474SOL     OW40897   2.182   4.143   6.097
 9474SOL    HW140898   2.278   4.126   6.074
 9474SOL    HW240899   2.178   4.198   6.181
 9475SOL     OW40900   6.893   2.396   2.014
 9475SOL    HW140901   6.932   2.413   1.924
 9475SOL    HW240902   6.828   2.469   2.037
 9476SOL     OW40903   1.032   2.333   0.893
 9476SOL    HW140904   1.092   2.399   0.937
 9476SOL    HW240905   1.062   2.317   0.799
 9477SOL     OW40906   1.901   0.183   0.154
 9477SOL    HW140907   1.875   0.136   0.069
 9477SOL    HW240908   1.969   0.254   0.134
 9478SOL     OW40909   4.468   5.288   2.137
 9478SOL    HW140910   4.505   5.357   2.199
 9478SOL    HW240911   4.541   5.251   2.079
 9479SOL     OW40912   2.604   7.337   1.814
 9479SOL    HW140913   2.528   7.279   1.842
 9479SOL    HW240914   2.571   7.429   1.793
 9480SOL     OW40915   5.988   5.024   3.494
 9480SOL    HW140916   5.895   4.989   3.489
 9480SOL    HW240917   6.047   4.972   3.432
 9481SOL     OW40918   4.797   3.013   1.380
 9481SOL    HW140919   4.895   3.004   1.402
 9481SOL    HW240920   4.786   3.066   1.297
 9482SOL     OW40921   0.398   1.045   7.138
 9482SOL    HW140922   0.493   1.067   7.117
 9482SOL    HW240923   0.348   1.022   7.055
 9483SOL     OW40924   1.564   2.396   5.100
 9483SOL    HW140925   1.562   2.365   5.005
 9483SOL    HW240926   1.541   2.494   5.104
 9484SOL     OW40927   1.875   2.607   5.310
 9484SOL    HW140928   1.843   2.700   5.322
 9484SOL    HW240929   1.798   2.544   5.317
 9485SOL     OW40930   5.101   1.755   2.250
 9485SOL    HW140931   5.127   1.734   2.344
 9485SOL    HW240932   5.017   1.707   2.226
 9486SOL     OW40933   3.955   6.614   7.278
 9486SOL    HW140934   4.050   6.615   7.308
 9486SOL    HW240935   3.952   6.620   7.178
 9487SOL     OW40936   2.332   5.977   5.737
 9487SOL    HW140937   2.400   5.963   5.810
 9487SOL    HW240938   2.311   5.889   5.694
 9488SOL     OW40939   6.770   3.279   6.096
 9488SOL    HW140940   6.866   3.257   6.112
 9488SOL    HW240941   6.712   3.210   6.139
 9489SOL     OW40942   1.267   0.042   5.998
 9489SOL    HW140943   1.194   0.018   5.934
 9489SOL    HW240944   1.277  -0.030   6.066
 9490SOL     OW40945   1.638   1.934   6.743
 9490SOL    HW140946   1.675   1.991   6.816
 9490SOL    HW240947   1.692   1.851   6.735
 9491SOL     OW40948   1.537   2.145   3.927
 9491SOL    HW140949   1.526   2.143   4.026
 9491SOL    HW240950   1.501   2.231   3.892
 9492SOL     OW40951   6.870   0.584   2.595
 9492SOL    HW140952   6.794   0.594   2.659
 9492SOL    HW240953   6.907   0.492   2.600
 9493SOL     OW40954   1.238   2.354   5.829
 9493SOL    HW140955   1.257   2.394   5.740
 9493SOL    HW240956   1.210   2.426   5.893
 9494SOL     OW40957   0.953   4.580   4.248
 9494SOL    HW140958   0.863   4.569   4.290
 9494SOL    HW240959   0.951   4.657   4.185
 9495SOL     OW40960   2.884   2.605   0.145
 9495SOL    HW140961   2.948   2.534   0.172
 9495SOL    HW240962   2.930   2.694   0.144
 9496SOL     OW40963   1.393   2.655   0.246
 9496SOL    HW140964   1.298   2.674   0.273
 9496SOL    HW240965   1.406   2.556   0.240
 9497SOL     OW40966   1.374   3.502   7.204
 9497SOL    HW140967   1.319   3.471   7.127
 9497SOL    HW240968   1.435   3.429   7.235
 9498SOL     OW40969   3.751   1.423   2.484
 9498SOL    HW140970   3.778   1.516   2.458
 9498SOL    HW240971   3.830   1.363   2.481
 9499SOL     OW40972   2.987   6.184   0.336
 9499SOL    HW140973   3.049   6.183   0.414
 9499SOL    HW240974   2.971   6.278   0.306
 9500SOL     OW40975   2.915   3.113   6.644
 9500SOL    HW140976   2.908   3.131   6.546
 9500SOL    HW240977   2.862   3.031   6.666
 9501SOL     OW40978   5.473   4.916   4.270
 9501SOL    HW140979   5.437   4.828   4.301
 9501SOL    HW240980   5.561   4.901   4.224
 9502SOL     OW40981   1.635   2.567   5.667
 9502SOL    HW140982   1.716   2.558   5.724
 9502SOL    HW240983   1.638   2.498   5.594
 9503SOL     OW40984   7.336   2.924   5.844
 9503SOL    HW140985   7.376   2.926   5.753
 9503SOL    HW240986   7.390   2.865   5.904
 9504SOL     OW40987   2.687   4.615   3.517
 9504SOL    HW140988   2.743   4.556   3.460
 9504SOL    HW240989   2.730   4.626   3.607
 9505SOL     OW40990   6.372   6.817   0.278
 9505SOL    HW140991   6.457   6.809   0.226
 9505SOL    HW240992   6.305   6.752   0.242
 9506SOL     OW40993   7.058   3.762   5.063
 9506SOL    HW140994   7.107   3.821   5.127
 9506SOL    HW240995   7.002   3.818   5.003
 9507SOL     OW40996   1.821   3.961   6.820
 9507SOL    HW140997   1.817   3.907   6.904
 9507SOL    HW240998   1.887   4.036   6.831
 9508SOL     OW40999   4.765   1.457   0.709
 9508SOL    HW141000   4.674   1.494   0.693
 9508SOL    HW241001   4.784   1.456   0.807
 9509SOL     OW41002   1.677   2.474   6.126
 9509SOL    HW141003   1.591   2.519   6.102
 9509SOL    HW241004   1.683   2.464   6.226
 9510SOL     OW41005   6.096   0.853   0.426
 9510SOL    HW141006   6.143   0.768   0.400
 9510SOL    HW241007   6.161   0.928   0.429
 9511SOL     OW41008   3.262   3.225   6.243
 9511SOL    HW141009   3.206   3.216   6.161
 9511SOL    HW241010   3.262   3.139   6.294
 9512SOL     OW41011   4.756   7.252   7.358
 9512SOL    HW141012   4.829   7.217   7.301
 9512SOL    HW241013   4.793   7.280   7.447
 9513SOL     OW41014   1.316   4.968   6.483
 9513SOL    HW141015   1.306   4.900   6.556
 9513SOL    HW241016   1.341   4.922   6.397
 9514SOL     OW41017   5.806   4.957   0.621
 9514SOL    HW141018   5.821   5.056   0.613
 9514SOL    HW241019   5.711   4.937   0.597
 9515SOL     OW41020   7.082   2.279   0.013
 9515SOL    HW141021   7.104   2.274  -0.084
 9515SOL    HW241022   6.986   2.255   0.027
 9516SOL     OW41023   6.164   4.184   2.974
 9516SOL    HW141024   6.120   4.179   3.064
 9516SOL    HW241025   6.186   4.092   2.942
 9517SOL     OW41026   3.525   0.965   0.562
 9517SOL    HW141027   3.516   0.988   0.465
 9517SOL    HW241028   3.472   1.031   0.616
 9518SOL     OW41029   1.763   3.067   3.725
 9518SOL    HW141030   1.831   3.117   3.670
 9518SOL    HW241031   1.739   2.982   3.678
 9519SOL     OW41032   5.853   4.471   4.156
 9519SOL    HW141033   5.836   4.374   4.168
 9519SOL    HW241034   5.766   4.519   4.141
 9520SOL     OW41035   7.269   0.050   5.042
 9520SOL    HW141036   7.322   0.003   5.113
 9520SOL    HW241037   7.312   0.035   4.953
 9521SOL     OW41038   6.238   6.691   6.986
 9521SOL    HW141039   6.316   6.733   6.940
 9521SOL    HW241040   6.174   6.762   7.014
 9522SOL     OW41041   0.360   7.095   5.416
 9522SOL    HW141042   0.295   7.069   5.345
 9522SOL    HW241043   0.403   7.182   5.391
 9523SOL     OW41044   3.847   5.624   5.741
 9523SOL    HW141045   3.915   5.623   5.815
 9523SOL    HW241046   3.854   5.539   5.689
 9524SOL     OW41047   3.700   6.055   2.874
 9524SOL    HW141048   3.655   6.060   2.963
 9524SOL    HW241049   3.798   6.074   2.885
 9525SOL     OW41050   4.589   0.832   2.096
 9525SOL    HW141051   4.512   0.814   2.157
 9525SOL    HW241052   4.660   0.763   2.111
 9526SOL     OW41053   3.862   2.545   5.474
 9526SOL    HW141054   3.925   2.492   5.418
 9526SOL    HW241055   3.874   2.520   5.571
 9527SOL     OW41056   0.054   4.628   2.747
 9527SOL    HW141057   0.079   4.724   2.738
 9527SOL    HW241058   0.126   4.570   2.710
 9528SOL     OW41059   1.747   6.579   1.260
 9528SOL    HW141060   1.721   6.514   1.332
 9528SOL    HW241061   1.777   6.529   1.179
 9529SOL     OW41062   4.953   3.548   5.720
 9529SOL    HW141063   4.904   3.576   5.803
 9529SOL    HW241064   4.888   3.542   5.644
 9530SOL     OW41065   3.053   2.670   3.615
 9530SOL    HW141066   3.054   2.606   3.538
 9530SOL    HW241067   2.977   2.648   3.676
 9531SOL     OW41068   1.449   3.965   1.878
 9531SOL    HW141069   1.536   4.008   1.852
 9531SOL    HW241070   1.439   3.969   1.978
 9532SOL     OW41071   1.763   3.570   5.680
 9532SOL    HW141072   1.801   3.592   5.590
 9532SOL    HW241073   1.834   3.530   5.738
 9533SOL     OW41074   2.473   4.374   5.961
 9533SOL    HW141075   2.384   4.398   5.922
 9533SOL    HW241076   2.541   4.370   5.889
 9534SOL     OW41077   0.309   4.596   7.090
 9534SOL    HW141078   0.348   4.531   7.155
 9534SOL    HW241079   0.325   4.564   6.997
 9535SOL     OW41080   3.955   3.479   6.885
 9535SOL    HW141081   4.009   3.528   6.816
 9535SOL    HW241082   3.882   3.428   6.839
 9536SOL     OW41083   7.051   1.751   1.594
 9536SOL    HW141084   6.971   1.811   1.594
 9536SOL    HW241085   7.110   1.774   1.671
 9537SOL     OW41086   5.890   0.564   1.858
 9537SOL    HW141087   5.901   0.517   1.946
 9537SOL    HW241088   5.793   0.584   1.842
 9538SOL     OW41089   1.987   4.887   6.860
 9538SOL    HW141090   1.987   4.924   6.767
 9538SOL    HW241091   1.892   4.873   6.889
 9539SOL     OW41092   4.047   6.550   4.938
 9539SOL    HW141093   4.003   6.586   4.855
 9539SOL    HW241094   4.006   6.593   5.018
 9540SOL     OW41095   5.296   2.060   4.813
 9540SOL    HW141096   5.365   1.991   4.792
 9540SOL    HW241097   5.324   2.148   4.774
 9541SOL     OW41098   3.403   2.070   1.339
 9541SOL    HW141099   3.500   2.051   1.330
 9541SOL    HW241100   3.390   2.165   1.368
 9542SOL     OW41101   4.509   6.174   3.558
 9542SOL    HW141102   4.527   6.253   3.499
 9542SOL    HW241103   4.572   6.176   3.636
 9543SOL     OW41104   0.191   6.617   5.298
 9543SOL    HW141105   0.099   6.652   5.281
 9543SOL    HW241106   0.186   6.521   5.327
 9544SOL     OW41107   5.721   4.463   5.763
 9544SOL    HW141108   5.699   4.555   5.794
 9544SOL    HW241109   5.817   4.443   5.783
 9545SOL     OW41110   1.764   5.171   7.035
 9545SOL    HW141111   1.767   5.074   7.059
 9545SOL    HW241112   1.794   5.226   7.113
 9546SOL     OW41113   0.948   6.122   2.017
 9546SOL    HW141114   0.946   6.049   2.086
 9546SOL    HW241115   1.039   6.125   1.975
 9547SOL     OW41116   1.215   4.934   4.055
 9547SOL    HW141117   1.206   5.030   4.081
 9547SOL    HW241118   1.234   4.928   3.957
 9548SOL     OW41119   4.873   1.367   3.770
 9548SOL    HW141120   4.825   1.438   3.718
 9548SOL    HW241121   4.971   1.383   3.767
 9549SOL     OW41122   0.732   3.176   0.785
 9549SOL    HW141123   0.770   3.226   0.864
 9549SOL    HW241124   0.651   3.225   0.751
 9550SOL     OW41125   2.594   3.588   3.154
 9550SOL    HW141126   2.561   3.636   3.235
 9550SOL    HW241127   2.522   3.588   3.084
 9551SOL     OW41128   6.231   4.416   3.731
 9551SOL    HW141129   6.321   4.373   3.729
 9551SOL    HW241130   6.232   4.493   3.794
 9552SOL     OW41131   0.616   4.077   0.590
 9552SOL    HW141132   0.681   4.146   0.621
 9552SOL    HW241133   0.549   4.120   0.530
 9553SOL     OW41134   4.824   1.767   3.303
 9553SOL    HW141135   4.781   1.709   3.234
 9553SOL    HW241136   4.752   1.814   3.355
 9554SOL     OW41137   3.492   3.971   4.994
 9554SOL    HW141138   3.505   3.872   5.002
 9554SOL    HW241139   3.402   3.990   4.955
 9555SOL     OW41140   4.604   4.501   4.611
 9555SOL    HW141141   4.551   4.434   4.663
 9555SOL    HW241142   4.589   4.593   4.648
 9556SOL     OW41143   1.331   4.884   5.690
 9556SOL    HW141144   1.384   4.897   5.606
 9556SOL    HW241145   1.347   4.961   5.752
 9557SOL     OW41146   2.534   6.491   2.589
 9557SOL    HW141147   2.480   6.412   2.559
 9557SOL    HW241148   2.616   6.459   2.637
 9558SOL     OW41149   2.722   3.578   3.535
 9558SOL    HW141150   2.698   3.483   3.515
 9558SOL    HW241151   2.733   3.589   3.634
 9559SOL     OW41152   6.385   3.112   5.594
 9559SOL    HW141153   6.477   3.140   5.622
 9559SOL    HW241154   6.356   3.168   5.516
 9560SOL     OW41155   5.266   0.544   0.235
 9560SOL    HW141156   5.248   0.632   0.279
 9560SOL    HW241157   5.363   0.538   0.211
 9561SOL     OW41158   3.105   2.622   4.499
 9561SOL    HW141159   3.200   2.641   4.525
 9561SOL    HW241160   3.082   2.527   4.524
 9562SOL     OW41161   1.702   6.734   6.953
 9562SOL    HW141162   1.790   6.692   6.974
 9562SOL    HW241163   1.633   6.663   6.942
 9563SOL     OW41164   2.452   3.811   1.207
 9563SOL    HW141165   2.378   3.744   1.217
 9563SOL    HW241166   2.424   3.883   1.144
 9564SOL     OW41167   1.185   0.847   1.994
 9564SOL    HW141168   1.158   0.820   2.087
 9564SOL    HW241169   1.136   0.930   1.968
 9565SOL     OW41170   2.201   1.891   6.083
 9565SOL    HW141171   2.175   1.981   6.049
 9565SOL    HW241172   2.182   1.885   6.181
 9566SOL     OW41173   7.245   5.926   3.113
 9566SOL    HW141174   7.265   5.959   3.021
 9566SOL    HW241175   7.319   5.865   3.143
 9567SOL     OW41176   4.941   6.685   2.212
 9567SOL    HW141177   5.034   6.720   2.216
 9567SOL    HW241178   4.892   6.709   2.295
 9568SOL     OW41179   4.913   2.906   2.595
 9568SOL    HW141180   4.992   2.883   2.653
 9568SOL    HW241181   4.940   2.978   2.531
 9569SOL     OW41182   2.424   4.693   3.490
 9569SOL    HW141183   2.403   4.787   3.517
 9569SOL    HW241184   2.520   4.687   3.464
 9570SOL     OW41185   0.378   3.941   4.261
 9570SOL    HW141186   0.301   3.935   4.197
 9570SOL    HW241187   0.423   4.029   4.250
 9571SOL     OW41188   2.895   3.688   1.724
 9571SOL    HW141189   2.830   3.762   1.706
 9571SOL    HW241190   2.860   3.631   1.799
 9572SOL     OW41191   5.161   1.188   6.437
 9572SOL    HW141192   5.108   1.200   6.521
 9572SOL    HW241193   5.204   1.098   6.437
 9573SOL     OW41194   3.242   0.116   1.161
 9573SOL    HW141195   3.210   0.174   1.086
 9573SOL    HW241196   3.206   0.024   1.150
 9574SOL     OW41197   2.705   3.930   3.387
 9574SOL    HW141198   2.685   3.946   3.290
 9574SOL    HW241199   2.782   3.866   3.395
 9575SOL     OW41200   3.083   3.315   6.672
 9575SOL    HW141201   3.022   3.238   6.654
 9575SOL    HW241202   3.056   3.360   6.757
 9576SOL     OW41203   6.182   2.151   3.129
 9576SOL    HW141204   6.254   2.082   3.140
 9576SOL    HW241205   6.200   2.228   3.190
 9577SOL     OW41206   6.014   4.876   4.849
 9577SOL    HW141207   5.929   4.892   4.799
 9577SOL    HW241208   6.084   4.939   4.816
 9578SOL     OW41209   5.418   6.874   6.113
 9578SOL    HW141210   5.342   6.841   6.168
 9578SOL    HW241211   5.396   6.864   6.016
 9579SOL     OW41212   3.360   1.745   0.208
 9579SOL    HW141213   3.362   1.789   0.118
 9579SOL    HW241214   3.335   1.812   0.277
 9580SOL     OW41215   1.238   2.641   3.147
 9580SOL    HW141216   1.212   2.567   3.209
 9580SOL    HW241217   1.185   2.723   3.169
 9581SOL     OW41218   2.133   3.326   1.971
 9581SOL    HW141219   2.202   3.323   2.043
 9581SOL    HW241220   2.131   3.238   1.923
 9582SOL     OW41221   1.608   1.136   0.439
 9582SOL    HW141222   1.674   1.065   0.462
 9582SOL    HW241223   1.522   1.094   0.411
 9583SOL     OW41224   4.456   4.757   6.943
 9583SOL    HW141225   4.544   4.802   6.961
 9583SOL    HW241226   4.385   4.827   6.931
 9584SOL     OW41227   6.185   6.860   0.001
 9584SOL    HW141228   6.104   6.885   0.054
 9584SOL    HW241229   6.203   6.762   0.011
 9585SOL     OW41230   1.259   6.541   6.790
 9585SOL    HW141231   1.199   6.616   6.818
 9585SOL    HW241232   1.319   6.572   6.717
 9586SOL     OW41233   1.728   5.389   4.367
 9586SOL    HW141234   1.792   5.319   4.397
 9586SOL    HW241235   1.677   5.424   4.445
 9587SOL     OW41236   0.906   3.053   2.871
 9587SOL    HW141237   0.990   3.002   2.891
 9587SOL    HW241238   0.845   2.995   2.816
 9588SOL     OW41239   1.149   1.533   7.146
 9588SOL    HW141240   1.189   1.622   7.125
 9588SOL    HW241241   1.162   1.472   7.068
 9589SOL     OW41242   4.711   6.383   0.808
 9589SOL    HW141243   4.624   6.404   0.852
 9589SOL    HW241244   4.761   6.315   0.862
 9590SOL     OW41245   5.171   0.409   4.148
 9590SOL    HW141246   5.133   0.329   4.194
 9590SOL    HW241247   5.174   0.392   4.049
 9591SOL     OW41248   2.119   6.170   3.877
 9591SOL    HW141249   2.077   6.127   3.797
 9591SOL    HW241250   2.142   6.265   3.855
 9592SOL     OW41251   6.035   3.769   0.125
 9592SOL    HW141252   5.964   3.811   0.182
 9592SOL    HW241253   6.003   3.681   0.090
 9593SOL     OW41254   6.224   5.337   1.638
 9593SOL    HW141255   6.230   5.407   1.568
 9593SOL    HW241256   6.295   5.268   1.623
 9594SOL     OW41257   4.816   2.909   4.489
 9594SOL    HW141258   4.850   2.937   4.399
 9594SOL    HW241259   4.772   2.820   4.481
 9595SOL     OW41260   3.652   1.528   5.484
 9595SOL    HW141261   3.707   1.516   5.402
 9595SOL    HW241262   3.701   1.493   5.564
 9596SOL     OW41263   1.003   3.025   4.941
 9596SOL    HW141264   1.077   3.086   4.915
 9596SOL    HW241265   0.984   2.961   4.866
 9597SOL     OW41266   6.385   1.325   1.451
 9597SOL    HW141267   6.292   1.308   1.485
 9597SOL    HW241268   6.403   1.424   1.455
 9598SOL     OW41269   7.130   4.060   7.149
 9598SOL    HW141270   7.064   4.090   7.081
 9598SOL    HW241271   7.151   3.963   7.135
 9599SOL     OW41272   5.786   2.555   4.899
 9599SOL    HW141273   5.749   2.480   4.845
 9599SOL    HW241274   5.782   2.640   4.846
 9600SOL     OW41275   1.658   3.779   2.880
 9600SOL    HW141276   1.645   3.775   2.781
 9600SOL    HW241277   1.754   3.762   2.902
 9601SOL     OW41278   4.097   5.718   3.682
 9601SOL    HW141279   4.095   5.800   3.740
 9601SOL    HW241280   4.186   5.710   3.638
 9602SOL     OW41281   4.689   4.537   4.897
 9602SOL    HW141282   4.730   4.609   4.953
 9602SOL    HW241283   4.629   4.578   4.828
 9603SOL     OW41284   4.577   1.529   5.487
 9603SOL    HW141285   4.653   1.588   5.461
 9603SOL    HW241286   4.536   1.489   5.405
 9604SOL     OW41287   2.481   3.267   5.601
 9604SOL    HW141288   2.538   3.270   5.519
 9604SOL    HW241289   2.445   3.175   5.613
 9605SOL     OW41290   5.285   3.866   0.323
 9605SOL    HW141291   5.196   3.914   0.322
 9605SOL    HW241292   5.314   3.847   0.230
 9606SOL     OW41293   5.263   1.422   2.780
 9606SOL    HW141294   5.323   1.470   2.844
 9606SOL    HW241295   5.266   1.468   2.691
 9607SOL     OW41296   7.157   0.823   6.285
 9607SOL    HW141297   7.094   0.874   6.226
 9607SOL    HW241298   7.119   0.815   6.377
 9608SOL     OW41299   0.929   4.748   0.106
 9608SOL    HW141300   1.008   4.693   0.079
 9608SOL    HW241301   0.868   4.759   0.028
 9609SOL     OW41302   6.501   4.840   2.369
 9609SOL    HW141303   6.569   4.772   2.340
 9609SOL    HW241304   6.535   4.932   2.348
 9610SOL     OW41305   1.786   6.259   0.305
 9610SOL    HW141306   1.842   6.189   0.260
 9610SOL    HW241307   1.827   6.283   0.393
 9611SOL     OW41308   1.356   2.524   2.042
 9611SOL    HW141309   1.344   2.484   2.133
 9611SOL    HW241310   1.266   2.545   2.003
 9612SOL     OW41311   4.975   7.135   2.623
 9612SOL    HW141312   4.996   7.087   2.708
 9612SOL    HW241313   5.024   7.222   2.621
 9613SOL     OW41314   5.996   3.270   0.020
 9613SOL    HW141315   6.089   3.262   0.055
 9613SOL    HW241316   5.937   3.307   0.092
 9614SOL     OW41317   3.205   5.384   1.732
 9614SOL    HW141318   3.220   5.355   1.826
 9614SOL    HW241319   3.142   5.320   1.687
 9615SOL     OW41320   4.806   3.171   5.741
 9615SOL    HW141321   4.888   3.161   5.684
 9615SOL    HW241322   4.747   3.242   5.702
 9616SOL     OW41323   3.810   1.134   3.645
 9616SOL    HW141324   3.781   1.072   3.573
 9616SOL    HW241325   3.909   1.144   3.643
 9617SOL     OW41326   1.125   2.938   6.614
 9617SOL    HW141327   1.201   2.940   6.550
 9617SOL    HW241328   1.158   2.956   6.707
 9618SOL     OW41329   6.638   1.590   1.073
 9618SOL    HW141330   6.688   1.674   1.096
 9618SOL    HW241331   6.540   1.605   1.088
 9619SOL     OW41332   1.691   2.844   3.569
 9619SOL    HW141333   1.662   2.821   3.477
 9619SOL    HW241334   1.770   2.788   3.594
 9620SOL     OW41335   4.880   4.862   6.679
 9620SOL    HW141336   4.858   4.925   6.605
 9620SOL    HW241337   4.920   4.913   6.755
 9621SOL     OW41338   4.505   5.680   3.770
 9621SOL    HW141339   4.477   5.606   3.831
 9621SOL    HW241340   4.459   5.765   3.796
 9622SOL     OW41341   1.222   3.940   3.832
 9622SOL    HW141342   1.176   3.989   3.759
 9622SOL    HW241343   1.302   3.992   3.862
 9623SOL     OW41344   3.190   4.488   0.785
 9623SOL    HW141345   3.172   4.586   0.800
 9623SOL    HW241346   3.106   4.442   0.757
 9624SOL     OW41347   5.817   1.702   1.684
 9624SOL    HW141348   5.762   1.651   1.751
 9624SOL    HW241349   5.843   1.641   1.609
 9625SOL     OW41350   3.342   4.193   4.588
 9625SOL    HW141351   3.345   4.207   4.489
 9625SOL    HW241352   3.316   4.099   4.607
 9626SOL     OW41353   2.682   0.008   3.413
 9626SOL    HW141354   2.782   0.002   3.420
 9626SOL    HW241355   2.657   0.067   3.337
 9627SOL     OW41356   0.270   4.167   4.402
 9627SOL    HW141357   0.294   4.140   4.496
 9627SOL    HW241358   0.173   4.151   4.387
 9628SOL     OW41359   2.148   3.683   4.524
 9628SOL    HW141360   2.212   3.655   4.453
 9628SOL    HW241361   2.185   3.762   4.573
 9629SOL     OW41362   2.530   0.336   3.515
 9629SOL    HW141363   2.506   0.415   3.571
 9629SOL    HW241364   2.573   0.266   3.572
 9630SOL     OW41365   2.371   3.887   5.160
 9630SOL    HW141366   2.297   3.954   5.169
 9630SOL    HW241367   2.459   3.934   5.154
 9631SOL     OW41368   7.339   0.483   5.394
 9631SOL    HW141369   7.417   0.544   5.409
 9631SOL    HW241370   7.300   0.500   5.304
 9632SOL     OW41371   2.571   5.751   7.044
 9632SOL    HW141372   2.526   5.785   6.961
 9632SOL    HW241373   2.634   5.821   7.078
 9633SOL     OW41374   6.108   6.287   1.412
 9633SOL    HW141375   6.163   6.218   1.365
 9633SOL    HW241376   6.017   6.250   1.430
 9634SOL     OW41377   6.782   2.662   2.840
 9634SOL    HW141378   6.813   2.707   2.756
 9634SOL    HW241379   6.795   2.563   2.831
 9635SOL     OW41380   6.041   4.663   4.246
 9635SOL    HW141381   6.130   4.628   4.217
 9635SOL    HW241382   5.969   4.599   4.219
 9636SOL     OW41383   3.997   5.331   4.814
 9636SOL    HW141384   4.074   5.350   4.752
 9636SOL    HW241385   3.953   5.417   4.840
 9637SOL     OW41386   3.210   4.064   0.153
 9637SOL    HW141387   3.254   4.002   0.218
 9637SOL    HW241388   3.144   4.014   0.097
 9638SOL     OW41389   5.495   7.270   5.916
 9638SOL    HW141390   5.513   7.247   5.821
 9638SOL    HW241391   5.582   7.276   5.966
 9639SOL     OW41392   0.584   2.523   2.660
 9639SOL    HW141393   0.510   2.456   2.659
 9639SOL    HW241394   0.597   2.557   2.754
 9640SOL     OW41395   6.007   5.955   5.394
 9640SOL    HW141396   5.927   5.945   5.335
 9640SOL    HW241397   5.988   5.917   5.484
 9641SOL     OW41398   0.167   1.177   2.900
 9641SOL    HW141399   0.112   1.150   2.821
 9641SOL    HW241400   0.207   1.267   2.884
 9642SOL     OW41401   5.575   0.469   5.926
 9642SOL    HW141402   5.554   0.395   5.863
 9642SOL    HW241403   5.585   0.432   6.018
 9643SOL     OW41404   2.198   4.393   0.339
 9643SOL    HW141405   2.111   4.432   0.369
 9643SOL    HW241406   2.202   4.396   0.239
 9644SOL     OW41407   1.983   3.930   6.117
 9644SOL    HW141408   1.906   3.990   6.137
 9644SOL    HW241409   2.065   3.986   6.099
 9645SOL     OW41410   4.777   3.341   5.969
 9645SOL    HW141411   4.852   3.315   6.029
 9645SOL    HW241412   4.771   3.275   5.894
 9646SOL     OW41413   2.401   0.799   6.428
 9646SOL    HW141414   2.441   0.721   6.476
 9646SOL    HW241415   2.468   0.835   6.362
 9647SOL     OW41416   1.390   7.114   6.510
 9647SOL    HW141417   1.489   7.104   6.502
 9647SOL    HW241418   1.354   7.042   6.569
 9648SOL     OW41419   5.350   4.687   5.931
 9648SOL    HW141420   5.347   4.689   5.831
 9648SOL    HW241421   5.396   4.604   5.962
 9649SOL     OW41422   2.216   5.011   6.343
 9649SOL    HW141423   2.186   5.105   6.357
 9649SOL    HW241424   2.205   4.959   6.427
 9650SOL     OW41425   2.422   5.524   6.488
 9650SOL    HW141426   2.479   5.585   6.543
 9650SOL    HW241427   2.328   5.558   6.487
 9651SOL     OW41428   5.642   4.235   1.653
 9651SOL    HW141429   5.718   4.239   1.717
 9651SOL    HW241430   5.665   4.172   1.578
 9652SOL     OW41431   5.553   3.453   3.834
 9652SOL    HW141432   5.461   3.441   3.869
 9652SOL    HW241433   5.603   3.366   3.839
 9653SOL     OW41434   3.476   5.780   4.766
 9653SOL    HW141435   3.487   5.720   4.686
 9653SOL    HW241436   3.384   5.821   4.764
 9654SOL     OW41437   7.031   4.304   1.554
 9654SOL    HW141438   7.001   4.253   1.634
 9654SOL    HW241439   6.967   4.380   1.538
 9655SOL     OW41440   3.284   4.821   2.529
 9655SOL    HW141441   3.371   4.775   2.514
 9655SOL    HW241442   3.267   4.885   2.454
 9656SOL     OW41443   6.292   4.749   4.161
 9656SOL    HW141444   6.248   4.833   4.193
 9656SOL    HW241445   6.267   4.733   4.065
 9657SOL     OW41446   4.740   5.952   0.343
 9657SOL    HW141447   4.673   6.012   0.386
 9657SOL    HW241448   4.813   5.930   0.408
 9658SOL     OW41449   6.340   4.867   1.602
 9658SOL    HW141450   6.270   4.867   1.674
 9658SOL    HW241451   6.392   4.952   1.606
 9659SOL     OW41452   1.817   2.029   0.307
 9659SOL    HW141453   1.806   2.050   0.404
 9659SOL    HW241454   1.824   1.930   0.295
 9660SOL     OW41455   3.476   1.193   3.409
 9660SOL    HW141456   3.426   1.110   3.385
 9660SOL    HW241457   3.419   1.273   3.390
 9661SOL     OW41458   6.527   1.479   5.924
 9661SOL    HW141459   6.578   1.565   5.933
 9661SOL    HW241460   6.516   1.456   5.828
 9662SOL     OW41461   5.100   0.455   2.774
 9662SOL    HW141462   5.137   0.546   2.790
 9662SOL    HW241463   5.018   0.462   2.716
 9663SOL     OW41464   6.024   6.803   2.390
 9663SOL    HW141465   5.938   6.770   2.351
 9663SOL    HW241466   6.101   6.771   2.334
 9664SOL     OW41467   2.643   5.328   0.912
 9664SOL    HW141468   2.722   5.390   0.917
 9664SOL    HW241469   2.576   5.365   0.847
 9665SOL     OW41470   5.216   6.868   1.354
 9665SOL    HW141471   5.260   6.947   1.310
 9665SOL    HW241472   5.252   6.857   1.446
 9666SOL     OW41473   6.828   1.403   2.638
 9666SOL    HW141474   6.878   1.483   2.606
 9666SOL    HW241475   6.782   1.424   2.724
 9667SOL     OW41476   3.842   4.040   0.136
 9667SOL    HW141477   3.801   3.968   0.192
 9667SOL    HW241478   3.921   4.004   0.087
 9668SOL     OW41479   0.024   1.769   0.327
 9668SOL    HW141480   0.016   1.679   0.284
 9668SOL    HW241481   0.012   1.761   0.426
 9669SOL     OW41482   0.502   3.703   4.084
 9669SOL    HW141483   0.490   3.608   4.057
 9669SOL    HW241484   0.521   3.707   4.182
 9670SOL     OW41485   7.098   5.268   6.812
 9670SOL    HW141486   7.175   5.331   6.799
 9670SOL    HW241487   7.017   5.320   6.838
 9671SOL     OW41488   5.107   6.975   2.433
 9671SOL    HW141489   5.070   7.052   2.485
 9671SOL    HW241490   5.032   6.916   2.403
 9672SOL     OW41491   7.125   2.925   0.975
 9672SOL    HW141492   7.174   2.840   0.953
 9672SOL    HW241493   7.191   3.000   0.984
 9673SOL     OW41494   3.850   1.807   5.304
 9673SOL    HW141495   3.756   1.772   5.301
 9673SOL    HW241496   3.873   1.848   5.215
 9674SOL     OW41497   2.318   2.493   2.269
 9674SOL    HW141498   2.236   2.545   2.242
 9674SOL    HW241499   2.385   2.555   2.309
 9675SOL     OW41500   4.474   0.202   4.912
 9675SOL    HW141501   4.503   0.216   5.006
 9675SOL    HW241502   4.515   0.118   4.877
 9676SOL     OW41503   2.588   5.030   4.262
 9676SOL    HW141504   2.601   4.947   4.317
 9676SOL    HW241505   2.526   5.010   4.185
 9677SOL     OW41506   0.874   0.167   5.376
 9677SOL    HW141507   0.848   0.225   5.299
 9677SOL    HW241508   0.840   0.075   5.362
 9678SOL     OW41509   4.285   0.737   6.829
 9678SOL    HW141510   4.307   0.643   6.853
 9678SOL    HW241511   4.362   0.777   6.778
 9679SOL     OW41512   4.209   3.694   0.418
 9679SOL    HW141513   4.245   3.649   0.499
 9679SOL    HW241514   4.282   3.709   0.352
 9680SOL     OW41515   5.849   1.114   7.172
 9680SOL    HW141516   5.824   1.206   7.200
 9680SOL    HW241517   5.780   1.049   7.206
 9681SOL     OW41518   6.939   3.654   5.319
 9681SOL    HW141519   6.902   3.717   5.249
 9681SOL    HW241520   6.950   3.563   5.279
 9682SOL     OW41521   6.116   0.961   5.190
 9682SOL    HW141522   6.165   0.896   5.132
 9682SOL    HW241523   6.099   1.046   5.140
 9683SOL     OW41524   2.385   3.650   2.965
 9683SOL    HW141525   2.401   3.585   2.891
 9683SOL    HW241526   2.302   3.626   3.014
 9684SOL     OW41527   0.081   7.283   1.495
 9684SOL    HW141528   0.055   7.371   1.535
 9684SOL    HW241529   0.178   7.266   1.513
 9685SOL     OW41530   3.045   3.156   5.486
 9685SOL    HW141531   3.077   3.061   5.484
 9685SOL    HW241532   2.983   3.171   5.408
 9686SOL     OW41533   5.973   3.377   6.683
 9686SOL    HW141534   5.885   3.341   6.713
 9686SOL    HW241535   5.998   3.336   6.595
 9687SOL     OW41536   1.602   1.726   5.317
 9687SOL    HW141537   1.592   1.801   5.251
 9687SOL    HW241538   1.533   1.657   5.298
 9688SOL     OW41539   2.862   1.227   4.039
 9688SOL    HW141540   2.921   1.281   4.099
 9688SOL    HW241541   2.811   1.161   4.094
 9689SOL     OW41542   5.291   6.697   4.023
 9689SOL    HW141543   5.318   6.667   3.932
 9689SOL    HW241544   5.268   6.617   4.079
 9690SOL     OW41545   1.564   3.413   0.380
 9690SOL    HW141546   1.563   3.439   0.284
 9690SOL    HW241547   1.479   3.365   0.403
 9691SOL     OW41548   5.169   6.208   5.905
 9691SOL    HW141549   5.261   6.170   5.913
 9691SOL    HW241550   5.118   6.188   5.989
 9692SOL     OW41551   1.913   4.955   0.365
 9692SOL    HW141552   1.876   5.046   0.344
 9692SOL    HW241553   2.013   4.958   0.363
 9693SOL     OW41554   3.684   6.184   3.499
 9693SOL    HW141555   3.728   6.125   3.567
 9693SOL    HW241556   3.733   6.178   3.412
 9694SOL     OW41557   5.178   3.236   3.010
 9694SOL    HW141558   5.093   3.198   2.974
 9694SOL    HW241559   5.197   3.194   3.099
 9695SOL     OW41560   1.941   6.838   3.621
 9695SOL    HW141561   1.891   6.752   3.616
 9695SOL    HW241562   2.004   6.836   3.700
 9696SOL     OW41563   5.543   3.051   3.917
 9696SOL    HW141564   5.619   2.985   3.919
 9696SOL    HW241565   5.573   3.134   3.869
 9697SOL     OW41566   7.022   3.341   3.414
 9697SOL    HW141567   7.039   3.253   3.370
 9697SOL    HW241568   7.029   3.414   3.346
 9698SOL     OW41569   5.537   1.438   7.081
 9698SOL    HW141570   5.500   1.452   7.172
 9698SOL    HW241571   5.472   1.386   7.025
 9699SOL     OW41572   4.252   3.042   2.997
 9699SOL    HW141573   4.333   2.992   2.968
 9699SOL    HW241574   4.208   3.084   2.917
 9700SOL     OW41575   2.364   6.634   5.622
 9700SOL    HW141576   2.445   6.605   5.570
 9700SOL    HW241577   2.374   6.605   5.717
 9701SOL     OW41578   2.759   3.397   0.274
 9701SOL    HW141579   2.700   3.317   0.260
 9701SOL    HW241580   2.816   3.383   0.355
 9702SOL     OW41581   6.212   5.909   4.639
 9702SOL    HW141582   6.246   5.936   4.549
 9702SOL    HW241583   6.202   5.989   4.697
 9703SOL     OW41584   2.293   7.309   6.163
 9703SOL    HW141585   2.289   7.376   6.237
 9703SOL    HW241586   2.200   7.294   6.127
 9704SOL     OW41587   1.605   3.853   0.952
 9704SOL    HW141588   1.679   3.917   0.970
 9704SOL    HW241589   1.618   3.811   0.862
 9705SOL     OW41590   0.875   0.936   7.148
 9705SOL    HW141591   0.884   0.917   7.050
 9705SOL    HW241592   0.811   0.871   7.189
 9706SOL     OW41593   5.775   3.699   6.041
 9706SOL    HW141594   5.874   3.700   6.024
 9706SOL    HW241595   5.740   3.607   6.026
 9707SOL     OW41596   4.687   6.861   4.488
 9707SOL    HW141597   4.707   6.889   4.394
 9707SOL    HW241598   4.608   6.912   4.522
 9708SOL     OW41599   1.674   4.297   3.053
 9708SOL    HW141600   1.767   4.270   3.026
 9708SOL    HW241601   1.629   4.342   2.976
 9709SOL     OW41602   1.807   4.490   6.771
 9709SOL    HW141603   1.889   4.486   6.829
 9709SOL    HW241604   1.817   4.426   6.695
 9710SOL     OW41605   2.247   4.663   3.285
 9710SOL    HW141606   2.183   4.593   3.316
 9710SOL    HW241607   2.317   4.677   3.355
 9711SOL     OW41608   5.084   3.564   1.360
 9711SOL    HW141609   5.068   3.651   1.315
 9711SOL    HW241610   5.178   3.533   1.341
 9712SOL     OW41611   1.593   6.416   6.522
 9712SOL    HW141612   1.673   6.441   6.467
 9712SOL    HW241613   1.535   6.353   6.471
 9713SOL     OW41614   3.420   3.446   2.093
 9713SOL    HW141615   3.330   3.486   2.112
 9713SOL    HW241616   3.409   3.366   2.034
 9714SOL     OW41617   1.447   5.749   0.633
 9714SOL    HW141618   1.470   5.839   0.599
 9714SOL    HW241619   1.385   5.758   0.711
 9715SOL     OW41620   4.933   2.099   4.028
 9715SOL    HW141621   4.876   2.147   4.095
 9715SOL    HW241622   5.004   2.048   4.076
 9716SOL     OW41623   2.870   3.164   6.390
 9716SOL    HW141624   2.913   3.097   6.330
 9716SOL    HW241625   2.778   3.133   6.413
 9717SOL     OW41626   2.742   4.793   4.948
 9717SOL    HW141627   2.771   4.796   4.852
 9717SOL    HW241628   2.802   4.731   4.998
 9718SOL     OW41629   4.194   0.699   5.472
 9718SOL    HW141630   4.179   0.730   5.566
 9718SOL    HW241631   4.293   0.692   5.455
 9719SOL     OW41632   0.471   3.883   3.195
 9719SOL    HW141633   0.375   3.900   3.170
 9719SOL    HW241634   0.531   3.914   3.122
 9720SOL     OW41635   4.868   2.863   7.170
 9720SOL    HW141636   4.773   2.866   7.202
 9720SOL    HW241637   4.919   2.940   7.209
 9721SOL     OW41638   4.374   3.940   7.141
 9721SOL    HW141639   4.313   3.942   7.063
 9721SOL    HW241640   4.329   3.981   7.220
 9722SOL     OW41641   1.893   4.582   2.728
 9722SOL    HW141642   1.965   4.634   2.774
 9722SOL    HW241643   1.804   4.610   2.763
 9723SOL     OW41644   0.530   2.418   0.245
 9723SOL    HW141645   0.479   2.373   0.171
 9723SOL    HW241646   0.530   2.517   0.231
 9724SOL     OW41647   7.145   3.315   6.398
 9724SOL    HW141648   7.104   3.254   6.330
 9724SOL    HW241649   7.189   3.392   6.352
 9725SOL     OW41650   1.496   1.604   0.712
 9725SOL    HW141651   1.521   1.516   0.671
 9725SOL    HW241652   1.565   1.673   0.686
 9726SOL     OW41653   2.140   3.880   5.622
 9726SOL    HW141654   2.230   3.922   5.606
 9726SOL    HW241655   2.071   3.951   5.631
 9727SOL     OW41656   7.350   6.747   7.277
 9727SOL    HW141657   7.422   6.816   7.263
 9727SOL    HW241658   7.349   6.685   7.199
 9728SOL     OW41659   5.688   4.460   1.854
 9728SOL    HW141660   5.648   4.368   1.855
 9728SOL    HW241661   5.629   4.523   1.904
 9729SOL     OW41662   4.980   6.435   6.899
 9729SOL    HW141663   5.068   6.390   6.915
 9729SOL    HW241664   4.908   6.384   6.946
 9730SOL     OW41665   2.375   3.372   5.118
 9730SOL    HW141666   2.299   3.311   5.140
 9730SOL    HW241667   2.348   3.467   5.131
 9731SOL     OW41668   2.016   5.978   3.699
 9731SOL    HW141669   1.976   5.927   3.775
 9731SOL    HW241670   1.951   5.979   3.622
 9732SOL     OW41671   3.962   5.684   5.485
 9732SOL    HW141672   3.923   5.702   5.576
 9732SOL    HW241673   3.973   5.586   5.472
 9733SOL     OW41674   1.212   1.132   7.129
 9733SOL    HW141675   1.266   1.209   7.163
 9733SOL    HW241676   1.147   1.103   7.199
 9734SOL     OW41677   1.492   4.989   4.183
 9734SOL    HW141678   1.577   4.942   4.207
 9734SOL    HW241679   1.422   4.921   4.160
 9735SOL     OW41680   0.769   4.028   1.238
 9735SOL    HW141681   0.794   4.037   1.141
 9735SOL    HW241682   0.845   3.988   1.289
 9736SOL     OW41683   6.469   2.558   4.686
 9736SOL    HW141684   6.466   2.616   4.605
 9736SOL    HW241685   6.386   2.504   4.692
 9737SOL     OW41686   2.936   0.534   7.136
 9737SOL    HW141687   3.016   0.474   7.139
 9737SOL    HW241688   2.945   0.606   7.205
 9738SOL     OW41689   3.079   0.640   1.489
 9738SOL    HW141690   3.007   0.671   1.551
 9738SOL    HW241691   3.062   0.545   1.464
 9739SOL     OW41692   1.911   5.988   3.444
 9739SOL    HW141693   1.825   5.939   3.428
 9739SOL    HW241694   1.953   6.012   3.356
 9740SOL     OW41695   2.894   6.474   2.310
 9740SOL    HW141696   2.857   6.388   2.275
 9740SOL    HW241697   2.930   6.528   2.234
 9741SOL     OW41698   6.097   1.017   2.377
 9741SOL    HW141699   6.155   0.936   2.387
 9741SOL    HW241700   6.015   0.993   2.326
 9742SOL     OW41701   7.146   2.126   2.222
 9742SOL    HW141702   7.144   2.084   2.313
 9742SOL    HW241703   7.055   2.159   2.198
 9743SOL     OW41704   6.877   4.920   0.539
 9743SOL    HW141705   6.973   4.940   0.517
 9743SOL    HW241706   6.872   4.845   0.605
 9744SOL     OW41707   6.145   4.147   2.666
 9744SOL    HW141708   6.149   4.208   2.586
 9744SOL    HW241709   6.106   4.196   2.743
 9745SOL     OW41710   7.182   2.260   0.849
 9745SOL    HW141711   7.119   2.269   0.772
 9745SOL    HW241712   7.253   2.193   0.827
 9746SOL     OW41713   3.634   4.396   5.296
 9746SOL    HW141714   3.627   4.297   5.283
 9746SOL    HW241715   3.619   4.443   5.209
 9747SOL     OW41716   6.295   6.069   0.055
 9747SOL    HW141717   6.368   6.014   0.096
 9747SOL    HW241718   6.209   6.018   0.060
 9748SOL     OW41719   5.898   4.524   2.031
 9748SOL    HW141720   5.905   4.616   2.069
 9748SOL    HW241721   5.823   4.521   1.965
 9749SOL     OW41722   0.971   1.980   2.252
 9749SOL    HW141723   0.954   1.985   2.350
 9749SOL    HW241724   0.886   1.998   2.202
 9750SOL     OW41725   6.855   2.260   2.251
 9750SOL    HW141726   6.875   2.298   2.160
 9750SOL    HW241727   6.834   2.335   2.314
 9751SOL     OW41728   3.181   2.222   5.541
 9751SOL    HW141729   3.204   2.318   5.553
 9751SOL    HW241730   3.159   2.204   5.445
 9752SOL     OW41731   7.345   2.862   2.315
 9752SOL    HW141732   7.391   2.820   2.237
 9752SOL    HW241733   7.256   2.899   2.286
 9753SOL     OW41734   4.926   1.699   0.103
 9753SOL    HW141735   4.960   1.793   0.115
 9753SOL    HW241736   4.960   1.662   0.016
 9754SOL     OW41737   4.718   1.801   4.541
 9754SOL    HW141738   4.747   1.755   4.457
 9754SOL    HW241739   4.781   1.875   4.561
 9755SOL     OW41740   5.924   3.313   3.614
 9755SOL    HW141741   6.004   3.253   3.622
 9755SOL    HW241742   5.938   3.395   3.670
 9756SOL     OW41743   4.165   7.247   6.486
 9756SOL    HW141744   4.103   7.298   6.426
 9756SOL    HW241745   4.231   7.196   6.431
 9757SOL     OW41746   1.663   0.937   5.520
 9757SOL    HW141747   1.686   0.846   5.485
 9757SOL    HW241748   1.564   0.950   5.518
 9758SOL     OW41749   5.713   7.180   3.972
 9758SOL    HW141750   5.758   7.258   3.928
 9758SOL    HW241751   5.737   7.096   3.923
 9759SOL     OW41752   4.632   7.171   4.592
 9759SOL    HW141753   4.581   7.181   4.507
 9759SOL    HW241754   4.727   7.199   4.577
 9760SOL     OW41755   4.536   6.643   7.083
 9760SOL    HW141756   4.561   6.641   6.987
 9760SOL    HW241757   4.437   6.658   7.092
 9761SOL     OW41758   1.467   4.553   5.556
 9761SOL    HW141759   1.523   4.494   5.614
 9761SOL    HW241760   1.482   4.529   5.460
 9762SOL     OW41761   4.842   3.848   3.369
 9762SOL    HW141762   4.789   3.826   3.450
 9762SOL    HW241763   4.870   3.944   3.372
 9763SOL     OW41764   0.002   6.789   0.493
 9763SOL    HW141765   0.019   6.693   0.473
 9763SOL    HW241766  -0.092   6.812   0.469
 9764SOL     OW41767   2.487   6.156   4.485
 9764SOL    HW141768   2.481   6.129   4.581
 9764SOL    HW241769   2.485   6.074   4.427
 9765SOL     OW41770   5.372   3.800   1.805
 9765SOL    HW141771   5.306   3.788   1.879
 9765SOL    HW241772   5.331   3.855   1.733
 9766SOL     OW41773   3.182   3.690   4.785
 9766SOL    HW141774   3.215   3.694   4.879
 9766SOL    HW241775   3.083   3.697   4.784
 9767SOL     OW41776   6.022   1.167   5.041
 9767SOL    HW141777   6.013   1.263   5.068
 9767SOL    HW241778   5.949   1.143   4.978
 9768SOL     OW41779   4.563   1.341   6.383
 9768SOL    HW141780   4.589   1.308   6.474
 9768SOL    HW241781   4.638   1.324   6.319
 9769SOL     OW41782   2.483   2.310   4.646
 9769SOL    HW141783   2.537   2.385   4.683
 9769SOL    HW241784   2.467   2.326   4.548
 9770SOL     OW41785   1.263   3.963   1.679
 9770SOL    HW141786   1.321   3.974   1.760
 9770SOL    HW241787   1.196   3.890   1.697
 9771SOL     OW41788   4.221   4.336   6.191
 9771SOL    HW141789   4.125   4.353   6.216
 9771SOL    HW241790   4.266   4.284   6.263
 9772SOL     OW41791   4.138   1.147   0.824
 9772SOL    HW141792   4.082   1.138   0.907
 9772SOL    HW241793   4.204   1.221   0.836
 9773SOL     OW41794   5.787   0.049   6.499
 9773SOL    HW141795   5.857   0.115   6.525
 9773SOL    HW241796   5.768  -0.012   6.577
 9774SOL     OW41797   4.307   5.399   7.150
 9774SOL    HW141798   4.222   5.366   7.110
 9774SOL    HW241799   4.317   5.497   7.131
 9775SOL     OW41800   3.316   2.985   2.145
 9775SOL    HW141801   3.237   3.007   2.203
 9775SOL    HW241802   3.400   3.003   2.195
 9776SOL     OW41803   1.648   4.585   0.972
 9776SOL    HW141804   1.561   4.540   0.950
 9776SOL    HW241805   1.631   4.671   1.018
 9777SOL     OW41806   5.795   3.545   1.713
 9777SOL    HW141807   5.789   3.446   1.703
 9777SOL    HW241808   5.704   3.585   1.704
 9778SOL     OW41809   3.826   1.431   1.829
 9778SOL    HW141810   3.899   1.364   1.840
 9778SOL    HW241811   3.783   1.419   1.740
 9779SOL     OW41812   2.920   2.515   1.430
 9779SOL    HW141813   2.980   2.435   1.418
 9779SOL    HW241814   2.976   2.597   1.443
 9780SOL     OW41815   7.253   3.123   1.748
 9780SOL    HW141816   7.200   3.142   1.665
 9780SOL    HW241817   7.222   3.037   1.789
 9781SOL     OW41818   1.711   5.835   4.090
 9781SOL    HW141819   1.747   5.769   4.155
 9781SOL    HW241820   1.683   5.918   4.138
 9782SOL     OW41821   1.499   4.314   0.274
 9782SOL    HW141822   1.452   4.402   0.279
 9782SOL    HW241823   1.433   4.240   0.281
 9783SOL     OW41824   0.480   1.614   0.743
 9783SOL    HW141825   0.520   1.701   0.774
 9783SOL    HW241826   0.460   1.620   0.645
 9784SOL     OW41827   2.395   6.938   5.664
 9784SOL    HW141828   2.482   6.989   5.662
 9784SOL    HW241829   2.414   6.841   5.649
 9785SOL     OW41830   0.909   3.188   1.230
 9785SOL    HW141831   0.832   3.170   1.291
 9785SOL    HW241832   0.987   3.221   1.284
 9786SOL     OW41833   7.065   4.955   5.995
 9786SOL    HW141834   7.113   5.041   6.004
 9786SOL    HW241835   6.976   4.970   5.952
 9787SOL     OW41836   6.943   5.024   3.277
 9787SOL    HW141837   6.930   4.962   3.200
 9787SOL    HW241838   6.991   4.975   3.351
 9788SOL     OW41839   6.940   6.851   1.436
 9788SOL    HW141840   6.847   6.864   1.470
 9788SOL    HW241841   6.942   6.864   1.337
 9789SOL     OW41842   1.960   4.765   5.540
 9789SOL    HW141843   1.954   4.846   5.482
 9789SOL    HW241844   1.987   4.792   5.632
 9790SOL     OW41845   3.863   4.166   3.582
 9790SOL    HW141846   3.858   4.247   3.524
 9790SOL    HW241847   3.780   4.112   3.572
 9791SOL     OW41848   4.005   3.517   5.282
 9791SOL    HW141849   3.996   3.488   5.377
 9791SOL    HW241850   3.960   3.605   5.270
 9792SOL     OW41851   5.119   2.904   6.851
 9792SOL    HW141852   5.062   2.823   6.857
 9792SOL    HW241853   5.119   2.939   6.758
 9793SOL     OW41854   3.524   4.808   5.076
 9793SOL    HW141855   3.494   4.900   5.102
 9793SOL    HW241856   3.604   4.784   5.130
 9794SOL     OW41857   5.011   7.093   5.260
 9794SOL    HW141858   5.033   7.128   5.351
 9794SOL    HW241859   4.954   7.011   5.269
 9795SOL     OW41860   4.475   6.776   4.782
 9795SOL    HW141861   4.469   6.825   4.695
 9795SOL    HW241862   4.564   6.733   4.790
 9796SOL     OW41863   2.812   2.505   5.714
 9796SOL    HW141864   2.881   2.511   5.787
 9796SOL    HW241865   2.778   2.411   5.708
 9797SOL     OW41866   4.915   1.521   5.627
 9797SOL    HW141867   4.842   1.569   5.578
 9797SOL    HW241868   4.949   1.445   5.571
 9798SOL     OW41869   6.113   6.181   5.867
 9798SOL    HW141870   6.100   6.141   5.776
 9798SOL    HW241871   6.149   6.274   5.859
 9799SOL     OW41872   6.751   0.134   2.049
 9799SOL    HW141873   6.757   0.048   1.998
 9799SOL    HW241874   6.735   0.114   2.146
 9800SOL     OW41875   0.908   2.166   3.853
 9800SOL    HW141876   0.869   2.257   3.861
 9800SOL    HW241877   0.986   2.168   3.790
 9801SOL     OW41878   3.834   4.374   4.244
 9801SOL    HW141879   3.735   4.380   4.249
 9801SOL    HW241880   3.864   4.390   4.150
 9802SOL     OW41881   0.191   7.146   6.594
 9802SOL    HW141882   0.290   7.150   6.607
 9802SOL    HW241883   0.171   7.122   6.499
 9803SOL     OW41884   2.613   4.854   4.466
 9803SOL    HW141885   2.711   4.867   4.482
 9803SOL    HW241886   2.579   4.781   4.526
 9804SOL     OW41887   1.406   2.050   6.672
 9804SOL    HW141888   1.494   2.004   6.688
 9804SOL    HW241889   1.331   1.986   6.689
 9805SOL     OW41890   1.072   5.134   3.711
 9805SOL    HW141891   1.098   5.211   3.769
 9805SOL    HW241892   0.983   5.099   3.741
 9806SOL     OW41893   4.919   4.215   3.193
 9806SOL    HW141894   4.971   4.294   3.162
 9806SOL    HW241895   4.828   4.216   3.152
 9807SOL     OW41896   5.731   3.264   4.797
 9807SOL    HW141897   5.811   3.241   4.741
 9807SOL    HW241898   5.682   3.180   4.820
 9808SOL     OW41899   5.309   6.632   7.061
 9808SOL    HW141900   5.381   6.653   6.994
 9808SOL    HW241901   5.249   6.711   7.071
 9809SOL     OW41902   5.325   3.687   3.982
 9809SOL    HW141903   5.229   3.680   3.955
 9809SOL    HW241904   5.362   3.596   4.001
 9810SOL     OW41905   2.402   2.310   1.348
 9810SOL    HW141906   2.451   2.246   1.405
 9810SOL    HW241907   2.387   2.270   1.257
 9811SOL     OW41908   6.508   2.461   0.165
 9811SOL    HW141909   6.487   2.470   0.068
 9811SOL    HW241910   6.423   2.462   0.218
 9812SOL     OW41911   3.352   1.770   2.560
 9812SOL    HW141912   3.338   1.681   2.603
 9812SOL    HW241913   3.405   1.758   2.476
 9813SOL     OW41914   6.171   1.663   0.723
 9813SOL    HW141915   6.244   1.707   0.670
 9813SOL    HW241916   6.174   1.696   0.817
 9814SOL     OW41917   2.331   5.022   4.419
 9814SOL    HW141918   2.420   4.980   4.404
 9814SOL    HW241919   2.298   5.063   4.333
 9815SOL     OW41920   1.574   2.424   1.231
 9815SOL    HW141921   1.587   2.478   1.148
 9815SOL    HW241922   1.623   2.337   1.224
 9816SOL     OW41923   4.810   6.397   1.860
 9816SOL    HW141924   4.713   6.419   1.862
 9816SOL    HW241925   4.863   6.475   1.891
 9817SOL     OW41926   6.292   7.083   3.073
 9817SOL    HW141927   6.301   7.069   2.974
 9817SOL    HW241928   6.353   7.155   3.103
 9818SOL     OW41929   2.544   6.960   4.138
 9818SOL    HW141930   2.588   6.882   4.183
 9818SOL    HW241931   2.490   7.011   4.205
 9819SOL     OW41932   1.417   3.827   3.671
 9819SOL    HW141933   1.415   3.897   3.599
 9819SOL    HW241934   1.337   3.839   3.731
 9820SOL     OW41935   3.575   6.351   4.825
 9820SOL    HW141936   3.533   6.368   4.914
 9820SOL    HW241937   3.534   6.270   4.784
 9821SOL     OW41938   5.502   1.864   4.785
 9821SOL    HW141939   5.551   1.814   4.714
 9821SOL    HW241940   5.503   1.810   4.870
 9822SOL     OW41941   2.690   4.939   7.094
 9822SOL    HW141942   2.761   4.884   7.138
 9822SOL    HW241943   2.647   4.886   7.021
 9823SOL     OW41944   2.270   4.325   5.662
 9823SOL    HW141945   2.276   4.412   5.612
 9823SOL    HW241946   2.182   4.320   5.708
 9824SOL     OW41947   1.511   0.613   7.168
 9824SOL    HW141948   1.444   0.540   7.185
 9824SOL    HW241949   1.486   0.694   7.222
 9825SOL     OW41950   4.691   3.976   2.159
 9825SOL    HW141951   4.760   4.025   2.105
 9825SOL    HW241952   4.664   4.032   2.237
 9826SOL     OW41953   1.966   6.079   4.734
 9826SOL    HW141954   2.019   6.130   4.666
 9826SOL    HW241955   2.029   6.036   4.799
 9827SOL     OW41956   0.438   3.666   2.291
 9827SOL    HW141957   0.443   3.631   2.385
 9827SOL    HW241958   0.468   3.761   2.289
 9828SOL     OW41959   6.749   7.264   1.896
 9828SOL    HW141960   6.679   7.309   1.841
 9828SOL    HW241961   6.779   7.180   1.851
 9829SOL     OW41962   4.370   5.206   3.435
 9829SOL    HW141963   4.310   5.175   3.361
 9829SOL    HW241964   4.401   5.299   3.416
 9830SOL     OW41965   3.963   0.394   3.281
 9830SOL    HW141966   3.994   0.338   3.358
 9830SOL    HW241967   3.863   0.386   3.272
 9831SOL     OW41968   1.393   0.286   1.576
 9831SOL    HW141969   1.393   0.187   1.565
 9831SOL    HW241970   1.370   0.329   1.489
 9832SOL     OW41971   1.695   4.628   1.604
 9832SOL    HW141972   1.771   4.646   1.666
 9832SOL    HW241973   1.729   4.615   1.511
 9833SOL     OW41974   3.481   2.601   0.272
 9833SOL    HW141975   3.437   2.682   0.233
 9833SOL    HW241976   3.576   2.622   0.294
 9834SOL     OW41977   6.118   0.969   6.035
 9834SOL    HW141978   6.176   0.918   5.972
 9834SOL    HW241979   6.142   0.946   6.129
 9835SOL     OW41980   2.723   1.812   6.791
 9835SOL    HW141981   2.692   1.840   6.882
 9835SOL    HW241982   2.795   1.743   6.799
 9836SOL     OW41983   7.013   2.986   6.766
 9836SOL    HW141984   7.026   3.052   6.691
 9836SOL    HW241985   7.100   2.943   6.788
 9837SOL     OW41986   6.654   4.155   3.761
 9837SOL    HW141987   6.585   4.192   3.699
 9837SOL    HW241988   6.646   4.201   3.850
 9838SOL     OW41989   0.164   6.929   2.717
 9838SOL    HW141990   0.259   6.899   2.719
 9838SOL    HW241991   0.106   6.855   2.683
 9839SOL     OW41992   7.229   6.244   0.067
 9839SOL    HW141993   7.254   6.207   0.156
 9839SOL    HW241994   7.291   6.319   0.043
 9840SOL     OW41995   5.763   2.809   4.743
 9840SOL    HW141996   5.672   2.846   4.761
 9840SOL    HW241997   5.769   2.779   4.648
 9841SOL     OW41998   6.928   0.495   6.659
 9841SOL    HW141999   6.949   0.490   6.562
 9841SOL    HW242000   6.841   0.541   6.673
 9842SOL     OW42001   0.511   3.865   6.781
 9842SOL    HW142002   0.446   3.854   6.706
 9842SOL    HW242003   0.584   3.928   6.753
 9843SOL     OW42004   3.949   0.816   5.939
 9843SOL    HW142005   3.924   0.720   5.952
 9843SOL    HW242006   3.889   0.874   5.994
 9844SOL     OW42007   3.788   2.938   0.529
 9844SOL    HW142008   3.850   2.955   0.606
 9844SOL    HW242009   3.778   3.022   0.476
 9845SOL     OW42010   6.100   5.607   3.821
 9845SOL    HW142011   6.030   5.601   3.750
 9845SOL    HW242012   6.146   5.696   3.816
 9846SOL     OW42013   1.280   1.579   1.730
 9846SOL    HW142014   1.285   1.611   1.825
 9846SOL    HW242015   1.316   1.650   1.669
 9847SOL     OW42016   5.641   6.366   1.471
 9847SOL    HW142017   5.556   6.330   1.509
 9847SOL    HW242018   5.633   6.465   1.458
 9848SOL     OW42019   2.294   4.545   1.629
 9848SOL    HW142020   2.251   4.634   1.639
 9848SOL    HW242021   2.348   4.544   1.544
 9849SOL     OW42022   5.731   7.251   0.569
 9849SOL    HW142023   5.714   7.226   0.474
 9849SOL    HW242024   5.803   7.192   0.606
 9850SOL     OW42025   6.941   2.526   5.635
 9850SOL    HW142026   6.886   2.549   5.554
 9850SOL    HW242027   7.024   2.479   5.606
 9851SOL     OW42028   3.672   3.348   5.825
 9851SOL    HW142029   3.690   3.342   5.923
 9851SOL    HW242030   3.580   3.387   5.811
 9852SOL     OW42031   2.874   2.589   1.771
 9852SOL    HW142032   2.888   2.519   1.840
 9852SOL    HW242033   2.869   2.546   1.680
 9853SOL     OW42034   4.420   6.600   0.456
 9853SOL    HW142035   4.482   6.672   0.425
 9853SOL    HW242036   4.470   6.513   0.461
 9854SOL     OW42037   2.148   1.796   1.950
 9854SOL    HW142038   2.086   1.871   1.973
 9854SOL    HW242039   2.135   1.771   1.854
 9855SOL     OW42040   3.158   3.590   4.490
 9855SOL    HW142041   3.250   3.585   4.453
 9855SOL    HW242042   3.160   3.637   4.578
 9856SOL     OW42043   2.770   6.426   2.743
 9856SOL    HW142044   2.854   6.422   2.797
 9856SOL    HW242045   2.723   6.338   2.749
 9857SOL     OW42046   0.235   2.398   4.187
 9857SOL    HW142047   0.245   2.311   4.139
 9857SOL    HW242048   0.138   2.417   4.201
 9858SOL     OW42049   2.878   3.604   1.395
 9858SOL    HW142050   2.934   3.663   1.452
 9858SOL    HW242051   2.847   3.654   1.314
 9859SOL     OW42052   5.920   2.988   3.357
 9859SOL    HW142053   5.879   3.059   3.300
 9859SOL    HW242054   5.904   2.899   3.315
 9860SOL     OW42055   7.180   0.526   6.147
 9860SOL    HW142056   7.115   0.504   6.074
 9860SOL    HW242057   7.198   0.625   6.147
 9861SOL     OW42058   5.639   5.355   7.358
 9861SOL    HW142059   5.543   5.384   7.366
 9861SOL    HW242060   5.687   5.416   7.295
 9862SOL     OW42061   0.002   7.345   6.739
 9862SOL    HW142062   0.069   7.286   6.694
 9862SOL    HW242063   0.012   7.338   6.838
 9863SOL     OW42064   4.749   6.794   5.491
 9863SOL    HW142065   4.667   6.752   5.452
 9863SOL    HW242066   4.724   6.853   5.567
 9864SOL     OW42067   6.007   2.122   5.320
 9864SOL    HW142068   5.962   2.097   5.234
 9864SOL    HW242069   5.939   2.157   5.384
 9865SOL     OW42070   3.485   2.167   6.172
 9865SOL    HW142071   3.582   2.192   6.169
 9865SOL    HW242072   3.476   2.068   6.183
 9866SOL     OW42073   2.912   4.539   3.364
 9866SOL    HW142074   2.982   4.505   3.302
 9866SOL    HW242075   2.923   4.638   3.376
 9867SOL     OW42076   0.153   7.052   5.224
 9867SOL    HW142077   0.211   7.044   5.143
 9867SOL    HW242078   0.073   6.993   5.215
 9868SOL     OW42079   6.381   7.330   3.128
 9868SOL    HW142080   6.297   7.383   3.144
 9868SOL    HW242081   6.449   7.388   3.083
 9869SOL     OW42082   2.462   2.368   5.696
 9869SOL    HW142083   2.545   2.313   5.691
 9869SOL    HW242084   2.406   2.337   5.773
 9870SOL     OW42085   6.958   0.196   5.829
 9870SOL    HW142086   7.024   0.149   5.771
 9870SOL    HW242087   6.870   0.148   5.827
 9871SOL     OW42088   4.459   0.571   0.474
 9871SOL    HW142089   4.551   0.593   0.508
 9871SOL    HW242090   4.408   0.521   0.544
 9872SOL     OW42091   4.919   1.192   4.911
 9872SOL    HW142092   4.841   1.251   4.891
 9872SOL    HW242093   4.895   1.130   4.986
 9873SOL     OW42094   6.675   6.698   6.489
 9873SOL    HW142095   6.594   6.663   6.443
 9873SOL    HW242096   6.663   6.692   6.588
 9874SOL     OW42097   4.664   5.237   3.152
 9874SOL    HW142098   4.683   5.152   3.200
 9874SOL    HW242099   4.565   5.252   3.147
 9875SOL     OW42100   6.099   2.778   1.294
 9875SOL    HW142101   6.189   2.823   1.301
 9875SOL    HW242102   6.066   2.756   1.386
 9876SOL     OW42103   4.502   4.097   3.297
 9876SOL    HW142104   4.475   4.193   3.308
 9876SOL    HW242105   4.537   4.062   3.384
 9877SOL     OW42106   6.354   4.770   0.499
 9877SOL    HW142107   6.318   4.767   0.406
 9877SOL    HW242108   6.280   4.757   0.565
 9878SOL     OW42109   2.041   1.026   2.906
 9878SOL    HW142110   1.945   1.003   2.892
 9878SOL    HW242111   2.089   1.022   2.818
 9879SOL     OW42112   3.887   4.386   3.409
 9879SOL    HW142113   3.941   4.343   3.337
 9879SOL    HW242114   3.847   4.471   3.375
 9880SOL     OW42115   4.428   3.757   3.684
 9880SOL    HW142116   4.424   3.785   3.780
 9880SOL    HW242117   4.338   3.727   3.654
 9881SOL     OW42118   2.045   3.489   0.489
 9881SOL    HW142119   2.099   3.406   0.506
 9881SOL    HW242120   1.949   3.469   0.504
 9882SOL     OW42121   3.221   6.766   6.167
 9882SOL    HW142122   3.278   6.774   6.249
 9882SOL    HW242123   3.217   6.671   6.138
 9883SOL     OW42124   5.326   4.234   1.548
 9883SOL    HW142125   5.405   4.221   1.608
 9883SOL    HW242126   5.355   4.280   1.464
 9884SOL     OW42127   6.338   6.572   2.380
 9884SOL    HW142128   6.436   6.558   2.395
 9884SOL    HW242129   6.286   6.525   2.451
 9885SOL     OW42130   6.398   0.513   5.535
 9885SOL    HW142131   6.320   0.552   5.583
 9885SOL    HW242132   6.416   0.567   5.453
 9886SOL     OW42133   3.101   2.655   4.194
 9886SOL    HW142134   3.102   2.570   4.141
 9886SOL    HW242135   3.080   2.634   4.290
 9887SOL     OW42136   4.593   4.795   2.027
 9887SOL    HW142137   4.624   4.883   2.062
 9887SOL    HW242138   4.600   4.725   2.098
 9888SOL     OW42139   2.514   4.799   5.891
 9888SOL    HW142140   2.550   4.761   5.977
 9888SOL    HW242141   2.415   4.808   5.898
 9889SOL     OW42142   3.108   4.312   2.835
 9889SOL    HW142143   3.154   4.388   2.880
 9889SOL    HW242144   3.112   4.324   2.735
 9890SOL     OW42145   7.203   6.871   5.435
 9890SOL    HW142146   7.224   6.968   5.426
 9890SOL    HW242147   7.216   6.843   5.530
 9891SOL     OW42148   4.636   7.104   5.429
 9891SOL    HW142149   4.663   7.042   5.502
 9891SOL    HW242150   4.616   7.195   5.467
 9892SOL     OW42151   1.482   1.952   3.767
 9892SOL    HW142152   1.462   1.862   3.805
 9892SOL    HW242153   1.517   2.011   3.839
 9893SOL     OW42154   2.323   7.204   7.287
 9893SOL    HW142155   2.234   7.236   7.253
 9893SOL    HW242156   2.379   7.283   7.312
 9894SOL     OW42157   4.738   0.138   2.187
 9894SOL    HW142158   4.662   0.109   2.245
 9894SOL    HW242159   4.739   0.083   2.103
 9895SOL     OW42160   3.114   1.758   0.596
 9895SOL    HW142161   3.191   1.696   0.613
 9895SOL    HW242162   3.072   1.783   0.683
 9896SOL     OW42163   2.583   1.237   1.030
 9896SOL    HW142164   2.665   1.293   1.018
 9896SOL    HW242165   2.508   1.293   1.063
 9897SOL     OW42166   1.968   3.542   6.881
 9897SOL    HW142167   1.992   3.467   6.943
 9897SOL    HW242168   1.894   3.513   6.821
 9898SOL     OW42169   5.334   1.895   4.529
 9898SOL    HW142170   5.341   1.898   4.629
 9898SOL    HW242171   5.251   1.847   4.502
 9899SOL     OW42172   2.511   2.748   1.031
 9899SOL    HW142173   2.568   2.756   0.949
 9899SOL    HW242174   2.441   2.820   1.029
 9900SOL     OW42175   4.839   2.791   5.204
 9900SOL    HW142176   4.825   2.872   5.147
 9900SOL    HW242177   4.772   2.790   5.278
 9901SOL     OW42178   3.197   2.393   6.487
 9901SOL    HW142179   3.296   2.407   6.492
 9901SOL    HW242180   3.178   2.300   6.454
 9902SOL     OW42181   4.365   4.795   5.426
 9902SOL    HW142182   4.412   4.861   5.485
 9902SOL    HW242183   4.430   4.759   5.358
 9903SOL     OW42184   6.432   5.431   4.510
 9903SOL    HW142185   6.402   5.524   4.491
 9903SOL    HW242186   6.398   5.402   4.600
 9904SOL     OW42187   3.662   0.649   5.227
 9904SOL    HW142188   3.640   0.712   5.152
 9904SOL    HW242189   3.690   0.702   5.307
 9905SOL     OW42190   1.208   2.959   1.062
 9905SOL    HW142191   1.242   3.034   1.118
 9905SOL    HW242192   1.254   2.874   1.088
 9906SOL     OW42193   6.237   6.232   2.442
 9906SOL    HW142194   6.204   6.317   2.483
 9906SOL    HW242195   6.283   6.252   2.355
 9907SOL     OW42196   7.175   0.267   5.181
 9907SOL    HW142197   7.244   0.227   5.120
 9907SOL    HW242198   7.145   0.199   5.248
 9908SOL     OW42199   3.194   3.736   6.203
 9908SOL    HW142200   3.141   3.821   6.199
 9908SOL    HW242201   3.225   3.720   6.297
 9909SOL     OW42202   2.217   2.845   0.816
 9909SOL    HW142203   2.178   2.854   0.907
 9909SOL    HW242204   2.147   2.811   0.753
 9910SOL     OW42205   2.845   1.901   0.532
 9910SOL    HW142206   2.880   1.979   0.585
 9910SOL    HW242207   2.920   1.859   0.481
 9911SOL     OW42208   3.563   5.792   6.838
 9911SOL    HW142209   3.614   5.762   6.757
 9911SOL    HW242210   3.617   5.775   6.920
 9912SOL     OW42211   2.392   7.210   4.800
 9912SOL    HW142212   2.384   7.167   4.890
 9912SOL    HW242213   2.452   7.290   4.807
 9913SOL     OW42214   2.028   2.324   1.952
 9913SOL    HW142215   1.999   2.344   2.046
 9913SOL    HW242216   2.086   2.399   1.919
 9914SOL     OW42217   3.543   4.716   6.525
 9914SOL    HW142218   3.629   4.704   6.475
 9914SOL    HW242219   3.540   4.808   6.565
 9915SOL     OW42220   4.245   2.647   5.505
 9915SOL    HW142221   4.298   2.645   5.590
 9915SOL    HW242222   4.268   2.731   5.455
 9916SOL     OW42223   1.356   7.146   0.950
 9916SOL    HW142224   1.362   7.245   0.961
 9916SOL    HW242225   1.383   7.101   1.036
 9917SOL     OW42226   4.383   5.879   1.919
 9917SOL    HW142227   4.369   5.817   1.996
 9917SOL    HW242228   4.294   5.900   1.877
 9918SOL     OW42229   3.572   5.188   1.671
 9918SOL    HW142230   3.652   5.149   1.625
 9918SOL    HW242231   3.553   5.136   1.754
 9919SOL     OW42232   3.298   5.677   5.393
 9919SOL    HW142233   3.340   5.762   5.425
 9919SOL    HW242234   3.232   5.645   5.461
 9920SOL     OW42235   6.462   6.403   3.176
 9920SOL    HW142236   6.557   6.434   3.178
 9920SOL    HW242237   6.421   6.417   3.266
 9921SOL     OW42238   4.676   6.812   0.887
 9921SOL    HW142239   4.701   6.876   0.960
 9921SOL    HW242240   4.620   6.860   0.819
 9922SOL     OW42241   3.564   5.040   1.181
 9922SOL    HW142242   3.557   5.003   1.088
 9922SOL    HW242243   3.655   5.021   1.218
 9923SOL     OW42244   5.407   2.950   6.839
 9923SOL    HW142245   5.312   2.920   6.846
 9923SOL    HW242246   5.460   2.907   6.911
 9924SOL     OW42247   2.582   4.344   1.296
 9924SOL    HW142248   2.551   4.253   1.268
 9924SOL    HW242249   2.667   4.366   1.248
 9925SOL     OW42250   1.472   5.556   0.211
 9925SOL    HW142251   1.428   5.590   0.128
 9925SOL    HW242252   1.496   5.634   0.269
 9926SOL     OW42253   1.772   1.974   4.242
 9926SOL    HW142254   1.800   2.043   4.309
 9926SOL    HW242255   1.849   1.913   4.224
 9927SOL     OW42256   3.713   5.028   3.811
 9927SOL    HW142257   3.628   4.976   3.812
 9927SOL    HW242258   3.723   5.078   3.897
 9928SOL     OW42259   6.079   6.581   1.497
 9928SOL    HW142260   6.073   6.491   1.454
 9928SOL    HW242261   6.017   6.645   1.451
 9929SOL     OW42262   1.898   6.770   7.200
 9929SOL    HW142263   1.867   6.676   7.182
 9929SOL    HW242264   1.866   6.830   7.127
 9930SOL     OW42265   6.959   2.747   2.654
 9930SOL    HW142266   7.044   2.738   2.706
 9930SOL    HW242267   6.975   2.723   2.558
 9931SOL     OW42268   7.275   3.615   5.623
 9931SOL    HW142269   7.298   3.604   5.720
 9931SOL    HW242270   7.176   3.612   5.612
 9932SOL     OW42271   4.012   5.108   3.766
 9932SOL    HW142272   4.032   5.014   3.793
 9932SOL    HW242273   3.934   5.142   3.817
 9933SOL     OW42274   0.466   6.035   1.168
 9933SOL    HW142275   0.393   6.071   1.111
 9933SOL    HW242276   0.444   6.049   1.264
 9934SOL     OW42277   3.831   3.135   3.390
 9934SOL    HW142278   3.827   3.077   3.471
 9934SOL    HW242279   3.742   3.135   3.345
 9935SOL     OW42280   0.820   5.184   7.264
 9935SOL    HW142281   0.787   5.199   7.171
 9935SOL    HW242282   0.869   5.265   7.296
 9936SOL     OW42283   4.823   1.206   0.358
 9936SOL    HW142284   4.761   1.283   0.368
 9936SOL    HW242285   4.791   1.146   0.285
 9937SOL     OW42286   0.538   5.852   7.252
 9937SOL    HW142287   0.600   5.896   7.317
 9937SOL    HW242288   0.568   5.874   7.159
 9938SOL     OW42289   1.960   3.746   0.416
 9938SOL    HW142290   1.985   3.653   0.444
 9938SOL    HW242291   1.965   3.807   0.495
 9939SOL     OW42292   3.438   7.351   5.151
 9939SOL    HW142293   3.369   7.304   5.096
 9939SOL    HW242294   3.404   7.365   5.244
 9940SOL     OW42295   5.579   3.254   5.714
 9940SOL    HW142296   5.510   3.325   5.707
 9940SOL    HW242297   5.607   3.225   5.622
 9941SOL     OW42298   1.093   0.821   6.040
 9941SOL    HW142299   1.189   0.851   6.048
 9941SOL    HW242300   1.066   0.820   5.944
 9942SOL     OW42301   5.410   0.709   5.297
 9942SOL    HW142302   5.366   0.676   5.381
 9942SOL    HW242303   5.364   0.670   5.217
 9943SOL     OW42304   0.705   1.955   1.486
 9943SOL    HW142305   0.777   1.965   1.417
 9943SOL    HW242306   0.699   2.039   1.539
 9944SOL     OW42307   4.524   2.107   7.055
 9944SOL    HW142308   4.426   2.088   7.049
 9944SOL    HW242309   4.542   2.166   7.134
 9945SOL     OW42310   5.299   3.046   5.778
 9945SOL    HW142311   5.209   3.081   5.754
 9945SOL    HW242312   5.319   3.067   5.873
 9946SOL     OW42313   2.182   0.981   1.730
 9946SOL    HW142314   2.112   1.037   1.774
 9946SOL    HW242315   2.140   0.925   1.659
 9947SOL     OW42316   4.021   0.116   4.711
 9947SOL    HW142317   3.975   0.049   4.769
 9947SOL    HW242318   3.953   0.181   4.675
 9948SOL     OW42319   6.856   5.554   5.798
 9948SOL    HW142320   6.783   5.590   5.741
 9948SOL    HW242321   6.870   5.457   5.778
 9949SOL     OW42322   4.510   1.551   0.667
 9949SOL    HW142323   4.469   1.561   0.758
 9949SOL    HW242324   4.438   1.540   0.599
 9950SOL     OW42325   2.542   3.224   5.290
 9950SOL    HW142326   2.626   3.200   5.241
 9950SOL    HW242327   2.480   3.271   5.228
 9951SOL     OW42328   4.114   5.829   3.011
 9951SOL    HW142329   4.211   5.836   3.032
 9951SOL    HW242330   4.093   5.736   2.981
 9952SOL     OW42331   5.240   2.333   4.202
 9952SOL    HW142332   5.329   2.307   4.165
 9952SOL    HW242333   5.198   2.401   4.141
 9953SOL     OW42334   5.153   1.980   2.529
 9953SOL    HW142335   5.204   1.926   2.596
 9953SOL    HW242336   5.058   1.988   2.559
 9954SOL     OW42337   2.632   1.944   7.273
 9954SOL    HW142338   2.621   1.855   7.316
 9954SOL    HW242339   2.563   2.007   7.310
 9955SOL     OW42340   6.829   1.456   4.367
 9955SOL    HW142341   6.917   1.440   4.413
 9955SOL    HW242342   6.840   1.441   4.269
 9956SOL     OW42343   6.464   6.642   5.814
 9956SOL    HW142344   6.503   6.724   5.772
 9956SOL    HW242345   6.410   6.669   5.894
 9957SOL     OW42346   0.653   6.344   4.009
 9957SOL    HW142347   0.644   6.417   3.942
 9957SOL    HW242348   0.729   6.363   4.071
 9958SOL     OW42349   6.304   7.116   0.242
 9958SOL    HW142350   6.396   7.154   0.240
 9958SOL    HW242351   6.306   7.022   0.208
 9959SOL     OW42352   4.095   6.016   0.737
 9959SOL    HW142353   4.041   5.993   0.818
 9959SOL    HW242354   4.130   6.109   0.747
 9960SOL     OW42355   2.557   2.906   6.855
 9960SOL    HW142356   2.613   2.929   6.935
 9960SOL    HW242357   2.460   2.909   6.880
 9961SOL     OW42358   2.116   0.119   2.326
 9961SOL    HW142359   2.121   0.129   2.426
 9961SOL    HW242360   2.136   0.207   2.283
 9962SOL     OW42361   3.195   6.190   5.094
 9962SOL    HW142362   3.193   6.091   5.107
 9962SOL    HW242363   3.113   6.230   5.135
 9963SOL     OW42364   4.328   5.427   5.611
 9963SOL    HW142365   4.380   5.512   5.619
 9963SOL    HW242366   4.309   5.390   5.702
 9964SOL     OW42367   6.945   3.604   7.234
 9964SOL    HW142368   6.902   3.519   7.265
 9964SOL    HW242369   6.875   3.668   7.205
 9965SOL     OW42370   5.008   3.846   4.230
 9965SOL    HW142371   4.914   3.838   4.263
 9965SOL    HW242372   5.014   3.918   4.162
 9966SOL     OW42373   6.014   0.628   5.208
 9966SOL    HW142374   6.093   0.625   5.146
 9966SOL    HW242375   5.983   0.722   5.219
 9967SOL     OW42376   1.530   7.213   5.845
 9967SOL    HW142377   1.534   7.265   5.930
 9967SOL    HW242378   1.610   7.153   5.839
 9968SOL     OW42379   0.679   7.326   5.152
 9968SOL    HW142380   0.706   7.422   5.140
 9968SOL    HW242381   0.599   7.321   5.212
 9969SOL     OW42382   2.000   4.059   6.446
 9969SOL    HW142383   2.010   4.028   6.541
 9969SOL    HW242384   1.993   3.980   6.386
 9970SOL     OW42385   0.788   4.209   5.211
 9970SOL    HW142386   0.839   4.294   5.195
 9970SOL    HW242387   0.695   4.219   5.176
 9971SOL     OW42388   4.199   3.317   2.222
 9971SOL    HW142389   4.129   3.251   2.194
 9971SOL    HW242390   4.227   3.299   2.316
 9972SOL     OW42391   3.757   2.674   3.798
 9972SOL    HW142392   3.850   2.637   3.804
 9972SOL    HW242393   3.732   2.716   3.885
 9973SOL     OW42394   2.441   5.277   7.236
 9973SOL    HW142395   2.421   5.297   7.332
 9973SOL    HW242396   2.426   5.180   7.219
 9974SOL     OW42397   2.415   5.186   1.733
 9974SOL    HW142398   2.448   5.092   1.737
 9974SOL    HW242399   2.460   5.240   1.805
 9975SOL     OW42400   5.431   4.611   4.274
 9975SOL    HW142401   5.345   4.572   4.241
 9975SOL    HW242402   5.499   4.607   4.201
 9976SOL     OW42403   3.706   6.009   1.068
 9976SOL    HW142404   3.633   6.069   1.035
 9976SOL    HW242405   3.668   5.942   1.132
 9977SOL     OW42406   2.806   7.136   1.546
 9977SOL    HW142407   2.822   7.181   1.634
 9977SOL    HW242408   2.722   7.172   1.505
 9978SOL     OW42409   0.014   3.936   3.324
 9978SOL    HW142410  -0.052   3.878   3.371
 9978SOL    HW242411  -0.027   3.976   3.242
 9979SOL     OW42412   0.130   3.913   0.145
 9979SOL    HW142413   0.048   3.954   0.104
 9979SOL    HW242414   0.206   3.919   0.079
 9980SOL     OW42415   2.383   2.127   1.759
 9980SOL    HW142416   2.334   2.063   1.700
 9980SOL    HW242417   2.401   2.083   1.847
 9981SOL     OW42418   3.577   6.719   0.818
 9981SOL    HW142419   3.604   6.689   0.909
 9981SOL    HW242420   3.656   6.711   0.756
 9982SOL     OW42421   4.840   1.609   6.022
 9982SOL    HW142422   4.896   1.604   6.105
 9982SOL    HW242423   4.752   1.652   6.044
 9983SOL     OW42424   2.774   3.315   1.246
 9983SOL    HW142425   2.817   3.344   1.331
 9983SOL    HW242426   2.680   3.350   1.243
 9984SOL     OW42427   6.622   5.377   1.056
 9984SOL    HW142428   6.585   5.419   1.139
 9984SOL    HW242429   6.613   5.278   1.062
 9985SOL     OW42430   1.196   3.415   7.019
 9985SOL    HW142431   1.115   3.402   7.076
 9985SOL    HW242432   1.176   3.480   6.946
 9986SOL     OW42433   5.453   6.413   2.892
 9986SOL    HW142434   5.404   6.331   2.922
 9986SOL    HW242435   5.444   6.422   2.792
 9987SOL     OW42436   5.562   7.198   0.073
 9987SOL    HW142437   5.622   7.271   0.041
 9987SOL    HW242438   5.569   7.119   0.012
 9988SOL     OW42439   4.222   6.597   0.047
 9988SOL    HW142440   4.281   6.615  -0.032
 9988SOL    HW242441   4.217   6.679   0.104
 9989SOL     OW42442   1.937   2.816   0.792
 9989SOL    HW142443   1.951   2.722   0.759
 9989SOL    HW242444   1.897   2.871   0.719
 9990SOL     OW42445   4.022   3.362   5.583
 9990SOL    HW142446   4.029   3.382   5.680
 9990SOL    HW242447   3.985   3.270   5.571
 9991SOL     OW42448   3.688   0.688   2.168
 9991SOL    HW142449   3.742   0.606   2.185
 9991SOL    HW242450   3.697   0.716   2.073
 9992SOL     OW42451   5.192   5.728   2.353
 9992SOL    HW142452   5.212   5.665   2.428
 9992SOL    HW242453   5.150   5.811   2.390
 9993SOL     OW42454   4.505   1.309   2.264
 9993SOL    HW142455   4.407   1.299   2.246
 9993SOL    HW242456   4.556   1.245   2.207
 9994SOL     OW42457   1.573   5.156   2.940
 9994SOL    HW142458   1.644   5.143   3.009
 9994SOL    HW242459   1.582   5.247   2.900
 9995SOL     OW42460   3.900   1.432   5.309
 9995SOL    HW142461   3.879   1.373   5.387
 9995SOL    HW242462   3.987   1.479   5.325
 9996SOL     OW42463   3.110   2.167   0.044
 9996SOL    HW142464   3.145   2.096  -0.018
 9996SOL    HW242465   3.178   2.186   0.114
 9997SOL     OW42466   4.091   5.502   3.322
 9997SOL    HW142467   4.044   5.562   3.258
 9997SOL    HW242468   4.111   5.415   3.277
 9998SOL     OW42469   6.785   0.961   2.846
 9998SOL    HW142470   6.881   0.935   2.837
 9998SOL    HW242471   6.765   1.036   2.783
 9999SOL     OW42472   5.040   7.232   1.161
 9999SOL    HW142473   5.127   7.281   1.156
 9999SOL    HW242474   5.052   7.140   1.124
10000SOL     OW42475   3.123   7.348   0.868
10000SOL    HW142476   3.159   7.255   0.881
10000SOL    HW242477   3.050   7.365   0.935
10001SOL     OW42478   0.570   0.953   2.305
10001SOL    HW142479   0.667   0.978   2.314
10001SOL    HW242480   0.550   0.934   2.209
10002SOL     OW42481   0.027   4.830   6.211
10002SOL    HW142482   0.061   4.890   6.138
10002SOL    HW242483   0.017   4.883   6.296
10003SOL     OW42484   4.117   1.996   5.545
10003SOL    HW142485   4.133   1.899   5.566
10003SOL    HW242486   4.020   2.010   5.527
10004SOL     OW42487   3.126   4.335   2.556
10004SOL    HW142488   3.029   4.322   2.535
10004SOL    HW242489   3.182   4.274   2.499
10005SOL     OW42490   1.772   1.857   7.298
10005SOL    HW142491   1.805   1.807   7.378
10005SOL    HW242492   1.848   1.908   7.257
10006SOL     OW42493   5.701   1.720   6.741
10006SOL    HW142494   5.627   1.661   6.709
10006SOL    HW242495   5.781   1.709   6.681
10007SOL     OW42496   5.743   2.558   4.227
10007SOL    HW142497   5.829   2.559   4.175
10007SOL    HW242498   5.666   2.559   4.164
10008SOL     OW42499   3.962   3.804   2.306
10008SOL    HW142500   4.045   3.749   2.314
10008SOL    HW242501   3.882   3.743   2.305
10009SOL     OW42502   1.614   3.938   0.204
10009SOL    HW142503   1.676   3.887   0.264
10009SOL    HW242504   1.547   3.876   0.165
10010SOL     OW42505   4.620   2.715   1.797
10010SOL    HW142506   4.594   2.808   1.825
10010SOL    HW242507   4.611   2.707   1.698
10011SOL     OW42508   3.533   2.953   6.171
10011SOL    HW142509   3.628   2.967   6.196
10011SOL    HW242510   3.517   2.992   6.080
10012SOL     OW42511   6.511   3.013   4.010
10012SOL    HW142512   6.545   3.081   4.075
10012SOL    HW242513   6.425   3.044   3.970
10013SOL     OW42514   5.633   2.842   6.945
10013SOL    HW142515   5.645   2.778   7.021
10013SOL    HW242516   5.683   2.926   6.965
10014SOL     OW42517   6.973   7.345   2.660
10014SOL    HW142518   6.892   7.287   2.657
10014SOL    HW242519   7.009   7.348   2.753
10015SOL     OW42520   0.964   2.875   0.667
10015SOL    HW142521   0.868   2.878   0.697
10015SOL    HW242522   0.974   2.924   0.581
10016SOL     OW42523   0.601   1.181   2.876
10016SOL    HW142524   0.659   1.102   2.857
10016SOL    HW242525   0.603   1.243   2.798
10017SOL     OW42526   4.114   5.286   3.182
10017SOL    HW142527   4.119   5.191   3.211
10017SOL    HW242528   4.025   5.303   3.139
10018SOL     OW42529   5.314   4.146   7.091
10018SOL    HW142530   5.353   4.111   7.006
10018SOL    HW242531   5.214   4.148   7.083
10019SOL     OW42532   1.691   0.591   6.305
10019SOL    HW142533   1.723   0.520   6.367
10019SOL    HW242534   1.594   0.609   6.322
10020SOL     OW42535   5.396   3.968   3.893
10020SOL    HW142536   5.392   3.884   3.946
10020SOL    HW242537   5.379   3.948   3.797
10021SOL     OW42538   4.742   6.689   2.904
10021SOL    HW142539   4.651   6.706   2.864
10021SOL    HW242540   4.800   6.646   2.835
10022SOL     OW42541   3.643   0.583   1.417
10022SOL    HW142542   3.691   0.495   1.417
10022SOL    HW242543   3.636   0.618   1.324
10023SOL     OW42544   3.828   6.991   4.623
10023SOL    HW142545   3.821   6.906   4.570
10023SOL    HW242546   3.832   7.068   4.560
10024SOL     OW42547   5.255   5.526   2.533
10024SOL    HW142548   5.260   5.431   2.503
10024SOL    HW242549   5.240   5.530   2.632
10025SOL     OW42550   5.846   2.073   3.690
10025SOL    HW142551   5.854   2.043   3.785
10025SOL    HW242552   5.778   2.146   3.684
10026SOL     OW42553   2.516   3.231   0.464
10026SOL    HW142554   2.579   3.168   0.508
10026SOL    HW242555   2.482   3.190   0.379
10027SOL     OW42556   2.224   4.054   2.924
10027SOL    HW142557   2.129   4.022   2.933
10027SOL    HW242558   2.282   4.007   2.990
10028SOL     OW42559   3.779   6.169   5.984
10028SOL    HW142560   3.741   6.121   5.904
10028SOL    HW242561   3.877   6.149   5.991
10029SOL     OW42562   4.596   0.701   1.145
10029SOL    HW142563   4.550   0.778   1.101
10029SOL    HW242564   4.584   0.619   1.089
10030SOL     OW42565   3.414   4.447   2.417
10030SOL    HW142566   3.430   4.509   2.494
10030SOL    HW242567   3.498   4.439   2.364
10031SOL     OW42568   3.369   2.669   4.567
10031SOL    HW142569   3.451   2.615   4.550
10031SOL    HW242570   3.371   2.753   4.512
10032SOL     OW42571   2.176   3.292   7.264
10032SOL    HW142572   2.274   3.309   7.259
10032SOL    HW242573   2.157   3.228   7.339
10033SOL     OW42574   2.895   5.836   3.226
10033SOL    HW142575   2.808   5.835   3.176
10033SOL    HW242576   2.943   5.921   3.207
10034SOL     OW42577   5.420   0.925   1.850
10034SOL    HW142578   5.399   0.886   1.940
10034SOL    HW242579   5.360   1.002   1.832
10035SOL     OW42580   4.913   5.573   3.641
10035SOL    HW142581   4.944   5.628   3.718
10035SOL    HW242582   4.878   5.485   3.675
10036SOL     OW42583   0.510   6.856   5.445
10036SOL    HW142584   0.607   6.856   5.421
10036SOL    HW242585   0.472   6.947   5.431
10037SOL     OW42586   5.868   0.462   3.133
10037SOL    HW142587   5.797   0.392   3.144
10037SOL    HW242588   5.957   0.420   3.147
10038SOL     OW42589   1.463   4.977   7.176
10038SOL    HW142590   1.405   5.044   7.222
10038SOL    HW242591   1.476   5.003   7.081
10039SOL     OW42592   1.508   2.960   0.662
10039SOL    HW142593   1.475   3.050   0.692
10039SOL    HW242594   1.608   2.961   0.660
10040SOL     OW42595   1.900   4.722   1.781
10040SOL    HW142596   1.889   4.787   1.857
10040SOL    HW242597   1.994   4.686   1.781
10041SOL     OW42598   6.593   6.611   0.299
10041SOL    HW142599   6.544   6.554   0.366
10041SOL    HW242600   6.590   6.567   0.210
10042SOL     OW42601   2.962   5.481   2.753
10042SOL    HW142602   2.882   5.482   2.693
10042SOL    HW242603   2.950   5.548   2.826
10043SOL     OW42604   0.166   0.308   2.968
10043SOL    HW142605   0.181   0.234   3.034
10043SOL    HW242606   0.194   0.395   3.008
10044SOL     OW42607   3.352   5.230   1.231
10044SOL    HW142608   3.423   5.174   1.190
10044SOL    HW242609   3.365   5.233   1.330
10045SOL     OW42610   0.834   0.926   4.687
10045SOL    HW142611   0.893   0.854   4.648
10045SOL    HW242612   0.871   1.016   4.662
10046SOL     OW42613   1.814   5.529   3.505
10046SOL    HW142614   1.797   5.561   3.412
10046SOL    HW242615   1.761   5.585   3.570
10047SOL     OW42616   0.257   6.503   2.775
10047SOL    HW142617   0.208   6.441   2.837
10047SOL    HW242618   0.242   6.598   2.805
10048SOL     OW42619   5.605   7.134   0.338
10048SOL    HW142620   5.566   7.169   0.253
10048SOL    HW242621   5.636   7.040   0.324
10049SOL     OW42622   5.265   6.794   4.758
10049SOL    HW142623   5.315   6.806   4.843
10049SOL    HW242624   5.240   6.697   4.748
10050SOL     OW42625   0.025   1.439   0.307
10050SOL    HW142626  -0.019   1.373   0.367
10050SOL    HW242627   0.125   1.432   0.317
10051SOL     OW42628   1.987   0.464   0.303
10051SOL    HW142629   1.912   0.529   0.294
10051SOL    HW242630   1.961   0.392   0.367
10052SOL     OW42631   2.399   3.114   0.244
10052SOL    HW142632   2.388   3.024   0.286
10052SOL    HW242633   2.318   3.137   0.191
10053SOL     OW42634   5.595   6.004   5.195
10053SOL    HW142635   5.682   5.990   5.147
10053SOL    HW242636   5.586   6.101   5.220
10054SOL     OW42637   1.868   2.285   5.650
10054SOL    HW142638   1.922   2.367   5.629
10054SOL    HW242639   1.783   2.287   5.598
10055SOL     OW42640   1.932   4.880   3.341
10055SOL    HW142641   1.930   4.798   3.397
10055SOL    HW242642   1.942   4.960   3.400
10056SOL     OW42643   5.087   5.379   1.224
10056SOL    HW142644   5.066   5.434   1.305
10056SOL    HW242645   5.046   5.421   1.143
10057SOL     OW42646   7.315   4.035   6.758
10057SOL    HW142647   7.336   4.084   6.842
10057SOL    HW242648   7.354   4.085   6.680
10058SOL     OW42649   4.958   4.651   5.591
10058SOL    HW142650   4.986   4.598   5.671
10058SOL    HW242651   5.030   4.648   5.522
10059SOL     OW42652   6.132   4.269   2.373
10059SOL    HW142653   6.114   4.307   2.282
10059SOL    HW242654   6.157   4.173   2.364
10060SOL     OW42655   0.543   6.414   6.964
10060SOL    HW142656   0.550   6.314   6.960
10060SOL    HW242657   0.631   6.455   6.941
10061SOL     OW42658   5.557   4.398   4.635
10061SOL    HW142659   5.517   4.458   4.566
10061SOL    HW242660   5.548   4.439   4.725
10062SOL     OW42661   5.158   5.187   2.493
10062SOL    HW142662   5.177   5.096   2.458
10062SOL    HW242663   5.138   5.183   2.591
10063SOL     OW42664   7.291   0.169   1.609
10063SOL    HW142665   7.356   0.230   1.564
10063SOL    HW242666   7.235   0.123   1.541
10064SOL     OW42667   6.167   1.469   3.416
10064SOL    HW142668   6.075   1.501   3.391
10064SOL    HW242669   6.204   1.528   3.488
10065SOL     OW42670   5.656   4.524   1.598
10065SOL    HW142671   5.620   4.433   1.581
10065SOL    HW242672   5.695   4.528   1.690
10066SOL     OW42673   7.049   4.475   2.805
10066SOL    HW142674   6.971   4.537   2.814
10066SOL    HW242675   7.064   4.455   2.708
10067SOL     OW42676   6.414   6.897   3.622
10067SOL    HW142677   6.405   6.799   3.604
10067SOL    HW242678   6.403   6.948   3.537
10068SOL     OW42679   1.861   6.288   6.621
10068SOL    HW142680   1.958   6.271   6.637
10068SOL    HW242681   1.825   6.350   6.690
10069SOL     OW42682   0.139   0.032   2.532
10069SOL    HW142683   0.140   0.120   2.580
10069SOL    HW242684   0.114  -0.041   2.595
10070SOL     OW42685   7.043   0.068   4.686
10070SOL    HW142686   7.142   0.074   4.702
10070SOL    HW242687   6.995   0.065   4.773
10071SOL     OW42688   3.010   2.586   2.613
10071SOL    HW142689   2.910   2.582   2.615
10071SOL    HW242690   3.047   2.532   2.688
10072SOL     OW42691   3.388   1.087   1.162
10072SOL    HW142692   3.476   1.096   1.114
10072SOL    HW242693   3.382   1.158   1.232
10073SOL     OW42694   3.221   5.817   4.447
10073SOL    HW142695   3.297   5.779   4.395
10073SOL    HW242696   3.155   5.745   4.467
10074SOL     OW42697   6.579   3.228   4.902
10074SOL    HW142698   6.599   3.313   4.852
10074SOL    HW242699   6.644   3.219   4.978
10075SOL     OW42700   5.012   4.109   2.618
10075SOL    HW142701   4.940   4.040   2.619
10075SOL    HW242702   5.019   4.147   2.526
10076SOL     OW42703   2.121   6.831   3.865
10076SOL    HW142704   2.042   6.797   3.916
10076SOL    HW242705   2.156   6.914   3.909
10077SOL     OW42706   1.896   1.433   1.281
10077SOL    HW142707   1.810   1.402   1.242
10077SOL    HW242708   1.878   1.481   1.367
10078SOL     OW42709   4.095   5.055   0.516
10078SOL    HW142710   3.996   5.040   0.512
10078SOL    HW242711   4.142   4.968   0.528
10079SOL     OW42712   5.734   3.350   1.308
10079SOL    HW142713   5.662   3.307   1.362
10079SOL    HW242714   5.694   3.392   1.226
10080SOL     OW42715   4.086   3.103   5.868
10080SOL    HW142716   4.052   3.174   5.929
10080SOL    HW242717   4.026   3.096   5.788
10081SOL     OW42718   0.525   2.724   0.837
10081SOL    HW142719   0.537   2.642   0.892
10081SOL    HW242720   0.490   2.699   0.747
10082SOL     OW42721   5.302   5.612   5.804
10082SOL    HW142722   5.347   5.532   5.842
10082SOL    HW242723   5.323   5.693   5.860
10083SOL     OW42724   5.839   0.892   6.014
10083SOL    HW142725   5.926   0.940   6.004
10083SOL    HW242726   5.834   0.851   6.105
10084SOL     OW42727   1.952   3.025   0.222
10084SOL    HW142728   1.872   3.082   0.203
10084SOL    HW242729   1.924   2.942   0.270
10085SOL     OW42730   4.845   2.736   3.639
10085SOL    HW142731   4.859   2.789   3.723
10085SOL    HW242732   4.928   2.684   3.618
10086SOL     OW42733   5.597   3.474   4.678
10086SOL    HW142734   5.595   3.470   4.578
10086SOL    HW242735   5.652   3.399   4.714
10087SOL     OW42736   5.049   5.876   0.825
10087SOL    HW142737   5.106   5.809   0.778
10087SOL    HW242738   5.007   5.834   0.905
10088SOL     OW42739   0.181   3.795   2.394
10088SOL    HW142740   0.251   3.783   2.324
10088SOL    HW242741   0.124   3.713   2.398
10089SOL     OW42742   6.605   6.044   4.321
10089SOL    HW142743   6.582   6.116   4.255
10089SOL    HW242744   6.703   6.049   4.342
10090SOL     OW42745   2.305   5.771   4.664
10090SOL    HW142746   2.306   5.870   4.678
10090SOL    HW242747   2.386   5.731   4.706
10091SOL     OW42748   1.590   6.783   1.318
10091SOL    HW142749   1.533   6.724   1.376
10091SOL    HW242750   1.652   6.726   1.264
10092SOL     OW42751   2.353   0.529   5.902
10092SOL    HW142752   2.368   0.628   5.902
10092SOL    HW242753   2.269   0.507   5.950
10093SOL     OW42754   4.901   2.046   0.055
10093SOL    HW142755   4.995   2.017   0.036
10093SOL    HW242756   4.899   2.143   0.077
10094SOL     OW42757   5.913   1.007   1.955
10094SOL    HW142758   5.822   1.018   1.914
10094SOL    HW242759   5.977   1.071   1.912
10095SOL     OW42760   1.909   7.089   6.247
10095SOL    HW142761   1.822   7.059   6.286
10095SOL    HW242762   1.968   7.124   6.320
10096SOL     OW42763   2.568   5.704   4.768
10096SOL    HW142764   2.636   5.702   4.841
10096SOL    HW242765   2.607   5.663   4.686
10097SOL     OW42766   4.691   1.149   6.216
10097SOL    HW142767   4.605   1.099   6.219
10097SOL    HW242768   4.723   1.154   6.121
10098SOL     OW42769   4.027   4.764   5.845
10098SOL    HW142770   3.997   4.741   5.752
10098SOL    HW242771   4.126   4.777   5.845
10099SOL     OW42772   7.072   2.349   4.141
10099SOL    HW142773   7.153   2.327   4.196
10099SOL    HW242774   6.990   2.332   4.195
10100SOL     OW42775   6.239   0.428   0.552
10100SOL    HW142776   6.199   0.424   0.643
10100SOL    HW242777   6.167   0.426   0.483
10101SOL     OW42778   5.636   7.090   1.409
10101SOL    HW142779   5.704   7.097   1.482
10101SOL    HW242780   5.681   7.097   1.320
10102SOL     OW42781   2.134   2.841   3.352
10102SOL    HW142782   2.099   2.785   3.427
10102SOL    HW242783   2.160   2.931   3.386
10103SOL     OW42784   3.172   0.321   0.494
10103SOL    HW142785   3.204   0.230   0.519
10103SOL    HW242786   3.194   0.386   0.567
10104SOL     OW42787   6.788   0.798   0.809
10104SOL    HW142788   6.756   0.841   0.725
10104SOL    HW242789   6.729   0.824   0.885
10105SOL     OW42790   0.300   0.529   1.771
10105SOL    HW142791   0.216   0.580   1.757
10105SOL    HW242792   0.296   0.480   1.858
10106SOL     OW42793   2.130   7.333   1.827
10106SOL    HW142794   2.109   7.245   1.870
10106SOL    HW242795   2.151   7.318   1.731
10107SOL     OW42796   7.253   7.336   0.413
10107SOL    HW142797   7.183   7.269   0.387
10107SOL    HW242798   7.227   7.381   0.498
10108SOL     OW42799   1.104   4.288   2.936
10108SOL    HW142800   1.106   4.320   2.841
10108SOL    HW242801   1.195   4.297   2.976
10109SOL     OW42802   4.649   4.994   2.534
10109SOL    HW142803   4.603   5.068   2.584
10109SOL    HW242804   4.665   5.023   2.440
10110SOL     OW42805   4.697   2.293   4.523
10110SOL    HW142806   4.771   2.314   4.460
10110SOL    HW242807   4.733   2.277   4.615
10111SOL     OW42808   6.319   2.814   2.777
10111SOL    HW142809   6.250   2.812   2.849
10111SOL    HW242810   6.319   2.727   2.728
10112SOL     OW42811   1.437   1.637   2.812
10112SOL    HW142812   1.528   1.671   2.787
10112SOL    HW242813   1.446   1.544   2.848
10113SOL     OW42814   5.974   2.839   4.923
10113SOL    HW142815   5.926   2.826   4.836
10113SOL    HW242816   5.913   2.814   4.998
10114SOL     OW42817   5.655   6.442   4.995
10114SOL    HW142818   5.626   6.524   4.946
10114SOL    HW242819   5.644   6.362   4.936
10115SOL     OW42820   1.240   3.216   2.007
10115SOL    HW142821   1.266   3.244   2.099
10115SOL    HW242822   1.302   3.143   1.976
10116SOL     OW42823   2.946   3.472   6.128
10116SOL    HW142824   2.877   3.406   6.099
10116SOL    HW242825   2.904   3.543   6.184
10117SOL     OW42826   1.584   0.231   6.165
10117SOL    HW142827   1.493   0.250   6.129
10117SOL    HW242828   1.608   0.301   6.233
10118SOL     OW42829   2.264   5.545   3.517
10118SOL    HW142830   2.233   5.599   3.439
10118SOL    HW242831   2.363   5.539   3.516
10119SOL     OW42832   2.782   5.951   0.609
10119SOL    HW142833   2.721   6.031   0.615
10119SOL    HW242834   2.769   5.906   0.521
10120SOL     OW42835   1.354   0.495   1.820
10120SOL    HW142836   1.279   0.438   1.854
10120SOL    HW242837   1.380   0.465   1.728
10121SOL     OW42838   6.028   3.608   0.589
10121SOL    HW142839   5.982   3.546   0.526
10121SOL    HW242840   6.047   3.695   0.543
10122SOL     OW42841   0.346   5.604   0.747
10122SOL    HW142842   0.386   5.668   0.681
10122SOL    HW242843   0.247   5.616   0.750
10123SOL     OW42844   0.860   4.160   3.086
10123SOL    HW142845   0.904   4.204   3.007
10123SOL    HW242846   0.930   4.132   3.152
10124SOL     OW42847   2.130   3.606   5.567
10124SOL    HW142848   2.175   3.694   5.582
10124SOL    HW242849   2.035   3.622   5.539
10125SOL     OW42850   6.533   3.305   2.175
10125SOL    HW142851   6.522   3.401   2.151
10125SOL    HW242852   6.598   3.297   2.252
10126SOL     OW42853   2.396   6.182   1.496
10126SOL    HW142854   2.396   6.281   1.512
10126SOL    HW242855   2.484   6.154   1.460
10127SOL     OW42856   6.718   7.313   0.940
10127SOL    HW142857   6.716   7.222   0.898
10127SOL    HW242858   6.740   7.304   1.037
10128SOL     OW42859   0.485   4.345   0.551
10128SOL    HW142860   0.439   4.404   0.618
10128SOL    HW242861   0.577   4.378   0.534
10129SOL     OW42862   6.568   5.754   4.390
10129SOL    HW142863   6.474   5.756   4.425
10129SOL    HW242864   6.607   5.846   4.397
10130SOL     OW42865   1.520   0.709   0.517
10130SOL    HW142866   1.578   0.704   0.597
10130SOL    HW242867   1.567   0.758   0.444
10131SOL     OW42868   6.410   0.808   2.706
10131SOL    HW142869   6.380   0.900   2.732
10131SOL    HW242870   6.445   0.809   2.613
10132SOL     OW42871   1.564   0.951   1.324
10132SOL    HW142872   1.607   1.022   1.379
10132SOL    HW242873   1.496   0.903   1.380
10133SOL     OW42874   3.685   3.522   0.158
10133SOL    HW142875   3.663   3.576   0.076
10133SOL    HW242876   3.621   3.445   0.165
10134SOL     OW42877   3.273   7.324   1.668
10134SOL    HW142878   3.275   7.401   1.731
10134SOL    HW242879   3.301   7.355   1.577
10135SOL     OW42880   4.823   6.930   3.503
10135SOL    HW142881   4.738   6.926   3.554
10135SOL    HW242882   4.820   7.005   3.437
10136SOL     OW42883   1.377   2.523   4.773
10136SOL    HW142884   1.335   2.594   4.716
10136SOL    HW242885   1.469   2.553   4.799
10137SOL     OW42886   1.907   2.770   2.875
10137SOL    HW142887   1.896   2.766   2.775
10137SOL    HW242888   1.843   2.707   2.918
10138SOL     OW42889   5.415   0.635   7.210
10138SOL    HW142890   5.469   0.667   7.288
10138SOL    HW242891   5.317   0.645   7.230
10139SOL     OW42892   3.801   2.485   0.937
10139SOL    HW142893   3.848   2.415   0.883
10139SOL    HW242894   3.712   2.504   0.896
10140SOL     OW42895   7.333   6.866   0.746
10140SOL    HW142896   7.420   6.857   0.795
10140SOL    HW242897   7.346   6.843   0.650
10141SOL     OW42898   5.057   5.344   5.787
10141SOL    HW142899   5.044   5.298   5.875
10141SOL    HW242900   5.119   5.421   5.800
10142SOL     OW42901   1.563   3.419   6.144
10142SOL    HW142902   1.604   3.501   6.103
10142SOL    HW242903   1.634   3.368   6.194
10143SOL     OW42904   1.187   5.740   4.843
10143SOL    HW142905   1.241   5.658   4.864
10143SOL    HW242906   1.091   5.715   4.833
10144SOL     OW42907   2.875   5.112   2.951
10144SOL    HW142908   2.876   5.106   3.051
10144SOL    HW242909   2.781   5.116   2.919
10145SOL     OW42910   0.390   6.872   1.081
10145SOL    HW142911   0.428   6.964   1.086
10145SOL    HW242912   0.426   6.817   1.155
10146SOL     OW42913   2.068   1.521   6.391
10146SOL    HW142914   2.090   1.547   6.485
10146SOL    HW242915   1.978   1.477   6.388
10147SOL     OW42916   1.121   4.301   3.884
10147SOL    HW142917   1.025   4.271   3.886
10147SOL    HW242918   1.125   4.398   3.910
10148SOL     OW42919   1.546   3.141   4.727
10148SOL    HW142920   1.599   3.111   4.648
10148SOL    HW242921   1.564   3.238   4.744
10149SOL     OW42922   4.289   2.012   4.733
10149SOL    HW142923   4.352   2.089   4.724
10149SOL    HW242924   4.338   1.933   4.770
10150SOL     OW42925   0.322   1.006   0.314
10150SOL    HW142926   0.303   0.973   0.222
10150SOL    HW242927   0.421   1.015   0.327
10151SOL     OW42928   0.841   2.123   6.204
10151SOL    HW142929   0.922   2.178   6.226
10151SOL    HW242930   0.869   2.032   6.176
10152SOL     OW42931   4.688   5.984   6.765
10152SOL    HW142932   4.674   5.953   6.859
10152SOL    HW242933   4.661   5.912   6.701
10153SOL     OW42934   4.688   6.833   6.605
10153SOL    HW142935   4.636   6.816   6.521
10153SOL    HW242936   4.662   6.921   6.643
10154SOL     OW42937   5.866   2.913   5.877
10154SOL    HW142938   5.921   2.834   5.904
10154SOL    HW242939   5.822   2.896   5.790
10155SOL     OW42940   3.505   6.927   6.468
10155SOL    HW142941   3.487   7.022   6.443
10155SOL    HW242942   3.595   6.900   6.435
10156SOL     OW42943   3.789   0.295   1.068
10156SOL    HW142944   3.788   0.337   1.159
10156SOL    HW242945   3.707   0.321   1.018
10157SOL     OW42946   2.673   4.711   6.105
10157SOL    HW142947   2.699   4.620   6.072
10157SOL    HW242948   2.754   4.769   6.110
10158SOL     OW42949   5.393   0.503   2.101
10158SOL    HW142950   5.297   0.481   2.122
10158SOL    HW242951   5.447   0.497   2.185
10159SOL     OW42952   7.062   3.871   4.266
10159SOL    HW142953   7.068   3.797   4.199
10159SOL    HW242954   7.108   3.844   4.350
10160SOL     OW42955   0.813   3.956   3.646
10160SOL    HW142956   0.714   3.968   3.657
10160SOL    HW242957   0.841   3.870   3.690
10161SOL     OW42958   1.894   2.787   2.605
10161SOL    HW142959   1.869   2.691   2.613
10161SOL    HW242960   1.927   2.805   2.512
10162SOL     OW42961   5.463   3.819   4.227
10162SOL    HW142962   5.378   3.848   4.270
10162SOL    HW242963   5.443   3.772   4.141
10163SOL     OW42964   4.960   6.270   3.406
10163SOL    HW142965   4.993   6.197   3.347
10163SOL    HW242966   4.893   6.325   3.355
10164SOL     OW42967   3.018   0.805   3.620
10164SOL    HW142968   3.085   0.744   3.577
10164SOL    HW242969   2.955   0.840   3.551
10165SOL     OW42970   5.326   3.348   6.073
10165SOL    HW142971   5.374   3.385   5.994
10165SOL    HW242972   5.287   3.422   6.127
10166SOL     OW42973   2.071   2.308   0.606
10166SOL    HW142974   2.135   2.289   0.532
10166SOL    HW242975   2.001   2.236   0.609
10167SOL     OW42976   0.680   0.704   1.987
10167SOL    HW142977   0.769   0.708   2.033
10167SOL    HW242978   0.623   0.779   2.019
10168SOL     OW42979   0.423   2.680   6.350
10168SOL    HW142980   0.356   2.682   6.424
10168SOL    HW242981   0.488   2.606   6.366
10169SOL     OW42982   6.202   3.569   3.444
10169SOL    HW142983   6.235   3.526   3.360
10169SOL    HW242984   6.178   3.498   3.510
10170SOL     OW42985   1.015   4.859   5.161
10170SOL    HW142986   0.973   4.788   5.218
10170SOL    HW242987   1.104   4.883   5.198
10171SOL     OW42988   2.169   6.206   4.560
10171SOL    HW142989   2.222   6.144   4.619
10171SOL    HW242990   2.168   6.171   4.467
10172SOL     OW42991   5.693   2.425   2.121
10172SOL    HW142992   5.634   2.491   2.075
10172SOL    HW242993   5.747   2.471   2.191
10173SOL     OW42994   2.324   2.364   5.026
10173SOL    HW142995   2.356   2.457   5.008
10173SOL    HW242996   2.311   2.351   5.125
10174SOL     OW42997   2.945   4.138   1.215
10174SOL    HW142998   2.892   4.056   1.194
10174SOL    HW242999   2.890   4.219   1.196
10175SOL     OW43000   6.151   0.456   2.501
10175SOL    HW143001   6.208   0.516   2.445
10175SOL    HW243002   6.142   0.367   2.457
10176SOL     OW43003   1.897   4.458   0.910
10176SOL    HW143004   1.991   4.485   0.929
10176SOL    HW243005   1.834   4.516   0.962
10177SOL     OW43006   3.597   3.122   3.282
10177SOL    HW143007   3.565   3.050   3.344
10177SOL    HW243008   3.615   3.083   3.192
10178SOL     OW43009   0.683   6.371   6.554
10178SOL    HW143010   0.761   6.377   6.616
10178SOL    HW243011   0.599   6.354   6.607
10179SOL     OW43012   6.578   2.534   1.501
10179SOL    HW143013   6.569   2.448   1.551
10179SOL    HW243014   6.524   2.530   1.417
10180SOL     OW43015   0.815   6.604   5.745
10180SOL    HW143016   0.816   6.704   5.744
10180SOL    HW243017   0.887   6.569   5.685
10181SOL     OW43018   2.080   3.015   1.891
10181SOL    HW143019   2.066   2.935   1.832
10181SOL    HW243020   2.012   3.015   1.964
10182SOL     OW43021   2.854   0.890   1.422
10182SOL    HW143022   2.820   0.984   1.428
10182SOL    HW243023   2.931   0.887   1.358
10183SOL     OW43024   6.075   1.753   6.274
10183SOL    HW143025   6.124   1.708   6.200
10183SOL    HW243026   6.135   1.764   6.353
10184SOL     OW43027   6.409   5.118   5.881
10184SOL    HW143028   6.398   5.019   5.880
10184SOL    HW243029   6.394   5.155   5.790
10185SOL     OW43030   0.850   2.500   2.497
10185SOL    HW143031   0.764   2.529   2.541
10185SOL    HW243032   0.855   2.538   2.405
10186SOL     OW43033   5.544   4.465   6.322
10186SOL    HW143034   5.595   4.460   6.236
10186SOL    HW243035   5.503   4.376   6.341
10187SOL     OW43036   4.338   2.274   1.750
10187SOL    HW143037   4.251   2.267   1.798
10187SOL    HW243038   4.379   2.363   1.767
10188SOL     OW43039   0.763   5.219   6.976
10188SOL    HW143040   0.705   5.292   7.012
10188SOL    HW243041   0.708   5.157   6.920
10189SOL     OW43042   5.784   2.032   3.291
10189SOL    HW143043   5.876   2.048   3.328
10189SOL    HW243044   5.784   2.052   3.194
10190SOL     OW43045   0.476   3.242   2.938
10190SOL    HW143046   0.562   3.287   2.914
10190SOL    HW243047   0.475   3.149   2.902
10191SOL     OW43048   6.474   2.378   5.405
10191SOL    HW143049   6.394   2.319   5.411
10191SOL    HW243050   6.474   2.442   5.482
10192SOL     OW43051   4.969   5.443   4.362
10192SOL    HW143052   4.945   5.460   4.457
10192SOL    HW243053   5.006   5.350   4.353
10193SOL     OW43054   3.706   1.022   3.440
10193SOL    HW143055   3.675   0.929   3.425
10193SOL    HW243056   3.627   1.083   3.445
10194SOL     OW43057   4.016   4.822   3.417
10194SOL    HW143058   3.954   4.828   3.495
10194SOL    HW243059   4.095   4.765   3.441
10195SOL     OW43060   3.478   1.733   5.570
10195SOL    HW143061   3.517   1.775   5.652
10195SOL    HW243062   3.538   1.660   5.537
10196SOL     OW43063   0.366   2.416   5.155
10196SOL    HW143064   0.389   2.321   5.132
10196SOL    HW243065   0.423   2.447   5.231
10197SOL     OW43066   7.249   3.172   2.028
10197SOL    HW143067   7.314   3.104   2.059
10197SOL    HW243068   7.252   3.178   1.928
10198SOL     OW43069   2.724   0.983   6.256
10198SOL    HW143070   2.701   1.068   6.304
10198SOL    HW243071   2.753   0.914   6.322
10199SOL     OW43072   6.490   6.531   6.130
10199SOL    HW143073   6.558   6.506   6.060
10199SOL    HW243074   6.433   6.606   6.096
10200SOL     OW43075   5.109   1.087   0.740
10200SOL    HW143076   5.119   1.061   0.644
10200SOL    HW243077   5.016   1.118   0.757
10201SOL     OW43078   0.352   1.995   0.866
10201SOL    HW143079   0.286   1.921   0.862
10201SOL    HW243080   0.445   1.958   0.866
10202SOL     OW43081   0.379   4.960   3.720
10202SOL    HW143082   0.459   5.018   3.737
10202SOL    HW243083   0.387   4.918   3.630
10203SOL     OW43084   0.785   2.731   0.944
10203SOL    HW143085   0.813   2.823   0.972
10203SOL    HW243086   0.691   2.734   0.910
10204SOL     OW43087   5.788   2.856   5.638
10204SOL    HW143088   5.710   2.914   5.615
10204SOL    HW243089   5.835   2.829   5.554
10205SOL     OW43090   7.009   3.266   3.819
10205SOL    HW143091   7.100   3.242   3.787
10205SOL    HW243092   6.942   3.251   3.746
10206SOL     OW43093   6.855   5.756   6.336
10206SOL    HW143094   6.826   5.850   6.354
10206SOL    HW243095   6.947   5.742   6.372
10207SOL     OW43096   6.189   2.644   4.010
10207SOL    HW143097   6.227   2.661   3.919
10207SOL    HW243098   6.105   2.590   4.002
10208SOL     OW43099   1.932   6.298   2.925
10208SOL    HW143100   1.909   6.222   2.865
10208SOL    HW243101   1.855   6.362   2.928
10209SOL     OW43102   3.045   4.750   3.912
10209SOL    HW143103   3.085   4.678   3.968
10209SOL    HW243104   3.111   4.778   3.842
10210SOL     OW43105   4.783   0.778   6.095
10210SOL    HW143106   4.800   0.691   6.140
10210SOL    HW243107   4.693   0.812   6.121
10211SOL     OW43108   3.461   2.354   2.029
10211SOL    HW143109   3.377   2.300   2.029
10211SOL    HW243110   3.527   2.314   1.966
10212SOL     OW43111   6.265   4.095   3.613
10212SOL    HW143112   6.219   4.078   3.700
10212SOL    HW243113   6.212   4.055   3.539
10213SOL     OW43114   6.305   3.556   5.659
10213SOL    HW143115   6.345   3.645   5.681
10213SOL    HW243116   6.288   3.551   5.561
10214SOL     OW43117   2.414   3.041   6.264
10214SOL    HW143118   2.483   3.108   6.237
10214SOL    HW243119   2.369   3.071   6.348
10215SOL     OW43120   5.718   0.108   2.889
10215SOL    HW143121   5.738   0.176   2.818
10215SOL    HW243122   5.685   0.155   2.971
10216SOL     OW43123   3.347   5.787   7.335
10216SOL    HW143124   3.348   5.777   7.236
10216SOL    HW243125   3.436   5.817   7.367
10217SOL     OW43126   4.840   0.271   5.359
10217SOL    HW143127   4.803   0.301   5.271
10217SOL    HW243128   4.826   0.173   5.369
10218SOL     OW43129   7.110   0.053   1.010
10218SOL    HW143130   7.189   0.113   1.022
10218SOL    HW243131   7.080   0.056   0.915
10219SOL     OW43132   3.115   6.586   5.583
10219SOL    HW143133   3.144   6.501   5.627
10219SOL    HW243134   3.029   6.616   5.624
10220SOL     OW43135   2.842   3.986   1.958
10220SOL    HW143136   2.755   3.951   1.925
10220SOL    HW243137   2.840   4.086   1.960
10221SOL     OW43138   6.845   4.545   0.294
10221SOL    HW143139   6.826   4.447   0.299
10221SOL    HW243140   6.760   4.596   0.298
10222SOL     OW43141   5.884   3.660   2.311
10222SOL    HW143142   5.923   3.728   2.374
10222SOL    HW243143   5.799   3.625   2.349
10223SOL     OW43144   0.201   2.198   3.974
10223SOL    HW143145   0.127   2.140   4.007
10223SOL    HW243146   0.170   2.250   3.895
10224SOL     OW43147   5.639   1.085   5.084
10224SOL    HW143148   5.609   1.004   5.134
10224SOL    HW243149   5.676   1.057   4.995
10225SOL     OW43150   2.878   0.944   3.413
10225SOL    HW143151   2.801   1.007   3.428
10225SOL    HW243152   2.964   0.994   3.426
10226SOL     OW43153   3.331   3.133   0.027
10226SOL    HW143154   3.341   3.158  -0.070
10226SOL    HW243155   3.241   3.094   0.042
10227SOL     OW43156   3.633   4.683   3.503
10227SOL    HW143157   3.687   4.722   3.577
10227SOL    HW243158   3.691   4.669   3.423
10228SOL     OW43159   4.123   6.675   2.259
10228SOL    HW143160   4.146   6.708   2.168
10228SOL    HW243161   4.059   6.598   2.251
10229SOL     OW43162   6.890   5.397   2.917
10229SOL    HW143163   6.984   5.368   2.901
10229SOL    HW243164   6.850   5.431   2.832
10230SOL     OW43165   4.661   3.600   1.523
10230SOL    HW143166   4.596   3.633   1.591
10230SOL    HW243167   4.632   3.629   1.432
10231SOL     OW43168   2.302   6.568   7.313
10231SOL    HW143169   2.237   6.630   7.356
10231SOL    HW243170   2.374   6.545   7.380
10232SOL     OW43171   1.703   4.827   3.201
10232SOL    HW143172   1.637   4.764   3.242
10232SOL    HW243173   1.781   4.838   3.262
10233SOL     OW43174   2.904   4.271   5.848
10233SOL    HW143175   2.929   4.291   5.942
10233SOL    HW243176   2.845   4.344   5.813
10234SOL     OW43177   5.042   1.128   2.623
10234SOL    HW143178   4.968   1.194   2.625
10234SOL    HW243179   5.106   1.151   2.549
10235SOL     OW43180   2.875   4.984   1.287
10235SOL    HW143181   2.899   4.891   1.259
10235SOL    HW243182   2.858   5.040   1.206
10236SOL     OW43183   2.532   0.028   1.071
10236SOL    HW143184   2.593   0.034   0.992
10236SOL    HW243185   2.536  -0.064   1.109
10237SOL     OW43186   6.620   0.420   6.416
10237SOL    HW143187   6.530   0.417   6.461
10237SOL    HW243188   6.677   0.345   6.450
10238SOL     OW43189   2.183   1.520   6.633
10238SOL    HW143190   2.272   1.486   6.601
10238SOL    HW243191   2.130   1.443   6.670
10239SOL     OW43192   4.648   0.402   2.189
10239SOL    HW143193   4.721   0.340   2.158
10239SOL    HW243194   4.591   0.354   2.256
10240SOL     OW43195   7.045   2.794   0.122
10240SOL    HW143196   7.096   2.710   0.103
10240SOL    HW243197   7.008   2.790   0.214
10241SOL     OW43198   4.753   1.944   7.033
10241SOL    HW143199   4.727   1.877   7.102
10241SOL    HW243200   4.703   2.029   7.048
10242SOL     OW43201   3.198   4.271   1.205
10242SOL    HW143202   3.175   4.353   1.154
10242SOL    HW243203   3.122   4.206   1.200
10243SOL     OW43204   0.096   2.252   2.536
10243SOL    HW143205   0.034   2.302   2.596
10243SOL    HW243206   0.094   2.293   2.445
10244SOL     OW43207   1.136   5.269   1.914
10244SOL    HW143208   1.051   5.282   1.862
10244SOL    HW243209   1.149   5.347   1.976
10245SOL     OW43210   4.584   5.440   2.517
10245SOL    HW143211   4.505   5.414   2.462
10245SOL    HW243212   4.618   5.529   2.487
10246SOL     OW43213   3.073   7.100   1.520
10246SOL    HW143214   2.974   7.110   1.534
10246SOL    HW243215   3.119   7.091   1.608
10247SOL     OW43216   0.682   3.717   5.183
10247SOL    HW143217   0.722   3.695   5.094
10247SOL    HW243218   0.619   3.644   5.210
10248SOL     OW43219   4.033   3.092   2.454
10248SOL    HW143220   3.939   3.125   2.455
10248SOL    HW243221   4.054   3.051   2.365
10249SOL     OW43222   4.700   2.145   5.781
10249SOL    HW143223   4.620   2.154   5.839
10249SOL    HW243224   4.672   2.151   5.685
10250SOL     OW43225   0.277   4.367   1.557
10250SOL    HW143226   0.186   4.367   1.516
10250SOL    HW243227   0.337   4.306   1.506
10251SOL     OW43228   5.606   6.757   7.114
10251SOL    HW143229   5.571   6.758   7.021
10251SOL    HW243230   5.530   6.749   7.178
10252SOL     OW43231   0.385   5.708   6.491
10252SOL    HW143232   0.391   5.612   6.464
10252SOL    HW243233   0.413   5.766   6.414
10253SOL     OW43234   6.110   2.037   1.146
10253SOL    HW143235   6.017   2.008   1.169
10253SOL    HW243236   6.114   2.062   1.050
10254SOL     OW43237   7.043   4.866   4.483
10254SOL    HW143238   7.024   4.855   4.386
10254SOL    HW243239   7.137   4.840   4.502
10255SOL     OW43240   1.654   6.368   7.339
10255SOL    HW143241   1.586   6.375   7.267
10255SOL    HW243242   1.684   6.273   7.349
10256SOL     OW43243   4.591   5.914   2.543
10256SOL    HW143244   4.521   5.919   2.473
10256SOL    HW243245   4.657   5.989   2.530
10257SOL     OW43246   2.313   2.918   2.022
10257SOL    HW143247   2.220   2.945   1.999
10257SOL    HW243248   2.354   2.871   1.945
10258SOL     OW43249   3.778   4.631   3.278
10258SOL    HW143250   3.838   4.672   3.209
10258SOL    HW243251   3.693   4.601   3.235
10259SOL     OW43252   1.526   5.618   5.031
10259SOL    HW143253   1.454   5.557   4.998
10259SOL    HW243254   1.615   5.585   5.000
10260SOL     OW43255   3.791   6.811   6.422
10260SOL    HW143256   3.773   6.720   6.458
10260SOL    HW243257   3.859   6.804   6.348
10261SOL     OW43258   2.314   2.793   3.906
10261SOL    HW143259   2.316   2.838   3.817
10261SOL    HW243260   2.344   2.698   3.897
10262SOL     OW43261   4.504   4.553   6.510
10262SOL    HW143262   4.501   4.638   6.562
10262SOL    HW243263   4.539   4.570   6.418
10263SOL     OW43264   5.758   3.094   2.083
10263SOL    HW143265   5.838   3.154   2.076
10263SOL    HW243266   5.725   3.094   2.178
10264SOL     OW43267   4.941   1.395   4.209
10264SOL    HW143268   4.977   1.316   4.260
10264SOL    HW243269   5.000   1.474   4.225
10265SOL     OW43270   4.224   6.734   5.991
10265SOL    HW143271   4.153   6.708   6.056
10265SOL    HW243272   4.313   6.700   6.023
10266SOL     OW43273   0.058   5.596   0.649
10266SOL    HW143274   0.021   5.669   0.592
10266SOL    HW243275   0.061   5.627   0.744
10267SOL     OW43276   4.444   3.975   0.160
10267SOL    HW143277   4.427   3.993   0.257
10267SOL    HW243278   4.532   3.929   0.150
10268SOL     OW43279   7.098   1.953   4.497
10268SOL    HW143280   7.010   1.947   4.448
10268SOL    HW243281   7.168   1.906   4.444
10269SOL     OW43282   6.407   5.349   3.589
10269SOL    HW143283   6.323   5.314   3.548
10269SOL    HW243284   6.399   5.349   3.688
10270SOL     OW43285   6.901   6.189   6.138
10270SOL    HW143286   6.929   6.248   6.062
10270SOL    HW243287   6.917   6.094   6.114
10271SOL     OW43288   4.762   3.860   6.980
10271SOL    HW143289   4.817   3.913   6.915
10271SOL    HW243290   4.727   3.778   6.934
10272SOL     OW43291   0.038   3.773   6.750
10272SOL    HW143292  -0.006   3.863   6.755
10272SOL    HW243293   0.103   3.763   6.825
10273SOL     OW43294   4.622   4.636   1.812
10273SOL    HW143295   4.592   4.710   1.872
10273SOL    HW243296   4.666   4.675   1.731
10274SOL     OW43297   3.134   2.858   1.334
10274SOL    HW143298   3.129   2.820   1.427
10274SOL    HW243299   3.068   2.812   1.275
10275SOL     OW43300   3.157   0.741   3.077
10275SOL    HW143301   3.059   0.723   3.076
10275SOL    HW243302   3.179   0.804   3.151
10276SOL     OW43303   6.684   4.138   0.694
10276SOL    HW143304   6.754   4.185   0.749
10276SOL    HW243305   6.610   4.107   0.754
10277SOL     OW43306   6.945   4.118   6.975
10277SOL    HW143307   6.853   4.109   7.014
10277SOL    HW243308   6.947   4.075   6.884
10278SOL     OW43309   3.651   4.762   2.820
10278SOL    HW143310   3.694   4.678   2.786
10278SOL    HW243311   3.599   4.742   2.903
10279SOL     OW43312   0.723   4.374   6.434
10279SOL    HW143313   0.689   4.457   6.391
10279SOL    HW243314   0.806   4.343   6.387
10280SOL     OW43315   1.673   1.770   0.622
10280SOL    HW143316   1.729   1.824   0.686
10280SOL    HW243317   1.651   1.825   0.542
10281SOL     OW43318   5.648   1.349   1.253
10281SOL    HW143319   5.566   1.296   1.232
10281SOL    HW243320   5.727   1.288   1.254
10282SOL     OW43321   2.504   0.029   0.061
10282SOL    HW143322   2.580   0.036   0.125
10282SOL    HW243323   2.510   0.101  -0.008
10283SOL     OW43324   6.309   5.616   0.127
10283SOL    HW143325   6.352   5.630   0.038
10283SOL    HW243326   6.242   5.541   0.121
10284SOL     OW43327   6.080   7.017   5.946
10284SOL    HW143328   5.992   6.998   5.988
10284SOL    HW243329   6.106   6.941   5.886
10285SOL     OW43330   3.760   2.244   6.196
10285SOL    HW143331   3.792   2.278   6.107
10285SOL    HW243332   3.838   2.216   6.251
10286SOL     OW43333   3.339   0.970   3.310
10286SOL    HW143334   3.270   0.943   3.377
10286SOL    HW243335   3.294   1.012   3.231
10287SOL     OW43336   3.576   0.725   6.858
10287SOL    HW143337   3.544   0.782   6.934
10287SOL    HW243338   3.595   0.633   6.891
10288SOL     OW43339   4.405   5.948   3.877
10288SOL    HW143340   4.329   5.998   3.835
10288SOL    HW243341   4.403   5.960   3.976
10289SOL     OW43342   0.849   4.548   1.745
10289SOL    HW143343   0.882   4.453   1.748
10289SOL    HW243344   0.888   4.594   1.665
10290SOL     OW43345   2.989   5.051   0.240
10290SOL    HW143346   2.992   5.018   0.145
10290SOL    HW243347   3.045   4.992   0.298
10291SOL     OW43348   5.404   0.325   1.159
10291SOL    HW143349   5.381   0.273   1.077
10291SOL    HW243350   5.429   0.418   1.134
10292SOL     OW43351   3.200   2.264   2.618
10292SOL    HW143352   3.173   2.179   2.572
10292SOL    HW243353   3.290   2.251   2.661
10293SOL     OW43354   4.581   6.817   1.903
10293SOL    HW143355   4.512   6.856   1.842
10293SOL    HW243356   4.557   6.722   1.924
10294SOL     OW43357   0.718   1.320   1.780
10294SOL    HW143358   0.670   1.275   1.705
10294SOL    HW243359   0.674   1.407   1.801
10295SOL     OW43360   0.735   3.497   3.762
10295SOL    HW143361   0.721   3.590   3.730
10295SOL    HW243362   0.831   3.471   3.749
10296SOL     OW43363   6.415   4.826   4.568
10296SOL    HW143364   6.513   4.836   4.587
10296SOL    HW243365   6.404   4.779   4.480
10297SOL     OW43366   1.262   2.246   6.951
10297SOL    HW143367   1.320   2.165   6.956
10297SOL    HW243368   1.280   2.306   7.029
10298SOL     OW43369   6.331   1.952   3.454
10298SOL    HW143370   6.286   2.041   3.452
10298SOL    HW243371   6.422   1.960   3.412
10299SOL     OW43372   1.248   6.185   7.090
10299SOL    HW143373   1.218   6.179   7.185
10299SOL    HW243374   1.235   6.097   7.045
10300SOL     OW43375   1.223   4.603   5.166
10300SOL    HW143376   1.149   4.605   5.098
10300SOL    HW243377   1.229   4.692   5.211
10301SOL     OW43378   4.922   6.196   0.544
10301SOL    HW143379   4.824   6.214   0.550
10301SOL    HW243380   4.969   6.277   0.507
10302SOL     OW43381   6.387   6.098   0.350
10302SOL    HW143382   6.463   6.039   0.320
10302SOL    HW243383   6.325   6.113   0.273
10303SOL     OW43384   5.099   1.383   1.125
10303SOL    HW143385   5.113   1.294   1.083
10303SOL    HW243386   5.118   1.377   1.223
10304SOL     OW43387   1.524   1.392   2.894
10304SOL    HW143388   1.613   1.354   2.921
10304SOL    HW243389   1.457   1.318   2.886
10305SOL     OW43390   6.278   6.874   5.327
10305SOL    HW143391   6.225   6.937   5.271
10305SOL    HW243392   6.285   6.786   5.280
10306SOL     OW43393   6.499   5.321   6.615
10306SOL    HW143394   6.573   5.279   6.562
10306SOL    HW243395   6.485   5.270   6.699
10307SOL     OW43396   6.937   1.659   1.264
10307SOL    HW143397   6.867   1.729   1.249
10307SOL    HW243398   6.980   1.673   1.353
10308SOL     OW43399   3.540   3.314   3.531
10308SOL    HW143400   3.528   3.384   3.461
10308SOL    HW243401   3.484   3.234   3.507
10309SOL     OW43402   3.174   3.424   0.132
10309SOL    HW143403   3.129   3.347   0.177
10309SOL    HW243404   3.259   3.446   0.181
10310SOL     OW43405   2.793   6.405   7.136
10310SOL    HW143406   2.873   6.460   7.112
10310SOL    HW243407   2.718   6.465   7.164
10311SOL     OW43408   2.862   5.756   1.611
10311SOL    HW143409   2.938   5.704   1.651
10311SOL    HW243410   2.834   5.828   1.675
10312SOL     OW43411   3.955   0.664   7.186
10312SOL    HW143412   4.009   0.584   7.211
10312SOL    HW243413   3.859   0.636   7.174
10313SOL     OW43414   2.564   2.484   3.149
10313SOL    HW143415   2.591   2.494   3.053
10313SOL    HW243416   2.506   2.562   3.175
10314SOL     OW43417   5.843   6.988   6.072
10314SOL    HW143418   5.808   6.984   5.978
10314SOL    HW243419   5.777   6.943   6.133
10315SOL     OW43420   4.625   2.230   5.523
10315SOL    HW143421   4.609   2.329   5.521
10315SOL    HW243422   4.558   2.184   5.465
10316SOL     OW43423   5.917   5.660   3.616
10316SOL    HW143424   5.974   5.703   3.546
10316SOL    HW243425   5.821   5.681   3.597
10317SOL     OW43426   7.098   4.163   6.491
10317SOL    HW143427   7.001   4.143   6.481
10317SOL    HW243428   7.151   4.085   6.457
10318SOL     OW43429   3.394   6.268   1.728
10318SOL    HW143430   3.484   6.279   1.686
10318SOL    HW243431   3.403   6.212   1.810
10319SOL     OW43432   6.763   4.451   0.566
10319SOL    HW143433   6.764   4.380   0.496
10319SOL    HW243434   6.669   4.480   0.583
10320SOL     OW43435   4.259   3.399   5.453
10320SOL    HW143436   4.223   3.351   5.373
10320SOL    HW243437   4.200   3.382   5.532
10321SOL     OW43438   6.575   5.077   1.124
10321SOL    HW143439   6.531   4.988   1.115
10321SOL    HW243440   6.660   5.067   1.176
10322SOL     OW43441   5.993   6.193   2.705
10322SOL    HW143442   5.945   6.260   2.649
10322SOL    HW243443   5.964   6.101   2.678
10323SOL     OW43444   2.517   5.996   5.931
10323SOL    HW143445   2.538   5.983   6.027
10323SOL    HW243446   2.596   6.033   5.883
10324SOL     OW43447   3.846   5.269   3.537
10324SOL    HW143448   3.842   5.366   3.513
10324SOL    HW243449   3.928   5.252   3.591
10325SOL     OW43450   1.590   6.091   0.064
10325SOL    HW143451   1.539   6.162   0.111
10325SOL    HW243452   1.528   6.038   0.006
10326SOL     OW43453   5.181   5.314   1.866
10326SOL    HW143454   5.279   5.299   1.855
10326SOL    HW243455   5.136   5.305   1.777
10327SOL     OW43456   5.667   2.172   2.465
10327SOL    HW143457   5.682   2.102   2.395
10327SOL    HW243458   5.583   2.222   2.444
10328SOL     OW43459   3.762   0.108   3.197
10328SOL    HW143460   3.735   0.204   3.193
10328SOL    HW243461   3.831   0.095   3.268
10329SOL     OW43462   4.846   4.133   5.212
10329SOL    HW143463   4.917   4.163   5.276
10329SOL    HW243464   4.808   4.212   5.165
10330SOL     OW43465   0.396   3.659   3.602
10330SOL    HW143466   0.386   3.564   3.634
10330SOL    HW243467   0.431   3.658   3.508
10331SOL     OW43468   7.029   3.257   4.278
10331SOL    HW143469   6.982   3.219   4.357
10331SOL    HW243470   6.997   3.211   4.195
10332SOL     OW43471   3.069   3.086   1.726
10332SOL    HW143472   3.120   3.172   1.723
10332SOL    HW243473   3.013   3.077   1.643
10333SOL     OW43474   2.619   1.203   3.875
10333SOL    HW143475   2.550   1.193   3.946
10333SOL    HW243476   2.710   1.189   3.914
10334SOL     OW43477   4.086   0.906   6.241
10334SOL    HW143478   4.011   0.849   6.273
10334SOL    HW243479   4.130   0.863   6.162
10335SOL     OW43480   4.971   0.493   3.831
10335SOL    HW143481   4.991   0.472   3.735
10335SOL    HW243482   4.958   0.591   3.841
10336SOL     OW43483   3.776   1.805   4.640
10336SOL    HW143484   3.813   1.772   4.727
10336SOL    HW243485   3.753   1.727   4.582
10337SOL     OW43486   6.433   3.978   2.192
10337SOL    HW143487   6.445   4.065   2.144
10337SOL    HW243488   6.408   3.907   2.126
10338SOL     OW43489   5.374   1.833   3.275
10338SOL    HW143490   5.380   1.752   3.332
10338SOL    HW243491   5.279   1.866   3.272
10339SOL     OW43492   2.537   7.035   6.464
10339SOL    HW143493   2.617   6.981   6.436
10339SOL    HW243494   2.459   7.008   6.408
10340SOL     OW43495   4.812   1.411   0.974
10340SOL    HW143496   4.744   1.346   1.007
10340SOL    HW243497   4.875   1.434   1.048
10341SOL     OW43498   5.671   1.381   1.743
10341SOL    HW143499   5.604   1.394   1.816
10341SOL    HW243500   5.630   1.405   1.655
10342SOL     OW43501   4.711   0.751   5.828
10342SOL    HW143502   4.721   0.654   5.804
10342SOL    HW243503   4.744   0.766   5.921
10343SOL     OW43504   2.600   0.592   0.906
10343SOL    HW143505   2.547   0.574   0.824
10343SOL    HW243506   2.620   0.505   0.952
10344SOL     OW43507   6.583   3.962   4.331
10344SOL    HW143508   6.528   4.020   4.271
10344SOL    HW243509   6.545   3.963   4.424
10345SOL     OW43510   6.455   3.330   2.744
10345SOL    HW143511   6.552   3.328   2.769
10345SOL    HW243512   6.428   3.240   2.710
10346SOL     OW43513   3.521   5.831   3.231
10346SOL    HW143514   3.602   5.870   3.276
10346SOL    HW243515   3.506   5.738   3.265
10347SOL     OW43516   2.034   7.226   2.256
10347SOL    HW143517   2.061   7.314   2.295
10347SOL    HW243518   2.067   7.152   2.314
10348SOL     OW43519   0.997   4.478   6.048
10348SOL    HW143520   0.948   4.410   6.102
10348SOL    HW243521   0.944   4.564   6.047
10349SOL     OW43522   0.569   4.480   2.183
10349SOL    HW143523   0.548   4.382   2.173
10349SOL    HW243524   0.491   4.534   2.151
10350SOL     OW43525   2.755   3.304   5.986
10350SOL    HW143526   2.751   3.372   5.913
10350SOL    HW243527   2.792   3.218   5.950
10351SOL     OW43528   5.876   0.104   5.411
10351SOL    HW143529   5.914   0.197   5.417
10351SOL    HW243530   5.850   0.085   5.316
10352SOL     OW43531   2.299   4.369   2.531
10352SOL    HW143532   2.204   4.399   2.526
10352SOL    HW243533   2.313   4.315   2.614
10353SOL     OW43534   2.138   5.721   6.130
10353SOL    HW143535   2.219   5.746   6.184
10353SOL    HW243536   2.156   5.635   6.082
10354SOL     OW43537   0.191   0.650   0.411
10354SOL    HW143538   0.251   0.616   0.484
10354SOL    HW243539   0.190   0.750   0.413
10355SOL     OW43540   6.133   6.457   3.961
10355SOL    HW143541   6.192   6.525   4.004
10355SOL    HW243542   6.174   6.367   3.970
10356SOL     OW43543   5.692   4.795   4.480
10356SOL    HW143544   5.742   4.711   4.457
10356SOL    HW243545   5.672   4.845   4.396
10357SOL     OW43546   7.323   5.820   5.335
10357SOL    HW143547   7.240   5.847   5.286
10357SOL    HW243548   7.398   5.811   5.269
10358SOL     OW43549   2.958   6.426   3.065
10358SOL    HW143550   2.990   6.493   3.132
10358SOL    HW243551   2.990   6.452   2.974
10359SOL     OW43552   5.554   2.530   1.096
10359SOL    HW143553   5.630   2.593   1.079
10359SOL    HW243554   5.486   2.575   1.154
10360SOL     OW43555   7.145   3.385   6.803
10360SOL    HW143556   7.134   3.358   6.899
10360SOL    HW243557   7.232   3.432   6.792
10361SOL     OW43558   4.060   1.273   3.921
10361SOL    HW143559   4.062   1.271   4.021
10361SOL    HW243560   3.985   1.217   3.888
10362SOL     OW43561   4.822   4.127   3.419
10362SOL    HW143562   4.747   4.186   3.446
10362SOL    HW243563   4.858   4.156   3.330
10363SOL     OW43564   0.445   6.154   6.488
10363SOL    HW143565   0.374   6.178   6.421
10363SOL    HW243566   0.428   6.203   6.573
10364SOL     OW43567   3.939   0.066   3.427
10364SOL    HW143568   3.974   0.142   3.482
10364SOL    HW243569   4.009   0.037   3.361
10365SOL     OW43570   1.547   3.458   3.194
10365SOL    HW143571   1.485   3.385   3.222
10365SOL    HW243572   1.502   3.547   3.207
10366SOL     OW43573   4.459   3.782   3.123
10366SOL    HW143574   4.410   3.810   3.040
10366SOL    HW243575   4.553   3.816   3.120
10367SOL     OW43576   1.557   5.151   4.389
10367SOL    HW143577   1.640   5.205   4.378
10367SOL    HW243578   1.532   5.110   4.302
10368SOL     OW43579   3.596   1.302   0.536
10368SOL    HW143580   3.537   1.240   0.587
10368SOL    HW243581   3.540   1.359   0.476
10369SOL     OW43582   3.507   4.982   5.461
10369SOL    HW143583   3.528   5.037   5.542
10369SOL    HW243584   3.593   4.954   5.417
10370SOL     OW43585   3.659   3.283   1.477
10370SOL    HW143586   3.583   3.343   1.452
10370SOL    HW243587   3.630   3.188   1.469
10371SOL     OW43588   6.640   4.571   3.978
10371SOL    HW143589   6.565   4.508   3.996
10371SOL    HW243590   6.613   4.633   3.904
10372SOL     OW43591   0.443   7.149   0.722
10372SOL    HW143592   0.520   7.211   0.708
10372SOL    HW243593   0.403   7.125   0.633
10373SOL     OW43594   2.859   4.717   1.239
10373SOL    HW143595   2.877   4.644   1.305
10373SOL    HW243596   2.766   4.707   1.203
10374SOL     OW43597   7.119   1.906   5.984
10374SOL    HW143598   7.192   1.945   5.927
10374SOL    HW243599   7.033   1.952   5.964
10375SOL     OW43600   4.334   1.135   1.094
10375SOL    HW143601   4.428   1.140   1.060
10375SOL    HW243602   4.280   1.079   1.031
10376SOL     OW43603   5.401   2.820   5.700
10376SOL    HW143604   5.349   2.903   5.721
10376SOL    HW243605   5.369   2.745   5.757
10377SOL     OW43606   0.768   2.429   5.505
10377SOL    HW143607   0.716   2.377   5.573
10377SOL    HW243608   0.855   2.382   5.486
10378SOL     OW43609   7.298   6.686   5.225
10378SOL    HW143610   7.236   6.732   5.289
10378SOL    HW243611   7.320   6.749   5.150
10379SOL     OW43612   2.725   4.461   3.924
10379SOL    HW143613   2.744   4.525   3.849
10379SOL    HW243614   2.708   4.370   3.886
10380SOL     OW43615   5.401   4.606   1.096
10380SOL    HW143616   5.493   4.568   1.091
10380SOL    HW243617   5.378   4.625   1.192
10381SOL     OW43618   5.650   1.946   6.196
10381SOL    HW143619   5.641   1.969   6.293
10381SOL    HW243620   5.741   1.911   6.178
10382SOL     OW43621   3.224   4.317   5.946
10382SOL    HW143622   3.251   4.278   5.858
10382SOL    HW243623   3.241   4.251   6.019
10383SOL     OW43624   4.967   0.771   7.250
10383SOL    HW143625   5.002   0.748   7.340
10383SOL    HW243626   4.949   0.688   7.198
10384SOL     OW43627   7.302   5.604   6.595
10384SOL    HW143628   7.330   5.552   6.514
10384SOL    HW243629   7.375   5.666   6.622
10385SOL     OW43630   2.321   2.289   5.897
10385SOL    HW143631   2.274   2.201   5.895
10385SOL    HW243632   2.351   2.307   5.991
10386SOL     OW43633   0.239   0.831   1.452
10386SOL    HW143634   0.213   0.839   1.548
10386SOL    HW243635   0.178   0.886   1.396
10387SOL     OW43636   0.092   0.104   1.186
10387SOL    HW143637   0.185   0.081   1.215
10387SOL    HW243638   0.095   0.166   1.108
10388SOL     OW43639   3.579   1.626   4.229
10388SOL    HW143640   3.624   1.706   4.188
10388SOL    HW243641   3.584   1.549   4.165
10389SOL     OW43642   1.299   6.152   0.218
10389SOL    HW143643   1.363   6.221   0.253
10389SOL    HW243644   1.316   6.065   0.263
10390SOL     OW43645   1.171   4.240   1.773
10390SOL    HW143646   1.167   4.143   1.750
10390SOL    HW243647   1.093   4.287   1.732
10391SOL     OW43648   1.301   1.712   1.960
10391SOL    HW143649   1.322   1.810   1.957
10391SOL    HW243650   1.283   1.685   2.054
10392SOL     OW43651   5.660   0.742   2.643
10392SOL    HW143652   5.668   0.792   2.556
10392SOL    HW243653   5.743   0.757   2.697
10393SOL     OW43654   4.178   3.605   2.245
10393SOL    HW143655   4.090   3.581   2.202
10393SOL    HW243656   4.247   3.537   2.221
10394SOL     OW43657   2.707   2.069   6.513
10394SOL    HW143658   2.704   2.145   6.448
10394SOL    HW243659   2.702   1.983   6.464
10395SOL     OW43660   5.551   3.650   1.666
10395SOL    HW143661   5.477   3.684   1.724
10395SOL    HW243662   5.514   3.622   1.578
10396SOL     OW43663   6.401   0.985   1.499
10396SOL    HW143664   6.496   1.016   1.503
10396SOL    HW243665   6.353   1.015   1.582
10397SOL     OW43666   2.966   2.874   6.945
10397SOL    HW143667   2.962   2.821   6.860
10397SOL    HW243668   2.924   2.964   6.930
10398SOL     OW43669   3.682   2.435   6.977
10398SOL    HW143670   3.673   2.414   6.880
10398SOL    HW243671   3.779   2.441   7.001
10399SOL     OW43672   6.503   0.803   5.709
10399SOL    HW143673   6.439   0.755   5.648
10399SOL    HW243674   6.569   0.738   5.746
10400SOL     OW43675   5.846   0.772   6.258
10400SOL    HW143676   5.785   0.698   6.287
10400SOL    HW243677   5.935   0.760   6.302
10401SOL     OW43678   3.914   3.857   6.741
10401SOL    HW143679   3.856   3.895   6.812
10401SOL    HW243680   3.893   3.901   6.653
10402SOL     OW43681   5.617   0.694   2.266
10402SOL    HW143682   5.623   0.779   2.319
10402SOL    HW243683   5.580   0.621   2.323
10403SOL     OW43684   5.585   7.005   6.655
10403SOL    HW143685   5.667   6.958   6.689
10403SOL    HW243686   5.516   6.936   6.631
10404SOL     OW43687   1.988   3.932   7.205
10404SOL    HW143688   1.970   3.881   7.121
10404SOL    HW243689   1.919   3.907   7.274
10405SOL     OW43690   3.673   0.641   7.181
10405SOL    HW143691   3.607   0.715   7.197
10405SOL    HW243692   3.667   0.575   7.256
10406SOL     OW43693   2.899   2.315   0.101
10406SOL    HW143694   2.974   2.251   0.081
10406SOL    HW243695   2.876   2.366   0.018
10407SOL     OW43696   6.193   5.606   0.716
10407SOL    HW143697   6.101   5.639   0.698
10407SOL    HW243698   6.247   5.612   0.632
10408SOL     OW43699   2.197   7.200   0.976
10408SOL    HW143700   2.106   7.162   0.989
10408SOL    HW243701   2.212   7.275   1.041
10409SOL     OW43702   3.206   6.482   1.760
10409SOL    HW143703   3.209   6.530   1.673
10409SOL    HW243704   3.284   6.420   1.768
10410SOL     OW43705   2.751   3.941   1.629
10410SOL    HW143706   2.811   4.018   1.605
10410SOL    HW243707   2.678   3.973   1.690
10411SOL     OW43708   5.135   1.816   7.062
10411SOL    HW143709   5.206   1.775   7.005
10411SOL    HW243710   5.068   1.864   7.005
10412SOL     OW43711   1.826   1.623   1.456
10412SOL    HW143712   1.870   1.713   1.459
10412SOL    HW243713   1.788   1.603   1.546
10413SOL     OW43714   2.843   6.525   4.039
10413SOL    HW143715   2.775   6.553   4.106
10413SOL    HW243716   2.807   6.449   3.984
10414SOL     OW43717   0.442   4.792   4.503
10414SOL    HW143718   0.531   4.817   4.464
10414SOL    HW243719   0.405   4.870   4.552
10415SOL     OW43720   3.276   2.440   6.208
10415SOL    HW143721   3.318   2.453   6.119
10415SOL    HW243722   3.209   2.367   6.203
10416SOL     OW43723   2.382   3.304   0.681
10416SOL    HW143724   2.440   3.275   0.606
10416SOL    HW243725   2.368   3.228   0.744
10417SOL     OW43726   1.478   6.527   5.590
10417SOL    HW143727   1.551   6.496   5.529
10417SOL    HW243728   1.430   6.448   5.627
10418SOL     OW43729   0.135   6.778   4.816
10418SOL    HW143730   0.215   6.753   4.870
10418SOL    HW243731   0.164   6.816   4.728
10419SOL     OW43732   6.734   6.992   1.561
10419SOL    HW143733   6.761   7.089   1.554
10419SOL    HW243734   6.740   6.963   1.656
10420SOL     OW43735   6.787   2.443   0.197
10420SOL    HW143736   6.813   2.464   0.103
10420SOL    HW243737   6.687   2.441   0.205
10421SOL     OW43738   3.005   1.457   6.349
10421SOL    HW143739   2.906   1.470   6.342
10421SOL    HW243740   3.046   1.461   6.258
10422SOL     OW43741   1.738   0.406   0.798
10422SOL    HW143742   1.638   0.404   0.796
10422SOL    HW243743   1.769   0.488   0.847
10423SOL     OW43744   4.385   5.289   3.143
10423SOL    HW143745   4.289   5.306   3.164
10423SOL    HW243746   4.404   5.312   3.048
10424SOL     OW43747   2.355   6.542   1.038
10424SOL    HW143748   2.364   6.593   1.123
10424SOL    HW243749   2.419   6.578   0.970
10425SOL     OW43750   7.257   4.181   4.456
10425SOL    HW143751   7.202   4.223   4.384
10425SOL    HW243752   7.315   4.110   4.417
10426SOL     OW43753   5.112   6.794   1.721
10426SOL    HW143754   5.082   6.889   1.711
10426SOL    HW243755   5.112   6.770   1.818
10427SOL     OW43756   2.995   2.861   0.206
10427SOL    HW143757   3.040   2.902   0.285
10427SOL    HW243758   3.035   2.897   0.122
10428SOL     OW43759   2.177   4.182   5.404
10428SOL    HW143760   2.224   4.111   5.456
10428SOL    HW243761   2.136   4.249   5.468
10429SOL     OW43762   1.857   5.126   3.733
10429SOL    HW143763   1.781   5.075   3.773
10429SOL    HW243764   1.935   5.125   3.796
10430SOL     OW43765   1.330   3.560   0.556
10430SOL    HW143766   1.291   3.554   0.464
10430SOL    HW243767   1.386   3.643   0.562
10431SOL     OW43768   4.983   0.521   5.914
10431SOL    HW143769   5.049   0.595   5.905
10431SOL    HW243770   5.023   0.446   5.967
10432SOL     OW43771   4.320   4.994   6.901
10432SOL    HW143772   4.257   5.038   6.838
10432SOL    HW243773   4.380   5.062   6.943
10433SOL     OW43774   5.143   5.870   6.280
10433SOL    HW143775   5.155   5.860   6.378
10433SOL    HW243776   5.224   5.833   6.233
10434SOL     OW43777   1.161   2.910   3.216
10434SOL    HW143778   1.226   2.940   3.146
10434SOL    HW243779   1.142   2.986   3.279
10435SOL     OW43780   0.071   4.561   4.759
10435SOL    HW143781   0.041   4.468   4.739
10435SOL    HW243782   0.160   4.577   4.717
10436SOL     OW43783   3.943   2.299   0.812
10436SOL    HW143784   4.026   2.294   0.755
10436SOL    HW243785   3.897   2.210   0.810
10437SOL     OW43786   2.364   0.000   2.208
10437SOL    HW143787   2.288   0.037   2.262
10437SOL    HW243788   2.335  -0.083   2.162
10438SOL     OW43789   1.890   0.536   6.553
10438SOL    HW143790   1.897   0.477   6.633
10438SOL    HW243791   1.827   0.612   6.572
10439SOL     OW43792   5.602   5.192   4.419
10439SOL    HW143793   5.553   5.255   4.358
10439SOL    HW243794   5.544   5.113   4.440
10440SOL     OW43795   6.549   1.903   1.425
10440SOL    HW143796   6.496   1.956   1.359
10440SOL    HW243797   6.641   1.941   1.433
10441SOL     OW43798   5.862   0.380   6.989
10441SOL    HW143799   5.961   0.390   6.975
10441SOL    HW243800   5.813   0.411   6.908
10442SOL     OW43801   5.643   7.004   7.230
10442SOL    HW143802   5.642   6.915   7.186
10442SOL    HW243803   5.737   7.034   7.244
10443SOL     OW43804   4.067   2.291   4.712
10443SOL    HW143805   4.076   2.219   4.781
10443SOL    HW243806   4.009   2.259   4.638
10444SOL     OW43807   0.756   4.842   4.466
10444SOL    HW143808   0.749   4.861   4.564
10444SOL    HW243809   0.800   4.919   4.420
10445SOL     OW43810   2.727   0.142   6.444
10445SOL    HW143811   2.643   0.195   6.446
10445SOL    HW243812   2.778   0.158   6.529
10446SOL     OW43813   0.888   4.285   1.712
10446SOL    HW143814   0.845   4.304   1.623
10446SOL    HW243815   0.846   4.205   1.753
10447SOL     OW43816   1.840   2.790   0.366
10447SOL    HW143817   1.743   2.809   0.354
10447SOL    HW243818   1.858   2.694   0.343
10448SOL     OW43819   0.650   5.853   5.547
10448SOL    HW143820   0.585   5.882   5.477
10448SOL    HW243821   0.678   5.932   5.602
10449SOL     OW43822   3.968   3.762   1.553
10449SOL    HW143823   4.042   3.823   1.525
10449SOL    HW243824   3.931   3.791   1.641
10450SOL     OW43825   2.488   1.317   3.260
10450SOL    HW143826   2.449   1.294   3.349
10450SOL    HW243827   2.534   1.236   3.222
10451SOL     OW43828   1.243   6.477   6.480
10451SOL    HW143829   1.235   6.452   6.576
10451SOL    HW243830   1.302   6.412   6.433
10452SOL     OW43831   4.611   3.710   6.578
10452SOL    HW143832   4.636   3.694   6.674
10452SOL    HW243833   4.554   3.634   6.546
10453SOL     OW43834   5.472   4.311   2.338
10453SOL    HW143835   5.449   4.385   2.275
10453SOL    HW243836   5.570   4.292   2.334
10454SOL     OW43837   2.740   5.705   0.738
10454SOL    HW143838   2.783   5.634   0.681
10454SOL    HW243839   2.775   5.795   0.711
10455SOL     OW43840   5.317   4.268   3.141
10455SOL    HW143841   5.228   4.227   3.122
10455SOL    HW243842   5.389   4.205   3.111
10456SOL     OW43843   0.408   1.899   6.925
10456SOL    HW143844   0.433   1.890   6.829
10456SOL    HW243845   0.420   1.994   6.954
10457SOL     OW43846   2.723   2.815   3.883
10457SOL    HW143847   2.813   2.859   3.892
10457SOL    HW243848   2.668   2.834   3.965
10458SOL     OW43849   2.513   1.707   1.171
10458SOL    HW143850   2.495   1.624   1.223
10458SOL    HW243851   2.432   1.731   1.117
10459SOL     OW43852   4.406   0.085   0.146
10459SOL    HW143853   4.374  -0.006   0.119
10459SOL    HW243854   4.327   0.142   0.170
10460SOL     OW43855   5.589   6.140   5.690
10460SOL    HW143856   5.591   6.074   5.615
10460SOL    HW243857   5.539   6.222   5.661
10461SOL     OW43858   4.086   0.518   5.870
10461SOL    HW143859   4.131   0.604   5.848
10461SOL    HW243860   4.047   0.478   5.787
10462SOL     OW43861   3.442   7.228   4.039
10462SOL    HW143862   3.413   7.206   3.946
10462SOL    HW243863   3.476   7.145   4.083
10463SOL     OW43864   3.340   5.236   7.328
10463SOL    HW143865   3.326   5.330   7.360
10463SOL    HW243866   3.386   5.183   7.399
10464SOL     OW43867   4.340   5.059   2.900
10464SOL    HW143868   4.307   5.008   2.820
10464SOL    HW243869   4.300   5.151   2.899
10465SOL     OW43870   6.697   2.874   3.866
10465SOL    HW143871   6.629   2.932   3.911
10465SOL    HW243872   6.747   2.822   3.935
10466SOL     OW43873   2.526   0.906   3.637
10466SOL    HW143874   2.481   0.948   3.715
10466SOL    HW243875   2.521   0.806   3.644
10467SOL     OW43876   0.340   6.345   5.833
10467SOL    HW143877   0.241   6.350   5.839
10467SOL    HW243878   0.379   6.437   5.840
10468SOL     OW43879   2.135   1.214   6.103
10468SOL    HW143880   2.087   1.195   6.017
10468SOL    HW243881   2.130   1.133   6.162
10469SOL     OW43882   7.175   1.636   3.756
10469SOL    HW143883   7.229   1.717   3.735
10469SOL    HW243884   7.233   1.569   3.803
10470SOL     OW43885   6.313   1.615   6.349
10470SOL    HW143886   6.367   1.587   6.427
10470SOL    HW243887   6.343   1.566   6.267
10471SOL     OW43888   0.421   4.142   0.395
10471SOL    HW143889   0.424   4.236   0.428
10471SOL    HW243890   0.326   4.114   0.382
10472SOL     OW43891   0.274   4.183   1.892
10472SOL    HW143892   0.357   4.189   1.835
10472SOL    HW243893   0.235   4.091   1.884
10473SOL     OW43894   5.781   2.090   6.857
10473SOL    HW143895   5.857   2.152   6.837
10473SOL    HW243896   5.783   2.013   6.794
10474SOL     OW43897   3.857   7.084   6.774
10474SOL    HW143898   3.848   7.178   6.740
10474SOL    HW243899   3.934   7.039   6.728
10475SOL     OW43900   0.850   4.703   6.091
10475SOL    HW143901   0.877   4.795   6.064
10475SOL    HW243902   0.750   4.695   6.089
10476SOL     OW43903   3.668   6.046   0.457
10476SOL    HW143904   3.660   5.950   0.430
10476SOL    HW243905   3.765   6.074   0.453
10477SOL     OW43906   1.897   2.832   3.171
10477SOL    HW143907   1.982   2.837   3.223
10477SOL    HW243908   1.916   2.794   3.080
10478SOL     OW43909   0.660   3.722   3.620
10478SOL    HW143910   0.680   3.753   3.527
10478SOL    HW243911   0.567   3.686   3.624
10479SOL     OW43912   5.047   5.614   4.142
10479SOL    HW143913   5.038   5.557   4.224
10479SOL    HW243914   5.114   5.686   4.160
10480SOL     OW43915   2.393   3.518   1.517
10480SOL    HW143916   2.489   3.513   1.544
10480SOL    HW243917   2.335   3.508   1.598
10481SOL     OW43918   0.490   5.589   4.254
10481SOL    HW143919   0.515   5.540   4.170
10481SOL    HW243920   0.533   5.679   4.255
10482SOL     OW43921   6.735   1.264   1.964
10482SOL    HW143922   6.665   1.297   1.901
10482SOL    HW243923   6.694   1.204   2.032
10483SOL     OW43924   0.374   5.479   7.197
10483SOL    HW143925   0.285   5.455   7.234
10483SOL    HW243926   0.362   5.514   7.104
10484SOL     OW43927   7.183   2.901   3.987
10484SOL    HW143928   7.221   2.957   4.060
10484SOL    HW243929   7.211   2.938   3.898
10485SOL     OW43930   6.813   2.938   6.200
10485SOL    HW143931   6.873   2.871   6.155
10485SOL    HW243932   6.734   2.955   6.142
10486SOL     OW43933   4.837   6.691   2.474
10486SOL    HW143934   4.902   6.722   2.544
10486SOL    HW243935   4.804   6.600   2.497
10487SOL     OW43936   3.416   5.023   3.565
10487SOL    HW143937   3.377   5.095   3.507
10487SOL    HW243938   3.501   4.990   3.524
10488SOL     OW43939   5.777   5.521   3.981
10488SOL    HW143940   5.818   5.501   4.071
10488SOL    HW243941   5.771   5.437   3.928
10489SOL     OW43942   2.194   3.896   4.679
10489SOL    HW143943   2.270   3.943   4.634
10489SOL    HW243944   2.115   3.957   4.683
10490SOL     OW43945   4.280   3.697   0.681
10490SOL    HW143946   4.360   3.756   0.670
10490SOL    HW243947   4.231   3.723   0.764
10491SOL     OW43948   5.356   3.142   5.450
10491SOL    HW143949   5.335   3.218   5.388
10491SOL    HW243950   5.276   3.124   5.508
10492SOL     OW43951   4.471   0.943   6.246
10492SOL    HW143952   4.408   0.959   6.321
10492SOL    HW243953   4.426   0.887   6.176
10493SOL     OW43954   6.166   6.165   4.748
10493SOL    HW143955   6.188   6.181   4.844
10493SOL    HW243956   6.080   6.210   4.726
10494SOL     OW43957   1.533   1.351   1.809
10494SOL    HW143958   1.514   1.350   1.908
10494SOL    HW243959   1.452   1.319   1.760
10495SOL     OW43960   0.527   3.647   3.343
10495SOL    HW143961   0.527   3.577   3.271
10495SOL    HW243962   0.494   3.733   3.306
10496SOL     OW43963   3.292   5.766   6.514
10496SOL    HW143964   3.273   5.794   6.608
10496SOL    HW243965   3.376   5.809   6.482
10497SOL     OW43966   4.782   4.201   1.040
10497SOL    HW143967   4.828   4.289   1.033
10497SOL    HW243968   4.815   4.152   1.121
10498SOL     OW43969   7.315   3.226   0.131
10498SOL    HW143970   7.350   3.299   0.071
10498SOL    HW243971   7.233   3.187   0.090
10499SOL     OW43972   4.500   2.772   4.856
10499SOL    HW143973   4.475   2.685   4.813
10499SOL    HW243974   4.492   2.845   4.788
10500SOL     OW43975   3.703   6.543   6.474
10500SOL    HW143976   3.640   6.561   6.398
10500SOL    HW243977   3.652   6.510   6.553
10501SOL     OW43978   1.972   3.395   3.920
10501SOL    HW143979   1.905   3.467   3.939
10501SOL    HW243980   1.929   3.306   3.935
10502SOL     OW43981   0.949   1.805   3.833
10502SOL    HW143982   0.887   1.866   3.882
10502SOL    HW243983   0.905   1.774   3.749
10503SOL     OW43984   7.140   4.818   4.962
10503SOL    HW143985   7.089   4.757   5.023
10503SOL    HW243986   7.076   4.873   4.909
10504SOL     OW43987   6.746   3.635   6.751
10504SOL    HW143988   6.663   3.676   6.788
10504SOL    HW243989   6.730   3.605   6.657
10505SOL     OW43990   0.028   1.163   0.029
10505SOL    HW143991   0.037   1.169  -0.071
10505SOL    HW243992   0.109   1.119   0.067
10506SOL     OW43993   1.314   1.716   1.387
10506SOL    HW143994   1.354   1.694   1.298
10506SOL    HW243995   1.220   1.684   1.391
10507SOL     OW43996   1.827   0.081   2.968
10507SOL    HW143997   1.751   0.023   2.997
10507SOL    HW243998   1.816   0.173   3.008
10508SOL     OW43999   6.245   3.115   6.291
10508SOL    HW144000   6.296   3.134   6.207
10508SOL    HW244001   6.302   3.135   6.370
10509SOL     OW44002   5.176   6.478   5.919
10509SOL    HW144003   5.258   6.527   5.948
10509SOL    HW244004   5.195   6.380   5.913
10510SOL     OW44005   0.288   5.880   7.118
10510SOL    HW144006   0.229   5.960   7.119
10510SOL    HW244007   0.354   5.886   7.193
10511SOL     OW44008   1.036   1.089   2.763
10511SOL    HW144009   1.135   1.076   2.756
10511SOL    HW244010   1.017   1.172   2.817
10512SOL     OW44011   3.898   0.785   2.665
10512SOL    HW144012   3.885   0.748   2.573
10512SOL    HW244013   3.809   0.814   2.702
10513SOL     OW44014   3.141   5.653   5.623
10513SOL    HW144015   3.156   5.736   5.677
10513SOL    HW244016   3.044   5.647   5.598
10514SOL     OW44017   3.988   0.433   5.153
10514SOL    HW144018   3.997   0.469   5.246
10514SOL    HW244019   3.892   0.416   5.132
10515SOL     OW44020   5.943   5.624   0.041
10515SOL    HW144021   6.008   5.550   0.052
10515SOL    HW244022   5.891   5.611  -0.044
10516SOL     OW44023   5.126   3.222   2.203
10516SOL    HW144024   5.221   3.251   2.215
10516SOL    HW244025   5.099   3.234   2.107
10517SOL     OW44026   4.482   6.219   3.123
10517SOL    HW144027   4.429   6.272   3.189
10517SOL    HW244028   4.445   6.126   3.117
10518SOL     OW44029   1.539   5.141   5.813
10518SOL    HW144030   1.576   5.224   5.854
10518SOL    HW244031   1.441   5.136   5.830
10519SOL     OW44032   0.285   2.798   5.454
10519SOL    HW144033   0.288   2.844   5.543
10519SOL    HW244034   0.372   2.813   5.406
10520SOL     OW44035   0.926   4.640   3.445
10520SOL    HW144036   1.009   4.584   3.440
10520SOL    HW244037   0.942   4.728   3.400
10521SOL     OW44038   4.927   4.966   6.418
10521SOL    HW144039   4.972   5.053   6.438
10521SOL    HW244040   4.987   4.910   6.361
10522SOL     OW44041   4.614   0.094   7.241
10522SOL    HW144042   4.618   0.187   7.279
10522SOL    HW244043   4.638   0.028   7.312
10523SOL     OW44044   0.516   4.122   7.281
10523SOL    HW144045   0.465   4.076   7.209
10523SOL    HW244046   0.483   4.091   7.370
10524SOL     OW44047   2.088   6.864   6.832
10524SOL    HW144048   2.163   6.824   6.780
10524SOL    HW244049   2.098   6.964   6.835
10525SOL     OW44050   4.805   3.523   2.409
10525SOL    HW144051   4.743   3.446   2.391
10525SOL    HW244052   4.760   3.608   2.383
10526SOL     OW44053   1.130   4.758   5.790
10526SOL    HW144054   1.139   4.659   5.774
10526SOL    HW244055   1.214   4.804   5.763
10527SOL     OW44056   0.509   2.943   2.873
10527SOL    HW144057   0.581   2.885   2.836
10527SOL    HW244058   0.478   2.907   2.961
10528SOL     OW44059   2.677   3.145   0.217
10528SOL    HW144060   2.581   3.118   0.221
10528SOL    HW244061   2.731   3.086   0.278
10529SOL     OW44062   6.446   2.416   7.230
10529SOL    HW144063   6.377   2.473   7.184
10529SOL    HW244064   6.521   2.397   7.166
10530SOL     OW44065   1.655   4.143   1.797
10530SOL    HW144066   1.622   4.237   1.808
10530SOL    HW244067   1.669   4.124   1.699
10531SOL     OW44068   3.888   0.887   1.471
10531SOL    HW144069   3.898   0.900   1.372
10531SOL    HW244070   3.909   0.792   1.494
10532SOL     OW44071   5.642   6.323   6.558
10532SOL    HW144072   5.597   6.298   6.472
10532SOL    HW244073   5.738   6.345   6.540
10533SOL     OW44074   3.418   2.048   6.929
10533SOL    HW144075   3.410   2.098   6.843
10533SOL    HW244076   3.383   1.956   6.918
10534SOL     OW44077   5.540   5.015   3.218
10534SOL    HW144078   5.444   5.009   3.245
10534SOL    HW244079   5.570   4.926   3.184
10535SOL     OW44080   0.362   0.146   0.862
10535SOL    HW144081   0.294   0.206   0.904
10535SOL    HW244082   0.331   0.052   0.866
10536SOL     OW44083   4.340   0.667   3.150
10536SOL    HW144084   4.294   0.583   3.179
10536SOL    HW244085   4.438   0.649   3.138
10537SOL     OW44086   4.991   4.563   0.195
10537SOL    HW144087   5.042   4.507   0.260
10537SOL    HW244088   5.045   4.575   0.112
10538SOL     OW44089   4.927   5.999   4.516
10538SOL    HW144090   4.917   6.001   4.616
10538SOL    HW244091   5.025   5.993   4.493
10539SOL     OW44092   5.336   6.065   3.227
10539SOL    HW144093   5.250   6.100   3.264
10539SOL    HW244094   5.337   5.965   3.231
10540SOL     OW44095   3.999   1.719   4.331
10540SOL    HW144096   4.079   1.712   4.270
10540SOL    HW244097   4.012   1.796   4.393
10541SOL     OW44098   3.460   5.763   3.829
10541SOL    HW144099   3.368   5.751   3.867
10541SOL    HW244100   3.494   5.674   3.797
10542SOL     OW44101   6.501   2.444   5.694
10542SOL    HW144102   6.437   2.452   5.771
10542SOL    HW244103   6.594   2.454   5.728
10543SOL     OW44104   5.130   2.419   2.007
10543SOL    HW144105   5.172   2.331   2.032
10543SOL    HW244106   5.113   2.472   2.090
10544SOL     OW44107   5.168   0.722   1.315
10544SOL    HW144108   5.200   0.806   1.271
10544SOL    HW244109   5.071   0.710   1.296
10545SOL     OW44110   0.712   7.286   0.105
10545SOL    HW144111   0.778   7.276   0.179
10545SOL    HW244112   0.738   7.363   0.047
10546SOL     OW44113   3.227   0.332   2.443
10546SOL    HW144114   3.187   0.244   2.469
10546SOL    HW244115   3.211   0.400   2.515
10547SOL     OW44116   1.533   1.909   0.438
10547SOL    HW144117   1.594   1.902   0.359
10547SOL    HW244118   1.543   2.000   0.479
10548SOL     OW44119   5.665   5.046   1.553
10548SOL    HW144120   5.758   5.067   1.522
10548SOL    HW244121   5.606   5.126   1.540
10549SOL     OW44122   7.090   2.182   5.824
10549SOL    HW144123   7.174   2.131   5.805
10549SOL    HW244124   7.057   2.225   5.740
10550SOL     OW44125   1.330   4.158   3.974
10550SOL    HW144126   1.261   4.214   3.927
10550SOL    HW244127   1.290   4.118   4.056
10551SOL     OW44128   1.631   4.336   5.674
10551SOL    HW144129   1.707   4.352   5.612
10551SOL    HW244130   1.611   4.238   5.679
10552SOL     OW44131   1.773   4.594   1.303
10552SOL    HW144132   1.731   4.675   1.261
10552SOL    HW244133   1.726   4.512   1.270
10553SOL     OW44134   4.650   6.969   5.667
10553SOL    HW144135   4.551   6.982   5.664
10553SOL    HW244136   4.676   6.930   5.756
10554SOL     OW44137   6.084   5.964   2.936
10554SOL    HW144138   6.079   6.025   2.857
10554SOL    HW244139   6.151   5.892   2.919
10555SOL     OW44140   3.884   5.290   3.031
10555SOL    HW144141   3.797   5.325   2.997
10555SOL    HW244142   3.876   5.193   3.052
10556SOL     OW44143   4.546   6.696   3.176
10556SOL    HW144144   4.600   6.780   3.174
10556SOL    HW244145   4.604   6.618   3.153
10557SOL     OW44146   0.861   5.086   2.650
10557SOL    HW144147   0.880   5.183   2.634
10557SOL    HW244148   0.774   5.062   2.608
10558SOL     OW44149   3.276   4.561   2.647
10558SOL    HW144150   3.224   4.481   2.619
10558SOL    HW244151   3.251   4.640   2.590
10559SOL     OW44152   6.276   6.189   4.987
10559SOL    HW144153   6.358   6.197   4.931
10559SOL    HW244154   6.302   6.174   5.083
10560SOL     OW44155   5.659   4.732   5.838
10560SOL    HW144156   5.596   4.769   5.770
10560SOL    HW244157   5.699   4.808   5.890
10561SOL     OW44158   1.739   6.579   0.133
10561SOL    HW144159   1.709   6.506   0.070
10561SOL    HW244160   1.806   6.542   0.197
10562SOL     OW44161   6.366   2.649   7.006
10562SOL    HW144162   6.377   2.577   6.938
10562SOL    HW244163   6.447   2.653   7.065
10563SOL     OW44164   7.023   0.255   7.917
10563SOL    HW144165   7.002   0.255   8.015
10563SOL    HW244166   7.000   0.166   7.878
10564SOL     OW44167   2.372   5.320   8.804
10564SOL    HW144168   2.371   5.255   8.880
10564SOL    HW244169   2.385   5.270   8.718
10565SOL     OW44170   1.208   0.961   8.345
10565SOL    HW144171   1.246   0.899   8.414
10565SOL    HW244172   1.153   0.908   8.280
10566SOL     OW44173   4.529   5.875   7.936
10566SOL    HW144174   4.620   5.842   7.912
10566SOL    HW244175   4.538   5.955   7.996
10567SOL     OW44176   5.907   5.742   8.272
10567SOL    HW144177   5.866   5.791   8.349
10567SOL    HW244178   5.836   5.693   8.222
10568SOL     OW44179   3.941   3.635   8.654
10568SOL    HW144180   3.945   3.657   8.752
10568SOL    HW244181   3.850   3.657   8.619
10569SOL     OW44182   3.135   4.423   8.775
10569SOL    HW144183   3.140   4.348   8.709
10569SOL    HW244184   3.194   4.498   8.745
10570SOL     OW44185   7.116   1.203   8.732
10570SOL    HW144186   7.116   1.302   8.746
10570SOL    HW244187   7.107   1.184   8.634
10571SOL     OW44188   2.773   2.167   8.769
10571SOL    HW144189   2.752   2.164   8.671
10571SOL    HW244190   2.867   2.135   8.783
10572SOL     OW44191   7.009   1.415   7.662
10572SOL    HW144192   7.058   1.337   7.621
10572SOL    HW244193   6.987   1.481   7.590
10573SOL     OW44194   4.268   3.226   8.202
10573SOL    HW144195   4.271   3.210   8.300
10573SOL    HW244196   4.181   3.268   8.178
10574SOL     OW44197   4.230   3.846   8.922
10574SOL    HW144198   4.224   3.926   8.982
10574SOL    HW244199   4.325   3.830   8.897
10575SOL     OW44200   3.442   2.354   7.747
10575SOL    HW144201   3.383   2.283   7.710
10575SOL    HW244202   3.418   2.442   7.705
10576SOL     OW44203   5.177   2.106   9.160
10576SOL    HW144204   5.128   2.168   9.100
10576SOL    HW244205   5.168   2.012   9.125
10577SOL     OW44206   4.781   4.640   8.677
10577SOL    HW144207   4.769   4.725   8.627
10577SOL    HW244208   4.707   4.577   8.655
10578SOL     OW44209   4.247   0.752   8.050
10578SOL    HW144210   4.320   0.700   8.095
10578SOL    HW244211   4.270   0.850   8.050
10579SOL     OW44212   0.454   4.253   8.759
10579SOL    HW144213   0.473   4.169   8.708
10579SOL    HW244214   0.521   4.263   8.833
10580SOL     OW44215   5.429   4.661   8.966
10580SOL    HW144216   5.519   4.617   8.964
10580SOL    HW244217   5.384   4.649   8.878
10581SOL     OW44218   2.479   5.816   7.913
10581SOL    HW144219   2.509   5.744   7.976
10581SOL    HW244220   2.395   5.858   7.948
10582SOL     OW44221   6.900   2.381   8.565
10582SOL    HW144222   6.909   2.291   8.521
10582SOL    HW244223   6.905   2.370   8.664
10583SOL     OW44224   1.875   4.260   8.531
10583SOL    HW144225   1.777   4.279   8.535
10583SOL    HW244226   1.892   4.183   8.470
10584SOL     OW44227   6.075   5.148   8.599
10584SOL    HW144228   6.163   5.172   8.641
10584SOL    HW244229   6.035   5.230   8.559
10585SOL     OW44230   2.690   1.904   8.960
10585SOL    HW144231   2.774   1.851   8.971
10585SOL    HW244232   2.684   1.938   8.866
10586SOL     OW44233   1.146   2.251   8.029
10586SOL    HW144234   1.214   2.179   8.041
10586SOL    HW244235   1.176   2.314   7.957
10587SOL     OW44236   0.441   2.596   7.926
10587SOL    HW144237   0.485   2.506   7.931
10587SOL    HW244238   0.481   2.648   7.850
10588SOL     OW44239   6.487   4.532   8.001
10588SOL    HW144240   6.434   4.603   7.956
10588SOL    HW244241   6.426   4.458   8.030
10589SOL     OW44242   2.964   1.842   8.208
10589SOL    HW144243   2.949   1.937   8.182
10589SOL    HW244244   2.878   1.802   8.241
10590SOL     OW44245   3.201   7.203   8.464
10590SOL    HW144246   3.209   7.120   8.408
10590SOL    HW244247   3.107   7.214   8.494
10591SOL     OW44248   6.698   0.194   8.180
10591SOL    HW144249   6.688   0.175   8.083
10591SOL    HW244250   6.704   0.108   8.231
10592SOL     OW44251   5.840   0.980   8.873
10592SOL    HW144252   5.932   0.941   8.877
10592SOL    HW244253   5.802   0.986   8.966
10593SOL     OW44254   1.017   5.932   7.891
10593SOL    HW144255   1.042   5.848   7.844
10593SOL    HW244256   0.950   5.982   7.836
10594SOL     OW44257   2.629   0.443   8.508
10594SOL    HW144258   2.679   0.396   8.581
10594SOL    HW244259   2.531   0.444   8.531
10595SOL     OW44260   5.422   3.152   7.489
10595SOL    HW144261   5.521   3.146   7.474
10595SOL    HW244262   5.374   3.099   7.419
10596SOL     OW44263   1.042   3.249   7.833
10596SOL    HW144264   0.998   3.229   7.920
10596SOL    HW244265   1.041   3.348   7.816
10597SOL     OW44266   4.041   0.154   7.794
10597SOL    HW144267   4.070   0.067   7.755
10597SOL    HW244268   3.983   0.138   7.874
10598SOL     OW44269   5.346   3.647   8.698
10598SOL    HW144270   5.444   3.638   8.677
10598SOL    HW244271   5.334   3.714   8.771
10599SOL     OW44272   6.879   5.439   7.788
10599SOL    HW144273   6.817   5.430   7.866
10599SOL    HW244274   6.932   5.355   7.777
10600SOL     OW44275   1.827   1.372   8.130
10600SOL    HW144276   1.833   1.354   8.229
10600SOL    HW244277   1.918   1.394   8.095
10601SOL     OW44278   1.524   1.908   9.038
10601SOL    HW144279   1.537   1.826   8.981
10601SOL    HW244280   1.507   1.987   8.979
10602SOL     OW44281   2.002   1.513   7.599
10602SOL    HW144282   1.972   1.466   7.682
10602SOL    HW244283   2.101   1.527   7.604
10603SOL     OW44284   7.002   5.229   7.877
10603SOL    HW144285   7.075   5.243   7.944
10603SOL    HW244286   6.985   5.131   7.865
10604SOL     OW44287   5.627   3.785   7.736
10604SOL    HW144288   5.584   3.699   7.708
10604SOL    HW244289   5.586   3.815   7.822
10605SOL     OW44290   0.015   0.569   8.501
10605SOL    HW144291  -0.063   0.632   8.508
10605SOL    HW244292  -0.002   0.504   8.427
10606SOL     OW44293   3.104   1.045   8.616
10606SOL    HW144294   3.203   1.055   8.606
10606SOL    HW244295   3.057   1.119   8.567
10607SOL     OW44296   4.915   4.811   7.725
10607SOL    HW144297   4.915   4.711   7.723
10607SOL    HW244298   5.004   4.845   7.695
10608SOL     OW44299   5.964   0.799   8.230
10608SOL    HW144300   5.934   0.809   8.135
10608SOL    HW244301   5.977   0.702   8.251
10609SOL     OW44302   1.455   5.448   7.918
10609SOL    HW144303   1.447   5.547   7.912
10609SOL    HW244304   1.376   5.411   7.968
10610SOL     OW44305   6.307   4.379   8.157
10610SOL    HW144306   6.345   4.359   8.248
10610SOL    HW244307   6.222   4.431   8.168
10611SOL     OW44308   4.033   3.664   8.303
10611SOL    HW144309   4.064   3.657   8.398
10611SOL    HW244310   4.030   3.573   8.262
10612SOL     OW44311   7.258   4.232   7.682
10612SOL    HW144312   7.209   4.202   7.601
10612SOL    HW244313   7.347   4.269   7.656
10613SOL     OW44314   2.471   2.155   8.131
10613SOL    HW144315   2.390   2.213   8.137
10613SOL    HW244316   2.492   2.137   8.035
10614SOL     OW44317   0.966   0.156   8.257
10614SOL    HW144318   0.877   0.145   8.301
10614SOL    HW244319   0.984   0.077   8.198
10615SOL     OW44320   0.929   2.976   8.414
10615SOL    HW144321   0.911   3.028   8.498
10615SOL    HW244322   1.027   2.959   8.406
10616SOL     OW44323   1.211   5.419   8.058
10616SOL    HW144324   1.151   5.428   7.979
10616SOL    HW244325   1.200   5.498   8.118
10617SOL     OW44326   5.709   1.111   7.517
10617SOL    HW144327   5.686   1.162   7.600
10617SOL    HW244328   5.771   1.036   7.540
10618SOL     OW44329   5.465   5.268   8.900
10618SOL    HW144330   5.382   5.297   8.851
10618SOL    HW244331   5.513   5.348   8.935
10619SOL     OW44332   3.957   3.615   7.792
10619SOL    HW144333   3.926   3.523   7.768
10619SOL    HW244334   4.057   3.617   7.792
10620SOL     OW44335   7.232   3.498   7.490
10620SOL    HW144336   7.220   3.417   7.548
10620SOL    HW244337   7.194   3.480   7.400
10621SOL     OW44338   6.711   0.905   7.929
10621SOL    HW144339   6.758   0.868   7.849
10621SOL    HW244340   6.726   1.003   7.934
10622SOL     OW44341   0.326   7.084   7.829
10622SOL    HW144342   0.399   7.136   7.784
10622SOL    HW244343   0.294   7.012   7.768
10623SOL     OW44344   5.025   2.767   8.512
10623SOL    HW144345   4.974   2.840   8.467
10623SOL    HW244346   5.118   2.797   8.529
10624SOL     OW44347   4.561   2.977   9.169
10624SOL    HW144348   4.550   3.055   9.231
10624SOL    HW244349   4.570   3.011   9.075
10625SOL     OW44350   2.785   6.006   8.405
10625SOL    HW144351   2.756   5.911   8.390
10625SOL    HW244352   2.823   6.043   8.320
10626SOL     OW44353   2.802   3.681   8.489
10626SOL    HW144354   2.877   3.652   8.429
10626SOL    HW244355   2.726   3.617   8.480
10627SOL     OW44356   4.246   0.372   8.418
10627SOL    HW144357   4.209   0.367   8.325
10627SOL    HW244358   4.303   0.293   8.435
10628SOL     OW44359   0.098   3.556   8.487
10628SOL    HW144360   0.028   3.592   8.548
10628SOL    HW244361   0.148   3.483   8.533
10629SOL     OW44362   1.301   1.928   7.617
10629SOL    HW144363   1.335   1.930   7.522
10629SOL    HW244364   1.375   1.898   7.677
10630SOL     OW44365   4.548   7.114   8.246
10630SOL    HW144366   4.644   7.118   8.274
10630SOL    HW244367   4.491   7.105   8.328
10631SOL     OW44368   6.551   6.521   7.386
10631SOL    HW144369   6.494   6.448   7.348
10631SOL    HW244370   6.565   6.592   7.317
10632SOL     OW44371   2.198   0.145   7.393
10632SOL    HW144372   2.291   0.144   7.357
10632SOL    HW244373   2.154   0.232   7.371
10633SOL     OW44374   1.276   1.245   8.260
10633SOL    HW144375   1.292   1.148   8.277
10633SOL    HW244376   1.183   1.269   8.288
10634SOL     OW44377   2.659   4.240   8.906
10634SOL    HW144378   2.758   4.239   8.890
10634SOL    HW244379   2.611   4.240   8.818
10635SOL     OW44380   3.681   4.803   7.540
10635SOL    HW144381   3.695   4.747   7.459
10635SOL    HW244382   3.596   4.776   7.586
10636SOL     OW44383   5.529   0.025   8.325
10636SOL    HW144384   5.594   0.027   8.401
10636SOL    HW244385   5.576   0.045   8.239
10637SOL     OW44386   0.515   4.913   8.420
10637SOL    HW144387   0.499   4.974   8.343
10637SOL    HW244388   0.548   4.966   8.498
10638SOL     OW44389   3.365   5.259   8.883
10638SOL    HW144390   3.307   5.316   8.942
10638SOL    HW244391   3.446   5.230   8.934
10639SOL     OW44392   5.315   2.543   7.604
10639SOL    HW144393   5.327   2.514   7.509
10639SOL    HW244394   5.281   2.466   7.658
10640SOL     OW44395   5.654   4.140   7.975
10640SOL    HW144396   5.736   4.167   8.025
10640SOL    HW244397   5.666   4.158   7.878
10641SOL     OW44398   5.523   3.662   8.266
10641SOL    HW144399   5.461   3.692   8.337
10641SOL    HW244400   5.471   3.633   8.185
10642SOL     OW44401   4.421   3.229   7.589
10642SOL    HW144402   4.363   3.192   7.517
10642SOL    HW244403   4.373   3.222   7.677
10643SOL     OW44404   1.961   4.871   8.175
10643SOL    HW144405   1.948   4.970   8.164
10643SOL    HW244406   1.877   4.824   8.148
10644SOL     OW44407   7.081   1.083   8.484
10644SOL    HW144408   7.047   1.019   8.414
10644SOL    HW244409   7.153   1.140   8.445
10645SOL     OW44410   3.745   0.355   8.697
10645SOL    HW144411   3.717   0.261   8.715
10645SOL    HW244412   3.840   0.368   8.723
10646SOL     OW44413   4.945   5.507   8.346
10646SOL    HW144414   4.897   5.595   8.351
10646SOL    HW244415   4.927   5.465   8.257
10647SOL     OW44416   1.694   3.193   8.907
10647SOL    HW144417   1.613   3.134   8.914
10647SOL    HW244418   1.665   3.286   8.886
10648SOL     OW44419   4.824   4.688   8.342
10648SOL    HW144420   4.745   4.730   8.387
10648SOL    HW244421   4.894   4.757   8.326
10649SOL     OW44422   0.084   5.437   7.798
10649SOL    HW144423   0.124   5.491   7.724
10649SOL    HW244424   0.079   5.492   7.881
10650SOL     OW44425   0.006   4.369   8.879
10650SOL    HW144426  -0.039   4.297   8.932
10650SOL    HW244427  -0.051   4.394   8.801
10651SOL     OW44428   6.632   0.532   8.449
10651SOL    HW144429   6.711   0.496   8.498
10651SOL    HW244430   6.648   0.628   8.425
10652SOL     OW44431   4.240   0.257   7.643
10652SOL    HW144432   4.148   0.222   7.660
10652SOL    HW244433   4.235   0.333   7.579
10653SOL     OW44434   0.511   0.660   8.256
10653SOL    HW144435   0.545   0.754   8.254
10653SOL    HW244436   0.434   0.651   8.193
10654SOL     OW44437   4.959   4.648   8.018
10654SOL    HW144438   4.918   4.574   7.964
10654SOL    HW244439   4.997   4.611   8.102
10655SOL     OW44440   0.972   4.496   8.390
10655SOL    HW144441   0.984   4.439   8.471
10655SOL    HW244442   1.015   4.586   8.406
10656SOL     OW44443   6.556   4.865   7.467
10656SOL    HW144444   6.643   4.910   7.484
10656SOL    HW244445   6.534   4.870   7.369
10657SOL     OW44446   1.142   2.961   8.716
10657SOL    HW144447   1.198   3.035   8.679
10657SOL    HW244448   1.105   2.988   8.805
10658SOL     OW44449   1.172   4.469   8.872
10658SOL    HW144450   1.097   4.534   8.868
10658SOL    HW244451   1.258   4.518   8.884
10659SOL     OW44452   0.661   5.996   7.458
10659SOL    HW144453   0.615   5.952   7.535
10659SOL    HW244454   0.597   6.058   7.412
10660SOL     OW44455   5.150   5.126   7.950
10660SOL    HW144456   5.158   5.095   8.045
10660SOL    HW244457   5.058   5.105   7.916
10661SOL     OW44458   0.967   2.235   8.524
10661SOL    HW144459   1.000   2.258   8.433
10661SOL    HW244460   0.885   2.288   8.545
10662SOL     OW44461   1.529   0.731   8.171
10662SOL    HW144462   1.449   0.748   8.114
10662SOL    HW244463   1.612   0.755   8.121
10663SOL     OW44464   4.513   1.026   7.681
10663SOL    HW144465   4.477   0.938   7.713
10663SOL    HW244466   4.525   1.087   7.759
10664SOL     OW44467   5.940   1.711   7.369
10664SOL    HW144468   5.953   1.617   7.339
10664SOL    HW244469   5.842   1.733   7.369
10665SOL     OW44470   3.377   4.294   8.033
10665SOL    HW144471   3.346   4.364   8.097
10665SOL    HW244472   3.330   4.305   7.946
10666SOL     OW44473   2.968   2.737   8.536
10666SOL    HW144474   2.873   2.740   8.567
10666SOL    HW244475   2.984   2.651   8.487
10667SOL     OW44476   3.388   0.514   8.495
10667SOL    HW144477   3.441   0.541   8.414
10667SOL    HW244478   3.428   0.431   8.533
10668SOL     OW44479   4.001   5.585   7.932
10668SOL    HW144480   4.019   5.488   7.917
10668SOL    HW244481   4.069   5.622   7.996
10669SOL     OW44482   6.179   1.209   7.986
10669SOL    HW144483   6.210   1.195   8.080
10669SOL    HW244484   6.233   1.152   7.924
10670SOL     OW44485   4.665   1.410   7.799
10670SOL    HW144486   4.676   1.434   7.896
10670SOL    HW244487   4.666   1.493   7.744
10671SOL     OW44488   6.031   2.057   7.783
10671SOL    HW144489   5.962   2.072   7.853
10671SOL    HW244490   5.987   2.050   7.693
10672SOL     OW44491   4.472   2.142   7.377
10672SOL    HW144492   4.373   2.158   7.369
10672SOL    HW244493   4.521   2.227   7.361
10673SOL     OW44494   5.197   0.574   8.908
10673SOL    HW144495   5.120   0.512   8.898
10673SOL    HW244496   5.218   0.617   8.820
10674SOL     OW44497   4.859   3.448   7.492
10674SOL    HW144498   4.904   3.431   7.404
10674SOL    HW244499   4.771   3.401   7.494
10675SOL     OW44500   4.905   0.525   7.822
10675SOL    HW144501   4.845   0.580   7.764
10675SOL    HW244502   4.970   0.585   7.868
10676SOL     OW44503   4.698   6.776   8.806
10676SOL    HW144504   4.598   6.786   8.798
10676SOL    HW244505   4.721   6.748   8.899
10677SOL     OW44506   1.260   2.295   8.995
10677SOL    HW144507   1.284   2.382   8.952
10677SOL    HW244508   1.229   2.230   8.925
10678SOL     OW44509   5.679   3.339   8.082
10678SOL    HW144510   5.614   3.293   8.142
10678SOL    HW244511   5.753   3.378   8.137
10679SOL     OW44512   2.595   3.917   7.952
10679SOL    HW144513   2.510   3.969   7.938
10679SOL    HW244514   2.575   3.819   7.948
10680SOL     OW44515   3.230   3.124   8.732
10680SOL    HW144516   3.166   3.049   8.720
10680SOL    HW244517   3.182   3.204   8.767
10681SOL     OW44518   3.647   6.434   7.804
10681SOL    HW144519   3.721   6.372   7.778
10681SOL    HW244520   3.573   6.428   7.737
10682SOL     OW44521   7.212   1.524   7.458
10682SOL    HW144522   7.296   1.509   7.511
10682SOL    HW244523   7.181   1.618   7.473
10683SOL     OW44524   4.361   3.172   7.888
10683SOL    HW144525   4.330   3.248   7.945
10683SOL    HW244526   4.455   3.148   7.914
10684SOL     OW44527   4.032   2.578   7.884
10684SOL    HW144528   4.023   2.660   7.828
10684SOL    HW244529   3.941   2.547   7.913
10685SOL     OW44530   3.453   6.604   7.918
10685SOL    HW144531   3.514   6.533   7.884
10685SOL    HW244532   3.418   6.579   8.008
10686SOL     OW44533   0.830   1.408   7.549
10686SOL    HW144534   0.791   1.481   7.605
10686SOL    HW244535   0.768   1.330   7.548
10687SOL     OW44536   3.810   6.188   8.104
10687SOL    HW144537   3.808   6.089   8.116
10687SOL    HW244538   3.718   6.225   8.111
10688SOL     OW44539   4.944   4.954   8.339
10688SOL    HW144540   4.862   4.994   8.299
10688SOL    HW244541   5.023   5.013   8.321
10689SOL     OW44542   2.482   4.352   9.104
10689SOL    HW144543   2.419   4.415   9.059
10689SOL    HW244544   2.545   4.314   9.036
10690SOL     OW44545   5.252   1.311   7.499
10690SOL    HW144546   5.243   1.353   7.409
10690SOL    HW244547   5.165   1.319   7.548
10691SOL     OW44548   6.516   0.284   9.040
10691SOL    HW144549   6.527   0.372   9.085
10691SOL    HW244550   6.525   0.295   8.941
10692SOL     OW44551   0.245   0.528   7.537
10692SOL    HW144552   0.169   0.464   7.527
10692SOL    HW244553   0.230   0.586   7.617
10693SOL     OW44554   0.971   2.887   7.488
10693SOL    HW144555   1.053   2.880   7.431
10693SOL    HW244556   0.891   2.902   7.430
10694SOL     OW44557   6.710   5.619   8.611
10694SOL    HW144558   6.625   5.599   8.659
10694SOL    HW244559   6.768   5.678   8.667
10695SOL     OW44560   4.134   1.740   7.446
10695SOL    HW144561   4.231   1.718   7.456
10695SOL    HW244562   4.083   1.658   7.418
10696SOL     OW44563   4.073   5.351   7.849
10696SOL    HW144564   4.127   5.356   7.765
10696SOL    HW244565   4.071   5.257   7.882
10697SOL     OW44566   5.571   2.498   8.179
10697SOL    HW144567   5.546   2.494   8.276
10697SOL    HW244568   5.574   2.594   8.150
10698SOL     OW44569   5.431   1.165   7.838
10698SOL    HW144570   5.354   1.230   7.828
10698SOL    HW244571   5.515   1.208   7.804
10699SOL     OW44572   4.176   3.549   8.529
10699SOL    HW144573   4.172   3.451   8.548
10699SOL    HW244574   4.094   3.593   8.565
10700SOL     OW44575   2.824   2.964   7.743
10700SOL    HW144576   2.875   2.936   7.661
10700SOL    HW244577   2.845   2.900   7.818
10701SOL     OW44578   1.650   5.260   7.879
10701SOL    HW144579   1.720   5.255   7.808
10701SOL    HW244580   1.589   5.338   7.861
10702SOL     OW44581   6.759   2.725   8.871
10702SOL    HW144582   6.835   2.689   8.817
10702SOL    HW244583   6.682   2.662   8.866
10703SOL     OW44584   1.339   4.648   8.651
10703SOL    HW144585   1.303   4.692   8.733
10703SOL    HW244586   1.417   4.589   8.675
10704SOL     OW44587   4.285   1.500   7.900
10704SOL    HW144588   4.299   1.571   7.831
10704SOL    HW244589   4.187   1.477   7.905
10705SOL     OW44590   5.618   2.140   8.785
10705SOL    HW144591   5.648   2.123   8.879
10705SOL    HW244592   5.671   2.082   8.722
10706SOL     OW44593   3.780   0.752   8.201
10706SOL    HW144594   3.873   0.742   8.237
10706SOL    HW244595   3.778   0.722   8.106
10707SOL     OW44596   4.926   2.976   8.372
10707SOL    HW144597   4.848   3.039   8.378
10707SOL    HW244598   4.963   2.978   8.279
10708SOL     OW44599   1.938   0.408   7.978
10708SOL    HW144600   1.964   0.314   7.956
10708SOL    HW244601   1.883   0.408   8.062
10709SOL     OW44602   2.583   2.487   8.425
10709SOL    HW144603   2.569   2.585   8.413
10709SOL    HW244604   2.528   2.454   8.502
10710SOL     OW44605   0.742   5.443   7.803
10710SOL    HW144606   0.784   5.465   7.891
10710SOL    HW244607   0.768   5.350   7.776
10711SOL     OW44608   5.685   5.292   8.121
10711SOL    HW144609   5.749   5.269   8.195
10711SOL    HW244610   5.729   5.275   8.033
10712SOL     OW44611   1.257   2.424   7.712
10712SOL    HW144612   1.188   2.484   7.670
10712SOL    HW244613   1.271   2.344   7.654
10713SOL     OW44614   4.901   3.697   8.354
10713SOL    HW144615   4.981   3.637   8.344
10713SOL    HW244616   4.894   3.756   8.274
10714SOL     OW44617   3.156   0.590   7.456
10714SOL    HW144618   3.077   0.631   7.411
10714SOL    HW244619   3.128   0.505   7.501
10715SOL     OW44620   3.344   3.923   7.700
10715SOL    HW144621   3.444   3.919   7.698
10715SOL    HW244622   3.315   3.991   7.768
10716SOL     OW44623   4.347   1.325   8.105
10716SOL    HW144624   4.289   1.364   8.033
10716SOL    HW244625   4.356   1.391   8.180
10717SOL     OW44626   0.968   3.745   8.415
10717SOL    HW144627   0.947   3.783   8.325
10717SOL    HW244628   1.013   3.814   8.470
10718SOL     OW44629   0.727   4.484   7.841
10718SOL    HW144630   0.785   4.452   7.915
10718SOL    HW244631   0.776   4.552   7.787
10719SOL     OW44632   0.546   4.643   8.416
10719SOL    HW144633   0.477   4.584   8.458
10719SOL    HW244634   0.529   4.738   8.442
10720SOL     OW44635   2.626   3.624   7.886
10720SOL    HW144636   2.700   3.570   7.846
10720SOL    HW244637   2.541   3.604   7.839
10721SOL     OW44638   2.611   0.078   7.883
10721SOL    HW144639   2.514   0.064   7.899
10721SOL    HW244640   2.651   0.124   7.962
10722SOL     OW44641   0.028   0.920   8.633
10722SOL    HW144642   0.017   1.017   8.612
10722SOL    HW244643  -0.048   0.869   8.594
10723SOL     OW44644   6.137   5.816   7.508
10723SOL    HW144645   6.204   5.769   7.565
10723SOL    HW244646   6.072   5.749   7.471
10724SOL     OW44647   4.268   2.448   7.443
10724SOL    HW144648   4.352   2.501   7.429
10724SOL    HW244649   4.282   2.355   7.411
10725SOL     OW44650   2.929   6.380   7.434
10725SOL    HW144651   2.839   6.422   7.427
10725SOL    HW244652   2.999   6.452   7.440
10726SOL     OW44653   3.143   5.365   7.763
10726SOL    HW144654   3.156   5.275   7.721
10726SOL    HW244655   3.233   5.407   7.780
10727SOL     OW44656   6.461   0.823   7.927
10727SOL    HW144657   6.452   0.834   8.026
10727SOL    HW244658   6.556   0.841   7.900
10728SOL     OW44659   0.202   2.179   8.773
10728SOL    HW144660   0.107   2.189   8.744
10728SOL    HW244661   0.241   2.097   8.730
10729SOL     OW44662   3.136   0.421   8.497
10729SOL    HW144663   3.229   0.448   8.522
10729SOL    HW244664   3.139   0.365   8.414
10730SOL     OW44665   6.362   6.223   8.460
10730SOL    HW144666   6.431   6.279   8.506
10730SOL    HW244667   6.343   6.262   8.369
10731SOL     OW44668   0.136   3.025   7.446
10731SOL    HW144669   0.100   2.933   7.456
10731SOL    HW244670   0.064   3.092   7.465
10732SOL     OW44671   7.285   0.915   9.177
10732SOL    HW144672   7.209   0.860   9.142
10732SOL    HW244673   7.255   1.009   9.192
10733SOL     OW44674   4.429   4.250   8.055
10733SOL    HW144675   4.331   4.267   8.063
10733SOL    HW244676   4.457   4.182   8.123
10734SOL     OW44677   2.657   4.857   8.342
10734SOL    HW144678   2.602   4.935   8.312
10734SOL    HW244679   2.745   4.890   8.377
10735SOL     OW44680   4.994   3.026   8.115
10735SOL    HW144681   4.923   3.095   8.104
10735SOL    HW244682   5.006   2.976   8.029
10736SOL     OW44683   6.316   4.212   8.868
10736SOL    HW144684   6.416   4.206   8.869
10736SOL    HW244685   6.280   4.181   8.955
10737SOL     OW44686   7.157   1.269   7.473
10737SOL    HW144687   7.174   1.367   7.459
10737SOL    HW244688   7.240   1.217   7.453
10738SOL     OW44689   3.595   6.662   7.412
10738SOL    HW144690   3.677   6.612   7.441
10738SOL    HW244691   3.516   6.600   7.414
10739SOL     OW44692   1.154   4.368   8.601
10739SOL    HW144693   1.227   4.310   8.563
10739SOL    HW244694   1.182   4.464   8.596
10740SOL     OW44695   6.536   5.685   7.914
10740SOL    HW144696   6.528   5.685   7.815
10740SOL    HW244697   6.574   5.597   7.945
10741SOL     OW44698   2.613   4.971   8.645
10741SOL    HW144699   2.712   4.981   8.651
10741SOL    HW244700   2.590   4.883   8.603
10742SOL     OW44701   2.294   6.156   7.976
10742SOL    HW144702   2.317   6.190   8.067
10742SOL    HW244703   2.202   6.116   7.978
10743SOL     OW44704   6.535   1.404   9.164
10743SOL    HW144705   6.552   1.381   9.068
10743SOL    HW244706   6.505   1.499   9.170
10744SOL     OW44707   5.588   4.785   7.927
10744SOL    HW144708   5.649   4.712   7.959
10744SOL    HW244709   5.553   4.760   7.836
10745SOL     OW44710   2.123   5.039   7.448
10745SOL    HW144711   2.175   4.986   7.515
10745SOL    HW244712   2.125   5.136   7.474
10746SOL     OW44713   0.428   5.320   8.139
10746SOL    HW144714   0.392   5.408   8.110
10746SOL    HW244715   0.511   5.300   8.087
10747SOL     OW44716   1.910   5.238   7.688
10747SOL    HW144717   1.998   5.246   7.641
10747SOL    HW244718   1.860   5.324   7.679
10748SOL     OW44719   2.860   7.297   7.381
10748SOL    HW144720   2.821   7.222   7.327
10748SOL    HW244721   2.878   7.265   7.474
10749SOL     OW44722   6.885   4.519   8.857
10749SOL    HW144723   6.911   4.553   8.947
10749SOL    HW244724   6.846   4.594   8.803
10750SOL     OW44725   4.283   4.340   8.787
10750SOL    HW144726   4.333   4.365   8.870
10750SOL    HW244727   4.330   4.379   8.708
10751SOL     OW44728   2.493   4.106   8.549
10751SOL    HW144729   2.455   4.124   8.458
10751SOL    HW244730   2.420   4.080   8.611
10752SOL     OW44731   1.339   2.725   8.441
10752SOL    HW144732   1.359   2.749   8.346
10752SOL    HW244733   1.423   2.693   8.485
10753SOL     OW44734   5.911   5.504   8.444
10753SOL    HW144735   5.912   5.572   8.371
10753SOL    HW244736   5.915   5.412   8.404
10754SOL     OW44737   2.991   5.892   8.752
10754SOL    HW144738   2.903   5.935   8.732
10754SOL    HW244739   2.984   5.840   8.837
10755SOL     OW44740   6.123   4.092   7.957
10755SOL    HW144741   6.213   4.135   7.951
10755SOL    HW244742   6.123   4.006   7.906
10756SOL     OW44743   7.019   0.512   7.947
10756SOL    HW144744   7.017   0.414   7.924
10756SOL    HW244745   7.044   0.523   8.043
10757SOL     OW44746   0.832   5.552   8.982
10757SOL    HW144747   0.903   5.605   8.937
10757SOL    HW244748   0.748   5.605   8.987
10758SOL     OW44749   3.505   2.364   8.377
10758SOL    HW144750   3.444   2.442   8.360
10758SOL    HW244751   3.541   2.370   8.470
10759SOL     OW44752   7.144   6.638   8.779
10759SOL    HW144753   7.068   6.699   8.802
10759SOL    HW244754   7.210   6.686   8.722
10760SOL     OW44755   3.172   6.206   7.903
10760SOL    HW144756   3.263   6.165   7.905
10760SOL    HW244757   3.113   6.160   7.969
10761SOL     OW44758   4.348   1.419   8.802
10761SOL    HW144759   4.341   1.320   8.792
10761SOL    HW244760   4.323   1.445   8.895
10762SOL     OW44761   1.178   0.731   8.827
10762SOL    HW144762   1.110   0.687   8.770
10762SOL    HW244763   1.165   0.702   8.922
10763SOL     OW44764   4.155   1.351   8.509
10763SOL    HW144765   4.088   1.279   8.487
10763SOL    HW244766   4.245   1.310   8.520
10764SOL     OW44767   5.481   2.931   7.822
10764SOL    HW144768   5.539   3.009   7.799
10764SOL    HW244769   5.409   2.921   7.753
10765SOL     OW44770   0.846   0.358   8.764
10765SOL    HW144771   0.755   0.345   8.804
10765SOL    HW244772   0.851   0.309   8.677
10766SOL     OW44773   5.766   2.719   8.354
10766SOL    HW144774   5.715   2.748   8.272
10766SOL    HW244775   5.792   2.799   8.407
10767SOL     OW44776   2.610   1.700   7.394
10767SOL    HW144777   2.698   1.715   7.438
10767SOL    HW244778   2.544   1.665   7.460
10768SOL     OW44779   4.091   3.919   7.840
10768SOL    HW144780   4.097   3.824   7.809
10768SOL    HW244781   4.001   3.936   7.880
10769SOL     OW44782   3.539   3.608   7.899
10769SOL    HW144783   3.626   3.636   7.941
10769SOL    HW244784   3.533   3.508   7.899
10770SOL     OW44785   5.496   6.019   8.818
10770SOL    HW144786   5.437   6.097   8.840
10770SOL    HW244787   5.466   5.978   8.732
10771SOL     OW44788   4.695   3.887   7.519
10771SOL    HW144789   4.774   3.934   7.558
10771SOL    HW244790   4.706   3.879   7.420
10772SOL     OW44791   3.100   2.327   7.987
10772SOL    HW144792   3.173   2.323   8.056
10772SOL    HW244793   3.043   2.407   8.004
10773SOL     OW44794   0.444   1.600   7.834
10773SOL    HW144795   0.398   1.664   7.773
10773SOL    HW244796   0.412   1.507   7.815
10774SOL     OW44797   3.624   5.567   8.682
10774SOL    HW144798   3.627   5.583   8.781
10774SOL    HW244799   3.700   5.508   8.656
10775SOL     OW44800   6.245   0.042   7.843
10775SOL    HW144801   6.315   0.095   7.796
10775SOL    HW244802   6.169   0.022   7.781
10776SOL     OW44803   2.244   4.285   8.437
10776SOL    HW144804   2.194   4.352   8.493
10776SOL    HW244805   2.340   4.312   8.431
10777SOL     OW44806   2.360   2.156   8.492
10777SOL    HW144807   2.269   2.147   8.452
10777SOL    HW244808   2.429   2.121   8.429
10778SOL     OW44809   4.628   0.090   7.670
10778SOL    HW144810   4.552   0.074   7.607
10778SOL    HW244811   4.675   0.174   7.644
10779SOL     OW44812   4.513   3.837   7.972
10779SOL    HW144813   4.561   3.772   7.913
10779SOL    HW244814   4.580   3.891   8.024
10780SOL     OW44815   6.175   0.635   8.330
10780SOL    HW144816   6.163   0.586   8.243
10780SOL    HW244817   6.136   0.580   8.404
10781SOL     OW44818   3.711   3.590   8.377
10781SOL    HW144819   3.700   3.687   8.398
10781SOL    HW244820   3.701   3.536   8.461
10782SOL     OW44821   0.358   3.901   8.117
10782SOL    HW144822   0.331   3.985   8.164
10782SOL    HW244823   0.292   3.829   8.137
10783SOL     OW44824   1.224   5.354   7.433
10783SOL    HW144825   1.261   5.441   7.402
10783SOL    HW244826   1.266   5.330   7.521
10784SOL     OW44827   6.196   1.667   8.781
10784SOL    HW144828   6.149   1.747   8.817
10784SOL    HW244829   6.129   1.599   8.751
10785SOL     OW44830   3.321   6.560   8.164
10785SOL    HW144831   3.262   6.552   8.244
10785SOL    HW244832   3.400   6.618   8.186
10786SOL     OW44833   7.186   0.746   8.604
10786SOL    HW144834   7.106   0.799   8.632
10786SOL    HW244835   7.225   0.700   8.684
10787SOL     OW44836   1.742   0.803   8.024
10787SOL    HW144837   1.740   0.839   7.931
10787SOL    HW244838   1.822   0.838   8.072
10788SOL     OW44839   0.356   4.886   8.751
10788SOL    HW144840   0.295   4.942   8.807
10788SOL    HW244841   0.302   4.819   8.700
10789SOL     OW44842   5.710   1.986   8.569
10789SOL    HW144843   5.741   1.934   8.649
10789SOL    HW244844   5.634   1.938   8.525
10790SOL     OW44845   2.853   5.472   8.390
10790SOL    HW144846   2.891   5.553   8.346
10790SOL    HW244847   2.833   5.493   8.486
10791SOL     OW44848   4.980   7.245   8.802
10791SOL    HW144849   5.006   7.253   8.706
10791SOL    HW244850   4.903   7.181   8.810
10792SOL     OW44851   2.269   0.079   8.515
10792SOL    HW144852   2.284   0.174   8.540
10792SOL    HW244853   2.348   0.046   8.462
10793SOL     OW44854   0.845   6.065   7.715
10793SOL    HW144855   0.903   6.130   7.667
10793SOL    HW244856   0.792   6.012   7.649
10794SOL     OW44857   0.811   0.065   9.049
10794SOL    HW144858   0.840  -0.018   9.096
10794SOL    HW244859   0.883   0.135   9.055
10795SOL     OW44860   5.385   3.808   7.420
10795SOL    HW144861   5.308   3.784   7.361
10795SOL    HW244862   5.449   3.866   7.369
10796SOL     OW44863   0.582   0.281   8.827
10796SOL    HW144864   0.494   0.322   8.849
10796SOL    HW244865   0.568   0.189   8.790
10797SOL     OW44866   2.945   3.587   8.293
10797SOL    HW144867   2.990   3.658   8.239
10797SOL    HW244868   2.857   3.565   8.252
10798SOL     OW44869   3.435   6.148   7.915
10798SOL    HW144870   3.511   6.120   7.856
10798SOL    HW244871   3.427   6.083   7.991
10799SOL     OW44872   5.504   2.723   8.704
10799SOL    HW144873   5.444   2.706   8.783
10799SOL    HW244874   5.599   2.708   8.731
10800SOL     OW44875   6.817   2.129   8.503
10800SOL    HW144876   6.761   2.182   8.566
10800SOL    HW244877   6.806   2.163   8.410
10801SOL     OW44878   6.414   5.049   7.914
10801SOL    HW144879   6.397   5.012   7.822
10801SOL    HW244880   6.506   5.087   7.917
10802SOL     OW44881   5.906   1.837   8.653
10802SOL    HW144882   5.883   1.748   8.614
10802SOL    HW244883   5.973   1.826   8.726
10803SOL     OW44884   6.294   2.864   7.824
10803SOL    HW144885   6.246   2.861   7.912
10803SOL    HW244886   6.376   2.808   7.829
10804SOL     OW44887   3.110   3.519   7.921
10804SOL    HW144888   3.144   3.576   7.847
10804SOL    HW244889   3.172   3.525   7.999
10805SOL     OW44890   1.748   4.744   7.814
10805SOL    HW144891   1.805   4.826   7.812
10805SOL    HW244892   1.727   4.720   7.909
10806SOL     OW44893   6.058   4.497   8.185
10806SOL    HW144894   6.041   4.399   8.186
10806SOL    HW244895   5.972   4.546   8.200
10807SOL     OW44896   5.864   3.088   8.940
10807SOL    HW144897   5.922   3.033   9.000
10807SOL    HW244898   5.810   3.028   8.882
10808SOL     OW44899   7.019   3.256   7.572
10808SOL    HW144900   7.052   3.289   7.661
10808SOL    HW244901   6.925   3.286   7.558
10809SOL     OW44902   1.395   4.581   7.888
10809SOL    HW144903   1.391   4.617   7.795
10809SOL    HW244904   1.336   4.635   7.948
10810SOL     OW44905   3.508   1.712   8.691
10810SOL    HW144906   3.477   1.766   8.612
10810SOL    HW244907   3.443   1.723   8.766
10811SOL     OW44908   3.785   1.054   7.601
10811SOL    HW144909   3.819   1.119   7.532
10811SOL    HW244910   3.820   0.963   7.582
10812SOL     OW44911   4.448   6.415   8.228
10812SOL    HW144912   4.469   6.485   8.297
10812SOL    HW244913   4.382   6.350   8.266
10813SOL     OW44914   0.007   1.153   8.270
10813SOL    HW144915   0.021   1.222   8.342
10813SOL    HW244916  -0.055   1.189   8.201
10814SOL     OW44917   3.218   2.624   8.273
10814SOL    HW144918   3.312   2.598   8.249
10814SOL    HW244919   3.204   2.720   8.249
10815SOL     OW44920   4.121   1.648   8.520
10815SOL    HW144921   4.158   1.559   8.492
10815SOL    HW244922   4.177   1.687   8.592
10816SOL     OW44923   2.080   1.813   8.588
10816SOL    HW144924   2.076   1.718   8.557
10816SOL    HW244925   2.175   1.843   8.589
10817SOL     OW44926   6.592   4.495   8.925
10817SOL    HW144927   6.671   4.556   8.916
10817SOL    HW244928   6.513   4.538   8.882
10818SOL     OW44929   5.258   5.657   8.128
10818SOL    HW144930   5.310   5.586   8.176
10818SOL    HW244931   5.206   5.616   8.053
10819SOL     OW44932   3.133   2.445   9.293
10819SOL    HW144933   3.170   2.509   9.225
10819SOL    HW244934   3.135   2.488   9.383
10820SOL     OW44935   2.112   1.934   7.878
10820SOL    HW144936   2.171   1.857   7.904
10820SOL    HW244937   2.102   1.996   7.956
10821SOL     OW44938   0.275   2.194   7.598
10821SOL    HW144939   0.352   2.161   7.653
10821SOL    HW244940   0.310   2.250   7.522
10822SOL     OW44941   2.433   1.301   7.764
10822SOL    HW144942   2.467   1.274   7.674
10822SOL    HW244943   2.470   1.239   7.834
10823SOL     OW44944   3.284   3.336   8.481
10823SOL    HW144945   3.250   3.247   8.449
10823SOL    HW244946   3.206   3.397   8.497
10824SOL     OW44947   3.478   3.332   7.915
10824SOL    HW144948   3.501   3.275   7.836
10824SOL    HW244949   3.517   3.292   7.998
10825SOL     OW44950   1.514   0.829   7.373
10825SOL    HW144951   1.448   0.782   7.433
10825SOL    HW244952   1.548   0.911   7.419
10826SOL     OW44953   3.847   3.390   7.683
10826SOL    HW144954   3.882   3.319   7.622
10826SOL    HW244955   3.794   3.456   7.631
10827SOL     OW44956   7.217   5.285   8.058
10827SOL    HW144957   7.295   5.228   8.084
10827SOL    HW244958   7.220   5.372   8.107
10828SOL     OW44959   0.034   2.963   8.883
10828SOL    HW144960  -0.038   2.943   8.950
10828SOL    HW244961   0.064   3.058   8.893
10829SOL     OW44962   1.666   6.948   7.707
10829SOL    HW144963   1.727   6.921   7.633
10829SOL    HW244964   1.668   6.879   7.780
10830SOL     OW44965   1.007   3.971   8.731
10830SOL    HW144966   1.086   3.951   8.673
10830SOL    HW244967   1.010   4.066   8.760
10831SOL     OW44968   6.055   1.185   7.455
10831SOL    HW144969   5.980   1.154   7.513
10831SOL    HW244970   6.118   1.241   7.509
10832SOL     OW44971   4.714   3.182   8.531
10832SOL    HW144972   4.635   3.207   8.588
10832SOL    HW244973   4.766   3.264   8.508
10833SOL     OW44974   4.419   3.570   7.548
10833SOL    HW144975   4.465   3.540   7.464
10833SOL    HW244976   4.426   3.498   7.617
10834SOL     OW44977   1.895   1.076   8.645
10834SOL    HW144978   1.813   1.130   8.625
10834SOL    HW244979   1.892   0.991   8.593
10835SOL     OW44980   0.287   0.115   7.570
10835SOL    HW144981   0.239   0.072   7.646
10835SOL    HW244982   0.220   0.160   7.510
10836SOL     OW44983   2.814   2.320   7.916
10836SOL    HW144984   2.764   2.262   7.850
10836SOL    HW244985   2.751   2.384   7.958
10837SOL     OW44986   4.745   0.547   7.456
10837SOL    HW144987   4.675   0.496   7.505
10837SOL    HW244988   4.727   0.543   7.358
10838SOL     OW44989   2.056   5.689   7.598
10838SOL    HW144990   2.039   5.746   7.517
10838SOL    HW244991   2.140   5.719   7.643
10839SOL     OW44992   4.090   0.076   8.665
10839SOL    HW144993   4.150   0.058   8.586
10839SOL    HW244994   4.141   0.128   8.733
10840SOL     OW44995   6.994   7.122   7.751
10840SOL    HW144996   6.916   7.077   7.708
10840SOL    HW244997   7.062   7.054   7.776
10841SOL     OW44998   3.934   1.912   8.735
10841SOL    HW144999   3.908   1.822   8.770
10841SOL    HW245000   4.024   1.937   8.771
10842SOL     OW45001   5.530   1.006   8.867
10842SOL    HW145002   5.608   0.992   8.805
10842SOL    HW245003   5.492   0.918   8.894
10843SOL     OW45004   1.082   3.282   8.122
10843SOL    HW145005   1.106   3.185   8.133
10843SOL    HW245006   1.048   3.318   8.209
10844SOL     OW45007   4.001   0.438   7.874
10844SOL    HW145008   4.011   0.375   7.798
10844SOL    HW245009   3.904   0.448   7.897
10845SOL     OW45010   0.505   7.258   7.648
10845SOL    HW145011   0.555   7.255   7.561
10845SOL    HW245012   0.448   7.340   7.651
10846SOL     OW45013   3.040   3.358   8.818
10846SOL    HW145014   3.090   3.376   8.733
10846SOL    HW245015   3.040   3.440   8.875
10847SOL     OW45016   7.356   4.508   7.877
10847SOL    HW145017   7.386   4.585   7.934
10847SOL    HW245018   7.267   4.475   7.908
10848SOL     OW45019   2.467   5.845   7.409
10848SOL    HW145020   2.547   5.802   7.368
10848SOL    HW245021   2.385   5.820   7.358
10849SOL     OW45022   1.537   6.584   7.693
10849SOL    HW145023   1.580   6.610   7.607
10849SOL    HW245024   1.572   6.642   7.767
10850SOL     OW45025   7.249   0.675   8.100
10850SOL    HW145026   7.280   0.648   8.008
10850SOL    HW245027   7.251   0.774   8.108
10851SOL     OW45028   3.144   3.047   7.715
10851SOL    HW145029   3.207   3.089   7.781
10851SOL    HW245030   3.105   3.117   7.657
10852SOL     OW45031   2.528   2.118   7.472
10852SOL    HW145032   2.474   2.191   7.430
10852SOL    HW245033   2.468   2.041   7.496
10853SOL     OW45034   0.528   4.025   7.543
10853SOL    HW145035   0.500   4.077   7.624
10853SOL    HW245036   0.570   3.939   7.571
10854SOL     OW45037   0.114   2.230   7.991
10854SOL    HW145038   0.069   2.312   8.024
10854SOL    HW245039   0.213   2.238   8.006
10855SOL     OW45040   1.358   1.503   7.764
10855SOL    HW145041   1.268   1.460   7.764
10855SOL    HW245042   1.424   1.442   7.808
10856SOL     OW45043   3.666   2.190   8.957
10856SOL    HW145044   3.604   2.227   8.887
10856SOL    HW245045   3.760   2.193   8.923
10857SOL     OW45046   2.223   2.642   8.998
10857SOL    HW145047   2.319   2.626   9.019
10857SOL    HW245048   2.215   2.670   8.902
10858SOL     OW45049   5.409   5.023   7.813
10858SOL    HW145050   5.390   4.943   7.869
10858SOL    HW245051   5.341   5.094   7.832
10859SOL     OW45052   5.116   3.519   8.308
10859SOL    HW145053   5.096   3.427   8.341
10859SOL    HW245054   5.158   3.513   8.217
10860SOL     OW45055   0.654   7.286   8.367
10860SOL    HW145056   0.635   7.382   8.388
10860SOL    HW245057   0.606   7.228   8.433
10861SOL     OW45058   5.885   4.696   7.974
10861SOL    HW145059   5.872   4.793   7.957
10861SOL    HW245060   5.975   4.681   8.015
10862SOL     OW45061   2.628   1.455   8.884
10862SOL    HW145062   2.632   1.393   8.962
10862SOL    HW245063   2.611   1.548   8.915
10863SOL     OW45064   3.357   4.880   7.360
10863SOL    HW145065   3.391   4.922   7.444
10863SOL    HW245066   3.376   4.781   7.362
10864SOL     OW45067   2.934   3.557   7.492
10864SOL    HW145068   3.028   3.529   7.512
10864SOL    HW245069   2.870   3.494   7.537
10865SOL     OW45070   1.679   1.339   7.592
10865SOL    HW145071   1.659   1.275   7.667
10865SOL    HW245072   1.773   1.371   7.600
10866SOL     OW45073   3.730   6.421   7.480
10866SOL    HW145074   3.642   6.384   7.510
10866SOL    HW245075   3.800   6.397   7.547
10867SOL     OW45076   2.584   4.006   7.508
10867SOL    HW145077   2.496   4.046   7.532
10867SOL    HW245078   2.627   4.061   7.436
10868SOL     OW45079   4.030   3.147   7.543
10868SOL    HW145080   4.015   3.059   7.588
10868SOL    HW245081   4.093   3.202   7.597
10869SOL     OW45082   0.382   3.763   8.454
10869SOL    HW145083   0.319   3.704   8.404
10869SOL    HW245084   0.461   3.784   8.396
10870SOL     OW45085   6.352   5.846   8.910
10870SOL    HW145086   6.337   5.922   8.847
10870SOL    HW245087   6.334   5.875   9.004
10871SOL     OW45088   0.648   2.238   8.103
10871SOL    HW145089   0.632   2.306   8.032
10871SOL    HW245090   0.732   2.188   8.083
10872SOL     OW45091   4.359   0.290   7.916
10872SOL    HW145092   4.308   0.259   7.836
10872SOL    HW245093   4.447   0.242   7.920
10873SOL     OW45094   3.383   6.257   8.702
10873SOL    HW145095   3.462   6.199   8.721
10873SOL    HW245096   3.319   6.252   8.779
10874SOL     OW45097   1.297   2.180   7.538
10874SOL    HW145098   1.231   2.189   7.464
10874SOL    HW245099   1.296   2.087   7.573
10875SOL     OW45100   5.147   2.913   7.428
10875SOL    HW145101   5.225   2.927   7.368
10875SOL    HW245102   5.079   2.985   7.414
10876SOL     OW45103   1.203   3.554   7.386
10876SOL    HW145104   1.282   3.536   7.327
10876SOL    HW245105   1.119   3.535   7.335
10877SOL     OW45106   0.665   1.435   8.780
10877SOL    HW145107   0.600   1.442   8.705
10877SOL    HW245108   0.626   1.475   8.863
10878SOL     OW45109   4.227   6.300   8.354
10878SOL    HW145110   4.177   6.308   8.267
10878SOL    HW245111   4.214   6.208   8.391
10879SOL     OW45112   1.209   5.931   8.248
10879SOL    HW145113   1.163   5.979   8.173
10879SOL    HW245114   1.300   5.970   8.261
10880SOL     OW45115   0.571   5.037   8.675
10880SOL    HW145116   0.551   5.132   8.702
10880SOL    HW245117   0.496   4.978   8.703
10881SOL     OW45118   0.455   1.410   8.584
10881SOL    HW145119   0.392   1.344   8.545
10881SOL    HW245120   0.533   1.422   8.523
10882SOL     OW45121   2.258   4.774   7.945
10882SOL    HW145122   2.222   4.695   7.993
10882SOL    HW245123   2.355   4.760   7.926
10883SOL     OW45124   5.694   4.782   8.272
10883SOL    HW145125   5.631   4.852   8.240
10883SOL    HW245126   5.749   4.819   8.347
10884SOL     OW45127   0.749   2.317   7.404
10884SOL    HW145128   0.834   2.274   7.436
10884SOL    HW245129   0.713   2.376   7.476
10885SOL     OW45130   5.879   1.433   9.305
10885SOL    HW145131   5.888   1.532   9.321
10885SOL    HW245132   5.811   1.418   9.233
10886SOL     OW45133   4.711   5.485   8.910
10886SOL    HW145134   4.772   5.406   8.902
10886SOL    HW245135   4.621   5.461   8.875
10887SOL     OW45136   4.630   0.618   8.753
10887SOL    HW145137   4.649   0.687   8.823
10887SOL    HW245138   4.612   0.663   8.666
10888SOL     OW45139   5.922   6.856   7.439
10888SOL    HW145140   5.874   6.793   7.378
10888SOL    HW245141   5.963   6.804   7.514
10889SOL     OW45142   0.580   5.215   7.945
10889SOL    HW145143   0.661   5.195   7.889
10889SOL    HW245144   0.501   5.227   7.886
10890SOL     OW45145   3.619   1.505   7.497
10890SOL    HW145146   3.536   1.519   7.443
10890SOL    HW245147   3.629   1.580   7.563
10891SOL     OW45148   3.892   0.912   8.552
10891SOL    HW145149   3.796   0.886   8.559
10891SOL    HW245150   3.947   0.833   8.525
10892SOL     OW45151   4.253   0.214   8.814
10892SOL    HW145152   4.253   0.183   8.910
10892SOL    HW245153   4.289   0.307   8.809
10893SOL     OW45154   7.012   2.240   7.985
10893SOL    HW145155   7.029   2.186   7.902
10893SOL    HW245156   6.970   2.327   7.960
10894SOL     OW45157   4.123   4.348   8.061
10894SOL    HW145158   4.134   4.272   8.124
10894SOL    HW245159   4.063   4.321   7.986
10895SOL     OW45160   3.280   2.377   8.906
10895SOL    HW145161   3.238   2.327   8.982
10895SOL    HW245162   3.225   2.364   8.823
10896SOL     OW45163   2.998   5.535   7.381
10896SOL    HW145164   3.014   5.629   7.353
10896SOL    HW245165   2.993   5.475   7.301
10897SOL     OW45166   0.202   3.557   8.024
10897SOL    HW145167   0.163   3.640   8.063
10897SOL    HW245168   0.226   3.494   8.098
10898SOL     OW45169   0.361   2.397   7.375
10898SOL    HW145170   0.262   2.381   7.384
10898SOL    HW245171   0.377   2.489   7.340
10899SOL     OW45172   6.117   2.188   7.465
10899SOL    HW145173   6.077   2.274   7.435
10899SOL    HW245174   6.214   2.187   7.442
10900SOL     OW45175   2.059   1.262   8.775
10900SOL    HW145176   2.005   1.332   8.728
10900SOL    HW245177   2.024   1.171   8.750
10901SOL     OW45178   4.269   4.000   8.072
10901SOL    HW145179   4.349   4.039   8.027
10901SOL    HW245180   4.209   3.959   8.004
10902SOL     OW45181   3.669   5.820   7.645
10902SOL    HW145182   3.768   5.809   7.650
10902SOL    HW245183   3.624   5.746   7.696
10903SOL     OW45184   5.891   1.132   8.241
10903SOL    HW145185   5.913   1.048   8.290
10903SOL    HW245186   5.974   1.184   8.224
10904SOL     OW45187   1.512   2.169   8.917
10904SOL    HW145188   1.582   2.186   8.987
10904SOL    HW245189   1.436   2.232   8.931
10905SOL     OW45190   5.408   4.867   7.495
10905SOL    HW145191   5.433   4.814   7.576
10905SOL    HW245192   5.491   4.890   7.444
10906SOL     OW45193   2.947   2.576   8.073
10906SOL    HW145194   2.978   2.616   7.986
10906SOL    HW245195   2.991   2.624   8.149
10907SOL     OW45196   5.127   1.757   8.718
10907SOL    HW145197   5.114   1.732   8.814
10907SOL    HW245198   5.123   1.856   8.708
10908SOL     OW45199   6.364   4.192   7.944
10908SOL    HW145200   6.437   4.124   7.935
10908SOL    HW245201   6.364   4.229   8.036
10909SOL     OW45202   0.566   0.160   8.056
10909SOL    HW145203   0.560   0.259   8.039
10909SOL    HW245204   0.490   0.133   8.115
10910SOL     OW45205   5.352   7.206   7.866
10910SOL    HW145206   5.437   7.164   7.835
10910SOL    HW245207   5.330   7.284   7.808
10911SOL     OW45208   6.625   4.137   8.413
10911SOL    HW145209   6.713   4.157   8.370
10911SOL    HW245210   6.629   4.045   8.453
10912SOL     OW45211   1.049   0.914   8.124
10912SOL    HW145212   1.018   1.008   8.115
10912SOL    HW245213   0.972   0.852   8.111
10913SOL     OW45214   5.959   3.201   8.563
10913SOL    HW145215   5.880   3.251   8.599
10913SOL    HW245216   6.034   3.204   8.629
10914SOL     OW45217   6.636   6.784   8.342
10914SOL    HW145218   6.576   6.728   8.286
10914SOL    HW245219   6.730   6.777   8.307
10915SOL     OW45220   4.938   5.378   8.085
10915SOL    HW145221   5.020   5.428   8.057
10915SOL    HW245222   4.944   5.284   8.054
10916SOL     OW45223   3.844   1.212   7.832
10916SOL    HW145224   3.753   1.247   7.858
10916SOL    HW245225   3.833   1.123   7.787
10917SOL     OW45226   6.616   2.731   8.571
10917SOL    HW145227   6.692   2.684   8.526
10917SOL    HW245228   6.591   2.813   8.518
10918SOL     OW45229   3.679   6.979   7.777
10918SOL    HW145230   3.691   6.983   7.677
10918SOL    HW245231   3.714   6.891   7.811
10919SOL     OW45232   5.276   0.901   7.454
10919SOL    HW145233   5.183   0.927   7.481
10919SOL    HW245234   5.284   0.904   7.354
10920SOL     OW45235   6.616   1.486   8.194
10920SOL    HW145236   6.533   1.431   8.182
10920SOL    HW245237   6.627   1.509   8.291
10921SOL     OW45238   4.039   7.185   8.776
10921SOL    HW145239   4.039   7.277   8.737
10921SOL    HW245240   4.082   7.122   8.712
10922SOL     OW45241   0.882   1.507   7.985
10922SOL    HW145242   0.855   1.487   8.079
10922SOL    HW245243   0.973   1.471   7.967
10923SOL     OW45244   3.846   4.778   7.913
10923SOL    HW145245   3.769   4.716   7.924
10923SOL    HW245246   3.924   4.728   7.877
10924SOL     OW45247   3.196   1.537   8.678
10924SOL    HW145248   3.198   1.630   8.714
10924SOL    HW245249   3.244   1.533   8.591
10925SOL     OW45250   6.247   4.874   8.649
10925SOL    HW145251   6.249   4.915   8.741
10925SOL    HW245252   6.187   4.929   8.590
10926SOL     OW45253   5.461   0.821   8.242
10926SOL    HW145254   5.543   0.867   8.277
10926SOL    HW245255   5.421   0.877   8.169
10927SOL     OW45256   3.871   3.335   8.566
10927SOL    HW145257   3.780   3.296   8.547
10927SOL    HW245258   3.860   3.426   8.606
10928SOL     OW45259   3.681   0.493   7.394
10928SOL    HW145260   3.695   0.400   7.429
10928SOL    HW245261   3.664   0.555   7.471
10929SOL     OW45262   6.902   3.845   8.404
10929SOL    HW145263   6.814   3.886   8.427
10929SOL    HW245264   6.960   3.912   8.358
10930SOL     OW45265   0.736   3.856   7.851
10930SOL    HW145266   0.835   3.860   7.835
10930SOL    HW245267   0.704   3.943   7.887
10931SOL     OW45268   4.367   2.788   8.126
10931SOL    HW145269   4.398   2.878   8.153
10931SOL    HW245270   4.310   2.795   8.044
10932SOL     OW45271   5.687   0.907   7.759
10932SOL    HW145272   5.744   0.868   7.687
10932SOL    HW245273   5.592   0.909   7.730
10933SOL     OW45274   5.209   1.075   9.083
10933SOL    HW145275   5.258   1.131   9.017
10933SOL    HW245276   5.116   1.110   9.094
10934SOL     OW45277   4.045   5.115   7.611
10934SOL    HW145278   4.045   5.117   7.711
10934SOL    HW245279   4.132   5.077   7.578
10935SOL     OW45280   1.583   3.080   8.388
10935SOL    HW145281   1.519   3.133   8.333
10935SOL    HW245282   1.677   3.109   8.368
10936SOL     OW45283   3.972   5.799   7.644
10936SOL    HW145284   4.029   5.728   7.686
10936SOL    HW245285   3.976   5.791   7.545
10937SOL     OW45286   2.485   2.090   7.862
10937SOL    HW145287   2.438   2.138   7.788
10937SOL    HW245288   2.528   2.007   7.826
10938SOL     OW45289   7.262   2.691   8.323
10938SOL    HW145290   7.204   2.611   8.340
10938SOL    HW245291   7.347   2.683   8.376
10939SOL     OW45292   2.355   1.008   7.451
10939SOL    HW145293   2.389   0.970   7.365
10939SOL    HW245294   2.302   1.090   7.432
10940SOL     OW45295   1.751   6.396   8.848
10940SOL    HW145296   1.688   6.329   8.887
10940SOL    HW245297   1.845   6.363   8.855
10941SOL     OW45298   5.590   6.116   8.010
10941SOL    HW145299   5.595   6.146   7.915
10941SOL    HW245300   5.660   6.163   8.064
10942SOL     OW45301   5.273   3.524   8.067
10942SOL    HW145302   5.306   3.606   8.021
10942SOL    HW245303   5.242   3.458   7.998
10943SOL     OW45304   3.711   0.121   7.746
10943SOL    HW145305   3.741   0.122   7.842
10943SOL    HW245306   3.694   0.027   7.718
10944SOL     OW45307   1.558   2.053   8.671
10944SOL    HW145308   1.543   1.956   8.651
10944SOL    HW245309   1.553   2.067   8.769
10945SOL     OW45310   0.014   1.184   8.611
10945SOL    HW145311   0.041   1.270   8.569
10945SOL    HW245312  -0.046   1.202   8.689
10946SOL     OW45313   2.686   2.403   8.880
10946SOL    HW145314   2.711   2.316   8.837
10946SOL    HW245315   2.761   2.469   8.867
10947SOL     OW45316   1.733   3.204   7.594
10947SOL    HW145317   1.678   3.160   7.524
10947SOL    HW245318   1.685   3.284   7.630
10948SOL     OW45319   2.073   4.034   8.445
10948SOL    HW145320   2.115   3.996   8.527
10948SOL    HW245321   2.114   4.123   8.424
10949SOL     OW45322   0.379   1.089   7.983
10949SOL    HW145323   0.372   1.187   7.963
10949SOL    HW245324   0.466   1.071   8.029
10950SOL     OW45325   4.947   6.988   7.999
10950SOL    HW145326   4.966   7.072   8.049
10950SOL    HW245327   4.973   6.909   8.055
10951SOL     OW45328   3.752   6.937   8.580
10951SOL    HW145329   3.712   6.948   8.489
10951SOL    HW245330   3.842   6.894   8.572
10952SOL     OW45331   4.399   7.262   8.077
10952SOL    HW145332   4.442   7.341   8.034
10952SOL    HW245333   4.460   7.223   8.145
10953SOL     OW45334   1.071   2.680   8.712
10953SOL    HW145335   1.020   2.652   8.630
10953SOL    HW245336   1.082   2.780   8.712
10954SOL     OW45337   7.136   1.273   8.150
10954SOL    HW145338   7.053   1.303   8.104
10954SOL    HW245339   7.139   1.310   8.243
10955SOL     OW45340   4.791   4.145   7.616
10955SOL    HW145341   4.717   4.136   7.682
10955SOL    HW245342   4.771   4.221   7.553
10956SOL     OW45343   1.663   6.738   7.902
10956SOL    HW145344   1.746   6.763   7.952
10956SOL    HW245345   1.594   6.705   7.967
10957SOL     OW45346   1.915   4.244   7.434
10957SOL    HW145347   1.916   4.342   7.455
10957SOL    HW245348   1.973   4.226   7.355
10958SOL     OW45349   3.668   6.931   8.862
10958SOL    HW145350   3.678   6.851   8.922
10958SOL    HW245351   3.670   6.902   8.767
10959SOL     OW45352   3.474   5.092   7.550
10959SOL    HW145353   3.568   5.070   7.574
10959SOL    HW245354   3.423   5.115   7.633
10960SOL     OW45355   4.665   2.805   8.887
10960SOL    HW145356   4.697   2.884   8.835
10960SOL    HW245357   4.594   2.757   8.835
10961SOL     OW45358   1.293   0.804   8.028
10961SOL    HW145359   1.312   0.818   7.931
10961SOL    HW245360   1.201   0.836   8.049
10962SOL     OW45361   5.066   4.094   7.684
10962SOL    HW145362   4.973   4.118   7.658
10962SOL    HW245363   5.124   4.176   7.680
10963SOL     OW45364   6.400   3.078   8.287
10963SOL    HW145365   6.419   3.071   8.189
10963SOL    HW245366   6.307   3.112   8.301
10964SOL     OW45367   1.310   1.165   8.000
10964SOL    HW145368   1.292   1.067   8.001
10964SOL    HW245369   1.324   1.197   8.093
10965SOL     OW45370   2.182   6.886   8.722
10965SOL    HW145371   2.182   6.978   8.683
10965SOL    HW245372   2.184   6.891   8.822
10966SOL     OW45373   1.278   5.084   7.821
10966SOL    HW145374   1.362   5.052   7.865
10966SOL    HW245375   1.273   5.046   7.728
10967SOL     OW45376   5.275   5.099   7.426
10967SOL    HW145377   5.275   5.090   7.326
10967SOL    HW245378   5.338   5.033   7.465
10968SOL     OW45379   3.148   1.560   7.506
10968SOL    HW145380   3.158   1.619   7.586
10968SOL    HW245381   3.212   1.589   7.434
10969SOL     OW45382   2.750   1.678   8.012
10969SOL    HW145383   2.781   1.770   7.990
10969SOL    HW245384   2.732   1.671   8.110
10970SOL     OW45385   1.640   4.474   7.415
10970SOL    HW145386   1.715   4.429   7.367
10970SOL    HW245387   1.586   4.405   7.464
10971SOL     OW45388   5.179   4.766   7.938
10971SOL    HW145389   5.200   4.782   7.842
10971SOL    HW245390   5.081   4.749   7.949
10972SOL     OW45391   5.037   4.618   8.591
10972SOL    HW145392   5.060   4.715   8.597
10972SOL    HW245393   4.946   4.602   8.628
10973SOL     OW45394   2.838   7.075   8.324
10973SOL    HW145395   2.854   7.033   8.413
10973SOL    HW245396   2.749   7.121   8.324
10974SOL     OW45397   3.053   0.330   8.755
10974SOL    HW145398   3.082   0.358   8.663
10974SOL    HW245399   3.073   0.233   8.767
10975SOL     OW45400   2.892   4.373   8.014
10975SOL    HW145401   2.948   4.320   7.951
10975SOL    HW245402   2.844   4.445   7.964
10976SOL     OW45403   3.438   1.526   7.799
10976SOL    HW145404   3.419   1.579   7.716
10976SOL    HW245405   3.380   1.559   7.874
10977SOL     OW45406   4.595   1.248   8.481
10977SOL    HW145407   4.524   1.318   8.475
10977SOL    HW245408   4.609   1.221   8.576
10978SOL     OW45409   0.367   4.473   8.160
10978SOL    HW145410   0.416   4.513   8.236
10978SOL    HW245411   0.295   4.536   8.129
10979SOL     OW45412   3.560   0.266   7.545
10979SOL    HW145413   3.522   0.327   7.615
10979SOL    HW245414   3.645   0.226   7.578
10980SOL     OW45415   5.174   4.374   7.683
10980SOL    HW145416   5.263   4.332   7.701
10980SOL    HW245417   5.122   4.381   7.768
10981SOL     OW45418   6.727   2.209   7.856
10981SOL    HW145419   6.785   2.283   7.822
10981SOL    HW245420   6.674   2.241   7.934
10982SOL     OW45421   4.169   5.594   7.700
10982SOL    HW145422   4.259   5.617   7.737
10982SOL    HW245423   4.101   5.599   7.773
10983SOL     OW45424   6.192   3.238   7.600
10983SOL    HW145425   6.103   3.204   7.631
10983SOL    HW245426   6.264   3.186   7.646
10984SOL     OW45427   0.647   3.575   7.843
10984SOL    HW145428   0.606   3.600   7.755
10984SOL    HW245429   0.674   3.658   7.892
10985SOL     OW45430   5.049   6.729   7.799
10985SOL    HW145431   4.955   6.745   7.831
10985SOL    HW245432   5.083   6.812   7.756
10986SOL     OW45433   3.625   4.566   7.917
10986SOL    HW145434   3.575   4.528   7.995
10986SOL    HW245435   3.563   4.576   7.839
10987SOL     OW45436   0.633   2.790   7.798
10987SOL    HW145437   0.660   2.855   7.869
10987SOL    HW245438   0.697   2.713   7.798
10988SOL     OW45439   4.178   5.730   8.115
10988SOL    HW145440   4.169   5.817   8.067
10988SOL    HW245441   4.192   5.748   8.212
10989SOL     OW45442   6.323   1.448   7.984
10989SOL    HW145443   6.266   1.372   8.014
10989SOL    HW245444   6.291   1.532   8.028
10990SOL     OW45445   2.016   6.010   7.910
10990SOL    HW145446   2.022   6.035   7.814
10990SOL    HW245447   1.927   5.968   7.928
10991SOL     OW45448   4.619   4.167   7.829
10991SOL    HW145449   4.541   4.218   7.867
10991SOL    HW245450   4.632   4.083   7.881
10992SOL     OW45451   2.438   1.080   8.218
10992SOL    HW145452   2.432   0.985   8.249
10992SOL    HW245453   2.481   1.135   8.289
10993SOL     OW45454   5.724   4.137   8.634
10993SOL    HW145455   5.695   4.231   8.617
10993SOL    HW245456   5.821   4.127   8.609
10994SOL     OW45457   2.187   2.980   7.795
10994SOL    HW145458   2.103   2.991   7.743
10994SOL    HW245459   2.193   2.887   7.831
10995SOL     OW45460   3.053   2.755   8.922
10995SOL    HW145461   2.984   2.799   8.979
10995SOL    HW245462   3.105   2.691   8.977
10996SOL     OW45463   7.303   1.996   8.027
10996SOL    HW145464   7.372   2.065   8.007
10996SOL    HW245465   7.318   1.916   7.970
10997SOL     OW45466   3.456   5.612   8.955
10997SOL    HW145467   3.375   5.626   8.897
10997SOL    HW245468   3.451   5.521   8.997
10998SOL     OW45469   5.836   2.395   7.581
10998SOL    HW145470   5.749   2.362   7.545
10998SOL    HW245471   5.904   2.397   7.507
10999SOL     OW45472   3.923   5.938   8.302
10999SOL    HW145473   3.914   5.838   8.309
10999SOL    HW245474   3.840   5.981   8.338
11000SOL     OW45475   0.821   5.207   8.915
11000SOL    HW145476   0.733   5.215   8.869
11000SOL    HW245477   0.840   5.291   8.967
11001SOL     OW45478   0.380   2.259   8.178
11001SOL    HW145479   0.480   2.260   8.183
11001SOL    HW245480   0.348   2.164   8.183
11002SOL     OW45481   0.995   2.521   7.458
11002SOL    HW145482   0.966   2.434   7.499
11002SOL    HW245483   0.933   2.543   7.383
11003SOL     OW45484   5.151   6.992   8.379
11003SOL    HW145485   5.085   6.995   8.304
11003SOL    HW245486   5.227   7.055   8.360
11004SOL     OW45487   7.051   4.051   8.297
11004SOL    HW145488   7.107   4.047   8.380
11004SOL    HW245489   7.111   4.053   8.217
11005SOL     OW45490   3.996   0.395   8.781
11005SOL    HW145491   4.050   0.450   8.719
11005SOL    HW245492   4.047   0.313   8.808
11006SOL     OW45493   2.008   4.077   8.070
11006SOL    HW145494   1.916   4.105   8.098
11006SOL    HW245495   2.074   4.105   8.140
11007SOL     OW45496   1.885   2.518   7.793
11007SOL    HW145497   1.798   2.469   7.800
11007SOL    HW245498   1.907   2.559   7.881
11008SOL     OW45499   6.033   4.212   8.223
11008SOL    HW145500   6.063   4.168   8.138
11008SOL    HW245501   6.065   4.159   8.301
11009SOL     OW45502   6.390   2.067   8.104
11009SOL    HW145503   6.397   2.077   8.004
11009SOL    HW245504   6.294   2.060   8.130
11010SOL     OW45505   2.623   5.922   7.723
11010SOL    HW145506   2.617   6.021   7.717
11010SOL    HW245507   2.567   5.889   7.799
11011SOL     OW45508   4.689   5.009   8.239
11011SOL    HW145509   4.600   5.047   8.213
11011SOL    HW245510   4.723   4.951   8.164
11012SOL     OW45511   5.516   4.932   8.143
11012SOL    HW145512   5.533   4.866   8.070
11012SOL    HW245513   5.549   5.022   8.114
11013SOL     OW45514   3.723   2.904   7.574
11013SOL    HW145515   3.732   2.966   7.497
11013SOL    HW245516   3.809   2.900   7.625
11014SOL     OW45517   2.733   5.207   7.598
11014SOL    HW145518   2.815   5.159   7.628
11014SOL    HW245519   2.755   5.266   7.520
11015SOL     OW45520   0.936   5.983   7.406
11015SOL    HW145521   0.836   5.984   7.409
11015SOL    HW245522   0.971   5.905   7.459
11016SOL     OW45523   7.140   4.931   7.846
11016SOL    HW145524   7.221   4.932   7.904
11016SOL    HW245525   7.126   4.839   7.810
11017SOL     OW45526   5.588   7.166   8.134
11017SOL    HW145527   5.621   7.181   8.041
11017SOL    HW245528   5.559   7.254   8.173
11018SOL     OW45529   4.903   6.357   7.568
11018SOL    HW145530   4.940   6.381   7.658
11018SOL    HW245531   4.852   6.435   7.532
11019SOL     OW45532   6.365   3.127   7.782
11019SOL    HW145533   6.426   3.159   7.855
11019SOL    HW245534   6.339   3.032   7.800
11020SOL     OW45535   2.188   6.609   8.734
11020SOL    HW145536   2.103   6.597   8.786
11020SOL    HW245537   2.212   6.706   8.734
11021SOL     OW45538   3.832   6.476   8.237
11021SOL    HW145539   3.766   6.449   8.307
11021SOL    HW245540   3.828   6.410   8.161
11022SOL     OW45541   6.059   2.615   8.875
11022SOL    HW145542   6.077   2.552   8.799
11022SOL    HW245543   6.062   2.566   8.961
11023SOL     OW45544   5.559   0.562   7.555
11023SOL    HW145545   5.543   0.465   7.537
11023SOL    HW245546   5.588   0.573   7.650
11024SOL     OW45547   4.288   7.232   7.391
11024SOL    HW145548   4.375   7.192   7.364
11024SOL    HW245549   4.218   7.161   7.395
11025SOL     OW45550   2.543   6.167   8.404
11025SOL    HW145551   2.544   6.226   8.485
11025SOL    HW245552   2.629   6.115   8.400
11026SOL     OW45553   2.743   2.147   8.482
11026SOL    HW145554   2.680   2.107   8.415
11026SOL    HW245555   2.769   2.239   8.453
11027SOL     OW45556   4.901   3.365   8.827
11027SOL    HW145557   4.974   3.410   8.776
11027SOL    HW245558   4.817   3.419   8.821
11028SOL     OW45559   1.613   4.791   8.517
11028SOL    HW145560   1.520   4.816   8.544
11028SOL    HW245561   1.669   4.874   8.509
11029SOL     OW45562   3.505   5.407   7.584
11029SOL    HW145563   3.486   5.453   7.498
11029SOL    HW245564   3.520   5.309   7.567
11030SOL     OW45565   0.369   4.157   8.452
11030SOL    HW145566   0.385   4.254   8.472
11030SOL    HW245567   0.376   4.142   8.353
11031SOL     OW45568   1.503   6.966   8.471
11031SOL    HW145569   1.558   6.975   8.388
11031SOL    HW245570   1.545   6.898   8.532
11032SOL     OW45571   6.610   2.944   8.869
11032SOL    HW145572   6.520   2.936   8.826
11032SOL    HW245573   6.654   2.854   8.872
11033SOL     OW45574   2.320   6.054   7.503
11033SOL    HW145575   2.375   6.137   7.504
11033SOL    HW245576   2.380   5.974   7.497
11034SOL     OW45577   2.899   7.238   7.642
11034SOL    HW145578   2.906   7.138   7.638
11034SOL    HW245579   2.939   7.271   7.727
11035SOL     OW45580   6.167   3.237   8.345
11035SOL    HW145581   6.161   3.336   8.363
11035SOL    HW245582   6.081   3.193   8.373
11036SOL     OW45583   6.632   6.988   8.528
11036SOL    HW145584   6.633   6.904   8.474
11036SOL    HW245585   6.587   6.969   8.616
11037SOL     OW45586   2.285   6.609   7.668
11037SOL    HW145587   2.252   6.702   7.680
11037SOL    HW245588   2.208   6.545   7.675
11038SOL     OW45589   2.819   1.068   8.315
11038SOL    HW145590   2.734   1.114   8.340
11038SOL    HW245591   2.814   0.972   8.340
11039SOL     OW45592   0.471   6.734   8.671
11039SOL    HW145593   0.426   6.655   8.712
11039SOL    HW245594   0.532   6.777   8.738
11040SOL     OW45595   4.631   1.923   7.382
11040SOL    HW145596   4.555   1.987   7.364
11040SOL    HW245597   4.712   1.975   7.408
11041SOL     OW45598   4.805   1.227   7.380
11041SOL    HW145599   4.777   1.322   7.372
11041SOL    HW245600   4.870   1.205   7.307
11042SOL     OW45601   2.258   3.731   8.337
11042SOL    HW145602   2.170   3.684   8.346
11042SOL    HW245603   2.323   3.672   8.290
11043SOL     OW45604   3.585   5.834   8.599
11043SOL    HW145605   3.489   5.843   8.571
11043SOL    HW245606   3.600   5.743   8.637
11044SOL     OW45607   3.542   2.859   7.895
11044SOL    HW145608   3.628   2.894   7.858
11044SOL    HW245609   3.488   2.935   7.931
11045SOL     OW45610   1.389   0.048   8.423
11045SOL    HW145611   1.330   0.081   8.497
11045SOL    HW245612   1.460   0.116   8.404
11046SOL     OW45613   0.379   0.460   8.874
11046SOL    HW145614   0.363   0.491   8.968
11046SOL    HW245615   0.317   0.509   8.812
11047SOL     OW45616   4.707   3.881   8.482
11047SOL    HW145617   4.731   3.978   8.493
11047SOL    HW245618   4.761   3.842   8.407
11048SOL     OW45619   0.576   2.494   8.300
11048SOL    HW145620   0.489   2.455   8.332
11048SOL    HW245621   0.632   2.421   8.261
11049SOL     OW45622   2.530   7.186   7.858
11049SOL    HW145623   2.501   7.182   7.763
11049SOL    HW245624   2.582   7.270   7.874
11050SOL     OW45625   5.278   2.793   7.661
11050SOL    HW145626   5.223   2.849   7.599
11050SOL    HW245627   5.271   2.697   7.635
11051SOL     OW45628   6.972   2.373   7.748
11051SOL    HW145629   7.007   2.282   7.728
11051SOL    HW245630   6.913   2.403   7.673
11052SOL     OW45631   3.489   3.063   8.839
11052SOL    HW145632   3.474   2.966   8.855
11052SOL    HW245633   3.403   3.106   8.810
11053SOL     OW45634   0.383   0.329   7.728
11053SOL    HW145635   0.340   0.401   7.673
11053SOL    HW245636   0.387   0.245   7.675
11054SOL     OW45637   3.952   6.033   7.793
11054SOL    HW145638   4.022   6.031   7.864
11054SOL    HW245639   3.953   5.946   7.742
11055SOL     OW45640   3.202   7.023   7.978
11055SOL    HW145641   3.191   7.014   8.077
11055SOL    HW245642   3.282   6.971   7.949
11056SOL     OW45643   4.429   6.830   7.596
11056SOL    HW145644   4.477   6.832   7.508
11056SOL    HW245645   4.483   6.879   7.664
11057SOL     OW45646   3.612   2.636   8.758
11057SOL    HW145647   3.686   2.622   8.824
11057SOL    HW245648   3.649   2.663   8.670
11058SOL     OW45649   2.354   1.970   8.714
11058SOL    HW145650   2.421   2.035   8.748
11058SOL    HW245651   2.329   1.993   8.620
11059SOL     OW45652   5.092   0.749   7.907
11059SOL    HW145653   5.081   0.836   7.859
11059SOL    HW245654   5.189   0.726   7.912
11060SOL     OW45655   2.267   2.671   7.882
11060SOL    HW145656   2.337   2.602   7.902
11060SOL    HW245657   2.275   2.699   7.787
11061SOL     OW45658   0.928   1.403   8.892
11061SOL    HW145659   0.857   1.406   8.821
11061SOL    HW245660   0.886   1.382   8.980
11062SOL     OW45661   2.796   4.618   7.872
11062SOL    HW145662   2.822   4.593   7.779
11062SOL    HW245663   2.707   4.663   7.871
11063SOL     OW45664   6.257   5.576   8.843
11063SOL    HW145665   6.273   5.659   8.896
11063SOL    HW245666   6.166   5.579   8.801
11064SOL     OW45667   1.451   6.030   8.314
11064SOL    HW145668   1.467   6.106   8.377
11064SOL    HW245669   1.534   5.976   8.306
11065SOL     OW45670   0.472   0.788   8.638
11065SOL    HW145671   0.434   0.827   8.554
11065SOL    HW245672   0.399   0.780   8.706
11066SOL     OW45673   6.927   6.923   8.546
11066SOL    HW145674   6.829   6.937   8.535
11066SOL    HW245675   6.977   6.997   8.501
11067SOL     OW45676   2.516   6.999   8.837
11067SOL    HW145677   2.525   7.093   8.802
11067SOL    HW245678   2.437   6.994   8.897
11068SOL     OW45679   6.763   7.220   8.564
11068SOL    HW145680   6.698   7.146   8.551
11068SOL    HW245681   6.735   7.277   8.641
11069SOL     OW45682   2.441   1.431   8.070
11069SOL    HW145683   2.394   1.471   8.149
11069SOL    HW245684   2.470   1.338   8.093
11070SOL     OW45685   1.230   3.265   7.366
11070SOL    HW145686   1.181   3.328   7.426
11070SOL    HW245687   1.266   3.189   7.420
11071SOL     OW45688   0.306   0.956   7.395
11071SOL    HW145689   0.327   1.000   7.307
11071SOL    HW245690   0.274   0.862   7.378
11072SOL     OW45691   6.592   4.266   7.384
11072SOL    HW145692   6.642   4.268   7.297
11072SOL    HW245693   6.653   4.237   7.457
11073SOL     OW45694   6.623   1.333   8.921
11073SOL    HW145695   6.548   1.305   8.861
11073SOL    HW245696   6.700   1.363   8.866
11074SOL     OW45697   4.257   3.778   7.476
11074SOL    HW145698   4.313   3.696   7.485
11074SOL    HW245699   4.317   3.858   7.468
11075SOL     OW45700   7.016   3.142   8.641
11075SOL    HW145701   7.014   3.044   8.622
11075SOL    HW245702   6.986   3.193   8.561
11076SOL     OW45703   0.298   1.810   7.708
11076SOL    HW145704   0.198   1.804   7.698
11076SOL    HW245705   0.333   1.880   7.646
11077SOL     OW45706   1.368   0.351   8.627
11077SOL    HW145707   1.291   0.305   8.582
11077SOL    HW245708   1.446   0.356   8.565
11078SOL     OW45709   1.031   3.481   8.384
11078SOL    HW145710   1.126   3.489   8.353
11078SOL    HW245711   0.986   3.570   8.375
11079SOL     OW45712   6.352   4.370   8.653
11079SOL    HW145713   6.320   4.293   8.709
11079SOL    HW245714   6.322   4.456   8.695
11080SOL     OW45715   4.623   0.646   8.103
11080SOL    HW145716   4.720   0.626   8.120
11080SOL    HW245717   4.606   0.743   8.118
11081SOL     OW45718   2.411   6.297   7.757
11081SOL    HW145719   2.360   6.254   7.832
11081SOL    HW245720   2.348   6.348   7.699
11082SOL     OW45721   1.985   3.662   8.629
11082SOL    HW145722   1.952   3.637   8.538
11082SOL    HW245723   2.082   3.638   8.637
11083SOL     OW45724   1.343   1.519   8.289
11083SOL    HW145725   1.330   1.420   8.280
11083SOL    HW245726   1.407   1.551   8.220
11084SOL     OW45727   4.157   2.373   8.020
11084SOL    HW145728   4.117   2.441   7.959
11084SOL    HW245729   4.207   2.420   8.094
11085SOL     OW45730   1.618   2.786   8.460
11085SOL    HW145731   1.686   2.736   8.408
11085SOL    HW245732   1.569   2.849   8.399
11086SOL     OW45733   2.466   2.829   7.673
11086SOL    HW145734   2.529   2.829   7.595
11086SOL    HW245735   2.518   2.826   7.758
11087SOL     OW45736   0.563   0.912   8.230
11087SOL    HW145737   0.476   0.956   8.254
11087SOL    HW245738   0.622   0.978   8.183
11088SOL     OW45739   0.221   5.043   8.923
11088SOL    HW145740   0.230   4.964   8.982
11088SOL    HW245741   0.203   5.125   8.978
11089SOL     OW45742   2.854   4.996   8.923
11089SOL    HW145743   2.794   4.950   8.988
11089SOL    HW245744   2.833   4.965   8.830
11090SOL     OW45745   6.850   1.387   8.100
11090SOL    HW145746   6.768   1.417   8.150
11090SOL    HW245747   6.824   1.319   8.032
11091SOL     OW45748   2.865   4.091   7.796
11091SOL    HW145749   2.890   4.049   7.884
11091SOL    HW245750   2.875   4.024   7.723
11092SOL     OW45751   2.248   1.498   7.719
11092SOL    HW145752   2.240   1.564   7.795
11092SOL    HW245753   2.318   1.430   7.742
11093SOL     OW45754   6.686   2.475   8.427
11093SOL    HW145755   6.754   2.466   8.500
11093SOL    HW245756   6.685   2.391   8.372
11094SOL     OW45757   1.205   4.056   8.248
11094SOL    HW145758   1.175   3.987   8.182
11094SOL    HW245759   1.138   4.129   8.253
11095SOL     OW45760   2.721   6.830   8.870
11095SOL    HW145761   2.643   6.887   8.843
11095SOL    HW245762   2.723   6.821   8.969
11096SOL     OW45763   0.525   0.435   7.958
11096SOL    HW145764   0.473   0.502   8.012
11096SOL    HW245765   0.469   0.403   7.882
11097SOL     OW45766   1.675   3.473   8.903
11097SOL    HW145767   1.771   3.457   8.884
11097SOL    HW245768   1.658   3.571   8.912
11098SOL     OW45769   3.201   3.235   8.111
11098SOL    HW145770   3.203   3.266   8.016
11098SOL    HW245771   3.200   3.315   8.172
11099SOL     OW45772   5.718   6.886   7.696
11099SOL    HW145773   5.749   6.890   7.601
11099SOL    HW245774   5.681   6.796   7.716
11100SOL     OW45775   6.273   0.986   9.097
11100SOL    HW145776   6.295   0.961   9.191
11100SOL    HW245777   6.216   1.068   9.097
11101SOL     OW45778   3.732   5.482   7.967
11101SOL    HW145779   3.655   5.524   7.919
11101SOL    HW245780   3.814   5.537   7.954
11102SOL     OW45781   3.315   1.617   8.271
11102SOL    HW145782   3.393   1.665   8.230
11102SOL    HW245783   3.259   1.682   8.322
11103SOL     OW45784   4.580   0.891   8.204
11103SOL    HW145785   4.501   0.940   8.167
11103SOL    HW245786   4.645   0.956   8.241
11104SOL     OW45787   1.747   2.606   8.314
11104SOL    HW145788   1.772   2.673   8.244
11104SOL    HW245789   1.687   2.537   8.274
11105SOL     OW45790   2.696   7.351   8.209
11105SOL    HW145791   2.701   7.276   8.143
11105SOL    HW245792   2.724   7.437   8.164
11106SOL     OW45793   3.218   3.272   7.849
11106SOL    HW145794   3.162   3.352   7.828
11106SOL    HW245795   3.310   3.302   7.875
11107SOL     OW45796   3.284   1.554   8.002
11107SOL    HW145797   3.282   1.580   8.098
11107SOL    HW245798   3.214   1.484   7.985
11108SOL     OW45799   5.666   2.234   8.156
11108SOL    HW145800   5.606   2.306   8.193
11108SOL    HW245801   5.724   2.199   8.229
11109SOL     OW45802   4.119   6.472   7.728
11109SOL    HW145803   4.138   6.511   7.637
11109SOL    HW245804   4.174   6.520   7.796
11110SOL     OW45805   3.399   3.481   7.603
11110SOL    HW145806   3.441   3.390   7.594
11110SOL    HW245807   3.461   3.540   7.655
11111SOL     OW45808   5.369   2.466   7.362
11111SOL    HW145809   5.321   2.405   7.299
11111SOL    HW245810   5.454   2.498   7.320
11112SOL     OW45811   6.130   4.897   9.122
11112SOL    HW145812   6.043   4.851   9.103
11112SOL    HW245813   6.116   4.996   9.121
11113SOL     OW45814   5.700   5.642   8.550
11113SOL    HW145815   5.708   5.734   8.510
11113SOL    HW245816   5.779   5.587   8.522
11114SOL     OW45817   3.080   6.009   8.530
11114SOL    HW145818   3.061   6.105   8.547
11114SOL    HW245819   3.058   5.956   8.613
11115SOL     OW45820   6.562   6.382   8.555
11115SOL    HW145821   6.527   6.475   8.562
11115SOL    HW245822   6.648   6.381   8.505
11116SOL     OW45823   2.197   4.683   8.651
11116SOL    HW145824   2.274   4.631   8.688
11116SOL    HW245825   2.142   4.623   8.592
11117SOL     OW45826   3.495   2.732   8.427
11117SOL    HW145827   3.448   2.814   8.459
11117SOL    HW245828   3.524   2.745   8.332
11118SOL     OW45829   6.147   6.927   7.820
11118SOL    HW145830   6.166   6.867   7.898
11118SOL    HW245831   6.234   6.951   7.776
11119SOL     OW45832   1.530   6.306   7.650
11119SOL    HW145833   1.627   6.283   7.645
11119SOL    HW245834   1.519   6.389   7.705
11120SOL     OW45835   5.308   4.608   8.727
11120SOL    HW145836   5.214   4.640   8.716
11120SOL    HW245837   5.313   4.510   8.709
11121SOL     OW45838   4.738   4.721   8.943
11121SOL    HW145839   4.735   4.681   8.851
11121SOL    HW245840   4.694   4.811   8.941
11122SOL     OW45841   2.388   3.541   7.793
11122SOL    HW145842   2.320   3.544   7.721
11122SOL    HW245843   2.420   3.447   7.806
11123SOL     OW45844   3.063   3.758   8.119
11123SOL    HW145845   3.154   3.800   8.111
11123SOL    HW245846   2.999   3.806   8.060
11124SOL     OW45847   2.644   5.483   7.655
11124SOL    HW145848   2.626   5.567   7.706
11124SOL    HW245849   2.742   5.464   7.654
11125SOL     OW45850   1.801   1.764   7.708
11125SOL    HW145851   1.728   1.713   7.664
11125SOL    HW245852   1.854   1.703   7.767
11126SOL     OW45853   5.922   4.712   8.540
11126SOL    HW145854   5.969   4.633   8.503
11126SOL    HW245855   5.954   4.795   8.493
11127SOL     OW45856   2.835   5.130   8.380
11127SOL    HW145857   2.757   5.180   8.341
11127SOL    HW245858   2.920   5.179   8.358
11128SOL     OW45859   7.249   0.340   7.716
11128SOL    HW145860   7.259   0.300   7.807
11128SOL    HW245861   7.230   0.438   7.724
11129SOL     OW45862   4.153   6.805   7.555
11129SOL    HW145863   4.243   6.797   7.597
11129SOL    HW245864   4.143   6.896   7.514
11130SOL     OW45865   5.533   0.773   7.398
11130SOL    HW145866   5.455   0.827   7.428
11130SOL    HW245867   5.562   0.712   7.471
11131SOL     OW45868   0.197   1.969   9.167
11131SOL    HW145869   0.131   1.951   9.239
11131SOL    HW245870   0.228   1.882   9.127
11132SOL     OW45871   7.117   3.044   7.421
11132SOL    HW145872   7.072   2.963   7.459
11132SOL    HW245873   7.082   3.126   7.466
11133SOL     OW45874   1.236   3.517   7.654
11133SOL    HW145875   1.289   3.432   7.643
11133SOL    HW245876   1.221   3.559   7.564
11134SOL     OW45877   0.920   7.015   7.966
11134SOL    HW145878   0.925   7.055   7.875
11134SOL    HW245879   1.012   7.012   8.006
11135SOL     OW45880   4.067   3.500   9.041
11135SOL    HW145881   3.987   3.459   9.084
11135SOL    HW245882   4.039   3.578   8.985
11136SOL     OW45883   2.205   0.763   7.789
11136SOL    HW145884   2.301   0.787   7.803
11136SOL    HW245885   2.168   0.721   7.872
11137SOL     OW45886   2.916   1.509   8.399
11137SOL    HW145887   2.998   1.459   8.370
11137SOL    HW245888   2.862   1.451   8.460
11138SOL     OW45889   3.626   1.166   8.387
11138SOL    HW145890   3.634   1.103   8.309
11138SOL    HW245891   3.681   1.247   8.369
11139SOL     OW45892   2.129   5.304   7.529
11139SOL    HW145893   2.071   5.371   7.481
11139SOL    HW245894   2.225   5.322   7.508
11140SOL     OW45895   3.814   5.058   7.903
11140SOL    HW145896   3.813   4.965   7.938
11140SOL    HW245897   3.803   5.056   7.803
11141SOL     OW45898   3.199   0.657   8.241
11141SOL    HW145899   3.109   0.689   8.210
11141SOL    HW245900   3.256   0.736   8.264
11142SOL     OW45901   3.828   4.949   8.636
11142SOL    HW145902   3.894   4.983   8.569
11142SOL    HW245903   3.853   4.857   8.664
11143SOL     OW45904   0.448   3.994   8.652
11143SOL    HW145905   0.487   3.915   8.605
11143SOL    HW245906   0.399   4.052   8.586
11144SOL     OW45907   3.506   2.678   8.129
11144SOL    HW145908   3.511   2.600   8.066
11144SOL    HW245909   3.521   2.762   8.078
11145SOL     OW45910   5.878   3.799   8.340
11145SOL    HW145911   5.804   3.770   8.279
11145SOL    HW245912   5.965   3.765   8.306
11146SOL     OW45913   3.524   4.053   8.078
11146SOL    HW145914   3.491   4.147   8.077
11146SOL    HW245915   3.601   4.045   8.142
11147SOL     OW45916   6.902   1.415   8.895
11147SOL    HW145917   7.000   1.408   8.910
11147SOL    HW245918   6.861   1.474   8.964
11148SOL     OW45919   6.752   5.804   8.074
11148SOL    HW145920   6.726   5.775   8.166
11148SOL    HW245921   6.681   5.778   8.009
11149SOL     OW45922   5.592   0.236   8.733
11149SOL    HW145923   5.527   0.220   8.808
11149SOL    HW245924   5.541   0.264   8.652
11150SOL     OW45925   5.603   3.068   8.524
11150SOL    HW145926   5.531   3.074   8.593
11150SOL    HW245927   5.664   2.991   8.546
11151SOL     OW45928   5.915   1.236   7.883
11151SOL    HW145929   5.903   1.139   7.907
11151SOL    HW245930   6.013   1.258   7.883
11152SOL     OW45931   0.686   4.904   8.949
11152SOL    HW145932   0.593   4.936   8.936
11152SOL    HW245933   0.730   4.892   8.859
11153SOL     OW45934   1.327   3.838   8.343
11153SOL    HW145935   1.290   3.926   8.313
11153SOL    HW245936   1.426   3.836   8.328
11154SOL     OW45937   5.064   4.914   8.652
11154SOL    HW145938   5.163   4.925   8.645
11154SOL    HW245939   5.039   4.892   8.746
11155SOL     OW45940   0.569   3.747   8.265
11155SOL    HW145941   0.644   3.703   8.215
11155SOL    HW245942   0.531   3.821   8.210
11156SOL     OW45943   1.567   4.695   7.606
11156SOL    HW145944   1.644   4.698   7.671
11156SOL    HW245945   1.589   4.632   7.532
11157SOL     OW45946   2.609   0.835   8.645
11157SOL    HW145947   2.666   0.820   8.726
11157SOL    HW245948   2.658   0.803   8.563
11158SOL     OW45949   0.623   5.659   8.698
11158SOL    HW145950   0.552   5.634   8.632
11158SOL    HW245951   0.703   5.692   8.648
11159SOL     OW45952   2.228   3.740   7.988
11159SOL    HW145953   2.246   3.800   7.910
11159SOL    HW245954   2.279   3.655   7.977
11160SOL     OW45955   0.919   1.983   8.642
11160SOL    HW145956   0.960   2.067   8.605
11160SOL    HW245957   0.855   1.945   8.575
11161SOL     OW45958   0.148   3.172   8.159
11161SOL    HW145959   0.212   3.095   8.152
11161SOL    HW245960   0.067   3.154   8.103
11162SOL     OW45961   2.876   2.669   7.798
11162SOL    HW145962   2.975   2.675   7.805
11162SOL    HW245963   2.850   2.643   7.705
11163SOL     OW45964   5.808   2.492   7.841
11163SOL    HW145965   5.834   2.458   7.750
11163SOL    HW245966   5.776   2.587   7.833
11164SOL     OW45967   5.371   4.547   7.948
11164SOL    HW145968   5.329   4.634   7.974
11164SOL    HW245969   5.299   4.482   7.924
11165SOL     OW45970   0.646   3.590   9.016
11165SOL    HW145971   0.658   3.670   8.957
11165SOL    HW245972   0.682   3.611   9.108
11166SOL     OW45973   4.968   3.795   8.594
11166SOL    HW145974   4.966   3.759   8.500
11166SOL    HW245975   4.875   3.798   8.630
11167SOL     OW45976   3.402   4.316   7.626
11167SOL    HW145977   3.331   4.250   7.650
11167SOL    HW245978   3.452   4.284   7.545
11168SOL     OW45979   1.322   5.309   7.680
11168SOL    HW145980   1.310   5.235   7.747
11168SOL    HW245981   1.362   5.389   7.725
11169SOL     OW45982   3.534   2.345   8.743
11169SOL    HW145983   3.449   2.372   8.788
11169SOL    HW245984   3.597   2.423   8.740
11170SOL     OW45985   3.389   1.298   8.334
11170SOL    HW145986   3.470   1.248   8.365
11170SOL    HW245987   3.414   1.393   8.316
11171SOL     OW45988   2.553   2.007   8.331
11171SOL    HW145989   2.537   2.064   8.250
11171SOL    HW245990   2.489   1.930   8.329
11172SOL     OW45991   2.897   6.386   8.122
11172SOL    HW145992   2.916   6.420   8.213
11172SOL    HW245993   2.979   6.393   8.065
11173SOL     OW45994   2.300   0.028   7.905
11173SOL    HW145995   2.222   0.032   7.967
11173SOL    HW245996   2.267   0.003   7.813
11174SOL     OW45997   4.003   3.279   8.117
11174SOL    HW145998   3.918   3.315   8.155
11174SOL    HW245999   3.984   3.232   8.030
11175SOL     OW46000   7.274   6.208   7.767
11175SOL    HW146001   7.215   6.282   7.735
11175SOL    HW246002   7.243   6.176   7.856
11176SOL     OW46003   3.950   2.209   8.872
11176SOL    HW146004   4.025   2.245   8.816
11176SOL    HW246005   3.983   2.134   8.928
11177SOL     OW46006   1.454   0.765   9.232
11177SOL    HW146007   1.358   0.764   9.261
11177SOL    HW246008   1.483   0.673   9.209
11178SOL     OW46009   0.909   5.421   8.032
11178SOL    HW146010   0.904   5.486   8.107
11178SOL    HW246011   0.933   5.331   8.067
11179SOL     OW46012   6.499   1.304   7.825
11179SOL    HW146013   6.436   1.333   7.898
11179SOL    HW246014   6.548   1.384   7.791
11180SOL     OW46015   4.631   3.324   7.458
11180SOL    HW146016   4.604   3.384   7.383
11180SOL    HW246017   4.549   3.287   7.502
11181SOL     OW46018   6.537   0.532   9.209
11181SOL    HW146019   6.550   0.624   9.171
11181SOL    HW246020   6.626   0.491   9.225
11182SOL     OW46021   6.588   3.213   7.627
11182SOL    HW146022   6.518   3.267   7.673
11182SOL    HW246023   6.567   3.116   7.635
11183SOL     OW46024   2.830   6.446   7.721
11183SOL    HW146025   2.746   6.469   7.770
11183SOL    HW246026   2.907   6.497   7.760
11184SOL     OW46027   1.892   5.157   8.177
11184SOL    HW146028   1.929   5.185   8.265
11184SOL    HW246029   1.962   5.166   8.107
11185SOL     OW46030   5.004   0.374   8.865
11185SOL    HW146031   4.933   0.402   8.800
11185SOL    HW246032   4.978   0.286   8.905
11186SOL     OW46033   0.232   5.897   8.712
11186SOL    HW146034   0.142   5.870   8.745
11186SOL    HW246035   0.238   5.883   8.613
11187SOL     OW46036   0.745   3.157   9.223
11187SOL    HW146037   0.720   3.178   9.317
11187SOL    HW246038   0.705   3.226   9.162
11188SOL     OW46039   1.639   1.092   7.443
11188SOL    HW146040   1.699   1.056   7.514
11188SOL    HW246041   1.634   1.192   7.449
11189SOL     OW46042   3.016   4.302   7.753
11189SOL    HW146043   3.048   4.311   7.659
11189SOL    HW246044   2.958   4.221   7.761
11190SOL     OW46045   0.269   1.710   9.104
11190SOL    HW146046   0.234   1.667   9.021
11190SOL    HW246047   0.368   1.698   9.108
11191SOL     OW46048   5.244   6.615   8.664
11191SOL    HW146049   5.258   6.713   8.650
11191SOL    HW246050   5.328   6.566   8.641
11192SOL     OW46051   6.777   6.806   7.705
11192SOL    HW146052   6.711   6.735   7.683
11192SOL    HW246053   6.732   6.876   7.761
11193SOL     OW46054   3.956   6.309   8.544
11193SOL    HW146055   3.978   6.229   8.487
11193SOL    HW246056   4.039   6.362   8.560
11194SOL     OW46057   0.027   1.741   7.955
11194SOL    HW146058  -0.029   1.658   7.957
11194SOL    HW246059   0.051   1.767   8.048
11195SOL     OW46060   2.260   1.275   7.383
11195SOL    HW146061   2.301   1.354   7.429
11195SOL    HW246062   2.175   1.303   7.339
11196SOL     OW46063   4.809   6.567   7.977
11196SOL    HW146064   4.780   6.499   8.044
11196SOL    HW246065   4.812   6.657   8.020
11197SOL     OW46066   4.564   3.126   8.933
11197SOL    HW146067   4.526   3.215   8.907
11197SOL    HW246068   4.654   3.115   8.891
11198SOL     OW46069   0.694   7.271   8.099
11198SOL    HW146070   0.666   7.362   8.069
11198SOL    HW246071   0.670   7.259   8.196
11199SOL     OW46072   5.029   1.056   8.676
11199SOL    HW146073   5.038   1.021   8.583
11199SOL    HW246074   4.938   1.034   8.711
11200SOL     OW46075   1.387   2.062   8.406
11200SOL    HW146076   1.370   1.979   8.459
11200SOL    HW246077   1.336   2.138   8.446
11201SOL     OW46078   3.686   0.738   7.907
11201SOL    HW146079   3.640   0.827   7.909
11201SOL    HW246080   3.732   0.726   7.819
11202SOL     OW46081   2.013   0.199   7.821
11202SOL    HW146082   1.978   0.105   7.815
11202SOL    HW246083   2.055   0.225   7.734
11203SOL     OW46084   3.694   6.738   7.908
11203SOL    HW146085   3.734   6.657   7.864
11203SOL    HW246086   3.596   6.739   7.893
11204SOL     OW46087   4.433   1.482   8.556
11204SOL    HW146088   4.489   1.564   8.566
11204SOL    HW246089   4.403   1.451   8.646
11205SOL     OW46090   3.129   1.335   8.347
11205SOL    HW146091   3.095   1.304   8.436
11205SOL    HW246092   3.228   1.321   8.343
11206SOL     OW46093   2.155   0.624   7.512
11206SOL    HW146094   2.099   0.561   7.567
11206SOL    HW246095   2.178   0.704   7.566
11207SOL     OW46096   7.354   7.197   8.446
11207SOL    HW146097   7.390   7.284   8.479
11207SOL    HW246098   7.308   7.149   8.521
11208SOL     OW46099   5.432   1.477   7.595
11208SOL    HW146100   5.356   1.414   7.577
11208SOL    HW246101   5.441   1.491   7.693
11209SOL     OW46102   5.330   4.968   8.590
11209SOL    HW146103   5.315   4.935   8.496
11209SOL    HW246104   5.421   4.941   8.621
11210SOL     OW46105   0.802   1.739   9.278
11210SOL    HW146106   0.789   1.835   9.303
11210SOL    HW246107   0.891   1.729   9.233
11211SOL     OW46108   6.923   5.779   7.382
11211SOL    HW146109   6.918   5.744   7.289
11211SOL    HW246110   6.852   5.735   7.437
11212SOL     OW46111   1.231   1.438   7.452
11212SOL    HW146112   1.267   1.531   7.453
11212SOL    HW246113   1.147   1.435   7.397
11213SOL     OW46114   2.354   3.847   9.091
11213SOL    HW146115   2.256   3.838   9.077
11213SOL    HW246116   2.396   3.883   9.007
11214SOL     OW46117   2.301   6.955   8.255
11214SOL    HW146118   2.287   7.041   8.305
11214SOL    HW246119   2.378   6.965   8.192
11215SOL     OW46120   3.295   1.749   8.856
11215SOL    HW146121   3.276   1.679   8.925
11215SOL    HW246122   3.295   1.839   8.899
11216SOL     OW46123   1.451   3.812   7.947
11216SOL    HW146124   1.434   3.910   7.956
11216SOL    HW246125   1.543   3.791   7.979
11217SOL     OW46126   7.052   4.662   7.811
11217SOL    HW146127   6.987   4.621   7.746
11217SOL    HW246128   7.018   4.652   7.904
11218SOL     OW46129   5.146   1.285   7.801
11218SOL    HW146130   5.128   1.317   7.894
11218SOL    HW246131   5.080   1.325   7.738
11219SOL     OW46132   2.067   6.743   7.853
11219SOL    HW146133   2.033   6.790   7.934
11219SOL    HW246134   2.082   6.809   7.780
11220SOL     OW46135   1.114   3.802   7.554
11220SOL    HW146136   1.049   3.738   7.515
11220SOL    HW246137   1.148   3.863   7.482
11221SOL     OW46138   4.374   3.955   7.778
11221SOL    HW146139   4.275   3.963   7.775
11221SOL    HW246140   4.400   3.895   7.854
11222SOL     OW46141   6.151   5.120   7.978
11222SOL    HW146142   6.245   5.089   7.963
11222SOL    HW246143   6.104   5.126   7.890
11223SOL     OW46144   2.222   7.321   7.616
11223SOL    HW146145   2.137   7.268   7.625
11223SOL    HW246146   2.212   7.387   7.542
11224SOL     OW46147   5.732   3.190   7.523
11224SOL    HW146148   5.716   3.193   7.424
11224SOL    HW246149   5.687   3.267   7.567
11225SOL     OW46150   6.133   5.377   8.227
11225SOL    HW146151   6.157   5.415   8.138
11225SOL    HW246152   6.170   5.435   8.299
11226SOL     OW46153   2.858   5.430   8.702
11226SOL    HW146154   2.931   5.366   8.727
11226SOL    HW246155   2.791   5.382   8.645
11227SOL     OW46156   3.570   6.313   8.083
11227SOL    HW146157   3.506   6.259   8.028
11227SOL    HW246158   3.586   6.401   8.040
11228SOL     OW46159   4.725   3.075   7.466
11228SOL    HW146160   4.752   3.030   7.551
11228SOL    HW246161   4.697   3.169   7.485
11229SOL     OW46162   2.862   7.133   8.045
11229SOL    HW146163   2.889   7.106   8.138
11229SOL    HW246164   2.849   7.051   7.989
11230SOL     OW46165   1.975   4.586   7.714
11230SOL    HW146166   1.898   4.619   7.767
11230SOL    HW246167   1.993   4.650   7.638
11231SOL     OW46168   4.757   2.763   8.334
11231SOL    HW146169   4.797   2.679   8.372
11231SOL    HW246170   4.819   2.840   8.351
11232SOL     OW46171   6.861   1.581   9.111
11232SOL    HW146172   6.869   1.563   9.209
11232SOL    HW246173   6.945   1.623   9.078
11233SOL     OW46174   1.423   2.448   8.811
11233SOL    HW146175   1.423   2.548   8.811
11233SOL    HW246176   1.468   2.414   8.729
11234SOL     OW46177   6.500   4.457   7.636
11234SOL    HW146178   6.538   4.447   7.544
11234SOL    HW246179   6.542   4.536   7.681
11235SOL     OW46180   0.767   3.583   8.125
11235SOL    HW146181   0.794   3.533   8.043
11235SOL    HW246182   0.786   3.527   8.206
11236SOL     OW46183   3.486   6.636   8.535
11236SOL    HW146184   3.503   6.550   8.489
11236SOL    HW246185   3.472   6.620   8.633
11237SOL     OW46186   6.123   3.837   7.800
11237SOL    HW146187   6.051   3.862   7.735
11237SOL    HW246188   6.204   3.807   7.749
11238SOL     OW46189   6.651   5.652   8.329
11238SOL    HW146190   6.675   5.670   8.424
11238SOL    HW246191   6.643   5.553   8.315
11239SOL     OW46192   6.420   1.983   8.542
11239SOL    HW146193   6.322   1.977   8.527
11239SOL    HW246194   6.468   1.937   8.467
11240SOL     OW46195   4.694   2.333   7.517
11240SOL    HW146196   4.641   2.249   7.514
11240SOL    HW246197   4.637   2.407   7.555
11241SOL     OW46198   2.041   0.372   7.408
11241SOL    HW146199   1.962   0.398   7.353
11241SOL    HW246200   2.054   0.438   7.481
11242SOL     OW46201   2.082   6.593   8.344
11242SOL    HW146202   2.059   6.655   8.269
11242SOL    HW246203   2.180   6.599   8.363
11243SOL     OW46204   5.073   2.060   8.712
11243SOL    HW146205   5.119   2.097   8.631
11243SOL    HW246206   5.052   2.134   8.775
11244SOL     OW46207   3.335   3.852   8.033
11244SOL    HW146208   3.380   3.770   7.997
11244SOL    HW246209   3.402   3.925   8.042
11245SOL     OW46210   3.530   6.181   8.317
11245SOL    HW146211   3.568   6.196   8.226
11245SOL    HW246212   3.432   6.162   8.309
11246SOL     OW46213   0.363   4.445   8.548
11246SOL    HW146214   0.275   4.470   8.589
11246SOL    HW246215   0.415   4.390   8.613
11247SOL     OW46216   4.174   1.972   8.846
11247SOL    HW146217   4.192   2.066   8.820
11247SOL    HW246218   4.204   1.910   8.774
11248SOL     OW46219   3.939   3.922   8.272
11248SOL    HW146220   3.952   3.823   8.264
11248SOL    HW246221   3.853   3.940   8.320
11249SOL     OW46222   2.026   0.882   8.859
11249SOL    HW146223   2.028   0.804   8.795
11249SOL    HW246224   1.932   0.908   8.876
11250SOL     OW46225   2.199   2.741   7.544
11250SOL    HW146226   2.275   2.802   7.568
11250SOL    HW246227   2.159   2.770   7.457
11251SOL     OW46228   4.875   6.957   8.673
11251SOL    HW146229   4.964   6.945   8.718
11251SOL    HW246230   4.807   6.900   8.719
11252SOL     OW46231   6.052   4.941   8.416
11252SOL    HW146232   6.065   5.022   8.473
11252SOL    HW246233   6.039   4.968   8.321
11253SOL     OW46234   3.200   4.290   7.378
11253SOL    HW146235   3.223   4.211   7.435
11253SOL    HW246236   3.282   4.323   7.332
11254SOL     OW46237   5.867   3.387   7.830
11254SOL    HW146238   5.917   3.310   7.791
11254SOL    HW246239   5.799   3.354   7.896
11255SOL     OW46240   6.583   0.844   9.188
11255SOL    HW146241   6.600   0.932   9.144
11255SOL    HW246242   6.500   0.850   9.244
11256SOL     OW46243   0.932   1.581   8.528
11256SOL    HW146244   0.950   1.579   8.626
11256SOL    HW246245   1.017   1.600   8.478
11257SOL     OW46246   2.612   4.927   7.666
11257SOL    HW146247   2.663   5.012   7.681
11257SOL    HW246248   2.615   4.903   7.569
11258SOL     OW46249   2.869   4.074   8.236
11258SOL    HW146250   2.835   4.159   8.277
11258SOL    HW246251   2.874   4.003   8.306
11259SOL     OW46252   2.736   0.073   8.619
11259SOL    HW146253   2.655   0.085   8.562
11259SOL    HW246254   2.769   0.163   8.648
11260SOL     OW46255   6.465   1.648   8.847
11260SOL    HW146256   6.367   1.641   8.829
11260SOL    HW246257   6.501   1.731   8.806
11261SOL     OW46258   6.679   7.065   8.179
11261SOL    HW146259   6.608   7.022   8.235
11261SOL    HW246260   6.715   6.997   8.114
11262SOL     OW46261   2.358   1.372   8.509
11262SOL    HW146262   2.381   1.431   8.587
11262SOL    HW246263   2.296   1.300   8.539
11263SOL     OW46264   6.386   4.676   8.292
11263SOL    HW146265   6.372   4.766   8.250
11263SOL    HW246266   6.406   4.609   8.221
11264SOL     OW46267   0.943   1.179   8.077
11264SOL    HW146268   0.958   1.233   8.160
11264SOL    HW246269   0.977   1.229   7.998
11265SOL     OW46270   0.430   2.190   7.805
11265SOL    HW146271   0.515   2.203   7.857
11265SOL    HW246272   0.375   2.274   7.810
11266SOL     OW46273   5.700   4.645   8.701
11266SOL    HW146274   5.795   4.656   8.672
11266SOL    HW246275   5.697   4.611   8.794
11267SOL     OW46276   4.083   0.697   7.814
11267SOL    HW146277   4.130   0.732   7.895
11267SOL    HW246278   4.052   0.603   7.831
11268SOL     OW46279   7.205   4.633   7.393
11268SOL    HW146280   7.230   4.667   7.484
11268SOL    HW246281   7.234   4.699   7.324
11269SOL     OW46282   0.331   2.678   7.362
11269SOL    HW146283   0.395   2.732   7.417
11269SOL    HW246284   0.242   2.678   7.406
11270SOL     OW46285   1.243   4.648   8.389
11270SOL    HW146286   1.270   4.678   8.481
11270SOL    HW246287   1.288   4.561   8.368
11271SOL     OW46288   2.423   0.737   7.447
11271SOL    HW146289   2.422   0.810   7.516
11271SOL    HW246290   2.363   0.663   7.476
11272SOL     OW46291   4.751   1.074   8.326
11272SOL    HW146292   4.696   1.132   8.385
11272SOL    HW246293   4.784   1.128   8.248
11273SOL     OW46294   5.969   5.041   8.164
11273SOL    HW146295   5.921   4.975   8.105
11273SOL    HW246296   6.050   5.074   8.116
11274SOL     OW46297   2.885   3.387   7.882
11274SOL    HW146298   2.852   3.320   7.948
11274SOL    HW246299   2.963   3.436   7.920
11275SOL     OW46300   3.722   2.656   8.513
11275SOL    HW146301   3.751   2.585   8.448
11275SOL    HW246302   3.626   2.678   8.496
11276SOL     OW46303   1.267   4.978   8.782
11276SOL    HW146304   1.337   5.029   8.833
11276SOL    HW246305   1.185   4.969   8.837
11277SOL     OW46306   4.016   1.435   7.948
11277SOL    HW146307   4.001   1.511   7.885
11277SOL    HW246308   3.941   1.369   7.940
11278SOL     OW46309   6.148   1.380   8.930
11278SOL    HW146310   6.049   1.368   8.934
11278SOL    HW246311   6.177   1.441   9.003
11279SOL     OW46312   0.037   5.011   7.927
11279SOL    HW146313   0.077   5.065   8.002
11279SOL    HW246314   0.011   5.072   7.853
11280SOL     OW46315   4.888   5.107   7.958
11280SOL    HW146316   4.861   5.011   7.966
11280SOL    HW246317   4.809   5.162   7.931
11281SOL     OW46318   3.892   4.691   8.711
11281SOL    HW146319   3.948   4.716   8.790
11281SOL    HW246320   3.929   4.608   8.668
11282SOL     OW46321   2.690   0.613   7.441
11282SOL    HW146322   2.600   0.653   7.427
11282SOL    HW246323   2.682   0.525   7.487
11283SOL     OW46324   5.661   0.917   8.603
11283SOL    HW146325   5.750   0.904   8.646
11283SOL    HW246326   5.605   0.835   8.617
11284SOL     OW46327   1.533   1.536   7.381
11284SOL    HW146328   1.581   1.454   7.410
11284SOL    HW246329   1.585   1.584   7.311
11285SOL     OW46330   4.929   5.159   8.656
11285SOL    HW146331   4.995   5.084   8.659
11285SOL    HW246332   4.974   5.243   8.624
11286SOL     OW46333   5.286   0.041   7.671
11286SOL    HW146334   5.209   0.103   7.674
11286SOL    HW246335   5.264  -0.037   7.612
11287SOL     OW46336   7.060   6.843   7.790
11287SOL    HW146337   7.022   6.850   7.882
11287SOL    HW246338   6.992   6.805   7.729
11288SOL     OW46339   1.854   5.988   7.481
11288SOL    HW146340   1.765   6.012   7.442
11288SOL    HW246341   1.903   5.928   7.418
11289SOL     OW46342   3.547   3.216   8.437
11289SOL    HW146343   3.463   3.267   8.457
11289SOL    HW246344   3.534   3.120   8.462
11290SOL     OW46345   4.440   3.360   8.927
11290SOL    HW146346   4.432   3.421   9.005
11290SOL    HW246347   4.351   3.316   8.910
11291SOL     OW46348   6.292   6.082   8.681
11291SOL    HW146349   6.244   5.994   8.680
11291SOL    HW246350   6.299   6.117   8.587
11292SOL     OW46351   7.308   5.457   7.426
11292SOL    HW146352   7.360   5.471   7.510
11292SOL    HW246353   7.372   5.450   7.349
11293SOL     OW46354   7.192   7.358   8.086
11293SOL    HW146355   7.255   7.290   8.123
11293SOL    HW246356   7.103   7.316   8.069
11294SOL     OW46357   3.845   3.972   8.013
11294SOL    HW146358   3.790   4.045   7.972
11294SOL    HW246359   3.855   3.990   8.111
11295SOL     OW46360   6.305   1.987   7.841
11295SOL    HW146361   6.364   1.997   7.762
11295SOL    HW246362   6.211   2.010   7.816
11296SOL     OW46363   0.206   0.327   8.362
11296SOL    HW146364   0.275   0.381   8.410
11296SOL    HW246365   0.134   0.387   8.328
11297SOL     OW46366   2.740   1.718   8.301
11297SOL    HW146367   2.800   1.650   8.342
11297SOL    HW246368   2.661   1.734   8.361
11298SOL     OW46369   4.956   3.892   8.120
11298SOL    HW146370   4.980   3.883   8.024
11298SOL    HW246371   5.024   3.949   8.167
11299SOL     OW46372   1.037   4.834   8.099
11299SOL    HW146373   1.131   4.801   8.107
11299SOL    HW246374   0.986   4.773   8.038
11300SOL     OW46375   0.739   1.561   7.762
11300SOL    HW146376   0.648   1.590   7.791
11300SOL    HW246377   0.799   1.556   7.842
11301SOL     OW46378   0.897   5.533   8.311
11301SOL    HW146379   0.815   5.492   8.272
11301SOL    HW246380   0.871   5.604   8.377
11302SOL     OW46381   0.245   5.850   8.434
11302SOL    HW146382   0.330   5.797   8.445
11302SOL    HW246383   0.254   5.911   8.356
11303SOL     OW46384   2.020   3.021   8.328
11303SOL    HW146385   1.984   2.951   8.267
11303SOL    HW246386   2.061   2.978   8.409
11304SOL     OW46387   3.983   4.215   7.872
11304SOL    HW146388   3.893   4.193   7.834
11304SOL    HW246389   4.035   4.131   7.884
11305SOL     OW46390   1.162   4.295   7.936
11305SOL    HW146391   1.143   4.264   7.843
11305SOL    HW246392   1.223   4.375   7.933
11306SOL     OW46393   1.962   1.076   7.512
11306SOL    HW146394   1.923   0.995   7.469
11306SOL    HW246395   2.035   1.048   7.575
11307SOL     OW46396   1.160   0.178   8.543
11307SOL    HW146397   1.104   0.187   8.461
11307SOL    HW246398   1.101   0.182   8.624
11308SOL     OW46399   1.584   5.813   7.675
11308SOL    HW146400   1.670   5.763   7.686
11308SOL    HW246401   1.601   5.911   7.689
11309SOL     OW46402   4.924   3.601   7.734
11309SOL    HW146403   4.876   3.575   7.650
11309SOL    HW246404   4.950   3.519   7.784
11310SOL     OW46405   3.984   0.988   8.015
11310SOL    HW146406   3.940   1.070   7.980
11310SOL    HW246407   4.050   1.013   8.086
11311SOL     OW46408   6.815   2.159   7.384
11311SOL    HW146409   6.792   2.128   7.476
11311SOL    HW246410   6.788   2.254   7.373
11312SOL     OW46411   1.824   2.111   7.976
11312SOL    HW146412   1.737   2.158   7.967
11312SOL    HW246413   1.829   2.065   8.065
11313SOL     OW46414   6.068   6.738   7.628
11313SOL    HW146415   6.090   6.817   7.685
11313SOL    HW246416   6.133   6.664   7.646
11314SOL     OW46417   3.411   7.090   8.658
11314SOL    HW146418   3.506   7.105   8.632
11314SOL    HW246419   3.352   7.149   8.604
11315SOL     OW46420   4.022   1.615   7.756
11315SOL    HW146421   3.967   1.695   7.732
11315SOL    HW246422   4.068   1.581   7.675
11316SOL     OW46423   6.111   5.169   7.705
11316SOL    HW146424   6.049   5.098   7.671
11316SOL    HW246425   6.204   5.132   7.711
11317SOL     OW46426   3.623   6.379   8.944
11317SOL    HW146427   3.554   6.430   8.892
11317SOL    HW246428   3.673   6.319   8.882
11318SOL     OW46429   1.133   1.852   8.138
11318SOL    HW146430   1.041   1.829   8.104
11318SOL    HW246431   1.194   1.864   8.060
11319SOL     OW46432   5.480   0.318   7.501
11319SOL    HW146433   5.381   0.305   7.499
11319SOL    HW246434   5.519   0.287   7.414
11320SOL     OW46435   2.662   6.458   7.400
11320SOL    HW146436   2.599   6.528   7.433
11320SOL    HW246437   2.640   6.371   7.445
11321SOL     OW46438   2.058   2.572   8.040
11321SOL    HW146439   2.047   2.474   8.022
11321SOL    HW246440   2.112   2.613   7.966
11322SOL     OW46441   6.610   3.848   8.512
11322SOL    HW146442   6.623   3.757   8.551
11322SOL    HW246443   6.628   3.917   8.582
11323SOL     OW46444   1.324   1.826   7.953
11323SOL    HW146445   1.393   1.856   7.887
11323SOL    HW246446   1.357   1.745   8.001
11324SOL     OW46447   2.368   4.635   7.523
11324SOL    HW146448   2.300   4.571   7.485
11324SOL    HW246449   2.459   4.595   7.514
11325SOL     OW46450   1.571   2.352   7.553
11325SOL    HW146451   1.507   2.279   7.529
11325SOL    HW246452   1.640   2.361   7.480
11326SOL     OW46453   3.339   0.781   8.578
11326SOL    HW146454   3.355   0.684   8.559
11326SOL    HW246455   3.282   0.791   8.660
11327SOL     OW46456   4.832   2.518   8.479
11327SOL    HW146457   4.823   2.465   8.563
11327SOL    HW246458   4.912   2.578   8.485
11328SOL     OW46459   0.411   1.036   8.822
11328SOL    HW146460   0.358   0.952   8.808
11328SOL    HW246461   0.427   1.080   8.733
11329SOL     OW46462   1.885   6.920   8.013
11329SOL    HW146463   1.937   6.916   8.099
11329SOL    HW246464   1.934   6.977   7.947
11330SOL     OW46465   1.991   2.598   8.515
11330SOL    HW146466   1.947   2.546   8.588
11330SOL    HW246467   1.930   2.603   8.436
11331SOL     OW46468   1.201   5.006   8.315
11331SOL    HW146469   1.141   4.947   8.261
11331SOL    HW246470   1.235   5.080   8.257
11332SOL     OW46471   7.265   4.667   7.649
11332SOL    HW146472   7.315   4.581   7.648
11332SOL    HW246473   7.202   4.669   7.726
11333SOL     OW46474   0.186   4.178   7.592
11333SOL    HW146475   0.194   4.199   7.494
11333SOL    HW246476   0.164   4.081   7.603
11334SOL     OW46477   5.846   0.854   7.960
11334SOL    HW146478   5.937   0.859   7.920
11334SOL    HW246479   5.777   0.863   7.889
11335SOL     OW46480   0.120   3.616   7.553
11335SOL    HW146481   0.130   3.715   7.540
11335SOL    HW246482   0.030   3.587   7.522
11336SOL     OW46483   4.461   0.577   7.549
11336SOL    HW146484   4.465   0.538   7.641
11336SOL    HW246485   4.464   0.676   7.554
11337SOL     OW46486   1.047   5.714   7.736
11337SOL    HW146487   1.017   5.730   7.642
11337SOL    HW246488   1.039   5.616   7.757
11338SOL     OW46489   0.489   5.741   8.418
11338SOL    HW146490   0.523   5.669   8.357
11338SOL    HW246491   0.552   5.819   8.417
11339SOL     OW46492   3.004   1.284   8.587
11339SOL    HW146493   3.061   1.363   8.614
11339SOL    HW246494   2.911   1.298   8.620
11340SOL     OW46495   6.918   3.984   7.961
11340SOL    HW146496   6.829   3.995   8.005
11340SOL    HW246497   6.907   3.928   7.878
11341SOL     OW46498   2.728   5.979   8.709
11341SOL    HW146499   2.652   5.922   8.739
11341SOL    HW246500   2.738   5.973   8.610
11342SOL     OW46501   6.962   5.363   9.255
11342SOL    HW146502   6.899   5.366   9.177
11342SOL    HW246503   6.990   5.269   9.271
11343SOL     OW46504   5.987   0.476   7.370
11343SOL    HW146505   5.956   0.566   7.338
11343SOL    HW246506   5.909   0.421   7.397
11344SOL     OW46507   2.532   1.205   7.524
11344SOL    HW146508   2.466   1.131   7.516
11344SOL    HW246509   2.624   1.169   7.504
11345SOL     OW46510   3.059   4.810   7.791
11345SOL    HW146511   3.070   4.880   7.861
11345SOL    HW246512   2.979   4.754   7.811
11346SOL     OW46513   4.120   7.033   7.388
11346SOL    HW146514   4.174   7.016   7.305
11346SOL    HW246515   4.028   7.064   7.362
11347SOL     OW46516   0.773   5.502   7.510
11347SOL    HW146517   0.682   5.525   7.475
11347SOL    HW246518   0.767   5.485   7.609
11348SOL     OW46519   0.347   6.390   7.633
11348SOL    HW146520   0.405   6.309   7.639
11348SOL    HW246521   0.371   6.442   7.551
11349SOL     OW46522   2.442   5.286   7.515
11349SOL    HW146523   2.523   5.341   7.540
11349SOL    HW246524   2.415   5.230   7.593
11350SOL     OW46525   3.402   2.801   8.813
11350SOL    HW146526   3.479   2.740   8.794
11350SOL    HW246527   3.335   2.793   8.739
11351SOL     OW46528   4.895   0.758   8.634
11351SOL    HW146529   4.819   0.694   8.641
11351SOL    HW246530   4.878   0.837   8.693
11352SOL     OW46531   0.124   1.512   8.951
11352SOL    HW146532   0.178   1.481   8.873
11352SOL    HW246533   0.071   1.435   8.987
11353SOL     OW46534   1.237   6.467   8.031
11353SOL    HW146535   1.165   6.440   7.966
11353SOL    HW246536   1.195   6.514   8.109
11354SOL     OW46537   6.171   4.734   7.613
11354SOL    HW146538   6.143   4.638   7.620
11354SOL    HW246539   6.094   4.793   7.637
11355SOL     OW46540   1.600   2.413   7.819
11355SOL    HW146541   1.590   2.384   7.724
11355SOL    HW246542   1.512   2.449   7.852
11356SOL     OW46543   6.963   0.561   8.260
11356SOL    HW146544   6.992   0.579   8.354
11356SOL    HW246545   6.875   0.605   8.243
11357SOL     OW46546   6.438   7.198   7.958
11357SOL    HW146547   6.431   7.213   8.057
11357SOL    HW246548   6.377   7.260   7.910
11358SOL     OW46549   4.478   1.868   9.197
11358SOL    HW146550   4.519   1.949   9.155
11358SOL    HW246551   4.385   1.855   9.162
11359SOL     OW46552   0.799   4.305   8.065
11359SOL    HW146553   0.755   4.358   8.138
11359SOL    HW246554   0.886   4.268   8.098
11360SOL     OW46555   6.226   3.543   7.526
11360SOL    HW146556   6.245   3.447   7.546
11360SOL    HW246557   6.142   3.570   7.573
11361SOL     OW46558   0.200   0.853   7.967
11361SOL    HW146559   0.262   0.932   7.968
11361SOL    HW246560   0.106   0.885   7.978
11362SOL     OW46561   3.432   2.830   7.496
11362SOL    HW146562   3.403   2.862   7.405
11362SOL    HW246563   3.529   2.850   7.509
11363SOL     OW46564   6.802   1.986   8.774
11363SOL    HW146565   6.832   2.034   8.856
11363SOL    HW246566   6.823   2.042   8.693
11364SOL     OW46567   1.074   2.076   7.382
11364SOL    HW146568   1.082   2.144   7.309
11364SOL    HW246569   1.125   1.994   7.357
11365SOL     OW46570   0.935   3.810   8.157
11365SOL    HW146571   0.884   3.744   8.101
11365SOL    HW246572   1.023   3.829   8.114
11366SOL     OW46573   4.859   1.210   8.081
11366SOL    HW146574   4.854   1.309   8.088
11366SOL    HW246575   4.831   1.181   7.989
11367SOL     OW46576   2.031   4.878   8.524
11367SOL    HW146577   1.994   4.804   8.468
11367SOL    HW246578   2.095   4.840   8.590
11368SOL     OW46579   2.196   4.810   8.964
11368SOL    HW146580   2.176   4.837   8.870
11368SOL    HW246581   2.156   4.878   9.027
11369SOL     OW46582   5.487   3.564   7.420
11369SOL    HW146583   5.445   3.653   7.436
11369SOL    HW246584   5.574   3.576   7.373
11370SOL     OW46585   6.337   5.170   8.681
11370SOL    HW146586   6.380   5.200   8.767
11370SOL    HW246587   6.408   5.139   8.618
11371SOL     OW46588   4.113   6.293   8.115
11371SOL    HW146589   4.164   6.373   8.083
11371SOL    HW246590   4.029   6.285   8.062
11372SOL     OW46591   4.389   4.370   8.529
11372SOL    HW146592   4.345   4.432   8.463
11372SOL    HW246593   4.370   4.275   8.502
11373SOL     OW46594   0.284   0.157   8.995
11373SOL    HW146595   0.280   0.063   8.961
11373SOL    HW246596   0.243   0.219   8.928
11374SOL     OW46597   6.307   5.085   8.310
11374SOL    HW146598   6.304   5.063   8.408
11374SOL    HW246599   6.313   5.185   8.299
11375SOL     OW46600   0.835   1.884   8.401
11375SOL    HW146601   0.891   1.802   8.413
11375SOL    HW246602   0.878   1.944   8.333
11376SOL     OW46603   5.514   5.532   9.026
11376SOL    HW146604   5.561   5.596   8.966
11376SOL    HW246605   5.432   5.575   9.064
11377SOL     OW46606   6.469   3.448   8.849
11377SOL    HW146607   6.517   3.361   8.860
11377SOL    HW246608   6.508   3.515   8.912
11378SOL     OW46609   3.260   2.173   7.639
11378SOL    HW146610   3.171   2.199   7.677
11378SOL    HW246611   3.290   2.087   7.679
11379SOL     OW46612   2.615   4.220   7.848
11379SOL    HW146613   2.626   4.254   7.941
11379SOL    HW246614   2.698   4.170   7.821
11380SOL     OW46615   5.558   2.719   7.521
11380SOL    HW146616   5.488   2.665   7.568
11380SOL    HW246617   5.600   2.782   7.585
11381SOL     OW46618   4.714   1.677   7.634
11381SOL    HW146619   4.805   1.683   7.593
11381SOL    HW246620   4.680   1.769   7.653
11382SOL     OW46621   0.679   6.945   8.023
11382SOL    HW146622   0.632   7.001   8.092
11382SOL    HW246623   0.776   6.969   8.021
11383SOL     OW46624   3.520   4.874   8.287
11383SOL    HW146625   3.518   4.845   8.191
11383SOL    HW246626   3.584   4.816   8.337
11384SOL     OW46627   3.227   0.054   7.972
11384SOL    HW146628   3.191  -0.007   7.902
11384SOL    HW246629   3.179   0.039   8.058
11385SOL     OW46630   5.465   0.554   8.375
11385SOL    HW146631   5.529   0.492   8.330
11385SOL    HW246632   5.444   0.630   8.314
11386SOL     OW46633   6.640   0.017   7.954
11386SOL    HW146634   6.570   0.087   7.940
11386SOL    HW246635   6.596  -0.071   7.973
11387SOL     OW46636   2.442   3.029   8.497
11387SOL    HW146637   2.541   3.045   8.492
11387SOL    HW246638   2.421   2.967   8.572
11388SOL     OW46639   5.746   5.906   8.472
11388SOL    HW146640   5.798   5.955   8.541
11388SOL    HW246641   5.667   5.960   8.445
11389SOL     OW46642   3.545   5.580   7.794
11389SOL    HW146643   3.540   5.487   7.759
11389SOL    HW246644   3.457   5.626   7.779
11390SOL     OW46645   6.094   0.167   8.468
11390SOL    HW146646   6.066   0.166   8.564
11390SOL    HW246647   6.189   0.136   8.461
11391SOL     OW46648   4.187   0.525   7.542
11391SOL    HW146649   4.132   0.608   7.528
11391SOL    HW246650   4.283   0.550   7.550
11392SOL     OW46651   0.418   0.431   8.535
11392SOL    HW146652   0.499   0.471   8.493
11392SOL    HW246653   0.414   0.457   8.631
11393SOL     OW46654   2.190   3.562   7.613
11393SOL    HW146655   2.122   3.531   7.680
11393SOL    HW246656   2.175   3.659   7.592
11394SOL     OW46657   3.693   7.184   8.591
11394SOL    HW146658   3.739   7.096   8.605
11394SOL    HW246659   3.689   7.204   8.493
11395SOL     OW46660   2.214   4.439   7.427
11395SOL    HW146661   2.255   4.384   7.354
11395SOL    HW246662   2.140   4.494   7.390
11396SOL     OW46663   1.312   4.192   8.442
11396SOL    HW146664   1.264   4.138   8.373
11396SOL    HW246665   1.387   4.138   8.480
11397SOL     OW46666   0.197   4.737   8.585
11397SOL    HW146667   0.212   4.716   8.488
11397SOL    HW246668   0.099   4.744   8.603
11398SOL     OW46669   1.282   4.222   7.415
11398SOL    HW146670   1.343   4.260   7.345
11398SOL    HW246671   1.336   4.196   7.495
11399SOL     OW46672   7.319   0.454   8.261
11399SOL    HW146673   7.324   0.375   8.199
11399SOL    HW246674   7.285   0.533   8.210
11400SOL     OW46675   2.713   5.265   7.906
11400SOL    HW146676   2.675   5.312   7.826
11400SOL    HW246677   2.669   5.176   7.917
11401SOL     OW46678   7.341   0.242   8.091
11401SOL    HW146679   7.422   0.231   8.034
11401SOL    HW246680   7.288   0.157   8.090
11402SOL     OW46681   6.431   3.425   8.455
11402SOL    HW146682   6.393   3.354   8.514
11402SOL    HW246683   6.527   3.440   8.478
11403SOL     OW46684   7.342   4.960   7.496
11403SOL    HW146685   7.357   5.031   7.565
11403SOL    HW246686   7.327   4.872   7.542
11404SOL     OW46687   4.813   0.956   8.812
11404SOL    HW146688   4.748   1.032   8.809
11404SOL    HW246689   4.831   0.932   8.908
11405SOL     OW46690   2.933   1.598   7.818
11405SOL    HW146691   3.022   1.628   7.852
11405SOL    HW246692   2.867   1.599   7.893
11406SOL     OW46693   2.723   1.882   8.613
11406SOL    HW146694   2.637   1.831   8.615
11406SOL    HW246695   2.705   1.975   8.581
11407SOL     OW46696   5.874   2.931   8.542
11407SOL    HW146697   5.917   3.021   8.550
11407SOL    HW246698   5.924   2.866   8.599
11408SOL     OW46699   1.776   3.450   7.926
11408SOL    HW146700   1.714   3.477   7.853
11408SOL    HW246701   1.765   3.352   7.945
11409SOL     OW46702   5.639   2.248   7.850
11409SOL    HW146703   5.624   2.242   7.948
11409SOL    HW246704   5.657   2.343   7.825
11410SOL     OW46705   5.437   2.986   8.098
11410SOL    HW146706   5.358   2.934   8.131
11410SOL    HW246707   5.434   2.990   7.998
11411SOL     OW46708   6.213   0.106   8.116
11411SOL    HW146709   6.201   0.089   8.018
11411SOL    HW246710   6.129   0.081   8.164
11412SOL     OW46711   1.368   2.086   8.112
11412SOL    HW146712   1.372   2.080   8.212
11412SOL    HW246713   1.363   1.994   8.073
11413SOL     OW46714   3.072   4.711   8.223
11413SOL    HW146715   2.977   4.743   8.229
11413SOL    HW246716   3.134   4.785   8.251
11414SOL     OW46717   2.928   7.353   8.420
11414SOL    HW146718   2.873   7.281   8.379
11414SOL    HW246719   2.905   7.361   8.517
11415SOL     OW46720   1.024   1.715   8.768
11415SOL    HW146721   0.991   1.679   8.855
11415SOL    HW246722   0.992   1.809   8.756
11416SOL     OW46723   7.218   7.076   8.672
11416SOL    HW146724   7.194   7.126   8.756
11416SOL    HW246725   7.152   7.099   8.601
11417SOL     OW46726   0.722   2.918   8.722
11417SOL    HW146727   0.703   2.997   8.780
11417SOL    HW246728   0.820   2.898   8.723
11418SOL     OW46729   5.767   1.624   8.559
11418SOL    HW146730   5.696   1.561   8.590
11418SOL    HW246731   5.787   1.607   8.462
11419SOL     OW46732   6.578   4.702   7.702
11419SOL    HW146733   6.525   4.729   7.782
11419SOL    HW246734   6.553   4.760   7.624
11420SOL     OW46735   5.222   5.582   9.083
11420SOL    HW146736   5.215   5.680   9.066
11420SOL    HW246737   5.165   5.557   9.161
11421SOL     OW46738   4.998   0.942   7.538
11421SOL    HW146739   4.983   0.843   7.532
11421SOL    HW246740   4.911   0.990   7.521
11422SOL     OW46741   3.618   0.791   8.524
11422SOL    HW146742   3.524   0.806   8.554
11422SOL    HW246743   3.618   0.760   8.429
11423SOL     OW46744   1.671   5.566   8.064
11423SOL    HW146745   1.620   5.650   8.083
11423SOL    HW246746   1.607   5.494   8.035
11424SOL     OW46747   1.989   5.245   8.416
11424SOL    HW146748   1.967   5.304   8.493
11424SOL    HW246749   2.082   5.211   8.425
11425SOL     OW46750   2.082   0.635   8.014
11425SOL    HW146751   2.043   0.550   7.978
11425SOL    HW246752   2.139   0.615   8.093
11426SOL     OW46753   5.397   0.926   7.706
11426SOL    HW146754   5.368   0.953   7.615
11426SOL    HW246755   5.387   1.003   7.769
11427SOL     OW46756   0.630   1.877   8.198
11427SOL    HW146757   0.681   1.884   8.284
11427SOL    HW246758   0.671   1.937   8.129
11428SOL     OW46759   4.273   1.731   8.757
11428SOL    HW146760   4.221   1.691   8.833
11428SOL    HW246761   4.370   1.717   8.774
11429SOL     OW46762   6.952   7.339   7.908
11429SOL    HW146763   6.853   7.343   7.926
11429SOL    HW246764   6.970   7.267   7.840
11430SOL     OW46765   2.629   3.059   8.008
11430SOL    HW146766   2.653   2.966   7.980
11430SOL    HW246767   2.545   3.057   8.063
11431SOL     OW46768   6.594   3.787   7.829
11431SOL    HW146769   6.544   3.752   7.908
11431SOL    HW246770   6.654   3.715   7.792
11432SOL     OW46771   6.966   2.786   7.773
11432SOL    HW146772   7.053   2.746   7.802
11432SOL    HW246773   6.898   2.774   7.845
11433SOL     OW46774   2.921   6.231   8.951
11433SOL    HW146775   2.949   6.191   9.038
11433SOL    HW246776   2.823   6.215   8.936
11434SOL     OW46777   3.231   4.116   7.856
11434SOL    HW146778   3.152   4.171   7.829
11434SOL    HW246779   3.217   4.080   7.949
11435SOL     OW46780   2.945   1.336   7.748
11435SOL    HW146781   2.953   1.436   7.752
11435SOL    HW246782   2.906   1.310   7.659
11436SOL     OW46783   2.083   4.518   7.994
11436SOL    HW146784   2.049   4.544   7.904
11436SOL    HW246785   2.006   4.508   8.057
11437SOL     OW46786   3.873   0.152   7.451
11437SOL    HW146787   3.867   0.141   7.352
11437SOL    HW246788   3.843   0.067   7.496
11438SOL     OW46789   3.478   1.974   8.011
11438SOL    HW146790   3.491   2.030   8.093
11438SOL    HW246791   3.510   1.881   8.029
11439SOL     OW46792   3.158   3.089   8.358
11439SOL    HW146793   3.158   3.105   8.259
11439SOL    HW246794   3.068   3.111   8.395
11440SOL     OW46795   1.074   5.953   8.510
11440SOL    HW146796   1.140   5.944   8.436
11440SOL    HW246797   1.092   6.037   8.560
11441SOL     OW46798   0.697   3.199   8.805
11441SOL    HW146799   0.655   3.266   8.743
11441SOL    HW246800   0.698   3.236   8.898
11442SOL     OW46801   1.997   6.284   8.802
11442SOL    HW146802   2.056   6.203   8.808
11442SOL    HW246803   1.993   6.316   8.707
11443SOL     OW46804   1.590   1.505   8.624
11443SOL    HW146805   1.594   1.471   8.718
11443SOL    HW246806   1.507   1.471   8.580
11444SOL     OW46807   3.456   4.564   7.722
11444SOL    HW146808   3.464   4.483   7.663
11444SOL    HW246809   3.404   4.635   7.674
11445SOL     OW46810   0.112   6.494   7.707
11445SOL    HW146811   0.199   6.446   7.699
11445SOL    HW246812   0.066   6.466   7.791
11446SOL     OW46813   1.797   3.836   8.711
11446SOL    HW146814   1.863   3.764   8.685
11446SOL    HW246815   1.736   3.800   8.781
11447SOL     OW46816   6.335   6.144   7.984
11447SOL    HW146817   6.365   6.053   8.016
11447SOL    HW246818   6.344   6.149   7.885
11448SOL     OW46819   2.187   1.227   7.884
11448SOL    HW146820   2.277   1.236   7.842
11448SOL    HW246821   2.130   1.166   7.829
11449SOL     OW46822   6.455   6.703   8.159
11449SOL    HW146823   6.481   6.760   8.081
11449SOL    HW246824   6.384   6.639   8.130
11450SOL     OW46825   1.385   4.967   8.544
11450SOL    HW146826   1.325   4.965   8.464
11450SOL    HW246827   1.329   4.976   8.627
11451SOL     OW46828   0.223   7.102   8.656
11451SOL    HW146829   0.130   7.138   8.669
11451SOL    HW246830   0.219   7.002   8.651
11452SOL     OW46831   2.374   5.452   7.842
11452SOL    HW146832   2.351   5.357   7.820
11452SOL    HW246833   2.381   5.504   7.757
11453SOL     OW46834   2.356   3.394   8.422
11453SOL    HW146835   2.341   3.297   8.405
11453SOL    HW246836   2.380   3.440   8.337
11454SOL     OW46837   7.117   2.470   8.383
11454SOL    HW146838   7.148   2.402   8.316
11454SOL    HW246839   7.031   2.440   8.422
11455SOL     OW46840   1.811   7.142   7.399
11455SOL    HW146841   1.814   7.048   7.432
11455SOL    HW246842   1.733   7.189   7.439
11456SOL     OW46843   1.054   4.215   8.800
11456SOL    HW146844   1.093   4.273   8.728
11456SOL    HW246845   1.082   4.249   8.890
11457SOL     OW46846   5.053   0.110   8.964
11457SOL    HW146847   5.043   0.014   8.937
11457SOL    HW246848   5.117   0.115   9.041
11458SOL     OW46849   7.292   5.189   7.711
11458SOL    HW146850   7.207   5.221   7.668
11458SOL    HW246851   7.348   5.268   7.736
11459SOL     OW46852   1.028   5.005   8.947
11459SOL    HW146853   1.056   5.004   9.043
11459SOL    HW246854   0.971   5.086   8.930
11460SOL     OW46855   1.951   7.047   8.413
11460SOL    HW146856   1.860   7.075   8.385
11460SOL    HW246857   1.945   6.991   8.496
11461SOL     OW46858   4.129   4.640   8.107
11461SOL    HW146859   4.125   4.542   8.085
11461SOL    HW246860   4.144   4.651   8.206
11462SOL     OW46861   1.841   6.435   8.410
11462SOL    HW146862   1.912   6.504   8.397
11462SOL    HW246863   1.873   6.347   8.373
11463SOL     OW46864   0.569   5.486   8.323
11463SOL    HW146865   0.511   5.431   8.263
11463SOL    HW246866   0.636   5.426   8.368
11464SOL     OW46867   2.651   1.119   8.623
11464SOL    HW146868   2.609   1.143   8.535
11464SOL    HW246869   2.617   1.030   8.653
11465SOL     OW46870   1.643   4.170   7.816
11465SOL    HW146871   1.606   4.238   7.753
11465SOL    HW246872   1.734   4.143   7.785
11466SOL     OW46873   5.350   2.203   7.601
11466SOL    HW146874   5.278   2.247   7.548
11466SOL    HW246875   5.309   2.145   7.672
11467SOL     OW46876   6.713   0.565   7.988
11467SOL    HW146877   6.807   0.592   8.007
11467SOL    HW246878   6.665   0.545   8.073
11468SOL     OW46879   3.391   3.034   8.086
11468SOL    HW146880   3.479   3.073   8.113
11468SOL    HW246881   3.317   3.088   8.125
11469SOL     OW46882   4.723   0.695   7.700
11469SOL    HW146883   4.749   0.695   7.604
11469SOL    HW246884   4.653   0.765   7.716
11470SOL     OW46885   3.493   7.134   8.182
11470SOL    HW146886   3.535   7.224   8.196
11470SOL    HW246887   3.403   7.145   8.140
11471SOL     OW46888   6.515   1.893   8.288
11471SOL    HW146889   6.480   1.972   8.237
11471SOL    HW246890   6.560   1.830   8.224
11472SOL     OW46891   1.749   2.223   8.575
11472SOL    HW146892   1.827   2.265   8.620
11472SOL    HW246893   1.702   2.162   8.640
11473SOL     OW46894   3.120   6.518   8.350
11473SOL    HW146895   3.079   6.601   8.387
11473SOL    HW246896   3.148   6.458   8.425
11474SOL     OW46897   6.133   5.398   7.436
11474SOL    HW146898   6.156   5.339   7.514
11474SOL    HW246899   6.110   5.341   7.357
11475SOL     OW46900   5.590   0.570   8.830
11475SOL    HW146901   5.543   0.611   8.752
11475SOL    HW246902   5.664   0.511   8.798
11476SOL     OW46903   3.751   1.771   7.913
11476SOL    HW146904   3.742   1.736   7.820
11476SOL    HW246905   3.754   1.871   7.911
11477SOL     OW46906   0.293   1.319   7.717
11477SOL    HW146907   0.393   1.330   7.718
11477SOL    HW246908   0.271   1.223   7.702
11478SOL     OW46909   6.145   2.017   8.175
11478SOL    HW146910   6.059   2.050   8.213
11478SOL    HW246911   6.126   1.952   8.101
11479SOL     OW46912   5.591   1.215   8.205
11479SOL    HW146913   5.649   1.150   8.253
11479SOL    HW246914   5.515   1.167   8.162
11480SOL     OW46915   0.155   2.660   8.465
11480SOL    HW146916   0.165   2.576   8.411
11480SOL    HW246917   0.246   2.692   8.493
11481SOL     OW46918   6.427   5.897   8.060
11481SOL    HW146919   6.460   5.834   7.989
11481SOL    HW246920   6.424   5.850   8.148
11482SOL     OW46921   1.133   5.666   8.243
11482SOL    HW146922   1.144   5.764   8.261
11482SOL    HW246923   1.039   5.639   8.259
11483SOL     OW46924   6.268   0.397   8.679
11483SOL    HW146925   6.351   0.352   8.646
11483SOL    HW246926   6.211   0.423   8.601
11484SOL     OW46927   6.218   0.377   8.191
11484SOL    HW146928   6.202   0.279   8.205
11484SOL    HW246929   6.316   0.397   8.200
11485SOL     OW46930   5.024   0.124   7.712
11485SOL    HW146931   5.027   0.221   7.691
11485SOL    HW246932   5.010   0.111   7.810
11486SOL     OW46933   1.574   2.445   8.204
11486SOL    HW146934   1.597   2.352   8.232
11486SOL    HW246935   1.517   2.442   8.122
11487SOL     OW46936   0.950   2.086   8.220
11487SOL    HW146937   0.974   2.181   8.239
11487SOL    HW246938   1.034   2.033   8.203
11488SOL     OW46939   2.756   5.735   8.373
11488SOL    HW146940   2.753   5.703   8.278
11488SOL    HW246941   2.680   5.694   8.424
11489SOL     OW46942   2.771   1.371   8.665
11489SOL    HW146943   2.723   1.289   8.633
11489SOL    HW246944   2.726   1.406   8.747
11490SOL     OW46945   3.005   4.699   7.390
11490SOL    HW146946   3.048   4.633   7.451
11490SOL    HW246947   3.073   4.732   7.323
11491SOL     OW46948   3.293   1.935   7.799
11491SOL    HW146949   3.368   1.940   7.866
11491SOL    HW246950   3.216   1.886   7.839
11492SOL     OW46951   1.378   3.145   8.206
11492SOL    HW146952   1.376   3.228   8.151
11492SOL    HW246953   1.294   3.093   8.190
11493SOL     OW46954   6.699   4.081   8.678
11493SOL    HW146955   6.685   4.151   8.607
11493SOL    HW246956   6.664   4.115   8.765
11494SOL     OW46957   2.082   0.460   8.581
11494SOL    HW146958   2.011   0.399   8.546
11494SOL    HW246959   2.062   0.554   8.553
11495SOL     OW46960   0.983   3.349   7.524
11495SOL    HW146961   0.965   3.447   7.533
11495SOL    HW246962   1.032   3.316   7.605
11496SOL     OW46963   6.235   0.882   8.659
11496SOL    HW146964   6.292   0.908   8.738
11496SOL    HW246965   6.169   0.812   8.688
11497SOL     OW46966   4.722   1.488   7.414
11497SOL    HW146967   4.693   1.544   7.336
11497SOL    HW246968   4.732   1.545   7.495
11498SOL     OW46969   5.008   6.450   7.821
11498SOL    HW146970   5.077   6.521   7.819
11498SOL    HW246971   4.926   6.485   7.866
11499SOL     OW46972   1.864   0.124   8.164
11499SOL    HW146973   1.831   0.219   8.168
11499SOL    HW246974   1.816   0.070   8.233
11500SOL     OW46975   4.615   0.213   8.595
11500SOL    HW146976   4.585   0.218   8.500
11500SOL    HW246977   4.566   0.140   8.642
11501SOL     OW46978   3.799   2.084   8.192
11501SOL    HW146979   3.763   2.011   8.250
11501SOL    HW246980   3.826   2.047   8.104
11502SOL     OW46981   2.387   5.193   7.793
11502SOL    HW146982   2.314   5.134   7.758
11502SOL    HW246983   2.461   5.136   7.830
11503SOL     OW46984   0.375   6.509   8.790
11503SOL    HW146985   0.351   6.415   8.769
11503SOL    HW246986   0.369   6.524   8.889
11504SOL     OW46987   2.570   1.551   7.822
11504SOL    HW146988   2.554   1.461   7.863
11504SOL    HW246989   2.626   1.606   7.885
11505SOL     OW46990   1.892   5.463   7.897
11505SOL    HW146991   1.980   5.503   7.918
11505SOL    HW246992   1.822   5.502   7.957
11506SOL     OW46993   2.238   5.074   8.435
11506SOL    HW146994   2.181   4.995   8.459
11506SOL    HW246995   2.264   5.068   8.339
11507SOL     OW46996   3.665   2.068   8.647
11507SOL    HW146997   3.698   2.127   8.573
11507SOL    HW246998   3.742   2.040   8.705
11508SOL     OW46999   3.631   3.177   8.180
11508SOL    HW147000   3.675   3.263   8.154
11508SOL    HW247001   3.616   3.176   8.279
11509SOL     OW47002   1.880   4.106   7.697
11509SOL    HW147003   1.962   4.107   7.755
11509SOL    HW247004   1.895   4.165   7.618
11510SOL     OW47005   3.705   1.570   8.533
11510SOL    HW147006   3.627   1.592   8.592
11510SOL    HW247007   3.757   1.653   8.515
11511SOL     OW47008   7.112   4.623   8.616
11511SOL    HW147009   7.204   4.660   8.632
11511SOL    HW247010   7.111   4.525   8.638
11512SOL     OW47011   1.355   4.835   7.498
11512SOL    HW147012   1.345   4.801   7.405
11512SOL    HW247013   1.432   4.789   7.543
11513SOL     OW47014   5.140   6.580   8.925
11513SOL    HW147015   5.135   6.664   8.978
11513SOL    HW247016   5.162   6.601   8.829
11514SOL     OW47017   6.110   0.980   8.403
11514SOL    HW147018   6.060   0.903   8.363
11514SOL    HW247019   6.152   0.951   8.489
11515SOL     OW47020   5.080   6.714   8.435
11515SOL    HW147021   5.119   6.805   8.446
11515SOL    HW247022   5.102   6.659   8.516
11516SOL     OW47023   1.572   1.641   7.628
11516SOL    HW147024   1.546   1.613   7.536
11516SOL    HW247025   1.496   1.623   7.691
11517SOL     OW47026   2.147   7.042   7.444
11517SOL    HW147027   2.105   6.965   7.396
11517SOL    HW247028   2.188   7.104   7.376
11518SOL     OW47029   6.388   5.718   8.262
11518SOL    HW147030   6.467   5.668   8.298
11518SOL    HW247031   6.340   5.660   8.195
11519SOL     OW47032   1.869   1.433   7.830
11519SOL    HW147033   1.773   1.444   7.855
11519SOL    HW247034   1.927   1.450   7.910
11520SOL     OW47035   7.007   5.910   7.992
11520SOL    HW147036   6.907   5.899   7.997
11520SOL    HW247037   7.051   5.823   8.017
11521SOL     OW47038   7.027   2.002   8.100
11521SOL    HW147039   7.036   2.093   8.059
11521SOL    HW247040   7.113   1.951   8.087
11522SOL     OW47041   5.283   1.708   7.492
11522SOL    HW147042   5.336   1.778   7.541
11522SOL    HW247043   5.326   1.619   7.504
11523SOL     OW47044   5.534   1.860   8.405
11523SOL    HW147045   5.533   1.830   8.309
11523SOL    HW247046   5.468   1.806   8.457
11524SOL     OW47047   5.722   2.747   7.893
11524SOL    HW147048   5.807   2.793   7.919
11524SOL    HW247049   5.661   2.812   7.849
11525SOL     OW47050   2.267   5.815   8.273
11525SOL    HW147051   2.348   5.764   8.244
11525SOL    HW247052   2.279   5.846   8.368
11526SOL     OW47053   5.118   6.991   7.800
11526SOL    HW147054   5.060   7.008   7.879
11526SOL    HW247055   5.203   7.044   7.809
11527SOL     OW47056   1.843   0.845   7.392
11527SOL    HW147057   1.902   0.785   7.338
11527SOL    HW247058   1.760   0.866   7.339
11528SOL     OW47059   4.999   7.187   8.164
11528SOL    HW147060   5.095   7.162   8.163
11528SOL    HW247061   4.983   7.264   8.101
11529SOL     OW47062   6.316   1.238   9.295
11529SOL    HW147063   6.390   1.298   9.265
11529SOL    HW247064   6.318   1.231   9.395
11530SOL     OW47065   3.383   1.161   8.056
11530SOL    HW147066   3.390   1.162   8.155
11530SOL    HW247067   3.330   1.240   8.025
11531SOL     OW47068   7.265   2.011   7.600
11531SOL    HW147069   7.317   2.083   7.644
11531SOL    HW247070   7.307   1.922   7.619
11532SOL     OW47071   3.172   4.746   8.582
11532SOL    HW147072   3.141   4.834   8.545
11532SOL    HW247073   3.256   4.760   8.634
11533SOL     OW47074   2.965   6.784   8.350
11533SOL    HW147075   2.941   6.781   8.253
11533SOL    HW247076   2.884   6.804   8.404
11534SOL     OW47077   3.804   6.235   8.762
11534SOL    HW147078   3.863   6.258   8.684
11534SOL    HW247079   3.859   6.236   8.846
11535SOL     OW47080   3.259   2.587   9.080
11535SOL    HW147081   3.332   2.656   9.074
11535SOL    HW247082   3.276   2.514   9.014
11536SOL     OW47083   1.690   2.577   8.846
11536SOL    HW147084   1.651   2.493   8.809
11536SOL    HW247085   1.642   2.656   8.809
11537SOL     OW47086   7.219   2.994   7.965
11537SOL    HW147087   7.220   3.085   8.008
11537SOL    HW247088   7.249   3.002   7.870
11538SOL     OW47089   1.522   4.887   8.194
11538SOL    HW147090   1.496   4.971   8.146
11538SOL    HW247091   1.531   4.907   8.292
11539SOL     OW47092   4.632   3.728   7.756
11539SOL    HW147093   4.644   3.781   7.673
11539SOL    HW247094   4.717   3.680   7.778
11540SOL     OW47095   1.939   3.643   8.365
11540SOL    HW147096   1.952   3.708   8.290
11540SOL    HW247097   1.843   3.614   8.368
11541SOL     OW47098   3.478   0.260   8.572
11541SOL    HW147099   3.397   0.201   8.565
11541SOL    HW247100   3.523   0.244   8.660
11542SOL     OW47101   4.757   4.883   8.566
11542SOL    HW147102   4.856   4.889   8.559
11542SOL    HW247103   4.715   4.963   8.523
11543SOL     OW47104   0.092   1.390   8.421
11543SOL    HW147105   0.017   1.456   8.411
11543SOL    HW247106   0.166   1.414   8.359
11544SOL     OW47107   3.661   3.611   8.638
11544SOL    HW147108   3.621   3.539   8.695
11544SOL    HW247109   3.595   3.686   8.628
11545SOL     OW47110   7.348   3.130   8.384
11545SOL    HW147111   7.398   3.067   8.443
11545SOL    HW247112   7.408   3.164   8.312
11546SOL     OW47113   3.789   2.633   7.757
11546SOL    HW147114   3.763   2.583   7.840
11546SOL    HW247115   3.731   2.714   7.749
11547SOL     OW47116   5.116   2.753   7.879
11547SOL    HW147117   5.031   2.804   7.869
11547SOL    HW247118   5.172   2.766   7.798
11548SOL     OW47119   5.667   0.402   8.141
11548SOL    HW147120   5.680   0.305   8.161
11548SOL    HW247121   5.642   0.414   8.045
11549SOL     OW47122   2.744   4.338   8.234
11549SOL    HW147123   2.673   4.271   8.213
11549SOL    HW247124   2.808   4.342   8.157
11550SOL     OW47125   5.801   5.420   8.719
11550SOL    HW147126   5.727   5.474   8.678
11550SOL    HW247127   5.796   5.326   8.686
11551SOL     OW47128   6.627   3.177   8.408
11551SOL    HW147129   6.709   3.173   8.353
11551SOL    HW247130   6.546   3.169   8.349
11552SOL     OW47131   1.108   2.683   7.630
11552SOL    HW147132   1.071   2.616   7.566
11552SOL    HW247133   1.081   2.775   7.601
11553SOL     OW47134   5.620   6.640   7.723
11553SOL    HW147135   5.576   6.632   7.634
11553SOL    HW247136   5.551   6.637   7.795
11554SOL     OW47137   3.792   2.501   7.989
11554SOL    HW147138   3.693   2.492   7.985
11554SOL    HW247139   3.831   2.424   8.040
11555SOL     OW47140   5.299   2.835   8.569
11555SOL    HW147141   5.378   2.805   8.624
11555SOL    HW247142   5.314   2.808   8.474
11556SOL     OW47143   2.931   3.070   8.844
11556SOL    HW147144   2.949   2.986   8.792
11556SOL    HW247145   2.838   3.068   8.880
11557SOL     OW47146   5.107   2.302   8.853
11557SOL    HW147147   5.086   2.304   8.950
11557SOL    HW247148   5.202   2.275   8.839
11558SOL     OW47149   0.162   7.328   7.782
11558SOL    HW147150   0.066   7.302   7.774
11558SOL    HW247151   0.215   7.252   7.820
11559SOL     OW47152   2.913   5.137   8.063
11559SOL    HW147153   2.868   5.077   8.130
11559SOL    HW247154   2.844   5.177   8.003
11560SOL     OW47155   2.912   6.976   7.624
11560SOL    HW147156   2.929   6.897   7.566
11560SOL    HW247157   2.911   6.948   7.720
11561SOL     OW47158   4.289   6.827   8.074
11561SOL    HW147159   4.216   6.875   8.123
11561SOL    HW247160   4.363   6.891   8.053
11562SOL     OW47161   0.903   1.802   7.964
11562SOL    HW147162   0.923   1.807   7.866
11562SOL    HW247163   0.857   1.716   7.984
11563SOL     OW47164   1.437   3.602   8.672
11563SOL    HW147165   1.340   3.623   8.679
11563SOL    HW247166   1.473   3.581   8.763
11564SOL     OW47167   1.644   4.048   8.890
11564SOL    HW147168   1.624   3.951   8.901
11564SOL    HW247169   1.735   4.059   8.850
11565SOL     OW47170   0.708   1.379   8.472
11565SOL    HW147171   0.728   1.284   8.495
11565SOL    HW247172   0.762   1.440   8.531
11566SOL     OW47173   3.435   6.526   8.778
11566SOL    HW147174   3.386   6.454   8.730
11566SOL    HW247175   3.370   6.581   8.831
11567SOL     OW47176   0.511   5.624   7.380
11567SOL    HW147177   0.460   5.559   7.323
11567SOL    HW247178   0.524   5.710   7.330
11568SOL     OW47179   4.332   0.100   8.355
11568SOL    HW147180   4.377   0.026   8.405
11568SOL    HW247181   4.250   0.065   8.310
11569SOL     OW47182   4.804   5.689   9.084
11569SOL    HW147183   4.737   5.700   9.158
11569SOL    HW247184   4.764   5.637   9.009
11570SOL     OW47185   5.915   0.531   8.191
11570SOL    HW147186   5.976   0.463   8.230
11570SOL    HW247187   5.842   0.485   8.140
11571SOL     OW47188   2.183   1.046   7.686
11571SOL    HW147189   2.243   1.041   7.606
11571SOL    HW247190   2.188   0.960   7.737
11572SOL     OW47191   6.157   5.753   8.412
11572SOL    HW147192   6.230   5.772   8.346
11572SOL    HW247193   6.081   5.708   8.364
11573SOL     OW47194   5.886   4.605   7.384
11573SOL    HW147195   5.858   4.527   7.440
11573SOL    HW247196   5.985   4.607   7.375
11574SOL     OW47197   3.315   0.429   8.118
11574SOL    HW147198   3.376   0.484   8.061
11574SOL    HW247199   3.245   0.487   8.159
11575SOL     OW47200   2.681   6.808   7.741
11575SOL    HW147201   2.651   6.904   7.739
11575SOL    HW247202   2.729   6.786   7.656
11576SOL     OW47203   5.311   4.001   8.420
11576SOL    HW147204   5.304   3.901   8.414
11576SOL    HW247205   5.386   4.032   8.361
11577SOL     OW47206   0.988   7.277   8.124
11577SOL    HW147207   0.889   7.284   8.112
11577SOL    HW247208   1.023   7.201   8.070
11578SOL     OW47209   0.200   3.943   7.781
11578SOL    HW147210   0.253   3.861   7.801
11578SOL    HW247211   0.171   3.941   7.685
11579SOL     OW47212   3.383   4.610   7.420
11579SOL    HW147213   3.408   4.519   7.386
11579SOL    HW247214   3.293   4.606   7.462
11580SOL     OW47215   1.706   3.706   8.092
11580SOL    HW147216   1.790   3.735   8.046
11580SOL    HW247217   1.703   3.606   8.096
11581SOL     OW47218   2.965   1.242   8.154
11581SOL    HW147219   3.021   1.282   8.226
11581SOL    HW247220   2.925   1.156   8.187
11582SOL     OW47221   1.345   2.453   7.997
11582SOL    HW147222   1.292   2.459   7.913
11582SOL    HW247223   1.309   2.518   8.064
11583SOL     OW47224   4.171   4.795   7.886
11583SOL    HW147225   4.259   4.753   7.860
11583SOL    HW247226   4.136   4.750   7.968
11584SOL     OW47227   6.304   3.309   8.675
11584SOL    HW147228   6.362   3.370   8.730
11584SOL    HW247229   6.230   3.273   8.732
11585SOL     OW47230   2.134   6.413   9.019
11585SOL    HW147231   2.081   6.389   8.937
11585SOL    HW247232   2.133   6.512   9.031
11586SOL     OW47233   2.344   5.719   7.667
11586SOL    HW147234   2.381   5.763   7.748
11586SOL    HW247235   2.392   5.752   7.586
11587SOL     OW47236   3.787   1.375   8.300
11587SOL    HW147237   3.770   1.438   8.224
11587SOL    HW247238   3.758   1.416   8.386
11588SOL     OW47239   3.079   5.853   8.297
11588SOL    HW147240   3.095   5.757   8.317
11588SOL    HW247241   3.070   5.904   8.383
11589SOL     OW47242   0.274   2.913   8.196
11589SOL    HW147243   0.341   2.843   8.223
11589SOL    HW247244   0.188   2.868   8.171
11590SOL     OW47245   1.794   5.857   7.954
11590SOL    HW147246   1.801   5.828   8.049
11590SOL    HW247247   1.703   5.896   7.938
11591SOL     OW47248   0.668   3.779   8.805
11591SOL    HW147249   0.677   3.734   8.716
11591SOL    HW247250   0.633   3.872   8.792
11592SOL     OW47251   0.096   0.312   7.439
11592SOL    HW147252   0.020   0.257   7.472
11592SOL    HW247253   0.081   0.336   7.343
11593SOL     OW47254   3.148   2.712   7.836
11593SOL    HW147255   3.184   2.665   7.756
11593SOL    HW247256   3.143   2.811   7.818
11594SOL     OW47257   0.823   0.753   8.137
11594SOL    HW147258   0.819   0.654   8.132
11594SOL    HW247259   0.733   0.789   8.160
11595SOL     OW47260   4.392   6.811   8.827
11595SOL    HW147261   4.356   6.882   8.767
11595SOL    HW247262   4.389   6.723   8.779
11596SOL     OW47263   2.970   1.949   8.781
11596SOL    HW147264   2.889   1.922   8.728
11596SOL    HW247265   2.962   1.915   8.874
11597SOL     OW47266   0.998   2.986   7.744
11597SOL    HW147267   0.977   2.975   7.647
11597SOL    HW247268   0.995   3.082   7.769
11598SOL     OW47269   5.490   4.105   8.215
11598SOL    HW147270   5.499   4.111   8.116
11598SOL    HW247271   5.581   4.107   8.257
11599SOL     OW47272   7.219   3.226   8.101
11599SOL    HW147273   7.172   3.278   8.173
11599SOL    HW247274   7.262   3.290   8.037
11600SOL     OW47275   3.590   7.211   7.921
11600SOL    HW147276   3.656   7.147   7.881
11600SOL    HW247277   3.555   7.175   8.007
11601SOL     OW47278   1.764   0.880   7.724
11601SOL    HW147279   1.840   0.928   7.681
11601SOL    HW247280   1.759   0.787   7.688
11602SOL     OW47281   5.250   7.200   7.490
11602SOL    HW147282   5.209   7.116   7.454
11602SOL    HW247283   5.347   7.203   7.466
11603SOL     OW47284   3.467   0.458   8.962
11603SOL    HW147285   3.530   0.515   8.908
11603SOL    HW247286   3.519   0.388   9.010
11604SOL     OW47287   2.225   0.609   8.237
11604SOL    HW147288   2.248   0.542   8.307
11604SOL    HW247289   2.287   0.687   8.244
11605SOL     OW47290   7.248   0.135   7.508
11605SOL    HW147291   7.276   0.069   7.577
11605SOL    HW247292   7.242   0.226   7.549
11606SOL     OW47293   3.357   0.891   8.291
11606SOL    HW147294   3.340   0.895   8.390
11606SOL    HW247295   3.444   0.935   8.270
11607SOL     OW47296   6.667   4.539   8.417
11607SOL    HW147297   6.676   4.502   8.509
11607SOL    HW247298   6.571   4.558   8.398
11608SOL     OW47299   0.371   3.559   7.494
11608SOL    HW147300   0.284   3.538   7.538
11608SOL    HW247301   0.408   3.643   7.534
11609SOL     OW47302   2.606   2.843   7.435
11609SOL    HW147303   2.647   2.930   7.409
11609SOL    HW247304   2.553   2.807   7.358
11610SOL     OW47305   6.947   0.092   7.611
11610SOL    HW147306   6.885   0.013   7.612
11610SOL    HW247307   6.893   0.176   7.603
11611SOL     OW47308   5.413   4.221   7.756
11611SOL    HW147309   5.452   4.290   7.817
11611SOL    HW247310   5.485   4.161   7.722
11612SOL     OW47311   5.570   4.905   8.672
11612SOL    HW147312   5.620   4.823   8.645
11612SOL    HW247313   5.600   4.934   8.763
11613SOL     OW47314   4.620   5.522   7.786
11613SOL    HW147315   4.650   5.431   7.816
11613SOL    HW247316   4.642   5.534   7.689
11614SOL     OW47317   6.284   2.516   7.683
11614SOL    HW147318   6.219   2.574   7.635
11614SOL    HW247319   6.234   2.454   7.744
11615SOL     OW47320   1.879   1.300   8.397
11615SOL    HW147321   1.798   1.255   8.433
11615SOL    HW247322   1.955   1.289   8.461
11616SOL     OW47323   2.683   5.628   8.793
11616SOL    HW147324   2.741   5.549   8.773
11616SOL    HW247325   2.735   5.694   8.848
11617SOL     OW47326   4.382   5.676   7.815
11617SOL    HW147327   4.464   5.621   7.800
11617SOL    HW247328   4.408   5.764   7.855
11618SOL     OW47329   1.390   3.418   8.449
11618SOL    HW147330   1.395   3.483   8.524
11618SOL    HW247331   1.358   3.465   8.366
11619SOL     OW47332   2.133   4.668   8.263
11619SOL    HW147333   2.217   4.660   8.210
11619SOL    HW247334   2.083   4.750   8.234
11620SOL     OW47335   5.618   3.171   7.857
11620SOL    HW147336   5.634   3.225   7.940
11620SOL    HW247337   5.698   3.178   7.797
11621SOL     OW47338   5.262   0.877   8.461
11621SOL    HW147339   5.300   0.875   8.368
11621SOL    HW247340   5.162   0.878   8.456
11622SOL     OW47341   3.186   1.845   8.384
11622SOL    HW147342   3.161   1.906   8.459
11622SOL    HW247343   3.110   1.838   8.319
11623SOL     OW47344   5.239   2.043   7.793
11623SOL    HW147345   5.175   2.091   7.854
11623SOL    HW247346   5.258   1.952   7.830
11624SOL     OW47347   4.992   2.310   7.555
11624SOL    HW147348   4.905   2.357   7.544
11624SOL    HW247349   5.039   2.347   7.635
11625SOL     OW47350   5.103   4.082   8.906
11625SOL    HW147351   5.105   4.052   8.811
11625SOL    HW247352   5.190   4.128   8.927
11626SOL     OW47353   0.800   3.324   8.375
11626SOL    HW147354   0.831   3.259   8.444
11626SOL    HW247355   0.876   3.383   8.348
11627SOL     OW47356   5.835   1.867   8.316
11627SOL    HW147357   5.795   1.868   8.408
11627SOL    HW247358   5.839   1.773   8.282
11628SOL     OW47359   3.537   0.344   8.281
11628SOL    HW147360   3.497   0.273   8.339
11628SOL    HW247361   3.471   0.371   8.211
11629SOL     OW47362   2.196   5.837   7.980
11629SOL    HW147363   2.140   5.904   7.931
11629SOL    HW247364   2.187   5.852   8.078
11630SOL     OW47365   0.958   2.250   7.597
11630SOL    HW147366   0.986   2.167   7.549
11630SOL    HW247367   0.953   2.232   7.695
11631SOL     OW47368   0.466   3.996   8.934
11631SOL    HW147369   0.450   4.011   8.836
11631SOL    HW247370   0.456   4.082   8.983
11632SOL     OW47371   1.077   1.443   7.680
11632SOL    HW147372   0.984   1.413   7.658
11632SOL    HW247373   1.130   1.450   7.595
11633SOL     OW47374   4.364   2.277   8.599
11633SOL    HW147375   4.393   2.214   8.527
11633SOL    HW247376   4.392   2.370   8.575
11634SOL     OW47377   5.176   1.386   8.080
11634SOL    HW147378   5.120   1.345   8.152
11634SOL    HW247379   5.272   1.384   8.107
11635SOL     OW47380   4.907   4.325   8.110
11635SOL    HW147381   4.892   4.228   8.126
11635SOL    HW247382   4.872   4.378   8.187
11636SOL     OW47383   1.524   4.527   8.796
11636SOL    HW147384   1.535   4.436   8.836
11636SOL    HW247385   1.539   4.596   8.866
11637SOL     OW47386   1.424   1.748   8.489
11637SOL    HW147387   1.403   1.686   8.413
11637SOL    HW247388   1.523   1.753   8.501
11638SOL     OW47389   6.288   2.810   7.554
11638SOL    HW147390   6.275   2.830   7.651
11638SOL    HW247391   6.360   2.868   7.517
11639SOL     OW47392   3.412   6.977   8.925
11639SOL    HW147393   3.505   6.946   8.906
11639SOL    HW247394   3.374   7.020   8.843
11640SOL     OW47395   6.625   3.564   8.618
11640SOL    HW147396   6.598   3.568   8.715
11640SOL    HW247397   6.700   3.499   8.608
11641SOL     OW47398   5.353   3.719   7.904
11641SOL    HW147399   5.303   3.756   7.826
11641SOL    HW247400   5.421   3.786   7.934
11642SOL     OW47401   0.538   6.570   7.458
11642SOL    HW147402   0.596   6.489   7.464
11642SOL    HW247403   0.576   6.633   7.391
11643SOL     OW47404   2.403   1.517   8.738
11643SOL    HW147405   2.332   1.503   8.806
11643SOL    HW247406   2.488   1.473   8.767
11644SOL     OW47407   5.584   3.441   8.420
11644SOL    HW147408   5.591   3.522   8.361
11644SOL    HW247409   5.564   3.361   8.363
11645SOL     OW47410   4.937   3.652   8.961
11645SOL    HW147411   4.841   3.641   8.935
11645SOL    HW247412   4.994   3.645   8.880
11646SOL     OW47413   2.075   6.729   7.404
11646SOL    HW147414   2.006   6.725   7.332
11646SOL    HW247415   2.049   6.669   7.479
11647SOL     OW47416   6.976   0.290   8.177
11647SOL    HW147417   6.966   0.385   8.206
11647SOL    HW247418   6.889   0.242   8.187
11648SOL     OW47419   6.605   4.052   7.796
11648SOL    HW147420   6.604   3.953   7.799
11648SOL    HW247421   6.626   4.088   7.886
11649SOL     OW47422   0.510   5.860   7.636
11649SOL    HW147423   0.483   5.833   7.728
11649SOL    HW247424   0.464   5.801   7.569
11650SOL     OW47425   6.506   5.931   7.524
11650SOL    HW147426   6.514   5.839   7.562
11650SOL    HW247427   6.597   5.970   7.510
11651SOL     OW47428   2.462   5.435   8.091
11651SOL    HW147429   2.412   5.449   8.005
11651SOL    HW247430   2.507   5.520   8.116
11652SOL     OW47431   2.204   4.957   7.758
11652SOL    HW147432   2.219   4.910   7.845
11652SOL    HW247433   2.254   4.910   7.685
11653SOL     OW47434   6.794   2.012   7.622
11653SOL    HW147435   6.742   2.062   7.691
11653SOL    HW247436   6.741   1.934   7.590
11654SOL     OW47437   1.808   5.688   7.710
11654SOL    HW147438   1.812   5.701   7.809
11654SOL    HW247439   1.897   5.655   7.677
11655SOL     OW47440   1.614   5.248   8.172
11655SOL    HW147441   1.697   5.205   8.208
11655SOL    HW247442   1.624   5.261   8.074
11656SOL     OW47443   6.501   2.685   7.819
11656SOL    HW147444   6.457   2.604   7.780
11656SOL    HW247445   6.589   2.700   7.773
11657SOL     OW47446   2.579   4.121   8.179
11657SOL    HW147447   2.498   4.076   8.216
11657SOL    HW247448   2.645   4.053   8.147
11658SOL     OW47449   0.136   6.141   7.551
11658SOL    HW147450   0.230   6.164   7.578
11658SOL    HW247451   0.073   6.166   7.624
11659SOL     OW47452   6.771   7.256   8.878
11659SOL    HW147453   6.808   7.345   8.904
11659SOL    HW247454   6.672   7.255   8.892
11660SOL     OW47455   5.009   0.667   7.504
11660SOL    HW147456   5.076   0.593   7.507
11660SOL    HW247457   4.922   0.634   7.468
11661SOL     OW47458   7.179   2.555   8.920
11661SOL    HW147459   7.184   2.457   8.900
11661SOL    HW247460   7.146   2.604   8.839
11662SOL     OW47461   4.175   4.313   7.469
11662SOL    HW147462   4.172   4.410   7.491
11662SOL    HW247463   4.155   4.259   7.551
11663SOL     OW47464   3.341   0.696   7.638
11663SOL    HW147465   3.264   0.663   7.585
11663SOL    HW247466   3.390   0.767   7.587
11664SOL     OW47467   2.354   1.898   7.461
11664SOL    HW147468   2.298   1.914   7.380
11664SOL    HW247469   2.363   1.800   7.477
11665SOL     OW47470   3.135   4.479   7.535
11665SOL    HW147471   3.186   4.406   7.491
11665SOL    HW247472   3.144   4.471   7.634
11666SOL     OW47473   1.031   1.692   9.169
11666SOL    HW147474   1.103   1.627   9.143
11666SOL    HW247475   1.067   1.785   9.163
11667SOL     OW47476   5.625   6.624   8.735
11667SOL    HW147477   5.559   6.695   8.761
11667SOL    HW247478   5.587   6.571   8.659
11668SOL     OW47479   5.415   0.440   9.007
11668SOL    HW147480   5.328   0.481   8.978
11668SOL    HW247481   5.491   0.487   8.963
11669SOL     OW47482   0.010   3.381   7.926
11669SOL    HW147483   0.062   3.310   7.880
11669SOL    HW247484   0.073   3.444   7.972
11670SOL     OW47485   1.585   2.800   7.787
11670SOL    HW147486   1.520   2.737   7.745
11670SOL    HW247487   1.543   2.843   7.866
11671SOL     OW47488   5.147   4.062   8.220
11671SOL    HW147489   5.198   4.057   8.134
11671SOL    HW247490   5.210   4.046   8.296
11672SOL     OW47491   4.160   0.349   8.158
11672SOL    HW147492   4.062   0.334   8.150
11672SOL    HW247493   4.204   0.326   8.072
11673SOL     OW47494   1.489   0.467   8.210
11673SOL    HW147495   1.409   0.445   8.266
11673SOL    HW247496   1.503   0.566   8.207
11674SOL     OW47497   5.923   4.961   7.621
11674SOL    HW147498   5.832   4.979   7.658
11674SOL    HW247499   5.915   4.919   7.530
11675SOL     OW47500   2.020   1.669   8.226
11675SOL    HW147501   1.979   1.759   8.242
11675SOL    HW247502   1.988   1.633   8.138
11676SOL     OW47503   4.902   0.054   7.965
11676SOL    HW147504   4.864   0.138   8.003
11676SOL    HW247505   4.835   0.011   7.905
11677SOL     OW47506   1.130   4.935   7.578
11677SOL    HW147507   1.040   4.891   7.574
11677SOL    HW247508   1.202   4.867   7.564
11678SOL     OW47509   4.311   0.941   7.438
11678SOL    HW147510   4.307   0.944   7.538
11678SOL    HW247511   4.404   0.920   7.409
11679SOL     OW47512   0.235   6.815   7.724
11679SOL    HW147513   0.148   6.807   7.773
11679SOL    HW247514   0.274   6.725   7.709
11680SOL     OW47515   5.472   1.124   8.570
11680SOL    HW147516   5.537   1.048   8.574
11680SOL    HW247517   5.380   1.089   8.550
11681SOL     OW47518   6.780   1.246   7.851
11681SOL    HW147519   6.829   1.286   7.773
11681SOL    HW247520   6.682   1.260   7.839
11682SOL     OW47521   2.037   3.665   9.026
11682SOL    HW147522   2.026   3.734   8.954
11682SOL    HW247523   1.954   3.664   9.084
11683SOL     OW47524   5.686   2.932   8.818
11683SOL    HW147525   5.606   2.894   8.865
11683SOL    HW247526   5.742   2.858   8.782
11684SOL     OW47527   5.730   2.911   7.601
11684SOL    HW147528   5.830   2.908   7.600
11684SOL    HW247529   5.699   2.996   7.559
11685SOL     OW47530   6.721   7.040   7.832
11685SOL    HW147531   6.793   7.037   7.901
11685SOL    HW247532   6.633   7.018   7.874
11686SOL     OW47533   5.359   1.665   8.517
11686SOL    HW147534   5.290   1.699   8.581
11686SOL    HW247535   5.313   1.622   8.439
11687SOL     OW47536   4.343   1.493   8.301
11687SOL    HW147537   4.244   1.508   8.303
11687SOL    HW247538   4.382   1.517   8.390
11688SOL     OW47539   5.891   3.435   8.229
11688SOL    HW147540   5.888   3.413   8.327
11688SOL    HW247541   5.965   3.499   8.211
11689SOL     OW47542   5.192   3.950   8.677
11689SOL    HW147543   5.119   3.898   8.633
11689SOL    HW247544   5.237   4.008   8.610
11690SOL     OW47545   2.048   7.177   8.908
11690SOL    HW147546   1.954   7.201   8.933
11690SOL    HW247547   2.083   7.241   8.840
11691SOL     OW47548   2.336   4.095   8.761
11691SOL    HW147549   2.401   4.039   8.813
11691SOL    HW247550   2.250   4.045   8.751
11692SOL     OW47551   3.506   2.418   7.991
11692SOL    HW147552   3.492   2.388   7.897
11692SOL    HW247553   3.486   2.343   8.054
11693SOL     OW47554   6.270   5.477   8.433
11693SOL    HW147555   6.326   5.455   8.513
11693SOL    HW247556   6.255   5.576   8.429
11694SOL     OW47557   2.877   3.151   8.386
11694SOL    HW147558   2.874   3.052   8.374
11694SOL    HW247559   2.822   3.177   8.466
11695SOL     OW47560   5.372   4.536   7.498
11695SOL    HW147561   5.346   4.440   7.512
11695SOL    HW247562   5.311   4.577   7.431
11696SOL     OW47563   6.480   6.382   7.776
11696SOL    HW147564   6.436   6.294   7.763
11696SOL    HW247565   6.543   6.377   7.854
11697SOL     OW47566   1.622   0.877   8.407
11697SOL    HW147567   1.586   0.895   8.499
11697SOL    HW247568   1.546   0.865   8.343
11698SOL     OW47569   5.069   5.522   8.817
11698SOL    HW147570   5.112   5.514   8.907
11698SOL    HW247571   5.037   5.616   8.804
11699SOL     OW47572   2.612   2.719   7.897
11699SOL    HW147573   2.559   2.635   7.887
11699SOL    HW247574   2.708   2.701   7.874
11700SOL     OW47575   1.383   2.773   8.170
11700SOL    HW147576   1.291   2.751   8.138
11700SOL    HW247577   1.434   2.818   8.096
11701SOL     OW47578   2.329   1.775   8.334
11701SOL    HW147579   2.305   1.831   8.254
11701SOL    HW247580   2.321   1.679   8.311
11702SOL     OW47581   1.031   1.852   7.702
11702SOL    HW147582   1.108   1.913   7.683
11702SOL    HW247583   1.058   1.757   7.689
11703SOL     OW47584   1.303   5.879   7.644
11703SOL    HW147585   1.248   5.807   7.688
11703SOL    HW247586   1.400   5.860   7.659
11704SOL     OW47587   0.513   6.179   7.706
11704SOL    HW147588   0.524   6.085   7.674
11704SOL    HW247589   0.569   6.194   7.787
11705SOL     OW47590   2.476   2.580   9.038
11705SOL    HW147591   2.558   2.560   8.984
11705SOL    HW247592   2.450   2.499   9.090
11706SOL     OW47593   5.641   4.067   7.687
11706SOL    HW147594   5.645   3.969   7.707
11706SOL    HW247595   5.679   4.085   7.596
11707SOL     OW47596   4.690   5.119   8.501
11707SOL    HW147597   4.774   5.128   8.554
11707SOL    HW247598   4.711   5.129   8.403
11708SOL     OW47599   0.474   1.516   9.017
11708SOL    HW147600   0.481   1.489   9.113
11708SOL    HW247601   0.520   1.604   9.004
11709SOL     OW47602   2.223   3.430   9.086
11709SOL    HW147603   2.163   3.506   9.063
11709SOL    HW247604   2.205   3.400   9.180
11710SOL     OW47605   5.892   7.142   7.400
11710SOL    HW147606   5.963   7.202   7.435
11710SOL    HW247607   5.911   7.048   7.429
11711SOL     OW47608   4.469   3.022   8.258
11711SOL    HW147609   4.396   3.088   8.240
11711SOL    HW247610   4.524   3.053   8.335
11712SOL     OW47611   1.885   6.893   8.618
11712SOL    HW147612   1.962   6.858   8.670
11712SOL    HW247613   1.802   6.844   8.645
11713SOL     OW47614   4.989   5.784   8.904
11713SOL    HW147615   4.920   5.761   8.972
11713SOL    HW247616   5.078   5.796   8.948
11714SOL     OW47617   2.501   7.017   8.099
11714SOL    HW147618   2.593   6.989   8.129
11714SOL    HW247619   2.509   7.072   8.016
11715SOL     OW47620   1.047   5.059   7.944
11715SOL    HW147621   1.050   5.004   8.027
11715SOL    HW247622   1.138   5.058   7.901
11716SOL     OW47623   4.062   6.599   8.277
11716SOL    HW147624   3.972   6.556   8.275
11716SOL    HW247625   4.104   6.592   8.186
11717SOL     OW47626   1.139   3.580   8.648
11717SOL    HW147627   1.071   3.618   8.711
11717SOL    HW247628   1.091   3.542   8.568
11718SOL     OW47629   0.218   4.422   7.729
11718SOL    HW147630   0.134   4.433   7.781
11718SOL    HW247631   0.219   4.331   7.687
11719SOL     OW47632   0.332   6.744   7.450
11719SOL    HW147633   0.403   6.674   7.459
11719SOL    HW247634   0.324   6.795   7.536
11720SOL     OW47635   1.285   4.734   8.135
11720SOL    HW147636   1.373   4.777   8.154
11720SOL    HW247637   1.237   4.716   8.221
11721SOL     OW47638   0.175   0.234   7.888
11721SOL    HW147639   0.251   0.277   7.838
11721SOL    HW247640   0.171   0.137   7.865
11722SOL     OW47641   2.454   1.564   7.573
11722SOL    HW147642   2.359   1.570   7.605
11722SOL    HW247643   2.515   1.555   7.651
11723SOL     OW47644   4.792   4.860   7.989
11723SOL    HW147645   4.832   4.789   8.047
11723SOL    HW247646   4.798   4.831   7.894
11724SOL     OW47647   2.974   2.876   8.297
11724SOL    HW147648   3.066   2.866   8.257
11724SOL    HW247649   2.975   2.838   8.390
11725SOL     OW47650   5.425   1.888   7.630
11725SOL    HW147651   5.359   1.955   7.665
11725SOL    HW247652   5.516   1.910   7.664
11726SOL     OW47653   6.842   4.232   8.265
11726SOL    HW147654   6.918   4.167   8.275
11726SOL    HW247655   6.876   4.325   8.280
11727SOL     OW47656   2.761   0.798   8.392
11727SOL    HW147657   2.735   0.731   8.322
11727SOL    HW247658   2.850   0.773   8.430
11728SOL     OW47659   4.342   0.792   7.714
11728SOL    HW147660   4.247   0.779   7.687
11728SOL    HW247661   4.368   0.720   7.778
11729SOL     OW47662   6.659   0.796   8.425
11729SOL    HW147663   6.684   0.850   8.506
11729SOL    HW247664   6.561   0.775   8.429
11730SOL     OW47665   4.143   3.309   8.642
11730SOL    HW147666   4.046   3.321   8.623
11730SOL    HW247667   4.156   3.290   8.739
11731SOL     OW47668   5.950   2.565   8.544
11731SOL    HW147669   6.012   2.637   8.576
11731SOL    HW247670   5.897   2.598   8.467
11732SOL     OW47671   1.265   3.571   8.256
11732SOL    HW147672   1.232   3.660   8.285
11732SOL    HW247673   1.333   3.582   8.184
11733SOL     OW47674   0.477   5.497   7.741
11733SOL    HW147675   0.576   5.504   7.758
11733SOL    HW247676   0.440   5.420   7.793
11734SOL     OW47677   5.894   2.435   8.118
11734SOL    HW147678   5.818   2.388   8.162
11734SOL    HW247679   5.867   2.466   8.027
11735SOL     OW47680   6.874   3.149   8.301
11735SOL    HW147681   6.901   3.103   8.216
11735SOL    HW247682   6.945   3.216   8.327
11736SOL     OW47683   4.031   0.637   8.173
11736SOL    HW147684   4.087   0.702   8.121
11736SOL    HW247685   4.052   0.544   8.143
11737SOL     OW47686   5.023   3.903   9.095
11737SOL    HW147687   5.051   3.977   9.033
11737SOL    HW247688   4.994   3.824   9.041
11738SOL     OW47689   6.471   0.549   7.850
11738SOL    HW147690   6.496   0.627   7.908
11738SOL    HW247691   6.397   0.498   7.893
11739SOL     OW47692   3.248   3.542   8.174
11739SOL    HW147693   3.333   3.590   8.193
11739SOL    HW247694   3.171   3.601   8.197
11740SOL     OW47695   6.998   2.713   8.709
11740SOL    HW147696   7.091   2.707   8.675
11740SOL    HW247697   6.941   2.760   8.642
11741SOL     OW47698   5.527   6.833   8.878
11741SOL    HW147699   5.512   6.842   8.977
11741SOL    HW247700   5.599   6.895   8.849
11742SOL     OW47701   4.327   3.671   8.698
11742SOL    HW147702   4.286   3.613   8.627
11742SOL    HW247703   4.255   3.705   8.759
11743SOL     OW47704   4.833   0.257   7.475
11743SOL    HW147705   4.897   0.317   7.522
11743SOL    HW247706   4.740   0.294   7.481
11744SOL     OW47707   0.347   7.265   8.847
11744SOL    HW147708   0.441   7.298   8.854
11744SOL    HW247709   0.337   7.210   8.763
11745SOL     OW47710   6.796   5.593   7.545
11745SOL    HW147711   6.793   5.537   7.462
11745SOL    HW247712   6.835   5.539   7.619
11746SOL     OW47713   3.151   5.626   8.417
11746SOL    HW147714   3.094   5.604   8.496
11746SOL    HW247715   3.230   5.565   8.414
11747SOL     OW47716   0.864   1.577   8.259
11747SOL    HW147717   0.955   1.619   8.260
11747SOL    HW247718   0.830   1.568   8.353
11748SOL     OW47719   6.755   5.236   9.073
11748SOL    HW147720   6.690   5.168   9.107
11748SOL    HW247721   6.715   5.327   9.078
11749SOL     OW47722   2.653   3.502   8.925
11749SOL    HW147723   2.714   3.523   8.848
11749SOL    HW247724   2.687   3.422   8.974
11750SOL     OW47725   4.435   1.712   7.448
11750SOL    HW147726   4.510   1.777   7.434
11750SOL    HW247727   4.423   1.656   7.366
11751SOL     OW47728   0.138   2.198   9.050
11751SOL    HW147729   0.174   2.192   8.957
11751SOL    HW247730   0.164   2.116   9.101
11752SOL     OW47731   4.497   1.152   9.190
11752SOL    HW147732   4.590   1.152   9.153
11752SOL    HW247733   4.441   1.086   9.140
11753SOL     OW47734   0.496   1.919   7.890
11753SOL    HW147735   0.465   2.012   7.866
11753SOL    HW247736   0.424   1.854   7.866
11754SOL     OW47737   4.987   7.283   7.516
11754SOL    HW147738   4.994   7.370   7.564
11754SOL    HW247739   5.078   7.244   7.504
11755SOL     OW47740   0.887   4.045   8.323
11755SOL    HW147741   0.929   4.132   8.297
11755SOL    HW247742   0.895   3.981   8.247
11756SOL     OW47743   2.580   7.270   8.792
11756SOL    HW147744   2.525   7.339   8.839
11756SOL    HW247745   2.634   7.315   8.721
11757SOL     OW47746   4.593   0.166   7.918
11757SOL    HW147747   4.603   0.141   7.822
11757SOL    HW247748   4.671   0.221   7.947
11758SOL     OW47749   3.040   2.284   7.718
11758SOL    HW147750   3.023   2.298   7.815
11758SOL    HW247751   2.960   2.314   7.665
11759SOL     OW47752   3.768   1.722   8.844
11759SOL    HW147753   3.749   1.665   8.924
11759SOL    HW247754   3.685   1.731   8.789
11760SOL     OW47755   2.982   3.237   7.599
11760SOL    HW147756   2.887   3.235   7.565
11760SOL    HW247757   2.982   3.262   7.696
11761SOL     OW47758   6.593   2.188   8.630
11761SOL    HW147759   6.524   2.141   8.575
11761SOL    HW247760   6.573   2.285   8.634
11762SOL     OW47761   7.118   4.125   8.047
11762SOL    HW147762   7.039   4.073   8.014
11762SOL    HW247763   7.112   4.219   8.015
11763SOL     OW47764   5.890   7.039   7.848
11763SOL    HW147765   5.982   7.009   7.822
11763SOL    HW247766   5.823   6.977   7.808
11764SOL     OW47767   6.094   4.475   7.619
11764SOL    HW147768   6.157   4.405   7.652
11764SOL    HW247769   6.023   4.433   7.563
11765SOL     OW47770   3.775   5.036   7.647
11765SOL    HW147771   3.863   5.056   7.602
11765SOL    HW247772   3.748   4.943   7.625
11766SOL     OW47773   3.878   0.049   8.458
11766SOL    HW147774   3.935   0.038   8.540
11766SOL    HW247775   3.852   0.145   8.449
11767SOL     OW47776   3.558   1.210   7.571
11767SOL    HW147777   3.644   1.166   7.596
11767SOL    HW247778   3.572   1.309   7.568
11768SOL     OW47779   1.528   4.970   7.886
11768SOL    HW147780   1.588   4.889   7.886
11768SOL    HW247781   1.582   5.051   7.867
11769SOL     OW47782   3.739   3.432   8.135
11769SOL    HW147783   3.747   3.493   8.056
11769SOL    HW247784   3.738   3.487   8.219
11770SOL     OW47785   1.860   3.178   7.835
11770SOL    HW147786   1.960   3.184   7.831
11770SOL    HW247787   1.822   3.196   7.745
11771SOL     OW47788   2.535   6.633   8.198
11771SOL    HW147789   2.497   6.698   8.132
11771SOL    HW247790   2.573   6.554   8.150
11772SOL     OW47791   2.888   6.695   7.999
11772SOL    HW147792   2.954   6.620   8.000
11772SOL    HW247793   2.797   6.659   7.980
11773SOL     OW47794   3.122   2.342   8.685
11773SOL    HW147795   3.128   2.244   8.667
11773SOL    HW247796   3.088   2.389   8.604
11774SOL     OW47797   1.605   3.060   7.416
11774SOL    HW147798   1.664   3.025   7.343
11774SOL    HW247799   1.542   2.988   7.445
11775SOL     OW47800   2.954   1.364   7.398
11775SOL    HW147801   3.026   1.419   7.439
11775SOL    HW247802   2.976   1.346   7.302
11776SOL     OW47803   5.961   5.742   9.311
11776SOL    HW147804   6.036   5.718   9.249
11776SOL    HW247805   5.991   5.731   9.405
11777SOL     OW47806   2.579   6.502   7.804
11777SOL    HW147807   2.535   6.590   7.784
11777SOL    HW247808   2.511   6.429   7.794
11778SOL     OW47809   1.522   6.274   8.490
11778SOL    HW147810   1.615   6.307   8.503
11778SOL    HW247811   1.468   6.293   8.572
11779SOL     OW47812   6.536   5.677   7.654
11779SOL    HW147813   6.613   5.636   7.605
11779SOL    HW247814   6.450   5.646   7.612
11780SOL     OW47815   5.766   5.137   8.636
11780SOL    HW147816   5.853   5.093   8.614
11780SOL    HW247817   5.691   5.073   8.617
11781SOL     OW47818   3.224   2.223   8.237
11781SOL    HW147819   3.188   2.213   8.329
11781SOL    HW247820   3.316   2.184   8.233
11782SOL     OW47821   5.572   3.174   8.281
11782SOL    HW147822   5.609   3.133   8.365
11782SOL    HW247823   5.532   3.103   8.224
11783SOL     OW47824   6.354   6.722   8.892
11783SOL    HW147825   6.273   6.667   8.872
11783SOL    HW247826   6.350   6.756   8.986
11784SOL     OW47827   6.338   0.317   7.415
11784SOL    HW147828   6.370   0.412   7.407
11784SOL    HW247829   6.376   0.277   7.498
11785SOL     OW47830   1.262   2.969   7.780
11785SOL    HW147831   1.264   2.976   7.880
11785SOL    HW247832   1.168   2.976   7.748
11786SOL     OW47833   6.367   4.891   8.146
11786SOL    HW147834   6.393   4.931   8.058
11786SOL    HW247835   6.334   4.963   8.207
11787SOL     OW47836   2.873   3.933   8.012
11787SOL    HW147837   2.877   3.978   8.101
11787SOL    HW247838   2.777   3.917   7.987
11788SOL     OW47839   4.416   7.132   8.485
11788SOL    HW147840   4.409   7.221   8.530
11788SOL    HW247841   4.382   7.061   8.546
11789SOL     OW47842   5.460   1.435   8.146
11789SOL    HW147843   5.467   1.454   8.048
11789SOL    HW247844   5.517   1.356   8.169
11790SOL     OW47845   0.221   6.814   8.197
11790SOL    HW147846   0.278   6.804   8.115
11790SOL    HW247847   0.280   6.826   8.277
11791SOL     OW47848   2.571   4.659   8.508
11791SOL    HW147849   2.547   4.573   8.463
11791SOL    HW247850   2.590   4.728   8.439
11792SOL     OW47851   3.641   0.991   8.190
11792SOL    HW147852   3.620   1.004   8.093
11792SOL    HW247853   3.703   0.913   8.200
11793SOL     OW47854   1.762   4.227   8.167
11793SOL    HW147855   1.793   4.310   8.213
11793SOL    HW247856   1.664   4.215   8.184
11794SOL     OW47857   6.777   3.622   7.728
11794SOL    HW147858   6.762   3.547   7.664
11794SOL    HW247859   6.869   3.616   7.766
11795SOL     OW47860   0.861   3.612   7.634
11795SOL    HW147861   0.880   3.663   7.718
11795SOL    HW247862   0.796   3.538   7.655
11796SOL     OW47863   4.435   5.230   8.582
11796SOL    HW147864   4.533   5.211   8.594
11796SOL    HW247865   4.404   5.192   8.495
11797SOL     OW47866   2.705   2.740   8.614
11797SOL    HW147867   2.650   2.757   8.532
11797SOL    HW247868   2.668   2.661   8.663
11798SOL     OW47869   3.257   6.167   8.313
11798SOL    HW147870   3.237   6.074   8.281
11798SOL    HW247871   3.174   6.208   8.350
11799SOL     OW47872   5.609   5.843   8.054
11799SOL    HW147873   5.612   5.942   8.044
11799SOL    HW247874   5.519   5.809   8.027
11800SOL     OW47875   2.117   4.080   7.824
11800SOL    HW147876   2.164   3.992   7.822
11800SOL    HW247877   2.072   4.091   7.912
11801SOL     OW47878   0.672   0.724   8.848
11801SOL    HW147879   0.633   0.682   8.931
11801SOL    HW247880   0.601   0.730   8.778
11802SOL     OW47881   1.033   3.909   7.778
11802SOL    HW147882   1.034   4.006   7.755
11802SOL    HW247883   1.058   3.855   7.698
11803SOL     OW47884   2.214   6.867   7.648
11803SOL    HW147885   2.240   6.942   7.709
11803SOL    HW247886   2.179   6.904   7.562
11804SOL     OW47887   0.626   2.393   7.890
11804SOL    HW147888   0.707   2.451   7.891
11804SOL    HW247889   0.594   2.383   7.796
11805SOL     OW47890   6.953   0.946   8.687
11805SOL    HW147891   6.988   1.006   8.615
11805SOL    HW247892   7.002   0.965   8.772
11806SOL     OW47893   6.694   0.900   8.766
11806SOL    HW147894   6.684   0.800   8.773
11806SOL    HW247895   6.779   0.922   8.718
11807SOL     OW47896   0.607   2.677   8.695
11807SOL    HW147897   0.647   2.767   8.676
11807SOL    HW247898   0.594   2.666   8.793
11808SOL     OW47899   5.755   5.444   7.638
11808SOL    HW147900   5.698   5.525   7.651
11808SOL    HW247901   5.787   5.441   7.544
11809SOL     OW47902   5.646   0.687   8.023
11809SOL    HW147903   5.730   0.738   8.002
11809SOL    HW247904   5.585   0.744   8.077
11810SOL     OW47905   4.332   6.773   8.439
11810SOL    HW147906   4.412   6.724   8.472
11810SOL    HW247907   4.291   6.723   8.362
11811SOL     OW47908   2.435   4.560   8.744
11811SOL    HW147909   2.469   4.624   8.676
11811SOL    HW247910   2.467   4.468   8.722
11812SOL     OW47911   1.260   6.519   7.589
11812SOL    HW147912   1.355   6.527   7.617
11812SOL    HW247913   1.254   6.511   7.490
11813SOL     OW47914   3.119   5.013   7.968
11813SOL    HW147915   3.032   5.053   7.995
11813SOL    HW247916   3.163   4.972   8.047
11814SOL     OW47917   0.309   0.969   8.286
11814SOL    HW147918   0.235   1.013   8.234
11814SOL    HW247919   0.292   0.871   8.293
11815SOL     OW47920   2.135   1.700   9.057
11815SOL    HW147921   2.037   1.679   9.055
11815SOL    HW247922   2.187   1.623   9.021
11816SOL     OW47923   1.892   0.918   8.405
11816SOL    HW147924   1.926   0.925   8.311
11816SOL    HW247925   1.796   0.893   8.403
11817SOL     OW47926   6.267   0.657   7.707
11817SOL    HW147927   6.199   0.584   7.702
11817SOL    HW247928   6.349   0.624   7.754
11818SOL     OW47929   5.951   3.530   8.787
11818SOL    HW147930   5.865   3.541   8.837
11818SOL    HW247931   5.942   3.571   8.696
11819SOL     OW47932   4.436   4.451   9.008
11819SOL    HW147933   4.521   4.469   9.058
11819SOL    HW247934   4.359   4.487   9.059
11820SOL     OW47935   4.357   1.685   7.711
11820SOL    HW147936   4.431   1.736   7.755
11820SOL    HW247937   4.366   1.693   7.612
11821SOL     OW47938   4.153   3.351   7.679
11821SOL    HW147939   4.072   3.403   7.655
11821SOL    HW247940   4.181   3.372   7.773
11822SOL     OW47941   1.581   5.261   8.465
11822SOL    HW147942   1.556   5.277   8.369
11822SOL    HW247943   1.508   5.211   8.511
11823SOL     OW47944   5.462   1.148   7.369
11823SOL    HW147945   5.525   1.104   7.433
11823SOL    HW247946   5.400   1.208   7.420
11824SOL     OW47947   3.473   4.840   8.024
11824SOL    HW147948   3.570   4.848   8.005
11824SOL    HW247949   3.425   4.812   7.941
11825SOL     OW47950   7.316   6.809   8.621
11825SOL    HW147951   7.291   6.906   8.630
11825SOL    HW247952   7.411   6.796   8.648
11826SOL     OW47953   5.243   0.235   8.715
11826SOL    HW147954   5.173   0.295   8.754
11826SOL    HW247955   5.293   0.284   8.643
11827SOL     OW47956   6.259   6.602   7.386
11827SOL    HW147957   6.217   6.515   7.358
11827SOL    HW247958   6.358   6.590   7.392
11828SOL     OW47959   2.709   3.542   8.145
11828SOL    HW147960   2.713   3.442   8.146
11828SOL    HW247961   2.669   3.573   8.059
11829SOL     OW47962   2.596   2.547   7.550
11829SOL    HW147963   2.673   2.486   7.534
11829SOL    HW247964   2.618   2.638   7.517
11830SOL     OW47965   2.074   1.451   8.028
11830SOL    HW147966   2.153   1.470   8.086
11830SOL    HW247967   2.094   1.374   7.968
11831SOL     OW47968   1.403   5.876   7.368
11831SOL    HW147969   1.363   5.862   7.459
11831SOL    HW247970   1.384   5.796   7.311
11832SOL     OW47971   2.814   4.848   8.073
11832SOL    HW147972   2.725   4.822   8.109
11832SOL    HW247973   2.828   4.807   7.983
11833SOL     OW47974   0.967   5.736   7.495
11833SOL    HW147975   1.021   5.763   7.414
11833SOL    HW247976   0.910   5.657   7.472
11834SOL     OW47977   4.955   4.386   7.849
11834SOL    HW147978   4.917   4.357   7.937
11834SOL    HW247979   4.905   4.342   7.774
11835SOL     OW47980   1.540   2.147   7.910
11835SOL    HW147981   1.479   2.144   7.989
11835SOL    HW247982   1.548   2.242   7.878
11836SOL     OW47983   1.656   3.443   8.205
11836SOL    HW147984   1.631   3.509   8.276
11836SOL    HW247985   1.730   3.384   8.239
11837SOL     OW47986   4.512   7.161   8.759
11837SOL    HW147987   4.552   7.136   8.672
11837SOL    HW247988   4.575   7.136   8.833
11838SOL     OW47989   5.513   3.518   7.853
11838SOL    HW147990   5.453   3.591   7.884
11838SOL    HW247991   5.556   3.474   7.932
11839SOL     OW47992   0.688   5.975   8.378
11839SOL    HW147993   0.601   5.988   8.427
11839SOL    HW247994   0.729   6.064   8.360
11840SOL     OW47995   4.072   1.476   8.222
11840SOL    HW147996   4.054   1.452   8.127
11840SOL    HW247997   4.007   1.429   8.282
11841SOL     OW47998   0.024   3.630   8.778
11841SOL    HW147999   0.116   3.667   8.767
11841SOL    HW248000   0.029   3.537   8.814
11842SOL     OW48001   7.133   3.427   7.784
11842SOL    HW148002   7.223   3.413   7.824
11842SOL    HW248003   7.119   3.524   7.765
11843SOL     OW48004   6.766   3.401   7.553
11843SOL    HW148005   6.701   3.329   7.579
11843SOL    HW248006   6.779   3.399   7.454
11844SOL     OW48007   5.753   0.091   8.486
11844SOL    HW148008   5.767   0.167   8.550
11844SOL    HW248009   5.824   0.023   8.500
11845SOL     OW48010   2.530   3.417   8.634
11845SOL    HW148011   2.463   3.390   8.565
11845SOL    HW248012   2.482   3.453   8.714
11846SOL     OW48013   3.512   0.375   7.817
11846SOL    HW148014   3.504   0.285   7.860
11846SOL    HW248015   3.447   0.438   7.860
11847SOL     OW48016   6.117   2.305   7.841
11847SOL    HW148017   6.029   2.353   7.836
11847SOL    HW248018   6.104   2.208   7.819
11848SOL     OW48019   0.848   5.754   8.473
11848SOL    HW148020   0.783   5.821   8.439
11848SOL    HW248021   0.935   5.799   8.493
11849SOL     OW48022   6.011   2.319   8.648
11849SOL    HW148023   6.004   2.407   8.600
11849SOL    HW248024   6.047   2.250   8.584
11850SOL     OW48025   6.811   5.047   8.677
11850SOL    HW148026   6.856   4.959   8.663
11850SOL    HW248027   6.877   5.112   8.714
11851SOL     OW48028   5.202   4.340   7.982
11851SOL    HW148029   5.107   4.371   7.983
11851SOL    HW248030   5.209   4.250   8.025
11852SOL     OW48031   1.369   3.164   8.539
11852SOL    HW148032   1.364   3.255   8.498
11852SOL    HW248033   1.445   3.113   8.497
11853SOL     OW48034   3.248   4.917   8.236
11853SOL    HW148035   3.345   4.932   8.218
11853SOL    HW248036   3.223   4.962   8.322
11854SOL     OW48037   6.046   2.317   8.316
11854SOL    HW148038   6.023   2.391   8.252
11854SOL    HW248039   5.962   2.272   8.346
11855SOL     OW48040   6.376   2.161   7.397
11855SOL    HW148041   6.398   2.249   7.356
11855SOL    HW248042   6.374   2.091   7.326
11856SOL     OW48043   1.925   1.988   8.416
11856SOL    HW148044   1.961   1.919   8.478
11856SOL    HW248045   1.996   2.056   8.398
11857SOL     OW48046   5.757   4.089   8.275
11857SOL    HW148047   5.782   4.009   8.330
11857SOL    HW248048   5.829   4.158   8.281
11858SOL     OW48049   6.712   4.276   7.672
11858SOL    HW148050   6.683   4.183   7.693
11858SOL    HW248051   6.633   4.338   7.679
11859SOL     OW48052   3.001   0.350   7.641
11859SOL    HW148053   3.049   0.293   7.575
11859SOL    HW248054   3.060   0.366   7.720
11860SOL     OW48055   1.672   1.167   8.500
11860SOL    HW148056   1.619   1.229   8.558
11860SOL    HW248057   1.619   1.085   8.481
11861SOL     OW48058   6.863   1.827   8.301
11861SOL    HW148059   6.828   1.865   8.387
11861SOL    HW248060   6.904   1.900   8.247
11862SOL     OW48061   2.794   2.411   8.295
11862SOL    HW148062   2.776   2.441   8.201
11862SOL    HW248063   2.728   2.455   8.357
11863SOL     OW48064   5.641   4.392   8.272
11863SOL    HW148065   5.551   4.396   8.227
11863SOL    HW248066   5.711   4.370   8.205
11864SOL     OW48067   2.043   5.214   7.955
11864SOL    HW148068   2.025   5.311   7.943
11864SOL    HW248069   2.003   5.162   7.880
11865SOL     OW48070   4.101   4.129   8.261
11865SOL    HW148071   4.169   4.084   8.203
11865SOL    HW248072   4.046   4.061   8.308
11866SOL     OW48073   4.193   7.008   8.637
11866SOL    HW148074   4.183   6.999   8.538
11866SOL    HW248075   4.135   6.942   8.684
11867SOL     OW48076   0.575   5.310   8.819
11867SOL    HW148077   0.637   5.389   8.816
11867SOL    HW248078   0.488   5.334   8.776
11868SOL     OW48079   7.217   2.479   7.820
11868SOL    HW148080   7.260   2.443   7.737
11868SOL    HW248081   7.123   2.446   7.825
11869SOL     OW48082   2.465   7.179   7.596
11869SOL    HW148083   2.495   7.247   7.530
11869SOL    HW248084   2.367   7.162   7.585
11870SOL     OW48085   2.034   6.857   8.227
11870SOL    HW148086   2.003   6.909   8.307
11870SOL    HW248087   2.133   6.856   8.223
11871SOL     OW48088   5.726   0.106   8.148
11871SOL    HW148089   5.813   0.083   8.192
11871SOL    HW248090   5.726   0.071   8.055
11872SOL     OW48091   2.957   7.328   7.894
11872SOL    HW148092   2.901   7.266   7.948
11872SOL    HW248093   2.946   7.421   7.929
11873SOL     OW48094   3.024   0.048   8.823
11873SOL    HW148095   3.107   0.001   8.791
11873SOL    HW248096   2.961  -0.018   8.862
11874SOL     OW48097   3.532   1.736   8.148
11874SOL    HW148098   3.582   1.662   8.103
11874SOL    HW248099   3.587   1.772   8.223
11875SOL     OW48100   3.202   6.927   8.258
11875SOL    HW148101   3.134   6.860   8.289
11875SOL    HW248102   3.283   6.921   8.315
11876SOL     OW48103   2.180   1.042   8.089
11876SOL    HW148104   2.165   1.120   8.028
11876SOL    HW248105   2.250   1.066   8.156
11877SOL     OW48106   0.837   4.907   8.719
11877SOL    HW148107   0.767   4.964   8.676
11877SOL    HW248108   0.898   4.965   8.774
11878SOL     OW48109   6.377   0.073   8.365
11878SOL    HW148110   6.420  -0.016   8.369
11878SOL    HW248111   6.348   0.093   8.271
11879SOL     OW48112   2.942   1.750   8.954
11879SOL    HW148113   2.925   1.708   8.865
11879SOL    HW248114   2.961   1.679   9.021
11880SOL     OW48115   0.553   3.373   8.069
11880SOL    HW148116   0.576   3.445   8.004
11880SOL    HW248117   0.476   3.402   8.125
11881SOL     OW48118   0.994   1.320   8.302
11881SOL    HW148119   0.941   1.398   8.335
11881SOL    HW248120   0.957   1.235   8.340
11882SOL     OW48121   4.523   3.351   8.630
11882SOL    HW148122   4.477   3.394   8.708
11882SOL    HW248123   4.565   3.422   8.574
11883SOL     OW48124   5.068   2.966   8.815
11883SOL    HW148125   5.167   2.977   8.803
11883SOL    HW248126   5.051   2.897   8.885
11884SOL     OW48127   2.627   1.902   7.737
11884SOL    HW148128   2.712   1.890   7.788
11884SOL    HW248129   2.643   1.968   7.663
11885SOL     OW48130   3.884   1.792   8.495
11885SOL    HW148131   3.882   1.841   8.583
11885SOL    HW248132   3.971   1.744   8.486
11886SOL     OW48133   5.789   4.457   8.047
11886SOL    HW148134   5.823   4.549   8.029
11886SOL    HW248135   5.833   4.392   7.985
11887SOL     OW48136   6.285   4.310   7.706
11887SOL    HW148137   6.298   4.304   7.805
11887SOL    HW248138   6.371   4.332   7.662
11888SOL     OW48139   5.288   7.168   8.117
11888SOL    HW148140   5.303   7.191   8.021
11888SOL    HW248141   5.376   7.150   8.161
11889SOL     OW48142   3.013   0.672   8.439
11889SOL    HW148143   2.997   0.588   8.492
11889SOL    HW248144   3.108   0.672   8.405
11890SOL     OW48145   5.561   1.503   7.894
11890SOL    HW148146   5.641   1.477   7.947
11890SOL    HW248147   5.576   1.595   7.855
11891SOL     OW48148   4.092   0.771   7.393
11891SOL    HW148149   4.036   0.769   7.310
11891SOL    HW248150   4.186   0.798   7.369
11892SOL     OW48151   2.352   4.507   8.096
11892SOL    HW148152   2.419   4.499   8.022
11892SOL    HW248153   2.260   4.490   8.060
11893SOL     OW48154   5.858   6.203   8.862
11893SOL    HW148155   5.816   6.116   8.886
11893SOL    HW248156   5.786   6.269   8.839
11894SOL     OW48157   2.223   2.622   8.722
11894SOL    HW148158   2.269   2.536   8.742
11894SOL    HW248159   2.153   2.607   8.652
11895SOL     OW48160   2.690   3.043   8.588
11895SOL    HW148161   2.750   2.984   8.642
11895SOL    HW248162   2.708   3.139   8.611
11896SOL     OW48163   0.568   3.410   8.613
11896SOL    HW148164   0.508   3.382   8.537
11896SOL    HW248165   0.659   3.429   8.577
11897SOL     OW48166   3.158   6.342   8.547
11897SOL    HW148167   3.229   6.286   8.591
11897SOL    HW248168   3.108   6.392   8.617
11898SOL     OW48169   5.031   0.390   7.635
11898SOL    HW148170   5.116   0.437   7.612
11898SOL    HW248171   4.984   0.440   7.708
11899SOL     OW48172   2.538   6.914   7.496
11899SOL    HW148173   2.543   6.928   7.397
11899SOL    HW248174   2.498   6.995   7.540
11900SOL     OW48175   7.267   2.707   8.635
11900SOL    HW148176   7.340   2.763   8.675
11900SOL    HW248177   7.306   2.645   8.567
11901SOL     OW48178   7.292   3.008   7.703
11901SOL    HW148179   7.252   3.010   7.611
11901SOL    HW248180   7.353   3.086   7.715
11902SOL     OW48181   3.687   6.949   7.488
11902SOL    HW148182   3.668   6.855   7.461
11902SOL    HW248183   3.696   7.006   7.407
11903SOL     OW48184   0.408   7.179   8.477
11903SOL    HW148185   0.332   7.154   8.537
11903SOL    HW248186   0.372   7.214   8.390
11904SOL     OW48187   5.887   2.043   7.516
11904SOL    HW148188   5.872   1.990   7.432
11904SOL    HW248189   5.972   2.094   7.508
11905SOL     OW48190   0.327   1.379   8.816
11905SOL    HW148191   0.392   1.421   8.879
11905SOL    HW248192   0.355   1.398   8.721
11906SOL     OW48193   4.502   2.689   8.331
11906SOL    HW148194   4.444   2.719   8.255
11906SOL    HW248195   4.594   2.727   8.320
11907SOL     OW48196   4.413   0.444   8.785
11907SOL    HW148197   4.433   0.471   8.879
11907SOL    HW248198   4.482   0.482   8.723
11908SOL     OW48199   2.072   0.718   8.535
11908SOL    HW148200   2.019   0.768   8.466
11908SOL    HW248201   2.168   0.745   8.529
11909SOL     OW48202   0.294   0.611   8.051
11909SOL    HW148203   0.269   0.707   8.044
11909SOL    HW248204   0.214   0.557   8.076
11910SOL     OW48205   1.248   0.068   8.978
11910SOL    HW148206   1.196   0.090   8.896
11910SOL    HW248207   1.255   0.149   9.037
11911SOL     OW48208   3.920   6.603   9.231
11911SOL    HW148209   3.931   6.508   9.203
11911SOL    HW248210   3.877   6.655   9.156
11912SOL     OW48211   3.175   5.027   8.479
11912SOL    HW148212   3.250   5.069   8.531
11912SOL    HW248213   3.119   5.099   8.439
11913SOL     OW48214   2.462   6.725   8.670
11913SOL    HW148215   2.485   6.798   8.735
11913SOL    HW248216   2.404   6.657   8.714
11914SOL     OW48217   2.213   1.026   8.713
11914SOL    HW148218   2.154   0.961   8.761
11914SOL    HW248219   2.239   1.100   8.775
11915SOL     OW48220   5.209   2.860   8.129
11915SOL    HW148221   5.189   2.821   8.039
11915SOL    HW248222   5.136   2.922   8.155
11916SOL     OW48223   6.596   0.302   7.655
11916SOL    HW148224   6.547   0.375   7.704
11916SOL    HW248225   6.694   0.323   7.654
11917SOL     OW48226   0.006   3.247   8.753
11917SOL    HW148227   0.018   3.187   8.674
11917SOL    HW248228  -0.083   3.228   8.796
11918SOL     OW48229   4.730   3.489   8.507
11918SOL    HW148230   4.799   3.517   8.440
11918SOL    HW248231   4.680   3.569   8.539
11919SOL     OW48232   2.520   4.453   8.339
11919SOL    HW148233   2.608   4.414   8.312
11919SOL    HW248234   2.469   4.481   8.258
11920SOL     OW48235   0.186   0.700   8.297
11920SOL    HW148236   0.103   0.755   8.286
11920SOL    HW248237   0.181   0.649   8.382
11921SOL     OW48238   6.707   0.635   7.429
11921SOL    HW148239   6.779   0.683   7.379
11921SOL    HW248240   6.709   0.663   7.525
11922SOL     OW48241   5.355   0.713   7.856
11922SOL    HW148242   5.392   0.784   7.796
11922SOL    HW248243   5.420   0.637   7.862
11923SOL     OW48244   1.561   0.274   8.402
11923SOL    HW148245   1.657   0.276   8.431
11923SOL    HW248246   1.545   0.347   8.335
11924SOL     OW48247   5.912   5.257   8.314
11924SOL    HW148248   5.895   5.172   8.264
11924SOL    HW248249   6.004   5.290   8.293
11925SOL     OW48250   6.230   2.351   8.100
11925SOL    HW148251   6.180   2.296   8.168
11925SOL    HW248252   6.189   2.337   8.010
11926SOL     OW48253   4.918   1.481   8.770
11926SOL    HW148254   4.996   1.419   8.762
11926SOL    HW248255   4.880   1.499   8.679
11927SOL     OW48256   7.115   6.513   8.471
11927SOL    HW148257   7.114   6.513   8.571
11927SOL    HW248258   7.134   6.606   8.438
11928SOL     OW48259   4.604   0.489   8.356
11928SOL    HW148260   4.571   0.404   8.316
11928SOL    HW248261   4.667   0.533   8.292
11929SOL     OW48262   3.505   3.115   7.728
11929SOL    HW148263   3.522   3.145   7.634
11929SOL    HW248264   3.448   3.033   7.727
11930SOL     OW48265   1.388   3.922   8.778
11930SOL    HW148266   1.325   3.934   8.701
11930SOL    HW248267   1.341   3.943   8.864
11931SOL     OW48268   1.726   1.688   8.333
11931SOL    HW148269   1.705   1.765   8.273
11931SOL    HW248270   1.727   1.603   8.280
11932SOL     OW48271   0.053   2.194   7.735
11932SOL    HW148272   0.079   2.219   7.828
11932SOL    HW248273   0.134   2.197   7.676
11933SOL     OW48274   1.375   4.435   8.314
11933SOL    HW148275   1.376   4.346   8.358
11933SOL    HW248276   1.416   4.427   8.223
11934SOL     OW48277   2.851   5.984   7.563
11934SOL    HW148278   2.906   6.055   7.606
11934SOL    HW248279   2.765   5.974   7.613
11935SOL     OW48280   0.837   5.167   7.789
11935SOL    HW148281   0.922   5.129   7.827
11935SOL    HW248282   0.812   5.116   7.707
11936SOL     OW48283   3.512   0.818   8.922
11936SOL    HW148284   3.415   0.834   8.902
11936SOL    HW248285   3.540   0.729   8.885
11937SOL     OW48286   2.152   2.459   7.647
11937SOL    HW148287   2.172   2.545   7.600
11937SOL    HW248288   2.069   2.470   7.703
11938SOL     OW48289   2.181   3.091   7.440
11938SOL    HW148290   2.100   3.083   7.498
11938SOL    HW248291   2.185   3.013   7.379
11939SOL     OW48292   2.737   3.276   8.121
11939SOL    HW148293   2.709   3.198   8.066
11939SOL    HW248294   2.789   3.243   8.201
11940SOL     OW48295   4.800   7.263   7.710
11940SOL    HW148296   4.888   7.283   7.667
11940SOL    HW248297   4.732   7.329   7.677
11941SOL     OW48298   1.884   1.890   8.765
11941SOL    HW148299   1.968   1.889   8.710
11941SOL    HW248300   1.804   1.893   8.704
11942SOL     OW48301   0.860   2.645   7.840
11942SOL    HW148302   0.932   2.696   7.792
11942SOL    HW248303   0.899   2.602   7.922
11943SOL     OW48304   3.196   2.817   8.086
11943SOL    HW148305   3.267   2.887   8.078
11943SOL    HW248306   3.187   2.769   7.999
11944SOL     OW48307   2.007   6.566   7.633
11944SOL    HW148308   2.033   6.470   7.633
11944SOL    HW248309   2.043   6.611   7.715
11945SOL     OW48310   4.254   3.171   7.363
11945SOL    HW148311   4.302   3.094   7.322
11945SOL    HW248312   4.181   3.138   7.422
11946SOL     OW48313   3.090   5.227   8.257
11946SOL    HW148314   3.051   5.219   8.166
11946SOL    HW248315   3.156   5.303   8.259
11947SOL     OW48316   3.875   0.087   8.007
11947SOL    HW148317   3.873   0.017   8.079
11947SOL    HW248318   3.869   0.177   8.049
11948SOL     OW48319   5.792   2.376   8.809
11948SOL    HW148320   5.720   2.306   8.802
11948SOL    HW248321   5.872   2.347   8.756
11949SOL     OW48322   6.638   5.211   8.769
11949SOL    HW148323   6.700   5.140   8.738
11949SOL    HW248324   6.690   5.287   8.808
11950SOL     OW48325   6.505   6.891   7.948
11950SOL    HW148326   6.465   6.983   7.946
11950SOL    HW248327   6.475   6.839   7.868
11951SOL     OW48328   3.408   6.890   8.441
11951SOL    HW148329   3.455   6.809   8.476
11951SOL    HW248330   3.389   6.953   8.517
11952SOL     OW48331   3.683   1.524   8.060
11952SOL    HW148332   3.637   1.477   7.985
11952SOL    HW248333   3.742   1.595   8.022
11953SOL     OW48334   6.598   1.850   7.515
11953SOL    HW148335   6.512   1.902   7.514
11953SOL    HW248336   6.601   1.791   7.434
11954SOL     OW48337   4.048   2.878   7.696
11954SOL    HW148338   4.106   2.866   7.776
11954SOL    HW248339   4.036   2.790   7.649
11955SOL     OW48340   5.118   1.011   7.803
11955SOL    HW148341   5.099   0.977   7.710
11955SOL    HW248342   5.117   1.111   7.802
11956SOL     OW48343   0.128   2.544   7.610
11956SOL    HW148344   0.054   2.487   7.576
11956SOL    HW248345   0.109   2.640   7.587
11957SOL     OW48346   7.019   7.179   8.496
11957SOL    HW148347   6.929   7.206   8.529
11957SOL    HW248348   7.072   7.260   8.471
11958SOL     OW48349   3.344   4.839   7.681
11958SOL    HW148350   3.247   4.822   7.692
11958SOL    HW248351   3.361   4.938   7.682
11959SOL     OW48352   5.166   6.323   9.038
11959SOL    HW148353   5.186   6.402   8.979
11959SOL    HW248354   5.103   6.351   9.110
11960SOL     OW48355   0.127   3.755   8.190
11960SOL    HW148356   0.076   3.837   8.167
11960SOL    HW248357   0.074   3.699   8.253
11961SOL     OW48358   1.802   6.850   7.479
11961SOL    HW148359   1.800   6.752   7.499
11961SOL    HW248360   1.843   6.865   7.389
11962SOL     OW48361   1.810   5.326   8.602
11962SOL    HW148362   1.723   5.318   8.553
11962SOL    HW248363   1.807   5.405   8.663
11963SOL     OW48364   6.453   2.497   8.094
11963SOL    HW148365   6.450   2.573   8.029
11963SOL    HW248366   6.365   2.451   8.095
11964SOL     OW48367   1.742   7.236   8.375
11964SOL    HW148368   1.687   7.175   8.317
11964SOL    HW248369   1.682   7.281   8.442
11965SOL     OW48370   4.778   0.391   8.729
11965SOL    HW148371   4.726   0.474   8.749
11965SOL    HW248372   4.720   0.325   8.681
11966SOL     OW48373   3.726   0.970   9.047
11966SOL    HW148374   3.809   0.970   8.992
11966SOL    HW248375   3.651   0.930   8.993
11967SOL     OW48376   2.138   6.067   8.959
11967SOL    HW148377   2.168   5.989   9.014
11967SOL    HW248378   2.217   6.113   8.920
11968SOL     OW48379   3.327   5.849   8.533
11968SOL    HW148380   3.254   5.912   8.507
11968SOL    HW248381   3.307   5.758   8.496
11969SOL     OW48382   6.597   2.267   8.131
11969SOL    HW148383   6.541   2.348   8.115
11969SOL    HW248384   6.541   2.185   8.120
11970SOL     OW48385   6.454   5.457   8.648
11970SOL    HW148386   6.469   5.364   8.681
11970SOL    HW248387   6.455   5.521   8.725
11971SOL     OW48388   4.902   2.907   7.894
11971SOL    HW148389   4.838   2.903   7.817
11971SOL    HW248390   4.866   2.853   7.970
11972SOL     OW48391   2.062   6.085   7.632
11972SOL    HW148392   2.000   6.016   7.593
11972SOL    HW248393   2.155   6.069   7.598
11973SOL     OW48394   2.765   6.814   8.534
11973SOL    HW148395   2.745   6.770   8.622
11973SOL    HW248396   2.690   6.797   8.470
11974SOL     OW48397   0.978   2.448   8.832
11974SOL    HW148398   1.002   2.544   8.815
11974SOL    HW248399   1.047   2.406   8.890
11975SOL     OW48400   3.338   5.357   8.258
11975SOL    HW148401   3.384   5.268   8.261
11975SOL    HW248402   3.366   5.411   8.338
11976SOL     OW48403   4.977   1.641   8.493
11976SOL    HW148404   5.040   1.565   8.476
11976SOL    HW248405   5.017   1.702   8.562
11977SOL     OW48406   1.980   0.860   8.148
11977SOL    HW148407   2.026   0.783   8.103
11977SOL    HW248408   2.034   0.943   8.136
11978SOL     OW48409   7.041   1.047   8.931
11978SOL    HW148410   7.051   1.125   8.869
11978SOL    HW248411   6.996   1.077   9.015
11979SOL     OW48412   6.817   2.253   8.265
11979SOL    HW148413   6.726   2.256   8.224
11979SOL    HW248414   6.886   2.256   8.193
11980SOL     OW48415   0.584   1.391   8.198
11980SOL    HW148416   0.634   1.404   8.284
11980SOL    HW248417   0.552   1.480   8.165
11981SOL     OW48418   0.270   7.267   8.254
11981SOL    HW148419   0.173   7.246   8.265
11981SOL    HW248420   0.309   7.210   8.182
11982SOL     OW48421   3.688   6.976   8.321
11982SOL    HW148422   3.602   6.998   8.274
11982SOL    HW248423   3.761   6.964   8.254
11983SOL     OW48424   5.840   2.146   8.394
11983SOL    HW148425   5.778   2.118   8.467
11983SOL    HW248426   5.860   2.068   8.335
11984SOL     OW48427   0.545   2.773   7.533
11984SOL    HW148428   0.583   2.756   7.623
11984SOL    HW248429   0.598   2.845   7.487
11985SOL     OW48430   4.815   6.604   7.483
11985SOL    HW148431   4.821   6.696   7.522
11985SOL    HW248432   4.857   6.603   7.393
11986SOL     OW48433   6.183   3.526   8.973
11986SOL    HW148434   6.105   3.544   8.913
11986SOL    HW248435   6.268   3.530   8.919
11987SOL     OW48436   1.420   6.911   7.957
11987SOL    HW148437   1.488   6.913   7.884
11987SOL    HW248438   1.412   6.818   7.993
11988SOL     OW48439   6.468   0.292   8.545
11988SOL    HW148440   6.519   0.366   8.501
11988SOL    HW248441   6.454   0.218   8.480
11989SOL     OW48442   6.955   4.097   7.372
11989SOL    HW148443   6.975   4.192   7.393
11989SOL    HW248444   6.992   4.074   7.282
11990SOL     OW48445   5.134   1.321   8.755
11990SOL    HW148446   5.210   1.317   8.820
11990SOL    HW248447   5.104   1.228   8.734
11991SOL     OW48448   1.465   6.603   8.057
11991SOL    HW148449   1.389   6.547   8.026
11991SOL    HW248450   1.500   6.568   8.145
11992SOL     OW48451   2.245   2.048   7.658
11992SOL    HW148452   2.251   1.976   7.588
11992SOL    HW248453   2.167   2.030   7.718
11993SOL     OW48454   1.147   1.698   8.353
11993SOL    HW148455   1.218   1.632   8.329
11993SOL    HW248456   1.152   1.776   8.291
11994SOL     OW48457   5.884   0.209   8.714
11994SOL    HW148458   5.939   0.242   8.791
11994SOL    HW248459   5.787   0.210   8.738
11995SOL     OW48460   0.202   5.528   7.581
11995SOL    HW148461   0.198   5.613   7.529
11995SOL    HW248462   0.298   5.502   7.596
11996SOL     OW48463   0.192   2.443   8.270
11996SOL    HW148464   0.110   2.437   8.214
11996SOL    HW248465   0.259   2.376   8.239
11997SOL     OW48466   2.646   6.395   8.087
11997SOL    HW148467   2.740   6.400   8.120
11997SOL    HW248468   2.633   6.311   8.034
11998SOL     OW48469   5.061   4.812   8.909
11998SOL    HW148470   4.994   4.753   8.955
11998SOL    HW248471   5.140   4.826   8.969
11999SOL     OW48472   0.677   1.165   7.536
11999SOL    HW148473   0.658   1.102   7.461
11999SOL    HW248474   0.745   1.125   7.597
12000SOL     OW48475   1.654   1.387   8.855
12000SOL    HW148476   1.736   1.374   8.911
12000SOL    HW248477   1.581   1.326   8.887
12001SOL     OW48478   1.035   6.349   7.598
12001SOL    HW148479   1.110   6.416   7.603
12001SOL    HW248480   1.066   6.270   7.544
12002SOL     OW48481   5.359   4.349   8.655
12002SOL    HW148482   5.459   4.345   8.664
12002SOL    HW248483   5.333   4.347   8.559
12003SOL     OW48484   5.393   1.062   8.080
12003SOL    HW148485   5.295   1.070   8.099
12003SOL    HW248486   5.412   1.094   7.987
12004SOL     OW48487   4.226   2.912   7.919
12004SOL    HW148488   4.160   2.928   7.993
12004SOL    HW248489   4.279   2.996   7.904
12005SOL     OW48490   5.055   2.621   8.826
12005SOL    HW148491   5.059   2.521   8.830
12005SOL    HW248492   5.019   2.650   8.738
12006SOL     OW48493   3.212   0.243   8.274
12006SOL    HW148494   3.243   0.303   8.201
12006SOL    HW248495   3.201   0.150   8.239
12007SOL     OW48496   5.959   0.017   8.265
12007SOL    HW148497   5.972   0.080   8.342
12007SOL    HW248498   5.935  -0.073   8.300
12008SOL     OW48499   6.473   4.816   8.495
12008SOL    HW148500   6.453   4.754   8.419
12008SOL    HW248501   6.392   4.825   8.553
12009SOL     OW48502   7.346   7.158   8.167
12009SOL    HW148503   7.332   7.144   8.265
12009SOL    HW248504   7.364   7.069   8.124
12010SOL     OW48505   0.217   6.806   8.749
12010SOL    HW148506   0.301   6.778   8.703
12010SOL    HW248507   0.204   6.753   8.833
12011SOL     OW48508   3.402   5.498   8.506
12011SOL    HW148509   3.487   5.529   8.549
12011SOL    HW248510   3.378   5.408   8.541
12012SOL     OW48511   3.819   0.352   7.649
12012SOL    HW148512   3.864   0.308   7.572
12012SOL    HW248513   3.790   0.282   7.714
12013SOL     OW48514   6.134   2.162   8.838
12013SOL    HW148515   6.068   2.202   8.774
12013SOL    HW248516   6.227   2.180   8.805
12014SOL     OW48517   3.720   0.473   7.960
12014SOL    HW148518   3.647   0.431   7.906
12014SOL    HW248519   3.707   0.572   7.960
12015SOL     OW48520   6.398   3.707   7.405
12015SOL    HW148521   6.308   3.665   7.422
12015SOL    HW248522   6.454   3.644   7.351
12016SOL     OW48523   6.345   7.335   8.978
12016SOL    HW148524   6.325   7.316   8.882
12016SOL    HW248525   6.330   7.433   8.996
12017SOL     OW48526   3.421   5.316   7.985
12017SOL    HW148527   3.392   5.336   8.078
12017SOL    HW248528   3.517   5.287   7.986
12018SOL     OW48529   3.540   2.171   8.200
12018SOL    HW148530   3.628   2.130   8.226
12018SOL    HW248531   3.519   2.246   8.263
12019SOL     OW48532   3.160   3.710   7.733
12019SOL    HW148533   3.241   3.768   7.743
12019SOL    HW248534   3.097   3.751   7.666
12020SOL     OW48535   2.357   4.002   8.318
12020SOL    HW148536   2.310   4.076   8.270
12020SOL    HW248537   2.306   3.917   8.308
12021SOL     OW48538   2.992   5.227   8.984
12021SOL    HW148539   2.937   5.144   8.975
12021SOL    HW248540   3.037   5.247   8.897
12022SOL     OW48541   0.264   1.499   8.232
12022SOL    HW148542   0.355   1.525   8.201
12022SOL    HW248543   0.198   1.569   8.203
12023SOL     OW48544   4.696   4.003   8.068
12023SOL    HW148545   4.791   3.980   8.088
12023SOL    HW248546   4.653   4.043   8.149
12024SOL     OW48547   7.176   4.339   8.661
12024SOL    HW148548   7.098   4.318   8.720
12024SOL    HW248549   7.190   4.264   8.596
12025SOL     OW48550   7.341   3.980   8.048
12025SOL    HW148551   7.261   4.039   8.044
12025SOL    HW248552   7.390   3.984   7.960
12026SOL     OW48553   4.503   6.964   8.002
12026SOL    HW148554   4.572   6.994   7.937
12026SOL    HW248555   4.497   7.031   8.077
12027SOL     OW48556   6.746   3.330   8.617
12027SOL    HW148557   6.707   3.283   8.538
12027SOL    HW248558   6.723   3.281   8.701
12028SOL     OW48559   0.261   5.768   7.471
12028SOL    HW148560   0.334   5.742   7.408
12028SOL    HW248561   0.207   5.842   7.432
12029SOL     OW48562   1.554   6.497   8.306
12029SOL    HW148563   1.519   6.419   8.359
12029SOL    HW248564   1.653   6.490   8.298
12030SOL     OW48565   6.355   3.699   8.407
12030SOL    HW148566   6.403   3.612   8.399
12030SOL    HW248567   6.415   3.766   8.450
12031SOL     OW48568   1.707   5.440   7.626
12031SOL    HW148569   1.629   5.479   7.576
12031SOL    HW248570   1.745   5.510   7.687
12032SOL     OW48571   3.325   0.018   8.761
12032SOL    HW148572   3.402  -0.042   8.740
12032SOL    HW248573   3.290   0.057   8.676
12033SOL     OW48574   5.786   0.535   8.448
12033SOL    HW148575   5.818   0.547   8.354
12033SOL    HW248576   5.698   0.582   8.460
12034SOL     OW48577   3.711   4.134   7.831
12034SOL    HW148578   3.690   4.043   7.794
12034SOL    HW248579   3.627   4.187   7.838
12035SOL     OW48580   2.593   4.507   7.418
12035SOL    HW148581   2.524   4.492   7.348
12035SOL    HW248582   2.656   4.580   7.389
12036SOL     OW48583   4.931   0.809   8.121
12036SOL    HW148584   4.993   0.754   8.064
12036SOL    HW248585   4.984   0.876   8.172
12037SOL     OW48586   6.979   2.978   8.107
12037SOL    HW148587   7.025   2.942   8.189
12037SOL    HW248588   7.043   2.978   8.030
12038SOL     OW48589   2.653   6.254   7.589
12038SOL    HW148590   2.733   6.300   7.627
12038SOL    HW248591   2.581   6.249   7.658
12039SOL     OW48592   6.062   2.538   9.148
12039SOL    HW148593   5.970   2.514   9.118
12039SOL    HW248594   6.058   2.580   9.239
12040SOL     OW48595   5.315   7.329   8.511
12040SOL    HW148596   5.325   7.401   8.581
12040SOL    HW248597   5.366   7.355   8.429
12041SOL     OW48598   5.540   3.888   7.988
12041SOL    HW148599   5.583   3.977   7.975
12041SOL    HW248600   5.556   3.857   8.082
12042SOL     OW48601   7.099   1.394   8.411
12042SOL    HW148602   7.061   1.470   8.359
12042SOL    HW248603   7.039   1.373   8.488
12043SOL     OW48604   2.892   6.730   7.517
12043SOL    HW148605   2.855   6.646   7.555
12043SOL    HW248606   2.870   6.734   7.419
12044SOL     OW48607   2.168   6.335   7.599
12044SOL    HW148608   2.123   6.270   7.661
12044SOL    HW248609   2.162   6.301   7.505
12045SOL     OW48610   7.278   2.362   7.538
12045SOL    HW148611   7.309   2.275   7.574
12045SOL    HW248612   7.209   2.347   7.467
12046SOL     OW48613   6.927   1.403   8.629
12046SOL    HW148614   6.885   1.392   8.719
12046SOL    HW248615   6.932   1.500   8.605
12047SOL     OW48616   5.302   3.690   8.414
12047SOL    HW148617   5.288   3.672   8.511
12047SOL    HW248618   5.230   3.646   8.360
12048SOL     OW48619   0.838   0.207   8.533
12048SOL    HW148620   0.845   0.108   8.545
12048SOL    HW248621   0.750   0.230   8.490
12049SOL     OW48622   2.041   7.297   8.083
12049SOL    HW148623   2.100   7.270   8.159
12049SOL    HW248624   1.984   7.374   8.111
12050SOL     OW48625   1.773   0.632   7.590
12050SOL    HW148626   1.696   0.571   7.576
12050SOL    HW248627   1.803   0.669   7.501
12051SOL     OW48628   0.727   4.480   8.277
12051SOL    HW148629   0.818   4.496   8.316
12051SOL    HW248630   0.657   4.510   8.341
12052SOL     OW48631   2.354   2.860   8.700
12052SOL    HW148632   2.403   2.889   8.782
12052SOL    HW248633   2.326   2.764   8.710
12053SOL     OW48634   0.808   0.490   8.101
12053SOL    HW148635   0.862   0.406   8.112
12053SOL    HW248636   0.736   0.474   8.033
12054SOL     OW48637   6.378   4.262   8.403
12054SOL    HW148638   6.362   4.295   8.496
12054SOL    HW248639   6.458   4.202   8.402
12055SOL     OW48640   6.405   4.024   9.060
12055SOL    HW148641   6.487   4.032   9.004
12055SOL    HW248642   6.386   3.928   9.078
12056SOL     OW48643   6.295   0.803   7.490
12056SOL    HW148644   6.288   0.747   7.573
12056SOL    HW248645   6.206   0.808   7.445
12057SOL     OW48646   5.924   0.924   7.582
12057SOL    HW148647   5.987   0.903   7.657
12057SOL    HW248648   5.974   0.919   7.495
12058SOL     OW48649   5.573   4.405   7.861
12058SOL    HW148650   5.490   4.452   7.891
12058SOL    HW248651   5.646   4.422   7.927
12059SOL     OW48652   4.150   6.974   8.266
12059SOL    HW148653   4.233   6.950   8.315
12059SOL    HW248654   4.133   7.072   8.276
12060SOL     OW48655   0.763   6.381   7.518
12060SOL    HW148656   0.859   6.389   7.546
12060SOL    HW248657   0.726   6.294   7.551
12061SOL     OW48658   3.474   0.123   7.951
12061SOL    HW148659   3.379   0.094   7.964
12061SOL    HW248660   3.535   0.044   7.959
12062SOL     OW48661   0.605   0.184   8.391
12062SOL    HW148662   0.641   0.277   8.386
12062SOL    HW248663   0.534   0.171   8.323
12063SOL     OW48664   2.126   3.946   8.719
12063SOL    HW148665   2.038   3.986   8.744
12063SOL    HW248666   2.111   3.863   8.666
12064SOL     OW48667   4.768   6.984   8.431
12064SOL    HW148668   4.784   7.079   8.403
12064SOL    HW248669   4.809   6.968   8.520
12065SOL     OW48670   0.772   0.908   9.019
12065SOL    HW148671   0.733   0.839   8.957
12065SOL    HW248672   0.865   0.931   8.989
12066SOL     OW48673   2.135   1.185   8.493
12066SOL    HW148674   2.126   1.115   8.423
12066SOL    HW248675   2.152   1.141   8.582
12067SOL     OW48676   2.318   1.914   8.100
12067SOL    HW148677   2.337   1.830   8.049
12067SOL    HW248678   2.330   1.993   8.039
12068SOL     OW48679   4.150   7.244   8.235
12068SOL    HW148680   4.056   7.246   8.200
12068SOL    HW248681   4.214   7.239   8.158
12069SOL     OW48682   1.194   3.844   8.577
12069SOL    HW148683   1.173   3.748   8.596
12069SOL    HW248684   1.261   3.849   8.503
12070SOL     OW48685   4.553   0.333   7.499
12070SOL    HW148686   4.486   0.406   7.488
12070SOL    HW248687   4.506   0.245   7.510
12071SOL     OW48688   6.667   0.625   8.782
12071SOL    HW148689   6.728   0.592   8.709
12071SOL    HW248690   6.586   0.567   8.786
12072SOL     OW48691   5.438   0.664   8.610
12072SOL    HW148692   5.437   0.649   8.512
12072SOL    HW248693   5.348   0.695   8.640
12073SOL     OW48694   1.831   2.924   8.950
12073SOL    HW148695   1.790   2.875   8.873
12073SOL    HW248696   1.801   3.019   8.949
12074SOL     OW48697   1.527   4.087   8.570
12074SOL    HW148698   1.538   4.048   8.661
12074SOL    HW248699   1.605   4.063   8.513
12075SOL     OW48700   0.177   0.559   8.727
12075SOL    HW148701   0.115   0.565   8.649
12075SOL    HW248702   0.168   0.642   8.783
12076SOL     OW48703   1.965   3.810   8.058
12076SOL    HW148704   2.048   3.756   8.043
12076SOL    HW248705   1.990   3.904   8.082
12077SOL     OW48706   0.651   0.462   8.394
12077SOL    HW148707   0.588   0.501   8.327
12077SOL    HW248708   0.707   0.535   8.435
12078SOL     OW48709   0.962   3.730   8.839
12078SOL    HW148710   0.981   3.826   8.816
12078SOL    HW248711   0.863   3.717   8.848
12079SOL     OW48712   7.028   0.873   8.340
12079SOL    HW148713   7.117   0.867   8.294
12079SOL    HW248714   6.959   0.826   8.285
12080SOL     OW48715   5.645   4.395   8.549
12080SOL    HW148716   5.645   4.383   8.449
12080SOL    HW248717   5.675   4.487   8.571
12081SOL     OW48718   0.197   4.815   7.873
12081SOL    HW148719   0.147   4.900   7.886
12081SOL    HW248720   0.229   4.808   7.779
12082SOL     OW48721   3.234   5.924   9.013
12082SOL    HW148722   3.219   6.003   8.954
12082SOL    HW248723   3.262   5.846   8.957
12083SOL     OW48724   3.294   6.730   8.915
12083SOL    HW148725   3.222   6.757   8.852
12083SOL    HW248726   3.340   6.812   8.950
12084SOL     OW48727   0.916   0.643   8.769
12084SOL    HW148728   0.911   0.547   8.795
12084SOL    HW248729   0.825   0.684   8.772
12085SOL     OW48730   3.937   0.814   7.616
12085SOL    HW148731   3.983   0.821   7.528
12085SOL    HW248732   3.990   0.753   7.676
12086SOL     OW48733   2.520   5.075   8.252
12086SOL    HW148734   2.585   5.145   8.282
12086SOL    HW248735   2.431   5.117   8.234
12087SOL     OW48736   6.221   4.055   7.539
12087SOL    HW148737   6.270   3.971   7.563
12087SOL    HW248738   6.200   4.106   7.622
12088SOL     OW48739   5.471   1.767   8.148
12088SOL    HW148740   5.395   1.802   8.093
12088SOL    HW248741   5.465   1.667   8.152
12089SOL     OW48742   0.690   2.926   8.080
12089SOL    HW148743   0.615   2.882   8.128
12089SOL    HW248744   0.697   3.022   8.109
12090SOL     OW48745   2.461   2.510   7.799
12090SOL    HW148746   2.511   2.529   7.714
12090SOL    HW248747   2.417   2.421   7.793
12091SOL     OW48748   2.342   3.123   8.272
12091SOL    HW148749   2.372   3.100   8.365
12091SOL    HW248750   2.250   3.087   8.257
12092SOL     OW48751   3.385   0.048   7.679
12092SOL    HW148752   3.424   0.067   7.769
12092SOL    HW248753   3.434   0.100   7.610
12093SOL     OW48754   5.232   4.298   8.408
12093SOL    HW148755   5.132   4.300   8.404
12093SOL    HW248756   5.263   4.203   8.397
12094SOL     OW48757   3.580   6.069   8.752
12094SOL    HW148758   3.663   6.125   8.739
12094SOL    HW248759   3.584   5.990   8.691
12095SOL     OW48760   2.751   3.952   8.505
12095SOL    HW148761   2.658   3.988   8.519
12095SOL    HW248762   2.747   3.852   8.501
12096SOL     OW48763   5.248   5.193   8.734
12096SOL    HW148764   5.304   5.121   8.693
12096SOL    HW248765   5.190   5.235   8.664
12097SOL     OW48766   1.540   0.468   7.480
12097SOL    HW148767   1.483   0.401   7.526
12097SOL    HW248768   1.487   0.512   7.407
12098SOL     OW48769   4.188   3.417   7.934
12098SOL    HW148770   4.128   3.358   7.988
12098SOL    HW248771   4.212   3.497   7.989
12099SOL     OW48772   5.722   2.002   7.729
12099SOL    HW148773   5.796   2.017   7.662
12099SOL    HW248774   5.690   2.091   7.762
12100SOL     OW48775   3.869   0.332   8.142
12100SOL    HW148776   3.832   0.333   8.235
12100SOL    HW248777   3.816   0.394   8.084
12101SOL     OW48778   6.500   6.650   8.585
12101SOL    HW148779   6.518   6.690   8.495
12101SOL    HW248780   6.492   6.724   8.652
12102SOL     OW48781   5.505   1.470   8.859
12102SOL    HW148782   5.546   1.436   8.774
12102SOL    HW248783   5.458   1.557   8.841
12103SOL     OW48784   6.179   4.700   8.054
12103SOL    HW148785   6.147   4.625   8.113
12103SOL    HW248786   6.242   4.758   8.106
12104SOL     OW48787   1.339   2.992   7.510
12104SOL    HW148788   1.313   2.938   7.430
12104SOL    HW248789   1.300   2.951   7.593
12105SOL     OW48790   6.497   0.045   7.616
12105SOL    HW148791   6.536   0.131   7.650
12105SOL    HW248792   6.510   0.040   7.517
12106SOL     OW48793   0.402   4.190   8.154
12106SOL    HW148794   0.435   4.169   8.062
12106SOL    HW248795   0.393   4.289   8.165
12107SOL     OW48796   4.377   0.619   8.261
12107SOL    HW148797   4.362   0.533   8.310
12107SOL    HW248798   4.465   0.616   8.214
12108SOL     OW48799   1.702   1.791   8.580
12108SOL    HW148800   1.716   1.760   8.486
12108SOL    HW248801   1.720   1.716   8.644
12109SOL     OW48802   5.123   4.611   8.242
12109SOL    HW148803   5.185   4.564   8.179
12109SOL    HW248804   5.141   4.582   8.335
12110SOL     OW48805   5.216   4.041   7.966
12110SOL    HW148806   5.305   4.037   7.920
12110SOL    HW248807   5.148   4.079   7.904
12111SOL     OW48808   2.513   6.647   7.532
12111SOL    HW148809   2.521   6.746   7.529
12111SOL    HW248810   2.435   6.621   7.590
12112SOL     OW48811   2.869   7.062   8.622
12112SOL    HW148812   2.861   6.962   8.620
12112SOL    HW248813   2.860   7.095   8.716
12113SOL     OW48814   5.606   2.262   7.503
12113SOL    HW148815   5.633   2.173   7.540
12113SOL    HW248816   5.506   2.272   7.511
12114SOL     OW48817   2.437   4.466   7.831
12114SOL    HW148818   2.347   4.453   7.789
12114SOL    HW248819   2.500   4.397   7.797
12115SOL     OW48820   6.142   3.494   8.514
12115SOL    HW148821   6.162   3.405   8.556
12115SOL    HW248822   6.228   3.538   8.489
12116SOL     OW48823   1.146   3.031   8.177
12116SOL    HW148824   1.086   2.960   8.140
12116SOL    HW248825   1.163   3.014   8.274
12117SOL     OW48826   1.807   3.209   8.277
12117SOL    HW148827   1.799   3.215   8.177
12117SOL    HW248828   1.894   3.165   8.300
12118SOL     OW48829   2.736   0.372   7.552
12118SOL    HW148830   2.691   0.287   7.579
12118SOL    HW248831   2.834   0.364   7.568
12119SOL     OW48832   2.388   4.160   7.647
12119SOL    HW148833   2.478   4.187   7.680
12119SOL    HW248834   2.317   4.216   7.690
12120SOL     OW48835   6.946   4.818   8.600
12120SOL    HW148836   7.013   4.747   8.623
12120SOL    HW248837   6.946   4.834   8.501
12121SOL     OW48838   1.176   2.531   8.337
12121SOL    HW148839   1.107   2.555   8.406
12121SOL    HW248840   1.263   2.572   8.361
12122SOL     OW48841   5.186   1.155   8.373
12122SOL    HW148842   5.157   1.107   8.291
12122SOL    HW248843   5.284   1.173   8.368
12123SOL     OW48844   3.890   6.914   8.175
12123SOL    HW148845   3.984   6.929   8.204
12123SOL    HW248846   3.882   6.825   8.130
12124SOL     OW48847   6.876   0.364   7.657
12124SOL    HW148848   6.923   0.328   7.737
12124SOL    HW248849   6.913   0.454   7.634
12125SOL     OW48850   3.499   5.144   8.238
12125SOL    HW148851   3.494   5.044   8.227
12125SOL    HW248852   3.579   5.179   8.189
12126SOL     OW48853   1.635   3.620   8.449
12126SOL    HW148854   1.582   3.617   8.534
12126SOL    HW248855   1.627   3.710   8.408
12127SOL     OW48856   4.938   4.421   8.418
12127SOL    HW148857   4.911   4.506   8.372
12127SOL    HW248858   5.004   4.443   8.490
12128SOL     OW48859   6.937   4.612   8.059
12128SOL    HW148860   6.951   4.592   8.156
12128SOL    HW248861   6.868   4.551   8.021
12129SOL     OW48862   5.984   2.890   7.512
12129SOL    HW148863   5.953   2.796   7.496
12129SOL    HW248864   6.038   2.921   7.434
12130SOL     OW48865   4.000   5.872   7.371
12130SOL    HW148866   4.032   5.844   7.280
12130SOL    HW248867   3.931   5.944   7.361
12131SOL     OW48868   6.583   1.580   7.766
12131SOL    HW148869   6.506   1.641   7.747
12131SOL    HW248870   6.666   1.619   7.727
12132SOL     OW48871   5.847   3.533   7.582
12132SOL    HW148872   5.850   3.502   7.677
12132SOL    HW248873   5.755   3.523   7.546
12133SOL     OW48874   4.518   0.267   8.214
12133SOL    HW148875   4.455   0.196   8.244
12133SOL    HW248876   4.479   0.314   8.135
12134SOL     OW48877   1.074   5.411   7.793
12134SOL    HW148878   1.132   5.363   7.728
12134SOL    HW248879   0.999   5.352   7.821
12135SOL     OW48880   2.244   7.038   7.865
12135SOL    HW148881   2.318   7.104   7.872
12135SOL    HW248882   2.156   7.082   7.887
12136SOL     OW48883   1.761   1.983   8.212
12136SOL    HW148884   1.687   2.038   8.250
12136SOL    HW248885   1.833   1.971   8.280
12137SOL     OW48886   6.538   6.892   8.758
12137SOL    HW148887   6.465   6.846   8.809
12137SOL    HW248888   6.617   6.906   8.818
12138SOL     OW48889   6.043   0.449   8.484
12138SOL    HW148890   5.953   0.481   8.511
12138SOL    HW248891   6.041   0.349   8.471
12139SOL     OW48892   0.029   6.474   7.428
12139SOL    HW148893   0.059   6.466   7.523
12139SOL    HW248894   0.012   6.570   7.406
12140SOL     OW48895   6.055   0.448   7.694
12140SOL    HW148896   5.963   0.410   7.684
12140SOL    HW248897   6.099   0.452   7.604
12141SOL     OW48898   2.782   1.163   7.505
12141SOL    HW148899   2.834   1.090   7.549
12141SOL    HW248900   2.845   1.226   7.459
12142SOL     OW48901   6.398   3.051   8.565
12142SOL    HW148902   6.436   3.122   8.624
12142SOL    HW248903   6.411   3.077   8.469
12143SOL     OW48904   6.256   1.128   8.240
12143SOL    HW148905   6.343   1.143   8.288
12143SOL    HW248906   6.198   1.069   8.295
12144SOL     OW48907   0.934   2.201   7.879
12144SOL    HW148908   1.009   2.210   7.944
12144SOL    HW248909   0.879   2.121   7.901
12145SOL     OW48910   6.977   7.163   8.186
12145SOL    HW148911   6.882   7.174   8.217
12145SOL    HW248912   7.038   7.161   8.265
12146SOL     OW48913   5.712   4.451   7.610
12146SOL    HW148914   5.685   4.399   7.691
12146SOL    HW248915   5.669   4.541   7.612
12147SOL     OW48916   0.289   4.810   8.289
12147SOL    HW148917   0.340   4.852   8.364
12147SOL    HW248918   0.299   4.866   8.207
12148SOL     OW48919   5.743   1.593   8.253
12148SOL    HW148920   5.651   1.554   8.242
12148SOL    HW248921   5.800   1.565   8.176
12149SOL     OW48922   1.896   1.877   9.058
12149SOL    HW148923   1.884   1.888   8.959
12149SOL    HW248924   1.900   1.968   9.101
12150SOL     OW48925   7.261   1.506   8.003
12150SOL    HW148926   7.177   1.534   7.957
12150SOL    HW248927   7.243   1.426   8.060
12151SOL     OW48928   4.731   2.753   8.060
12151SOL    HW148929   4.670   2.684   8.020
12151SOL    HW248930   4.732   2.744   8.159
12152SOL     OW48931   5.450   4.678   7.703
12152SOL    HW148932   5.421   4.626   7.784
12152SOL    HW248933   5.425   4.627   7.621
12153SOL     OW48934   2.819   1.204   8.906
12153SOL    HW148935   2.902   1.185   8.959
12153SOL    HW248936   2.832   1.286   8.851
12154SOL     OW48937   3.153   2.023   8.583
12154SOL    HW148938   3.089   2.001   8.658
12154SOL    HW248939   3.245   2.033   8.620
12155SOL     OW48940   1.022   3.500   7.968
12155SOL    HW148941   1.095   3.567   7.968
12155SOL    HW248942   1.044   3.427   8.033
12156SOL     OW48943   6.393   3.853   7.625
12156SOL    HW148944   6.482   3.856   7.671
12156SOL    HW248945   6.398   3.793   7.546
12157SOL     OW48946   7.126   6.156   7.994
12157SOL    HW148947   7.089   6.205   8.073
12157SOL    HW248948   7.080   6.068   7.984
12158SOL     OW48949   4.908   3.161   9.009
12158SOL    HW148950   4.873   3.228   8.943
12158SOL    HW248951   4.964   3.093   8.962
12159SOL     OW48952   1.803   3.951   8.464
12159SOL    HW148953   1.800   3.915   8.557
12159SOL    HW248954   1.898   3.972   8.440
12160SOL     OW48955   1.271   4.460   7.591
12160SOL    HW148956   1.232   4.545   7.556
12160SOL    HW248957   1.255   4.386   7.526
12161SOL     OW48958   6.674   5.104   7.849
12161SOL    HW148959   6.712   5.142   7.764
12161SOL    HW248960   6.733   5.030   7.881
12162SOL     OW48961   1.111   6.222   8.606
12162SOL    HW148962   1.115   6.293   8.676
12162SOL    HW248963   1.095   6.265   8.516
12163SOL     OW48964   3.335   5.130   7.789
12163SOL    HW148965   3.280   5.077   7.852
12163SOL    HW248966   3.369   5.212   7.835
12164SOL     OW48967   3.854   1.361   7.480
12164SOL    HW148968   3.776   1.420   7.499
12164SOL    HW248969   3.931   1.387   7.537
12165SOL     OW48970   4.536   4.523   8.723
12165SOL    HW148971   4.498   4.466   8.650
12165SOL    HW248972   4.487   4.504   8.809
12166SOL     OW48973   5.228   5.859   9.010
12166SOL    HW148974   5.321   5.865   8.974
12166SOL    HW248975   5.221   5.914   9.093
12167SOL     OW48976   1.892   4.781   7.498
12167SOL    HW148977   1.907   4.825   7.410
12167SOL    HW248978   1.858   4.848   7.564
12168SOL     OW48979   6.626   4.381   8.651
12168SOL    HW148980   6.632   4.446   8.726
12168SOL    HW248981   6.532   4.378   8.617
12169SOL     OW48982   0.867   4.698   7.738
12169SOL    HW148983   0.911   4.725   7.652
12169SOL    HW248984   0.834   4.780   7.785
12170SOL     OW48985   5.910   6.060   8.644
12170SOL    HW148986   5.885   6.106   8.729
12170SOL    HW248987   6.004   6.028   8.650
12171SOL     OW48988   3.125   6.479   7.985
12171SOL    HW148989   3.192   6.512   8.052
12171SOL    HW248990   3.155   6.390   7.950
12172SOL     OW48991   7.116   6.364   8.763
12172SOL    HW148992   7.135   6.459   8.788
12172SOL    HW248993   7.054   6.324   8.831
12173SOL     OW48994   0.076   5.676   8.271
12173SOL    HW148995   0.022   5.602   8.310
12173SOL    HW248996   0.110   5.735   8.345
12174SOL     OW48997   4.004   4.439   8.685
12174SOL    HW148998   3.921   4.386   8.701
12174SOL    HW248999   4.084   4.384   8.708
12175SOL     OW49000   6.895   2.313   8.834
12175SOL    HW149001   6.994   2.316   8.821
12175SOL    HW249002   6.873   2.329   8.930
12176SOL     OW49003   0.281   2.406   7.821
12176SOL    HW149004   0.236   2.441   7.739
12176SOL    HW249005   0.307   2.482   7.880
12177SOL     OW49006   3.122   1.338   7.961
12177SOL    HW149007   3.070   1.331   7.875
12177SOL    HW249008   3.080   1.280   8.030
12178SOL     OW49009   4.958   0.917   8.436
12178SOL    HW149010   4.882   0.972   8.400
12178SOL    HW249011   4.922   0.847   8.497
12179SOL     OW49012   0.443   3.462   8.846
12179SOL    HW149013   0.508   3.519   8.897
12179SOL    HW249014   0.486   3.430   8.762
12180SOL     OW49015   7.285   4.060   7.385
12180SOL    HW149016   7.298   4.158   7.403
12180SOL    HW249017   7.207   4.047   7.324
12181SOL     OW49018   5.227   7.199   8.856
12181SOL    HW149019   5.286   7.161   8.785
12181SOL    HW249020   5.131   7.194   8.826
12182SOL     OW49021   5.912   3.634   8.534
12182SOL    HW149022   5.994   3.581   8.514
12182SOL    HW249023   5.885   3.685   8.452
12183SOL     OW49024   3.020   2.508   8.402
12183SOL    HW149025   2.946   2.472   8.345
12183SOL    HW249026   3.091   2.549   8.344
12184SOL     OW49027   5.878   3.880   7.681
12184SOL    HW149028   5.792   3.835   7.707
12184SOL    HW249029   5.859   3.950   7.612
12185SOL     OW49030   0.609   3.408   7.494
12185SOL    HW149031   0.538   3.479   7.490
12185SOL    HW249032   0.569   3.323   7.527
12186SOL     OW49033   2.628   4.981   7.389
12186SOL    HW149034   2.653   5.009   7.296
12186SOL    HW249035   2.680   5.035   7.455
12187SOL     OW49036   7.177   1.451   8.895
12187SOL    HW149037   7.221   1.401   8.969
12187SOL    HW249038   7.183   1.549   8.913
12188SOL     OW49039   1.360   4.093   7.643
12188SOL    HW149040   1.288   4.027   7.665
12188SOL    HW249041   1.448   4.057   7.673
12189SOL     OW49042   5.875   2.072   8.023
12189SOL    HW149043   5.866   1.978   8.058
12189SOL    HW249044   5.808   2.131   8.068
12190SOL     OW49045   4.305   3.225   8.469
12190SOL    HW149046   4.220   3.238   8.519
12190SOL    HW249047   4.380   3.271   8.518
12191SOL     OW49048   6.462   2.445   8.607
12191SOL    HW149049   6.524   2.506   8.558
12191SOL    HW249050   6.399   2.403   8.542
12192SOL     OW49051   4.814   0.308   8.004
12192SOL    HW149052   4.819   0.381   7.936
12192SOL    HW249053   4.851   0.340   8.091
12193SOL     OW49054   6.715   4.708   8.707
12193SOL    HW149055   6.799   4.755   8.680
12193SOL    HW249056   6.642   4.732   8.643
12194SOL     OW49057   1.720   4.734   8.108
12194SOL    HW149058   1.651   4.805   8.119
12194SOL    HW249059   1.717   4.672   8.187
12195SOL     OW49060   1.655   6.973   8.237
12195SOL    HW149061   1.649   6.873   8.233
12195SOL    HW249062   1.682   7.008   8.148
12196SOL     OW49063   4.797   6.089   7.477
12196SOL    HW149064   4.764   6.036   7.555
12196SOL    HW249065   4.849   6.168   7.510
12197SOL     OW49066   6.463   2.070   7.632
12197SOL    HW149067   6.426   2.121   7.554
12197SOL    HW249068   6.538   2.122   7.673
12198SOL     OW49069   4.235   4.143   8.971
12198SOL    HW149070   4.322   4.160   9.019
12198SOL    HW249071   4.228   4.205   8.893
12199SOL     OW49072   0.851   2.526   8.104
12199SOL    HW149073   0.885   2.442   8.146
12199SOL    HW249074   0.824   2.590   8.176
12200SOL     OW49075   4.202   0.516   8.631
12200SOL    HW149076   4.229   0.453   8.558
12200SOL    HW249077   4.276   0.523   8.698
12201SOL     OW49078   3.538   3.264   7.492
12201SOL    HW149079   3.462   3.211   7.454
12201SOL    HW249080   3.624   3.218   7.469
12202SOL     OW49081   5.178   4.903   7.668
12202SOL    HW149082   5.130   4.974   7.719
12202SOL    HW249083   5.267   4.938   7.639
12203SOL     OW49084   4.571   6.619   8.419
12203SOL    HW149085   4.617   6.686   8.361
12203SOL    HW249086   4.631   6.593   8.495
12204SOL     OW49087   6.984   1.577   8.242
12204SOL    HW149088   6.930   1.657   8.268
12204SOL    HW249089   6.938   1.529   8.167
12205SOL     OW49090   6.443   0.584   7.382
12205SOL    HW149091   6.390   0.663   7.411
12205SOL    HW249092   6.540   0.610   7.373
12206SOL     OW49093   5.798   5.223   7.878
12206SOL    HW149094   5.774   5.153   7.811
12206SOL    HW249095   5.824   5.307   7.831
12207SOL     OW49096   1.423   3.341   8.038
12207SOL    HW149097   1.379   3.417   7.991
12207SOL    HW249098   1.511   3.371   8.076
12208SOL     OW49099   2.264   3.598   8.621
12208SOL    HW149100   2.315   3.591   8.707
12208SOL    HW249101   2.295   3.526   8.559
12209SOL     OW49102   6.723   2.718   7.657
12209SOL    HW149103   6.801   2.773   7.686
12209SOL    HW249104   6.755   2.629   7.624
12210SOL     OW49105   2.347   0.353   8.582
12210SOL    HW149106   2.252   0.384   8.576
12210SOL    HW249107   2.375   0.354   8.678
12211SOL     OW49108   6.362   6.312   8.195
12211SOL    HW149109   6.350   6.245   8.122
12211SOL    HW249110   6.423   6.385   8.165
12212SOL     OW49111   1.322   3.257   7.687
12212SOL    HW149112   1.282   3.237   7.776
12212SOL    HW249113   1.350   3.171   7.643
12213SOL     OW49114   3.628   5.835   7.376
12213SOL    HW149115   3.661   5.927   7.352
12213SOL    HW249116   3.642   5.819   7.473
12214SOL     OW49117   7.103   1.767   7.525
12214SOL    HW149118   7.158   1.850   7.535
12214SOL    HW249119   7.011   1.784   7.560
12215SOL     OW49120   5.846   2.668   7.407
12215SOL    HW149121   5.868   2.575   7.377
12215SOL    HW249122   5.751   2.673   7.435
12216SOL     OW49123   2.413   0.805   8.303
12216SOL    HW149124   2.395   0.829   8.398
12216SOL    HW249125   2.483   0.734   8.300
12217SOL     OW49126   0.158   2.950   8.507
12217SOL    HW149127   0.190   2.947   8.601
12217SOL    HW249128   0.166   2.859   8.466
12218SOL     OW49129   4.223   0.874   8.342
12218SOL    HW149130   4.263   0.803   8.284
12218SOL    HW249131   4.137   0.840   8.380
12219SOL     OW49132   2.280   5.159   8.169
12219SOL    HW149133   2.318   5.252   8.166
12219SOL    HW249134   2.206   5.152   8.102
12220SOL     OW49135   6.390   4.634   8.798
12220SOL    HW149136   6.345   4.709   8.847
12220SOL    HW249137   6.411   4.664   8.704
12221SOL     OW49138   6.717   0.636   7.715
12221SOL    HW149139   6.630   0.614   7.670
12221SOL    HW249140   6.714   0.606   7.810
12222SOL     OW49141   6.251   6.545   7.698
12222SOL    HW149142   6.327   6.513   7.754
12222SOL    HW249143   6.189   6.469   7.678
12223SOL     OW49144   2.216   0.007   8.763
12223SOL    HW149145   2.300   0.053   8.792
12223SOL    HW249146   2.215   0.001   8.664
12224SOL     OW49147   6.934   4.531   8.319
12224SOL    HW149148   6.837   4.554   8.324
12224SOL    HW249149   6.982   4.570   8.398
12225SOL     OW49150   5.571   3.936   8.754
12225SOL    HW149151   5.591   3.856   8.697
12225SOL    HW249152   5.610   4.017   8.711
12226SOL     OW49153   2.051   1.548   8.475
12226SOL    HW149154   1.978   1.511   8.532
12226SOL    HW249155   2.012   1.597   8.397
12227SOL     OW49156   2.405   6.443   8.969
12227SOL    HW149157   2.416   6.534   9.009
12227SOL    HW249158   2.313   6.409   8.988
12228SOL     OW49159   3.410   0.632   7.915
12228SOL    HW149160   3.388   0.662   7.822
12228SOL    HW249161   3.465   0.701   7.960
12229SOL     OW49162   1.605   2.197   8.316
12229SOL    HW149163   1.524   2.144   8.340
12229SOL    HW249164   1.667   2.199   8.395
12230SOL     OW49165   6.626   3.110   7.364
12230SOL    HW149166   6.679   3.154   7.291
12230SOL    HW249167   6.605   3.176   7.435
12231SOL     OW49168   0.680   1.131   8.146
12231SOL    HW149169   0.648   1.224   8.163
12231SOL    HW249170   0.774   1.134   8.111
12232SOL     OW49171   3.058   6.835   8.786
12232SOL    HW149172   3.072   6.934   8.778
12232SOL    HW249173   2.984   6.816   8.850
12233SOL     OW49174   2.832   3.884   7.561
12233SOL    HW149175   2.738   3.912   7.542
12233SOL    HW249176   2.840   3.785   7.549
12234SOL     OW49177   5.746   1.385   8.037
12234SOL    HW149178   5.829   1.362   7.986
12234SOL    HW249179   5.719   1.307   8.093
12235SOL     OW49180   6.373   2.826   8.711
12235SOL    HW149181   6.433   2.757   8.672
12235SOL    HW249182   6.379   2.910   8.656
12236SOL     OW49183   1.396   2.736   8.810
12236SOL    HW149184   1.436   2.825   8.789
12236SOL    HW249185   1.298   2.739   8.795
12237SOL     OW49186   3.443   6.907   8.024
12237SOL    HW149187   3.517   6.937   7.964
12237SOL    HW249188   3.465   6.818   8.063
12238SOL     OW49189   2.853   4.503   8.756
12238SOL    HW149190   2.806   4.426   8.797
12238SOL    HW249191   2.952   4.493   8.768
12239SOL     OW49192   5.886   1.542   8.820
12239SOL    HW149193   5.854   1.561   8.727
12239SOL    HW249194   5.899   1.444   8.831
12240SOL     OW49195   6.537   5.639   8.870
12240SOL    HW149196   6.443   5.658   8.898
12240SOL    HW249197   6.585   5.725   8.855
12241SOL     OW49198   3.674   0.097   8.730
12241SOL    HW149199   3.730   0.086   8.812
12241SOL    HW249200   3.686   0.017   8.670
12242SOL     OW49201   0.907   2.615   8.502
12242SOL    HW149202   0.863   2.651   8.420
12242SOL    HW249203   0.850   2.543   8.542
12243SOL     OW49204   6.915   6.924   8.042
12243SOL    HW149205   6.936   7.013   8.082
12243SOL    HW249206   6.909   6.855   8.114
12244SOL     OW49207   2.587   6.142   7.946
12244SOL    HW149208   2.573   6.224   7.891
12244SOL    HW249209   2.500   6.096   7.961
12245SOL     OW49210   2.455   0.395   8.839
12245SOL    HW149211   2.386   0.424   8.906
12245SOL    HW249212   2.534   0.457   8.844
12246SOL     OW49213   2.025   4.484   8.579
12246SOL    HW149214   1.960   4.550   8.616
12246SOL    HW249215   1.975   4.403   8.546
12247SOL     OW49216   1.872   7.332   7.704
12247SOL    HW149217   1.814   7.382   7.768
12247SOL    HW249218   1.874   7.380   7.616
12248SOL     OW49219   3.679   5.227   8.058
12248SOL    HW149220   3.684   5.325   8.042
12248SOL    HW249221   3.746   5.180   8.000
12249SOL     OW49222   3.830   3.747   7.576
12249SOL    HW149223   3.794   3.656   7.555
12249SOL    HW249224   3.923   3.738   7.613
12250SOL     OW49225   2.722   2.235   7.645
12250SOL    HW149226   2.797   2.249   7.580
12250SOL    HW249227   2.639   2.213   7.594
12251SOL     OW49228   3.395   2.980   8.494
12251SOL    HW149229   3.397   3.012   8.589
12251SOL    HW249230   3.306   3.000   8.454
12252SOL     OW49231   1.010   6.382   7.912
12252SOL    HW149232   1.019   6.345   7.820
12252SOL    HW249233   0.916   6.413   7.927
12253SOL     OW49234   1.439   3.058   8.838
12253SOL    HW149235   1.362   3.060   8.902
12253SOL    HW249236   1.405   3.069   8.745
12254SOL     OW49237   0.969   0.309   9.032
12254SOL    HW149238   0.930   0.374   9.098
12254SOL    HW249239   0.942   0.335   8.939
12255SOL     OW49240   5.919   4.285   7.900
12255SOL    HW149241   6.009   4.273   7.941
12255SOL    HW249242   5.917   4.240   7.811
12256SOL     OW49243   2.375   1.755   7.873
12256SOL    HW149244   2.444   1.686   7.893
12256SOL    HW249245   2.395   1.797   7.784
12257SOL     OW49246   6.321   4.972   7.626
12257SOL    HW149247   6.399   4.988   7.564
12257SOL    HW249248   6.270   4.892   7.595
12258SOL     OW49249   5.004   1.367   7.587
12258SOL    HW149250   4.971   1.430   7.517
12258SOL    HW249251   4.930   1.305   7.614
12259SOL     OW49252   2.562   5.033   7.971
12259SOL    HW149253   2.555   5.035   8.071
12259SOL    HW249254   2.522   4.949   7.936
12260SOL     OW49255   6.108   1.911   8.897
12260SOL    HW149256   6.126   2.006   8.871
12260SOL    HW249257   6.156   1.890   8.982
12261SOL     OW49258   2.209   6.370   8.610
12261SOL    HW149259   2.196   6.460   8.651
12261SOL    HW249260   2.301   6.336   8.631
12262SOL     OW49261   2.627   7.150   8.512
12262SOL    HW149262   2.711   7.117   8.555
12262SOL    HW249263   2.569   7.073   8.488
12263SOL     OW49264   7.077   3.138   8.909
12263SOL    HW149265   6.994   3.172   8.954
12263SOL    HW249266   7.064   3.141   8.810
12264SOL     OW49267   5.708   0.885   8.306
12264SOL    HW149268   5.802   0.858   8.284
12264SOL    HW249269   5.701   0.904   8.404
12265SOL     OW49270   3.104   5.270   8.728
12265SOL    HW149271   3.198   5.289   8.698
12265SOL    HW249272   3.075   5.181   8.694
12266SOL     OW49273   3.774   7.206   8.879
12266SOL    HW149274   3.707   7.134   8.859
12266SOL    HW249275   3.864   7.178   8.845
12267SOL     OW49276   2.937   6.928   7.888
12267SOL    HW149277   3.022   6.959   7.930
12267SOL    HW249278   2.907   6.843   7.932
12268SOL     OW49279   6.397   1.761   7.962
12268SOL    HW149280   6.397   1.859   7.945
12268SOL    HW249281   6.490   1.725   7.952
12269SOL     OW49282   2.771   1.253   7.967
12269SOL    HW149283   2.834   1.235   8.043
12269SOL    HW249284   2.818   1.304   7.895
12270SOL     OW49285   4.010   0.683   8.464
12270SOL    HW149286   4.051   0.619   8.528
12270SOL    HW249287   4.017   0.646   8.371
12271SOL     OW49288   3.897   6.285   7.697
12271SOL    HW149289   3.920   6.196   7.736
12271SOL    HW249290   3.978   6.345   7.699
12272SOL     OW49291   7.050   2.084   7.756
12272SOL    HW149292   7.115   2.049   7.689
12272SOL    HW249293   6.959   2.047   7.737
12273SOL     OW49294   6.319   2.341   8.407
12273SOL    HW149295   6.231   2.359   8.363
12273SOL    HW249296   6.391   2.391   8.358
12274SOL     OW49297   6.550   2.916   7.549
12274SOL    HW149298   6.585   2.933   7.457
12274SOL    HW249299   6.600   2.840   7.590
12275SOL     OW49300   2.046   2.269   7.464
12275SOL    HW149301   1.971   2.215   7.503
12275SOL    HW249302   2.084   2.329   7.535
12276SOL     OW49303   6.991   0.632   7.705
12276SOL    HW149304   7.001   0.613   7.802
12276SOL    HW249305   6.935   0.714   7.692
12277SOL     OW49306   6.345   1.061   7.826
12277SOL    HW149307   6.392   0.976   7.848
12277SOL    HW249308   6.413   1.132   7.805
12278SOL     OW49309   2.848   1.658   8.711
12278SOL    HW149310   2.859   1.579   8.650
12278SOL    HW249311   2.838   1.741   8.657
12279SOL     OW49312   4.810   6.940   7.530
12279SOL    HW149313   4.772   6.997   7.457
12279SOL    HW249314   4.788   6.980   7.619
12280SOL     OW49315   0.063   2.784   8.104
12280SOL    HW149316   0.009   2.743   8.177
12280SOL    HW249317   0.009   2.857   8.061
12281SOL     OW49318   6.019   5.141   9.092
12281SOL    HW149319   6.075   5.204   9.039
12281SOL    HW249320   5.929   5.182   9.107
12282SOL     OW49321   7.333   0.859   8.304
12282SOL    HW149322   7.286   0.858   8.392
12282SOL    HW249323   7.361   0.952   8.283
12283SOL     OW49324   0.567   1.304   7.751
12283SOL    HW149325   0.640   1.329   7.815
12283SOL    HW249326   0.605   1.249   7.677
12284SOL     OW49327   5.789   2.694   8.736
12284SOL    HW149328   5.838   2.641   8.667
12284SOL    HW249329   5.811   2.657   8.827
12285SOL     OW49330   3.170   7.278   7.546
12285SOL    HW149331   3.097   7.258   7.612
12285SOL    HW249332   3.251   7.309   7.596
12286SOL     OW49333   3.977   1.145   8.411
12286SOL    HW149334   3.885   1.156   8.373
12286SOL    HW249335   3.976   1.073   8.481
12287SOL     OW49336   3.749   3.110   7.400
12287SOL    HW149337   3.721   3.107   7.304
12287SOL    HW249338   3.840   3.152   7.407
12288SOL     OW49339   1.068   0.975   9.008
12288SOL    HW149340   1.102   0.927   8.928
12288SOL    HW249341   1.135   1.044   9.036
12289SOL     OW49342   3.248   2.867   9.182
12289SOL    HW149343   3.180   2.817   9.235
12289SOL    HW249344   3.203   2.942   9.133
12290SOL     OW49345   2.153   3.226   7.895
12290SOL    HW149346   2.223   3.270   7.951
12290SOL    HW249347   2.187   3.137   7.863
12291SOL     OW49348   3.198   6.201   8.913
12291SOL    HW149349   3.243   6.231   8.997
12291SOL    HW249350   3.102   6.228   8.916
12292SOL     OW49351   6.025   5.581   8.707
12292SOL    HW149352   6.048   5.553   8.614
12292SOL    HW249353   5.944   5.531   8.738
12293SOL     OW49354   3.623   4.174   7.433
12293SOL    HW149355   3.573   4.088   7.441
12293SOL    HW249356   3.721   4.157   7.443
12294SOL     OW49357   0.436   6.843   7.974
12294SOL    HW149358   0.528   6.881   7.988
12294SOL    HW249359   0.392   6.890   7.898
12295SOL     OW49360   4.321   1.169   8.735
12295SOL    HW149361   4.274   1.092   8.778
12295SOL    HW249362   4.326   1.153   8.636
12296SOL     OW49363   3.596   0.022   8.204
12296SOL    HW149364   3.685   0.018   8.249
12296SOL    HW249365   3.584   0.111   8.160
12297SOL     OW49366   4.537   2.496   8.531
12297SOL    HW149367   4.512   2.571   8.469
12297SOL    HW249368   4.622   2.454   8.499
12298SOL     OW49369   3.462   3.434   8.714
12298SOL    HW149370   3.397   3.377   8.664
12298SOL    HW249371   3.419   3.465   8.800
12299SOL     OW49372   1.132   2.669   8.072
12299SOL    HW149373   1.084   2.742   8.023
12299SOL    HW249374   1.079   2.644   8.153
12300SOL     OW49375   5.387   7.087   8.648
12300SOL    HW149376   5.468   7.094   8.705
12300SOL    HW249377   5.381   7.167   8.588
12301SOL     OW49378   3.103   4.497   8.460
12301SOL    HW149379   3.094   4.588   8.501
12301SOL    HW249380   3.143   4.506   8.368
12302SOL     OW49381   0.434   4.579   7.727
12302SOL    HW149382   0.345   4.537   7.738
12302SOL    HW249383   0.503   4.526   7.776
12303SOL     OW49384   0.697   3.687   8.538
12303SOL    HW149385   0.784   3.713   8.497
12303SOL    HW249386   0.626   3.685   8.467
12304SOL     OW49387   1.090   2.168   8.774
12304SOL    HW149388   1.054   2.225   8.700
12304SOL    HW249389   1.028   2.093   8.791
12305SOL     OW49390   3.023   5.654   8.659
12305SOL    HW149391   2.958   5.584   8.688
12305SOL    HW249392   2.981   5.745   8.668
12306SOL     OW49393   0.434   2.727   8.463
12306SOL    HW149394   0.502   2.713   8.535
12306SOL    HW249395   0.480   2.750   8.377
12307SOL     OW49396   3.108   6.600   8.641
12307SOL    HW149397   3.198   6.626   8.606
12307SOL    HW249398   3.061   6.681   8.676
12308SOL     OW49399   0.585   4.500   7.493
12308SOL    HW149400   0.534   4.531   7.573
12308SOL    HW249401   0.678   4.476   7.520
12309SOL     OW49402   5.973   5.425   7.775
12309SOL    HW149403   5.911   5.454   7.702
12309SOL    HW249404   6.037   5.357   7.740
12310SOL     OW49405   3.867   7.261   8.220
12310SOL    HW149406   3.801   7.186   8.215
12310SOL    HW249407   3.875   7.292   8.314
12311SOL     OW49408   6.375   0.761   8.446
12311SOL    HW149409   6.298   0.706   8.412
12311SOL    HW249410   6.352   0.800   8.534
12312SOL     OW49411   0.008   2.480   8.028
12312SOL    HW149412   0.049   2.571   8.038
12312SOL    HW249413  -0.046   2.477   7.945
12313SOL     OW49414   3.088   0.167   7.481
12313SOL    HW149415   3.002   0.144   7.435
12313SOL    HW249416   3.136   0.082   7.504
12314SOL     OW49417   2.301   2.293   7.788
12314SOL    HW149418   2.252   2.367   7.741
12314SOL    HW249419   2.282   2.206   7.742
12315SOL     OW49420   1.019   0.111   8.788
12315SOL    HW149421   0.976   0.020   8.784
12315SOL    HW249422   0.949   0.179   8.812
12316SOL     OW49423   3.659   1.913   8.347
12316SOL    HW149424   3.736   1.872   8.396
12316SOL    HW249425   3.577   1.908   8.403
12317SOL     OW49426   2.919   4.213   8.852
12317SOL    HW149427   2.948   4.169   8.767
12317SOL    HW249428   2.999   4.252   8.897
12318SOL     OW49429   0.743   2.002   7.958
12318SOL    HW149430   0.656   1.954   7.943
12318SOL    HW249431   0.818   1.936   7.954
12319SOL     OW49432   5.596   3.413   7.618
12319SOL    HW149433   5.570   3.443   7.709
12319SOL    HW249434   5.526   3.441   7.552
12320SOL     OW49435   2.441   3.525   8.194
12320SOL    HW149436   2.534   3.562   8.194
12320SOL    HW249437   2.430   3.462   8.118
12321SOL     OW49438   4.101   6.323   7.370
12321SOL    HW149439   4.047   6.351   7.449
12321SOL    HW249440   4.142   6.404   7.327
12322SOL     OW49441   6.925   6.852   7.469
12322SOL    HW149442   6.882   6.936   7.436
12322SOL    HW249443   6.891   6.832   7.561
12323SOL     OW49444   6.116   5.894   8.655
12323SOL    HW149445   6.121   5.863   8.560
12323SOL    HW249446   6.067   5.827   8.709
12324SOL     OW49447   7.343   4.350   7.409
12324SOL    HW149448   7.420   4.338   7.347
12324SOL    HW249449   7.315   4.446   7.409
12325SOL     OW49450   0.195   3.388   8.907
12325SOL    HW149451   0.275   3.407   8.851
12325SOL    HW249452   0.132   3.328   8.857
12326SOL     OW49453   5.587   5.071   7.410
12326SOL    HW149454   5.597   5.048   7.314
12326SOL    HW249455   5.596   5.170   7.422
12327SOL     OW49456   6.452   3.970   8.144
12327SOL    HW149457   6.489   3.980   8.237
12327SOL    HW249458   6.432   3.873   8.127
12328SOL     OW49459   4.247   6.517   8.051
12328SOL    HW149460   4.297   6.568   7.981
12328SOL    HW249461   4.309   6.491   8.124
12329SOL     OW49462   5.664   5.684   8.844
12329SOL    HW149463   5.705   5.768   8.879
12329SOL    HW249464   5.673   5.680   8.745
12330SOL     OW49465   6.785   6.492   8.163
12330SOL    HW149466   6.860   6.440   8.205
12330SOL    HW249467   6.731   6.431   8.105
12331SOL     OW49468   1.523   4.436   8.071
12331SOL    HW149469   1.614   4.405   8.043
12331SOL    HW249470   1.484   4.494   8.000
12332SOL     OW49471   4.154   6.045   8.448
12332SOL    HW149472   4.208   5.976   8.495
12332SOL    HW249473   4.087   6.001   8.389
12333SOL     OW49474   0.797   5.047   7.550
12333SOL    HW149475   0.782   5.120   7.483
12333SOL    HW249476   0.810   4.960   7.503
12334SOL     OW49477   2.481   2.833   8.116
12334SOL    HW149478   2.519   2.784   8.037
12334SOL    HW249479   2.385   2.808   8.128
12335SOL     OW49480   4.785   7.247   8.379
12335SOL    HW149481   4.839   7.289   8.452
12335SOL    HW249482   4.834   7.252   8.293
12336SOL     OW49483   1.436   3.759   7.493
12336SOL    HW149484   1.346   3.769   7.535
12336SOL    HW249485   1.473   3.669   7.513
12337SOL     OW49486   2.898   5.468   7.621
12337SOL    HW149487   2.959   5.405   7.669
12337SOL    HW249488   2.939   5.496   7.535
12338SOL     OW49489   1.581   7.184   7.570
12338SOL    HW149490   1.560   7.259   7.634
12338SOL    HW249491   1.601   7.101   7.622
12339SOL     OW49492   6.845   7.115   7.404
12339SOL    HW149493   6.918   7.179   7.381
12339SOL    HW249494   6.786   7.155   7.473
12340SOL     OW49495   4.713   7.037   7.829
12340SOL    HW149496   4.748   7.110   7.771
12340SOL    HW249497   4.787   7.001   7.886
12341SOL     OW49498   1.619   4.350   8.602
12341SOL    HW149499   1.563   4.267   8.608
12341SOL    HW249500   1.568   4.427   8.640
12342SOL     OW49501   2.435   5.157   8.590
12342SOL    HW149502   2.491   5.079   8.621
12342SOL    HW249503   2.376   5.128   8.515
12343SOL     OW49504   5.658   5.050   7.688
12343SOL    HW149505   5.644   5.079   7.594
12343SOL    HW249506   5.569   5.032   7.731
12344SOL     OW49507   2.349   6.276   8.231
12344SOL    HW149508   2.431   6.229   8.265
12344SOL    HW249509   2.325   6.350   8.293
12345SOL     OW49510   6.720   1.829   8.544
12345SOL    HW149511   6.622   1.843   8.528
12345SOL    HW249512   6.749   1.885   8.622
12346SOL     OW49513   6.887   6.731   8.240
12346SOL    HW149514   6.842   6.651   8.202
12346SOL    HW249515   6.960   6.703   8.302
12347SOL     OW49516   0.386   3.750   7.864
12347SOL    HW149517   0.427   3.810   7.932
12347SOL    HW249518   0.337   3.676   7.910
12348SOL     OW49519   5.823   4.085   7.493
12348SOL    HW149520   5.890   4.159   7.495
12348SOL    HW249521   5.823   4.042   7.402
12349SOL     OW49522   3.028   3.446   8.528
12349SOL    HW149523   2.942   3.401   8.550
12349SOL    HW249524   3.012   3.516   8.458
12350SOL     OW49525   1.870   3.852   7.551
12350SOL    HW149526   1.856   3.948   7.576
12350SOL    HW249527   1.907   3.803   7.630
12351SOL     OW49528   1.650   2.846   8.731
12351SOL    HW149529   1.650   2.797   8.644
12351SOL    HW249530   1.590   2.926   8.724
12352SOL     OW49531   0.374   5.906   8.950
12352SOL    HW149532   0.329   5.892   8.862
12352SOL    HW249533   0.371   6.003   8.974
12353SOL     OW49534   0.337   1.154   8.542
12353SOL    HW149535   0.334   1.115   8.449
12353SOL    HW249536   0.244   1.168   8.576
12354SOL     OW49537   5.640   0.534   7.810
12354SOL    HW149538   5.658   0.589   7.892
12354SOL    HW249539   5.724   0.486   7.784
12355SOL     OW49540   1.179   7.053   8.098
12355SOL    HW149541   1.221   7.095   8.178
12355SOL    HW249542   1.249   7.038   8.028
12356SOL     OW49543   3.634   3.891   7.755
12356SOL    HW149544   3.611   3.840   7.838
12356SOL    HW249545   3.678   3.829   7.689
12357SOL     OW49546   4.482   1.202   7.886
12357SOL    HW149547   4.530   1.280   7.845
12357SOL    HW249548   4.439   1.231   7.972
12358SOL     OW49549   1.799   2.955   7.971
12358SOL    HW149550   1.823   3.050   7.947
12358SOL    HW249551   1.808   2.897   7.890
12359SOL     OW49552   2.853   4.376   8.484
12359SOL    HW149553   2.826   4.376   8.388
12359SOL    HW249554   2.938   4.428   8.496
12360SOL     OW49555   5.626   2.778   8.129
12360SOL    HW149556   5.663   2.736   8.045
12360SOL    HW249557   5.570   2.857   8.105
12361SOL     OW49558   1.593   3.511   7.467
12361SOL    HW149559   1.666   3.569   7.429
12361SOL    HW249560   1.584   3.428   7.412
12362SOL     OW49561   1.759   5.024   8.454
12362SOL    HW149562   1.727   5.108   8.497
12362SOL    HW249563   1.858   5.016   8.464
12363SOL     OW49564   6.432   5.167   8.928
12363SOL    HW149565   6.508   5.157   8.863
12363SOL    HW249566   6.467   5.200   9.015
12364SOL     OW49567   4.899   5.933   7.929
12364SOL    HW149568   4.931   5.898   8.016
12364SOL    HW249569   4.931   6.027   7.917
12365SOL     OW49570   1.307   2.266   8.548
12365SOL    HW149571   1.338   2.360   8.529
12365SOL    HW249572   1.308   2.250   8.646
12366SOL     OW49573   2.168   2.827   8.473
12366SOL    HW149574   2.100   2.759   8.498
12366SOL    HW249575   2.246   2.821   8.536
12367SOL     OW49576   4.603   1.150   8.730
12367SOL    HW149577   4.512   1.123   8.759
12367SOL    HW249578   4.639   1.221   8.791
12368SOL     OW49579   6.925   2.916   8.507
12368SOL    HW149580   6.852   2.967   8.462
12368SOL    HW249581   7.004   2.909   8.446
12369SOL     OW49582   2.647   5.331   8.566
12369SOL    HW149583   2.561   5.290   8.597
12369SOL    HW249584   2.637   5.362   8.472
12370SOL     OW49585   5.945   3.141   7.686
12370SOL    HW149586   5.942   3.051   7.728
12370SOL    HW249587   5.873   3.149   7.617
12371SOL     OW49588   3.562   0.842   7.526
12371SOL    HW149589   3.607   0.760   7.564
12371SOL    HW249590   3.618   0.923   7.547
12372SOL     OW49591   2.330   0.859   8.544
12372SOL    HW149592   2.408   0.848   8.605
12372SOL    HW249593   2.267   0.926   8.582
12373SOL     OW49594   0.326   5.272   7.787
12373SOL    HW149595   0.289   5.179   7.779
12373SOL    HW249596   0.252   5.338   7.779
12374SOL     OW49597   0.411   5.060   8.194
12374SOL    HW149598   0.466   5.039   8.113
12374SOL    HW249599   0.383   5.156   8.192
12375SOL     OW49600   0.055   0.006   9.150
12375SOL    HW149601   0.049  -0.090   9.123
12375SOL    HW249602  -0.001   0.062   9.089
12376SOL     OW49603   1.984   7.148   7.876
12376SOL    HW149604   1.999   7.217   7.947
12376SOL    HW249605   1.941   7.191   7.796
12377SOL     OW49606   4.574   3.694   8.621
12377SOL    HW149607   4.613   3.775   8.578
12377SOL    HW249608   4.476   3.709   8.638
12378SOL     OW49609   2.399   5.937   8.505
12378SOL    HW149610   2.420   5.923   8.601
12378SOL    HW249611   2.422   6.030   8.478
12379SOL     OW49612   4.127   2.604   7.592
12379SOL    HW149613   4.104   2.559   7.679
12379SOL    HW249614   4.190   2.545   7.541
12380SOL     OW49615   6.118   7.279   7.460
12380SOL    HW149616   6.176   7.328   7.394
12380SOL    HW249617   6.175   7.227   7.523
12381SOL     OW49618   4.241   2.237   8.821
12381SOL    HW149619   4.290   2.275   8.742
12381SOL    HW249620   4.289   2.263   8.905
12382SOL     OW49621   1.056   6.332   8.352
12382SOL    HW149622   1.045   6.252   8.293
12382SOL    HW249623   0.991   6.403   8.325
12383SOL     OW49624   2.141   5.578   7.963
12383SOL    HW149625   2.167   5.674   7.971
12383SOL    HW249626   2.217   5.527   7.921
12384SOL     OW49627   4.164   6.503   8.534
12384SOL    HW149628   4.183   6.421   8.479
12384SOL    HW249629   4.119   6.572   8.477
12385SOL     OW49630   3.828   7.252   7.545
12385SOL    HW149631   3.807   7.161   7.509
12385SOL    HW249632   3.910   7.248   7.601
12386SOL     OW49633   2.327   3.879   7.755
12386SOL    HW149634   2.405   3.819   7.736
12386SOL    HW249635   2.355   3.974   7.740
12387SOL     OW49636   7.052   7.318   7.387
12387SOL    HW149637   7.015   7.356   7.472
12387SOL    HW249638   7.143   7.358   7.370
12388SOL     OW49639   5.867   1.305   8.915
12388SOL    HW149640   5.899   1.211   8.907
12388SOL    HW249641   5.804   1.312   8.992
12389SOL     OW49642   5.169   4.934   8.162
12389SOL    HW149643   5.212   4.913   8.250
12389SOL    HW249644   5.156   4.849   8.110
12390SOL     OW49645   5.405   2.747   8.307
12390SOL    HW149646   5.499   2.756   8.275
12390SOL    HW249647   5.341   2.766   8.232
12391SOL     OW49648   2.853   1.664   7.561
12391SOL    HW149649   2.920   1.611   7.509
12391SOL    HW249650   2.866   1.646   7.659
12392SOL     OW49651   3.639   6.395   8.457
12392SOL    HW149652   3.714   6.360   8.513
12392SOL    HW249653   3.605   6.322   8.397
12393SOL     OW49654   7.236   0.636   8.871
12393SOL    HW149655   7.289   0.591   8.943
12393SOL    HW249656   7.189   0.715   8.910
12394SOL     OW49657   4.787   4.377   7.483
12394SOL    HW149658   4.716   4.405   7.418
12394SOL    HW249659   4.856   4.449   7.491
12395SOL     OW49660   0.987   4.674   8.868
12395SOL    HW149661   0.946   4.753   8.822
12395SOL    HW249662   1.044   4.706   8.944
12396SOL     OW49663   5.661   1.285   7.767
12396SOL    HW149664   5.632   1.377   7.792
12396SOL    HW249665   5.747   1.263   7.813
12397SOL     OW49666   4.975   3.835   7.836
12397SOL    HW149667   4.940   3.892   7.761
12397SOL    HW249668   4.970   3.739   7.810
12398SOL     OW49669   2.476   6.908   8.447
12398SOL    HW149670   2.405   6.927   8.379
12398SOL    HW249671   2.439   6.848   8.518
12399SOL     OW49672   4.382   6.570   8.703
12399SOL    HW149673   4.470   6.544   8.663
12399SOL    HW249674   4.308   6.531   8.648
12400SOL     OW49675   5.692   5.579   8.160
12400SOL    HW149676   5.657   5.656   8.107
12400SOL    HW249677   5.625   5.504   8.159
12401SOL     OW49678   1.344   5.186   8.164
12401SOL    HW149679   1.439   5.216   8.169
12401SOL    HW249680   1.286   5.264   8.137
12402SOL     OW49681   2.794   4.568   7.606
12402SOL    HW149682   2.867   4.613   7.555
12402SOL    HW249683   2.727   4.530   7.543
12403SOL     OW49684   0.762   2.437   8.657
12403SOL    HW149685   0.710   2.520   8.678
12403SOL    HW249686   0.837   2.428   8.722
12404SOL     OW49687   6.087   0.301   8.868
12404SOL    HW149688   6.157   0.260   8.926
12404SOL    HW249689   6.130   0.338   8.785
12405SOL     OW49690   5.665   1.763   7.878
12405SOL    HW149691   5.724   1.827   7.831
12405SOL    HW249692   5.591   1.813   7.924
12406SOL     OW49693   6.723   7.243   7.646
12406SOL    HW149694   6.718   7.167   7.711
12406SOL    HW249695   6.650   7.309   7.666
12407SOL     OW49696   2.498   3.912   8.853
12407SOL    HW149697   2.470   3.857   8.774
12407SOL    HW249698   2.593   3.892   8.876
12408SOL     OW49699   5.464   2.864   8.993
12408SOL    HW149700   5.397   2.921   9.041
12408SOL    HW249701   5.424   2.775   8.974
12409SOL     OW49702   4.751   0.124   8.897
12409SOL    HW149703   4.845   0.116   8.931
12409SOL    HW249704   4.752   0.166   8.806
12410SOL     OW49705   2.518   5.682   8.502
12410SOL    HW149706   2.560   5.645   8.585
12410SOL    HW249707   2.501   5.780   8.514
12411SOL     OW49708   5.050   7.017   7.376
12411SOL    HW149709   5.001   7.067   7.305
12411SOL    HW249710   4.988   6.997   7.452
12412SOL     OW49711   4.296   2.483   8.289
12412SOL    HW149712   4.246   2.501   8.374
12412SOL    HW249713   4.374   2.545   8.282
12413SOL     OW49714   1.032   4.270   8.221
12413SOL    HW149715   1.010   4.339   8.289
12413SOL    HW249716   1.053   4.314   8.134
12414SOL     OW49717   6.024   4.270   7.432
12414SOL    HW149718   6.088   4.194   7.445
12414SOL    HW249719   6.033   4.305   7.339
12415SOL     OW49720   2.514   4.737   7.867
12415SOL    HW149721   2.537   4.794   7.789
12415SOL    HW249722   2.490   4.645   7.836
12416SOL     OW49723   6.062   3.262   8.804
12416SOL    HW149724   6.002   3.204   8.859
12416SOL    HW249725   6.048   3.358   8.830
12417SOL     OW49726   2.505   5.678   8.215
12417SOL    HW149727   2.510   5.637   8.305
12417SOL    HW249728   2.596   5.710   8.188
12418SOL     OW49729   0.106   5.189   8.109
12418SOL    HW149730   0.164   5.270   8.119
12418SOL    HW249731   0.083   5.154   8.200
12419SOL     OW49732   4.567   0.822   7.399
12419SOL    HW149733   4.637   0.884   7.435
12419SOL    HW249734   4.604   0.773   7.320
12420SOL     OW49735   2.332   4.896   7.541
12420SOL    HW149736   2.341   4.798   7.557
12420SOL    HW249737   2.420   4.934   7.511
12421SOL     OW49738   1.613   1.384   7.963
12421SOL    HW149739   1.587   1.295   7.925
12421SOL    HW249740   1.681   1.370   8.035
12422SOL     OW49741   6.072   3.666   8.203
12422SOL    HW149742   6.055   3.658   8.105
12422SOL    HW249743   6.168   3.688   8.219
12423SOL     OW49744   2.702   0.083   7.615
12423SOL    HW149745   2.678   0.086   7.712
12423SOL    HW249746   2.783   0.025   7.603
12424SOL     OW49747   1.419   4.072   7.941
12424SOL    HW149748   1.387   4.159   7.980
12424SOL    HW249749   1.505   4.088   7.892
12425SOL     OW49750   0.277   3.695   8.721
12425SOL    HW149751   0.313   3.737   8.638
12425SOL    HW249752   0.351   3.649   8.770
12426SOL     OW49753   1.318   0.788   8.513
12426SOL    HW149754   1.300   0.808   8.610
12426SOL    HW249755   1.342   0.692   8.504
12427SOL     OW49756   4.729   1.002   7.501
12427SOL    HW149757   4.754   1.074   7.437
12427SOL    HW249758   4.648   1.029   7.553
12428SOL     OW49759   1.505   0.055   7.718
12428SOL    HW149760   1.437   0.111   7.671
12428SOL    HW249761   1.577   0.113   7.757
12429SOL     OW49762   2.261   4.203   8.187
12429SOL    HW149763   2.216   4.266   8.250
12429SOL    HW249764   2.340   4.248   8.145
12430SOL     OW49765   2.916   2.086   8.088
12430SOL    HW149766   2.858   2.151   8.136
12430SOL    HW249767   2.985   2.135   8.035
12431SOL     OW49768   7.340   2.799   7.453
12431SOL    HW149769   7.333   2.778   7.355
12431SOL    HW249770   7.251   2.833   7.486
12432SOL     OW49771   2.924   1.936   9.211
12432SOL    HW149772   2.843   1.990   9.232
12432SOL    HW249773   2.900   1.839   9.204
12433SOL     OW49774   3.658   0.613   7.651
12433SOL    HW149775   3.733   0.547   7.657
12433SOL    HW249776   3.582   0.582   7.708
12434SOL     OW49777   1.614   4.880   9.178
12434SOL    HW149778   1.704   4.872   9.220
12434SOL    HW249779   1.622   4.871   9.078
12435SOL     OW49780   0.544   3.725   7.643
12435SOL    HW149781   0.615   3.782   7.685
12435SOL    HW249782   0.463   3.725   7.701
12436SOL     OW49783   7.172   6.758   8.338
12436SOL    HW149784   7.236   6.787   8.409
12436SOL    HW249785   7.190   6.807   8.253
12437SOL     OW49786   2.780   0.348   8.772
12437SOL    HW149787   2.880   0.353   8.760
12437SOL    HW249788   2.760   0.311   8.862
12438SOL     OW49789   2.485   5.885   8.765
12438SOL    HW149790   2.449   5.792   8.757
12438SOL    HW249791   2.495   5.908   8.862
12439SOL     OW49792   0.285   3.393   8.224
12439SOL    HW149793   0.311   3.403   8.320
12439SOL    HW249794   0.224   3.315   8.214
12440SOL     OW49795   3.783   2.259   8.471
12440SOL    HW149796   3.802   2.352   8.440
12440SOL    HW249797   3.791   2.195   8.394
12441SOL     OW49798   3.428   1.881   8.499
12441SOL    HW149799   3.361   1.845   8.435
12441SOL    HW249800   3.390   1.960   8.547
12442SOL     OW49801   7.119   3.301   8.368
12442SOL    HW149802   7.147   3.396   8.378
12442SOL    HW249803   7.193   3.240   8.398
12443SOL     OW49804   3.043   6.016   8.069
12443SOL    HW149805   3.062   5.957   8.147
12443SOL    HW249806   2.952   5.995   8.032
12444SOL     OW49807   5.926   5.575   7.999
12444SOL    HW149808   5.949   5.525   7.915
12444SOL    HW249809   5.838   5.542   8.033
12445SOL     OW49810   7.071   4.351   7.907
12445SOL    HW149811   7.109   4.312   7.823
12445SOL    HW249812   7.005   4.422   7.883
12446SOL     OW49813   2.411   5.604   8.767
12446SOL    HW149814   2.371   5.516   8.741
12446SOL    HW249815   2.493   5.588   8.823
12447SOL     OW49816   4.884   5.280   8.902
12447SOL    HW149817   4.879   5.245   8.808
12447SOL    HW249818   4.968   5.249   8.945
12448SOL     OW49819   5.603   3.658   8.628
12448SOL    HW149820   5.584   3.578   8.571
12448SOL    HW249821   5.701   3.674   8.632
12449SOL     OW49822   0.105   0.270   8.774
12449SOL    HW149823   0.110   0.369   8.759
12449SOL    HW249824   0.089   0.224   8.686
12450SOL     OW49825   4.400   0.022   8.651
12450SOL    HW149826   4.452  -0.044   8.705
12450SOL    HW249827   4.338   0.073   8.711
12451SOL     OW49828   5.157   1.898   7.362
12451SOL    HW149829   5.161   1.872   7.266
12451SOL    HW249830   5.211   1.833   7.416
12452SOL     OW49831   2.257   1.515   8.269
12452SOL    HW149832   2.286   1.476   8.356
12452SOL    HW249833   2.157   1.523   8.268
12453SOL     OW49834   6.967   6.351   8.310
12453SOL    HW149835   6.984   6.253   8.327
12453SOL    HW249836   7.015   6.405   8.380
12454SOL     OW49837   1.781   0.628   8.281
12454SOL    HW149838   1.838   0.697   8.236
12454SOL    HW249839   1.720   0.672   8.347
12455SOL     OW49840   1.789   6.696   8.203
12455SOL    HW149841   1.846   6.688   8.285
12455SOL    HW249842   1.831   6.759   8.138
12456SOL     OW49843   1.916   5.472   7.441
12456SOL    HW149844   1.842   5.442   7.501
12456SOL    HW249845   1.962   5.551   7.482
12457SOL     OW49846   2.417   2.368   9.216
12457SOL    HW149847   2.413   2.278   9.173
12457SOL    HW249848   2.482   2.366   9.292
12458SOL     OW49849   3.258   5.744   8.793
12458SOL    HW149850   3.180   5.692   8.757
12458SOL    HW249851   3.307   5.788   8.718
12459SOL     OW49852   4.599   3.071   7.989
12459SOL    HW149853   4.664   3.142   8.017
12459SOL    HW249854   4.597   2.999   8.057
12460SOL     OW49855   5.982   6.920   8.601
12460SOL    HW149856   5.928   6.876   8.673
12460SOL    HW249857   5.999   6.855   8.527
12461SOL     OW49858   4.552   4.116   8.271
12461SOL    HW149859   4.495   4.093   8.350
12461SOL    HW249860   4.636   4.160   8.302
12462SOL     OW49861   4.125   1.742   8.252
12462SOL    HW149862   4.087   1.662   8.205
12462SOL    HW249863   4.121   1.727   8.351
12463SOL     OW49864   6.468   0.211   7.924
12463SOL    HW149865   6.384   0.223   7.977
12463SOL    HW249866   6.518   0.297   7.921
12464SOL     OW49867   1.095   1.368   7.935
12464SOL    HW149868   1.185   1.333   7.963
12464SOL    HW249869   1.101   1.405   7.842
12465SOL     OW49870   1.701   0.196   7.848
12465SOL    HW149871   1.765   0.273   7.849
12465SOL    HW249872   1.647   0.197   7.933
12466SOL     OW49873   2.484   6.755   7.939
12466SOL    HW149874   2.418   6.822   7.906
12466SOL    HW249875   2.558   6.745   7.873
12467SOL     OW49876   0.240   2.882   8.749
12467SOL    HW149877   0.280   2.801   8.792
12467SOL    HW249878   0.168   2.919   8.808
12468SOL     OW49879   1.025   6.130   8.079
12468SOL    HW149880   1.047   6.212   8.026
12468SOL    HW249881   1.025   6.050   8.019
12469SOL     OW49882   4.938   6.761   8.173
12469SOL    HW149883   4.840   6.758   8.194
12469SOL    HW249884   4.990   6.726   8.252
12470SOL     OW49885   1.032   2.333   8.252
12470SOL    HW149886   1.092   2.399   8.296
12470SOL    HW249887   1.062   2.317   8.158
12471SOL     OW49888   1.901   0.183   7.513
12471SOL    HW149889   1.875   0.136   7.428
12471SOL    HW249890   1.969   0.254   7.493
12472SOL     OW49891   4.797   3.013   8.739
12472SOL    HW149892   4.895   3.004   8.761
12472SOL    HW249893   4.786   3.066   8.656
12473SOL     OW49894   2.884   2.605   7.504
12473SOL    HW149895   2.948   2.534   7.531
12473SOL    HW249896   2.930   2.694   7.503
12474SOL     OW49897   1.393   2.655   7.605
12474SOL    HW149898   1.298   2.674   7.632
12474SOL    HW249899   1.406   2.556   7.599
12475SOL     OW49900   2.987   6.184   7.695
12475SOL    HW149901   3.049   6.183   7.773
12475SOL    HW249902   2.971   6.278   7.665
12476SOL     OW49903   6.372   6.817   7.637
12476SOL    HW149904   6.457   6.809   7.585
12476SOL    HW249905   6.305   6.752   7.601
12477SOL     OW49906   4.765   1.457   8.068
12477SOL    HW149907   4.674   1.494   8.052
12477SOL    HW249908   4.784   1.456   8.166
12478SOL     OW49909   6.096   0.853   7.785
12478SOL    HW149910   6.143   0.768   7.759
12478SOL    HW249911   6.161   0.928   7.788
12479SOL     OW49912   5.806   4.957   7.980
12479SOL    HW149913   5.821   5.056   7.972
12479SOL    HW249914   5.711   4.937   7.956
12480SOL     OW49915   7.082   2.279   7.372
12480SOL    HW149916   7.104   2.274   7.275
12480SOL    HW249917   6.986   2.255   7.386
12481SOL     OW49918   3.525   0.965   7.921
12481SOL    HW149919   3.516   0.988   7.824
12481SOL    HW249920   3.472   1.031   7.975
12482SOL     OW49921   1.747   6.579   8.619
12482SOL    HW149922   1.721   6.514   8.691
12482SOL    HW249923   1.777   6.529   8.538
12483SOL     OW49924   3.403   2.070   8.698
12483SOL    HW149925   3.500   2.051   8.689
12483SOL    HW249926   3.390   2.165   8.727
12484SOL     OW49927   0.732   3.176   8.144
12484SOL    HW149928   0.770   3.226   8.223
12484SOL    HW249929   0.651   3.225   8.110
12485SOL     OW49930   0.616   4.077   7.949
12485SOL    HW149931   0.681   4.146   7.980
12485SOL    HW249932   0.549   4.120   7.889
12486SOL     OW49933   5.266   0.544   7.594
12486SOL    HW149934   5.248   0.632   7.638
12486SOL    HW249935   5.363   0.538   7.570
12487SOL     OW49936   2.452   3.811   8.566
12487SOL    HW149937   2.378   3.744   8.576
12487SOL    HW249938   2.424   3.883   8.503
12488SOL     OW49939   6.420   0.831   8.198
12488SOL    HW149940   6.385   0.782   8.278
12488SOL    HW249941   6.415   0.930   8.214
12489SOL     OW49942   3.242   0.116   8.520
12489SOL    HW149943   3.210   0.174   8.445
12489SOL    HW249944   3.206   0.024   8.509
12490SOL     OW49945   3.360   1.745   7.567
12490SOL    HW149946   3.362   1.789   7.477
12490SOL    HW249947   3.335   1.812   7.636
12491SOL     OW49948   2.133   3.326   9.330
12491SOL    HW149949   2.202   3.323   9.402
12491SOL    HW249950   2.131   3.238   9.282
12492SOL     OW49951   1.608   1.136   7.798
12492SOL    HW149952   1.674   1.065   7.821
12492SOL    HW249953   1.522   1.094   7.770
12493SOL     OW49954   6.185   6.860   7.360
12493SOL    HW149955   6.104   6.885   7.413
12493SOL    HW249956   6.203   6.762   7.370
12494SOL     OW49957   4.711   6.383   8.167
12494SOL    HW149958   4.624   6.404   8.211
12494SOL    HW249959   4.761   6.315   8.221
12495SOL     OW49960   6.035   3.769   7.484
12495SOL    HW149961   5.964   3.811   7.541
12495SOL    HW249962   6.003   3.681   7.449
12496SOL     OW49963   6.385   1.325   8.810
12496SOL    HW149964   6.292   1.308   8.844
12496SOL    HW249965   6.403   1.424   8.814
12497SOL     OW49966   5.285   3.866   7.682
12497SOL    HW149967   5.196   3.914   7.681
12497SOL    HW249968   5.314   3.847   7.589
12498SOL     OW49969   0.929   4.748   7.465
12498SOL    HW149970   1.008   4.693   7.438
12498SOL    HW249971   0.868   4.759   7.387
12499SOL     OW49972   1.786   6.259   7.664
12499SOL    HW149973   1.842   6.189   7.619
12499SOL    HW249974   1.827   6.283   7.752
12500SOL     OW49975   5.996   3.270   7.379
12500SOL    HW149976   6.089   3.262   7.414
12500SOL    HW249977   5.937   3.307   7.451
12501SOL     OW49978   3.205   5.384   9.091
12501SOL    HW149979   3.220   5.355   9.185
12501SOL    HW249980   3.142   5.320   9.046
12502SOL     OW49981   6.638   1.590   8.432
12502SOL    HW149982   6.688   1.674   8.455
12502SOL    HW249983   6.540   1.605   8.447
12503SOL     OW49984   3.190   4.488   8.144
12503SOL    HW149985   3.172   4.586   8.159
12503SOL    HW249986   3.106   4.442   8.116
12504SOL     OW49987   6.108   6.287   8.771
12504SOL    HW149988   6.163   6.218   8.724
12504SOL    HW249989   6.017   6.250   8.789
12505SOL     OW49990   3.210   4.064   7.512
12505SOL    HW149991   3.254   4.002   7.577
12505SOL    HW249992   3.144   4.014   7.456
12506SOL     OW49993   2.198   4.393   7.698
12506SOL    HW149994   2.111   4.432   7.728
12506SOL    HW249995   2.202   4.396   7.598
12507SOL     OW49996   5.642   4.235   9.012
12507SOL    HW149997   5.718   4.239   9.076
12507SOL    HW249998   5.665   4.172   8.937
12508SOL     OW49999   4.740   5.952   7.702
12508SOL    HW150000   4.673   6.012   7.745
12508SOL    HW250001   4.813   5.930   7.767
12509SOL     OW50002   6.340   4.867   8.961
12509SOL    HW150003   6.270   4.867   9.033
12509SOL    HW250004   6.392   4.952   8.965
12510SOL     OW50005   1.817   2.029   7.666
12510SOL    HW150006   1.806   2.050   7.763
12510SOL    HW250007   1.824   1.930   7.654
12511SOL     OW50008   2.643   5.328   8.271
12511SOL    HW150009   2.722   5.390   8.276
12511SOL    HW250010   2.576   5.365   8.206
12512SOL     OW50011   5.216   6.868   8.713
12512SOL    HW150012   5.260   6.947   8.669
12512SOL    HW250013   5.252   6.857   8.805
12513SOL     OW50014   3.842   4.040   7.495
12513SOL    HW150015   3.801   3.968   7.551
12513SOL    HW250016   3.921   4.004   7.446
12514SOL     OW50017   0.024   1.769   7.686
12514SOL    HW150018   0.016   1.679   7.643
12514SOL    HW250019   0.012   1.761   7.785
12515SOL     OW50020   7.125   2.925   8.334
12515SOL    HW150021   7.174   2.840   8.312
12515SOL    HW250022   7.191   3.000   8.343
12516SOL     OW50023   4.209   3.694   7.777
12516SOL    HW150024   4.245   3.649   7.858
12516SOL    HW250025   4.282   3.709   7.711
12517SOL     OW50026   0.081   7.283   8.854
12517SOL    HW150027   0.055   7.371   8.894
12517SOL    HW250028   0.178   7.266   8.872
12518SOL     OW50029   1.564   3.413   7.739
12518SOL    HW150030   1.563   3.439   7.643
12518SOL    HW250031   1.479   3.365   7.762
12519SOL     OW50032   1.913   4.955   7.724
12519SOL    HW150033   1.876   5.046   7.703
12519SOL    HW250034   2.013   4.958   7.722
12520SOL     OW50035   2.759   3.397   7.633
12520SOL    HW150036   2.700   3.317   7.619
12520SOL    HW250037   2.816   3.383   7.714
12521SOL     OW50038   1.605   3.853   8.311
12521SOL    HW150039   1.679   3.917   8.329
12521SOL    HW250040   1.618   3.811   8.221
12522SOL     OW50041   5.084   3.564   8.719
12522SOL    HW150042   5.068   3.651   8.674
12522SOL    HW250043   5.178   3.533   8.700
12523SOL     OW50044   1.447   5.749   7.992
12523SOL    HW150045   1.470   5.839   7.958
12523SOL    HW250046   1.385   5.758   8.070
12524SOL     OW50047   0.530   2.418   7.604
12524SOL    HW150048   0.479   2.373   7.530
12524SOL    HW250049   0.530   2.517   7.590
12525SOL     OW50050   1.496   1.604   8.071
12525SOL    HW150051   1.521   1.516   8.030
12525SOL    HW250052   1.565   1.673   8.045
12526SOL     OW50053   0.769   4.028   8.597
12526SOL    HW150054   0.794   4.037   8.500
12526SOL    HW250055   0.845   3.988   8.648
12527SOL     OW50056   3.079   0.640   8.848
12527SOL    HW150057   3.007   0.671   8.910
12527SOL    HW250058   3.062   0.545   8.823
12528SOL     OW50059   6.877   4.920   7.898
12528SOL    HW150060   6.973   4.940   7.876
12528SOL    HW250061   6.872   4.845   7.964
12529SOL     OW50062   7.182   2.260   8.208
12529SOL    HW150063   7.119   2.269   8.131
12529SOL    HW250064   7.253   2.193   8.186
12530SOL     OW50065   6.295   6.069   7.414
12530SOL    HW150066   6.368   6.014   7.455
12530SOL    HW250067   6.209   6.018   7.419
12531SOL     OW50068   4.926   1.699   7.462
12531SOL    HW150069   4.960   1.793   7.474
12531SOL    HW250070   4.960   1.662   7.375
12532SOL     OW50071   0.002   6.789   7.852
12532SOL    HW150072   0.019   6.693   7.832
12532SOL    HW250073  -0.092   6.812   7.828
12533SOL     OW50074   4.138   1.147   8.183
12533SOL    HW150075   4.082   1.138   8.266
12533SOL    HW250076   4.204   1.221   8.195
12534SOL     OW50077   1.648   4.585   8.331
12534SOL    HW150078   1.561   4.540   8.309
12534SOL    HW250079   1.631   4.671   8.377
12535SOL     OW50080   2.920   2.515   8.789
12535SOL    HW150081   2.980   2.435   8.777
12535SOL    HW250082   2.976   2.597   8.802
12536SOL     OW50083   1.499   4.314   7.633
12536SOL    HW150084   1.452   4.402   7.638
12536SOL    HW250085   1.433   4.240   7.640
12537SOL     OW50086   0.480   1.614   8.102
12537SOL    HW150087   0.520   1.701   8.133
12537SOL    HW250088   0.460   1.620   8.004
12538SOL     OW50089   0.909   3.188   8.589
12538SOL    HW150090   0.832   3.170   8.650
12538SOL    HW250091   0.987   3.221   8.643
12539SOL     OW50092   6.940   6.851   8.795
12539SOL    HW150093   6.847   6.864   8.829
12539SOL    HW250094   6.942   6.864   8.696
12540SOL     OW50095   2.402   2.310   8.707
12540SOL    HW150096   2.451   2.246   8.764
12540SOL    HW250097   2.387   2.270   8.616
12541SOL     OW50098   6.508   2.461   7.524
12541SOL    HW150099   6.487   2.470   7.427
12541SOL    HW250100   6.423   2.462   7.577
12542SOL     OW50101   6.171   1.663   8.082
12542SOL    HW150102   6.244   1.707   8.029
12542SOL    HW250103   6.174   1.696   8.176
12543SOL     OW50104   1.574   2.424   8.590
12543SOL    HW150105   1.587   2.478   8.507
12543SOL    HW250106   1.623   2.337   8.583
12544SOL     OW50107   6.508   0.397   8.237
12544SOL    HW150108   6.537   0.470   8.299
12544SOL    HW250109   6.587   0.342   8.211
12545SOL     OW50110   1.393   0.286   8.935
12545SOL    HW150111   1.393   0.187   8.924
12545SOL    HW250112   1.370   0.329   8.848
12546SOL     OW50113   1.695   4.628   8.963
12546SOL    HW150114   1.771   4.646   9.025
12546SOL    HW250115   1.729   4.615   8.870
12547SOL     OW50116   3.481   2.601   7.631
12547SOL    HW150117   3.437   2.682   7.592
12547SOL    HW250118   3.576   2.622   7.653
12548SOL     OW50119   7.229   6.244   7.426
12548SOL    HW150120   7.254   6.207   7.515
12548SOL    HW250121   7.291   6.319   7.402
12549SOL     OW50122   3.788   2.938   7.888
12549SOL    HW150123   3.850   2.955   7.965
12549SOL    HW250124   3.778   3.022   7.835
12550SOL     OW50125   5.641   6.366   8.830
12550SOL    HW150126   5.556   6.330   8.868
12550SOL    HW250127   5.633   6.465   8.817
12551SOL     OW50128   5.731   7.251   7.928
12551SOL    HW150129   5.714   7.226   7.833
12551SOL    HW250130   5.803   7.192   7.965
12552SOL     OW50131   4.420   6.600   7.815
12552SOL    HW150132   4.482   6.672   7.784
12552SOL    HW250133   4.470   6.513   7.820
12553SOL     OW50134   2.148   1.796   9.309
12553SOL    HW150135   2.086   1.871   9.332
12553SOL    HW250136   2.135   1.771   9.213
12554SOL     OW50137   2.878   3.604   8.754
12554SOL    HW150138   2.934   3.663   8.811
12554SOL    HW250139   2.847   3.654   8.673
12555SOL     OW50140   4.459   0.571   7.833
12555SOL    HW150141   4.551   0.593   7.867
12555SOL    HW250142   4.408   0.521   7.903
12556SOL     OW50143   6.099   2.778   8.653
12556SOL    HW150144   6.189   2.823   8.660
12556SOL    HW250145   6.066   2.756   8.745
12557SOL     OW50146   6.354   4.770   7.858
12557SOL    HW150147   6.318   4.767   7.765
12557SOL    HW250148   6.280   4.757   7.924
12558SOL     OW50149   2.045   3.489   7.848
12558SOL    HW150150   2.099   3.406   7.865
12558SOL    HW250151   1.949   3.469   7.863
12559SOL     OW50152   5.326   4.234   8.907
12559SOL    HW150153   5.405   4.221   8.967
12559SOL    HW250154   5.355   4.280   8.823
12560SOL     OW50155   3.114   1.758   7.955
12560SOL    HW150156   3.191   1.696   7.972
12560SOL    HW250157   3.072   1.783   8.042
12561SOL     OW50158   2.583   1.237   8.389
12561SOL    HW150159   2.665   1.293   8.377
12561SOL    HW250160   2.508   1.293   8.422
12562SOL     OW50161   2.511   2.748   8.390
12562SOL    HW150162   2.568   2.756   8.308
12562SOL    HW250163   2.441   2.820   8.388
12563SOL     OW50164   1.208   2.959   8.421
12563SOL    HW150165   1.242   3.034   8.477
12563SOL    HW250166   1.254   2.874   8.447
12564SOL     OW50167   2.217   2.845   8.175
12564SOL    HW150168   2.178   2.854   8.266
12564SOL    HW250169   2.147   2.811   8.112
12565SOL     OW50170   2.845   1.901   7.891
12565SOL    HW150171   2.880   1.979   7.944
12565SOL    HW250172   2.920   1.859   7.840
12566SOL     OW50173   1.356   7.146   8.309
12566SOL    HW150174   1.362   7.245   8.320
12566SOL    HW250175   1.383   7.101   8.395
12567SOL     OW50176   4.676   6.812   8.246
12567SOL    HW150177   4.701   6.876   8.319
12567SOL    HW250178   4.620   6.860   8.178
12568SOL     OW50179   3.564   5.040   8.540
12568SOL    HW150180   3.557   5.003   8.447
12568SOL    HW250181   3.655   5.021   8.577
12569SOL     OW50182   2.582   4.344   8.655
12569SOL    HW150183   2.551   4.253   8.627
12569SOL    HW250184   2.667   4.366   8.607
12570SOL     OW50185   1.472   5.556   7.570
12570SOL    HW150186   1.428   5.590   7.487
12570SOL    HW250187   1.496   5.634   7.628
12571SOL     OW50188   6.079   6.581   8.856
12571SOL    HW150189   6.073   6.491   8.813
12571SOL    HW250190   6.017   6.645   8.810
12572SOL     OW50191   0.466   6.035   8.527
12572SOL    HW150192   0.393   6.071   8.470
12572SOL    HW250193   0.444   6.049   8.623
12573SOL     OW50194   4.823   1.206   7.717
12573SOL    HW150195   4.761   1.283   7.727
12573SOL    HW250196   4.791   1.146   7.644
12574SOL     OW50197   1.960   3.746   7.775
12574SOL    HW150198   1.985   3.653   7.803
12574SOL    HW250199   1.965   3.807   7.854
12575SOL     OW50200   0.705   1.955   8.845
12575SOL    HW150201   0.777   1.965   8.776
12575SOL    HW250202   0.699   2.039   8.898
12576SOL     OW50203   4.510   1.551   8.026
12576SOL    HW150204   4.469   1.561   8.117
12576SOL    HW250205   4.438   1.540   7.958
12577SOL     OW50206   6.304   7.116   7.601
12577SOL    HW150207   6.396   7.154   7.599
12577SOL    HW250208   6.306   7.022   7.567
12578SOL     OW50209   4.095   6.016   8.096
12578SOL    HW150210   4.041   5.993   8.177
12578SOL    HW250211   4.130   6.109   8.106
12579SOL     OW50212   3.706   6.009   8.427
12579SOL    HW150213   3.633   6.069   8.394
12579SOL    HW250214   3.668   5.942   8.491
12580SOL     OW50215   0.130   3.913   7.504
12580SOL    HW150216   0.048   3.954   7.463
12580SOL    HW250217   0.206   3.919   7.438
12581SOL     OW50218   3.577   6.719   8.177
12581SOL    HW150219   3.604   6.689   8.268
12581SOL    HW250220   3.656   6.711   8.115
12582SOL     OW50221   2.774   3.315   8.605
12582SOL    HW150222   2.817   3.344   8.690
12582SOL    HW250223   2.680   3.350   8.602
12583SOL     OW50224   6.622   5.377   8.415
12583SOL    HW150225   6.585   5.419   8.498
12583SOL    HW250226   6.613   5.278   8.421
12584SOL     OW50227   5.562   7.198   7.432
12584SOL    HW150228   5.622   7.271   7.400
12584SOL    HW250229   5.569   7.119   7.371
12585SOL     OW50230   4.222   6.597   7.406
12585SOL    HW150231   4.281   6.615   7.327
12585SOL    HW250232   4.217   6.679   7.463
12586SOL     OW50233   1.937   2.816   8.151
12586SOL    HW150234   1.951   2.722   8.118
12586SOL    HW250235   1.897   2.871   8.078
12587SOL     OW50236   3.110   2.167   7.403
12587SOL    HW150237   3.145   2.096   7.341
12587SOL    HW250238   3.178   2.186   7.473
12588SOL     OW50239   5.040   7.232   8.520
12588SOL    HW150240   5.127   7.281   8.515
12588SOL    HW250241   5.052   7.140   8.483
12589SOL     OW50242   3.123   7.348   8.227
12589SOL    HW150243   3.159   7.255   8.240
12589SOL    HW250244   3.050   7.365   8.294
12590SOL     OW50245   1.614   3.938   7.563
12590SOL    HW150246   1.676   3.887   7.623
12590SOL    HW250247   1.547   3.876   7.524
12591SOL     OW50248   0.964   2.875   8.026
12591SOL    HW150249   0.868   2.878   8.056
12591SOL    HW250250   0.974   2.924   7.940
12592SOL     OW50251   3.643   0.583   8.776
12592SOL    HW150252   3.691   0.495   8.776
12592SOL    HW250253   3.636   0.618   8.683
12593SOL     OW50254   2.516   3.231   7.823
12593SOL    HW150255   2.579   3.168   7.867
12593SOL    HW250256   2.482   3.190   7.738
12594SOL     OW50257   4.596   0.701   8.504
12594SOL    HW150258   4.550   0.778   8.460
12594SOL    HW250259   4.584   0.619   8.448
12595SOL     OW50260   0.384   0.163   8.615
12595SOL    HW150261   0.445   0.110   8.556
12595SOL    HW250262   0.406   0.260   8.607
12596SOL     OW50263   1.508   2.960   8.021
12596SOL    HW150264   1.475   3.050   8.051
12596SOL    HW250265   1.608   2.961   8.019
12597SOL     OW50266   6.593   6.611   7.658
12597SOL    HW150267   6.544   6.554   7.725
12597SOL    HW250268   6.590   6.567   7.569
12598SOL     OW50269   3.352   5.230   8.590
12598SOL    HW150270   3.423   5.174   8.549
12598SOL    HW250271   3.365   5.233   8.689
12599SOL     OW50272   5.605   7.134   7.697
12599SOL    HW150273   5.566   7.169   7.612
12599SOL    HW250274   5.636   7.040   7.683
12600SOL     OW50275   0.025   1.439   7.666
12600SOL    HW150276  -0.019   1.373   7.726
12600SOL    HW250277   0.125   1.432   7.676
12601SOL     OW50278   1.987   0.464   7.662
12601SOL    HW150279   1.912   0.529   7.653
12601SOL    HW250280   1.961   0.392   7.726
12602SOL     OW50281   2.399   3.114   7.603
12602SOL    HW150282   2.388   3.024   7.645
12602SOL    HW250283   2.318   3.137   7.550
12603SOL     OW50284   5.087   5.379   8.583
12603SOL    HW150285   5.066   5.434   8.664
12603SOL    HW250286   5.046   5.421   8.502
12604SOL     OW50287   5.656   4.524   8.957
12604SOL    HW150288   5.620   4.433   8.940
12604SOL    HW250289   5.695   4.528   9.049
12605SOL     OW50290   3.388   1.087   8.521
12605SOL    HW150291   3.476   1.096   8.473
12605SOL    HW250292   3.382   1.158   8.591
12606SOL     OW50293   1.896   1.433   8.640
12606SOL    HW150294   1.810   1.402   8.601
12606SOL    HW250295   1.878   1.481   8.726
12607SOL     OW50296   4.095   5.055   7.875
12607SOL    HW150297   3.996   5.040   7.871
12607SOL    HW250298   4.142   4.968   7.887
12608SOL     OW50299   5.734   3.350   8.667
12608SOL    HW150300   5.662   3.307   8.721
12608SOL    HW250301   5.694   3.392   8.585
12609SOL     OW50302   0.525   2.724   8.196
12609SOL    HW150303   0.537   2.642   8.251
12609SOL    HW250304   0.490   2.699   8.106
12610SOL     OW50305   1.952   3.025   7.581
12610SOL    HW150306   1.872   3.082   7.562
12610SOL    HW250307   1.924   2.942   7.629
12611SOL     OW50308   5.049   5.876   8.184
12611SOL    HW150309   5.106   5.809   8.137
12611SOL    HW250310   5.007   5.834   8.264
12612SOL     OW50311   1.590   6.783   8.677
12612SOL    HW150312   1.533   6.724   8.735
12612SOL    HW250313   1.652   6.726   8.623
12613SOL     OW50314   4.901   2.046   7.414
12613SOL    HW150315   4.995   2.017   7.395
12613SOL    HW250316   4.899   2.143   7.436
12614SOL     OW50317   6.239   0.428   7.911
12614SOL    HW150318   6.199   0.424   8.002
12614SOL    HW250319   6.167   0.426   7.842
12615SOL     OW50320   5.636   7.090   8.768
12615SOL    HW150321   5.704   7.097   8.841
12615SOL    HW250322   5.681   7.097   8.679
12616SOL     OW50323   3.172   0.321   7.853
12616SOL    HW150324   3.204   0.230   7.878
12616SOL    HW250325   3.194   0.386   7.926
12617SOL     OW50326   6.788   0.798   8.168
12617SOL    HW150327   6.756   0.841   8.084
12617SOL    HW250328   6.729   0.824   8.244
12618SOL     OW50329   7.253   7.336   7.772
12618SOL    HW150330   7.183   7.269   7.746
12618SOL    HW250331   7.227   7.381   7.857
12619SOL     OW50332   2.782   5.951   7.968
12619SOL    HW150333   2.721   6.031   7.974
12619SOL    HW250334   2.769   5.906   7.880
12620SOL     OW50335   6.028   3.608   7.948
12620SOL    HW150336   5.982   3.546   7.885
12620SOL    HW250337   6.047   3.695   7.902
12621SOL     OW50338   0.346   5.604   8.106
12621SOL    HW150339   0.386   5.668   8.040
12621SOL    HW250340   0.247   5.616   8.109
12622SOL     OW50341   2.396   6.182   8.855
12622SOL    HW150342   2.396   6.281   8.871
12622SOL    HW250343   2.484   6.154   8.819
12623SOL     OW50344   6.718   7.313   8.299
12623SOL    HW150345   6.716   7.222   8.257
12623SOL    HW250346   6.740   7.304   8.396
12624SOL     OW50347   0.485   4.345   7.910
12624SOL    HW150348   0.439   4.404   7.977
12624SOL    HW250349   0.577   4.378   7.893
12625SOL     OW50350   1.520   0.709   7.876
12625SOL    HW150351   1.578   0.704   7.956
12625SOL    HW250352   1.567   0.758   7.803
12626SOL     OW50353   1.564   0.951   8.683
12626SOL    HW150354   1.607   1.022   8.738
12626SOL    HW250355   1.496   0.903   8.739
12627SOL     OW50356   3.685   3.522   7.517
12627SOL    HW150357   3.663   3.576   7.435
12627SOL    HW250358   3.621   3.445   7.524
12628SOL     OW50359   3.273   7.324   9.027
12628SOL    HW150360   3.275   7.401   9.090
12628SOL    HW250361   3.301   7.355   8.936
12629SOL     OW50362   3.801   2.485   8.296
12629SOL    HW150363   3.848   2.415   8.242
12629SOL    HW250364   3.712   2.504   8.255
12630SOL     OW50365   7.333   6.866   8.105
12630SOL    HW150366   7.420   6.857   8.154
12630SOL    HW250367   7.346   6.843   8.009
12631SOL     OW50368   0.390   6.872   8.440
12631SOL    HW150369   0.428   6.964   8.445
12631SOL    HW250370   0.426   6.817   8.514
12632SOL     OW50371   0.322   1.006   7.673
12632SOL    HW150372   0.303   0.973   7.581
12632SOL    HW250373   0.421   1.015   7.686
12633SOL     OW50374   3.789   0.295   8.427
12633SOL    HW150375   3.788   0.337   8.518
12633SOL    HW250376   3.707   0.321   8.377
12634SOL     OW50377   2.071   2.308   7.965
12634SOL    HW150378   2.135   2.289   7.891
12634SOL    HW250379   2.001   2.236   7.968
12635SOL     OW50380   2.945   4.138   8.574
12635SOL    HW150381   2.892   4.056   8.553
12635SOL    HW250382   2.890   4.219   8.555
12636SOL     OW50383   1.897   4.458   8.269
12636SOL    HW150384   1.991   4.485   8.288
12636SOL    HW250385   1.834   4.516   8.321
12637SOL     OW50386   6.578   2.534   8.860
12637SOL    HW150387   6.569   2.448   8.910
12637SOL    HW250388   6.524   2.530   8.776
12638SOL     OW50389   2.854   0.890   8.781
12638SOL    HW150390   2.820   0.984   8.787
12638SOL    HW250391   2.931   0.887   8.717
12639SOL     OW50392   5.109   1.087   8.099
12639SOL    HW150393   5.119   1.061   8.003
12639SOL    HW250394   5.016   1.118   8.116
12640SOL     OW50395   0.352   1.995   8.225
12640SOL    HW150396   0.286   1.921   8.221
12640SOL    HW250397   0.445   1.958   8.225
12641SOL     OW50398   0.785   2.731   8.303
12641SOL    HW150399   0.813   2.823   8.331
12641SOL    HW250400   0.691   2.734   8.269
12642SOL     OW50401   7.110   0.053   8.369
12642SOL    HW150402   7.189   0.113   8.381
12642SOL    HW250403   7.080   0.056   8.274
12643SOL     OW50404   6.845   4.545   7.653
12643SOL    HW150405   6.826   4.447   7.658
12643SOL    HW250406   6.760   4.596   7.657
12644SOL     OW50407   3.331   3.133   7.386
12644SOL    HW150408   3.341   3.158   7.289
12644SOL    HW250409   3.241   3.094   7.401
12645SOL     OW50410   4.661   3.600   8.882
12645SOL    HW150411   4.596   3.633   8.950
12645SOL    HW250412   4.632   3.629   8.791
12646SOL     OW50413   2.875   4.984   8.646
12646SOL    HW150414   2.899   4.891   8.618
12646SOL    HW250415   2.858   5.040   8.565
12647SOL     OW50416   2.532   0.028   8.430
12647SOL    HW150417   2.593   0.034   8.351
12647SOL    HW250418   2.536  -0.064   8.468
12648SOL     OW50419   7.045   2.794   7.481
12648SOL    HW150420   7.096   2.710   7.462
12648SOL    HW250421   7.008   2.790   7.573
12649SOL     OW50422   3.198   4.271   8.564
12649SOL    HW150423   3.175   4.353   8.513
12649SOL    HW250424   3.122   4.206   8.559
12650SOL     OW50425   3.073   7.100   8.879
12650SOL    HW150426   2.974   7.110   8.893
12650SOL    HW250427   3.119   7.091   8.967
12651SOL     OW50428   0.277   4.367   8.916
12651SOL    HW150429   0.186   4.367   8.875
12651SOL    HW250430   0.337   4.306   8.865
12652SOL     OW50431   6.110   2.037   8.505
12652SOL    HW150432   6.017   2.008   8.528
12652SOL    HW250433   6.114   2.062   8.409
12653SOL     OW50434   0.058   5.596   8.008
12653SOL    HW150435   0.021   5.669   7.951
12653SOL    HW250436   0.061   5.627   8.103
12654SOL     OW50437   4.444   3.975   7.519
12654SOL    HW150438   4.427   3.993   7.616
12654SOL    HW250439   4.532   3.929   7.509
12655SOL     OW50440   4.622   4.636   9.171
12655SOL    HW150441   4.592   4.710   9.231
12655SOL    HW250442   4.666   4.675   9.090
12656SOL     OW50443   3.134   2.858   8.693
12656SOL    HW150444   3.129   2.820   8.786
12656SOL    HW250445   3.068   2.812   8.634
12657SOL     OW50446   6.684   4.138   8.053
12657SOL    HW150447   6.754   4.185   8.108
12657SOL    HW250448   6.610   4.107   8.113
12658SOL     OW50449   1.673   1.770   7.981
12658SOL    HW150450   1.729   1.824   8.045
12658SOL    HW250451   1.651   1.825   7.901
12659SOL     OW50452   5.648   1.349   8.612
12659SOL    HW150453   5.566   1.296   8.591
12659SOL    HW250454   5.727   1.288   8.613
12660SOL     OW50455   2.504   0.029   7.420
12660SOL    HW150456   2.580   0.036   7.484
12660SOL    HW250457   2.510   0.101   7.351
12661SOL     OW50458   6.309   5.616   7.486
12661SOL    HW150459   6.352   5.630   7.397
12661SOL    HW250460   6.242   5.541   7.480
12662SOL     OW50461   2.989   5.051   7.599
12662SOL    HW150462   2.992   5.018   7.504
12662SOL    HW250463   3.045   4.992   7.657
12663SOL     OW50464   5.404   0.325   8.518
12663SOL    HW150465   5.381   0.273   8.436
12663SOL    HW250466   5.429   0.418   8.493
12664SOL     OW50467   4.922   6.196   7.903
12664SOL    HW150468   4.824   6.214   7.909
12664SOL    HW250469   4.969   6.277   7.866
12665SOL     OW50470   6.387   6.098   7.709
12665SOL    HW150471   6.463   6.039   7.679
12665SOL    HW250472   6.325   6.113   7.632
12666SOL     OW50473   5.099   1.383   8.484
12666SOL    HW150474   5.113   1.294   8.442
12666SOL    HW250475   5.118   1.377   8.582
12667SOL     OW50476   6.937   1.659   8.623
12667SOL    HW150477   6.867   1.729   8.608
12667SOL    HW250478   6.980   1.673   8.712
12668SOL     OW50479   3.174   3.424   7.491
12668SOL    HW150480   3.129   3.347   7.536
12668SOL    HW250481   3.259   3.446   7.540
12669SOL     OW50482   6.763   4.451   7.925
12669SOL    HW150483   6.764   4.380   7.855
12669SOL    HW250484   6.669   4.480   7.942
12670SOL     OW50485   6.575   5.077   8.483
12670SOL    HW150486   6.531   4.988   8.474
12670SOL    HW250487   6.660   5.067   8.535
12671SOL     OW50488   1.590   6.091   7.423
12671SOL    HW150489   1.539   6.162   7.470
12671SOL    HW250490   1.528   6.038   7.365
12672SOL     OW50491   3.069   3.086   9.085
12672SOL    HW150492   3.120   3.172   9.082
12672SOL    HW250493   3.013   3.077   9.002
12673SOL     OW50494   4.812   1.411   8.333
12673SOL    HW150495   4.744   1.346   8.366
12673SOL    HW250496   4.875   1.434   8.407
12674SOL     OW50497   5.671   1.381   9.102
12674SOL    HW150498   5.604   1.394   9.175
12674SOL    HW250499   5.630   1.405   9.014
12675SOL     OW50500   2.600   0.592   8.265
12675SOL    HW150501   2.547   0.574   8.183
12675SOL    HW250502   2.620   0.505   8.311
12676SOL     OW50503   0.191   0.650   7.770
12676SOL    HW150504   0.251   0.616   7.843
12676SOL    HW250505   0.190   0.750   7.772
12677SOL     OW50506   5.554   2.530   8.455
12677SOL    HW150507   5.630   2.593   8.438
12677SOL    HW250508   5.486   2.575   8.513
12678SOL     OW50509   3.596   1.302   7.895
12678SOL    HW150510   3.537   1.240   7.946
12678SOL    HW250511   3.540   1.359   7.835
12679SOL     OW50512   3.659   3.283   8.836
12679SOL    HW150513   3.583   3.343   8.811
12679SOL    HW250514   3.630   3.188   8.828
12680SOL     OW50515   0.443   7.149   8.081
12680SOL    HW150516   0.520   7.211   8.067
12680SOL    HW250517   0.403   7.125   7.992
12681SOL     OW50518   2.859   4.717   8.598
12681SOL    HW150519   2.877   4.644   8.664
12681SOL    HW250520   2.766   4.707   8.562
12682SOL     OW50521   4.334   1.135   8.453
12682SOL    HW150522   4.428   1.140   8.419
12682SOL    HW250523   4.280   1.079   8.390
12683SOL     OW50524   5.401   4.606   8.455
12683SOL    HW150525   5.493   4.568   8.450
12683SOL    HW250526   5.378   4.625   8.551
12684SOL     OW50527   0.092   0.104   8.545
12684SOL    HW150528   0.185   0.081   8.574
12684SOL    HW250529   0.095   0.166   8.467
12685SOL     OW50530   1.299   6.152   7.577
12685SOL    HW150531   1.363   6.221   7.612
12685SOL    HW250532   1.316   6.065   7.622
12686SOL     OW50533   6.401   0.985   8.858
12686SOL    HW150534   6.496   1.016   8.862
12686SOL    HW250535   6.353   1.015   8.941
12687SOL     OW50536   2.899   2.315   7.460
12687SOL    HW150537   2.974   2.251   7.440
12687SOL    HW250538   2.876   2.366   7.377
12688SOL     OW50539   6.193   5.606   8.075
12688SOL    HW150540   6.101   5.639   8.057
12688SOL    HW250541   6.247   5.612   7.991
12689SOL     OW50542   2.197   7.200   8.335
12689SOL    HW150543   2.106   7.162   8.348
12689SOL    HW250544   2.212   7.275   8.400
12690SOL     OW50545   1.826   1.623   8.815
12690SOL    HW150546   1.870   1.713   8.818
12690SOL    HW250547   1.788   1.603   8.905
12691SOL     OW50548   2.382   3.304   8.040
12691SOL    HW150549   2.440   3.275   7.965
12691SOL    HW250550   2.368   3.228   8.103
12692SOL     OW50551   6.734   6.992   8.920
12692SOL    HW150552   6.761   7.089   8.913
12692SOL    HW250553   6.740   6.963   9.015
12693SOL     OW50554   6.787   2.443   7.556
12693SOL    HW150555   6.813   2.464   7.462
12693SOL    HW250556   6.687   2.441   7.564
12694SOL     OW50557   1.738   0.406   8.157
12694SOL    HW150558   1.638   0.404   8.155
12694SOL    HW250559   1.769   0.488   8.206
12695SOL     OW50560   2.355   6.542   8.397
12695SOL    HW150561   2.364   6.593   8.482
12695SOL    HW250562   2.419   6.578   8.329
12696SOL     OW50563   2.995   2.861   7.565
12696SOL    HW150564   3.040   2.902   7.644
12696SOL    HW250565   3.035   2.897   7.481
12697SOL     OW50566   1.330   3.560   7.915
12697SOL    HW150567   1.291   3.554   7.823
12697SOL    HW250568   1.386   3.643   7.921
12698SOL     OW50569   3.943   2.299   8.171
12698SOL    HW150570   4.026   2.294   8.114
12698SOL    HW250571   3.897   2.210   8.169
12699SOL     OW50572   6.549   1.903   8.784
12699SOL    HW150573   6.496   1.956   8.718
12699SOL    HW250574   6.641   1.941   8.792
12700SOL     OW50575   1.840   2.790   7.725
12700SOL    HW150576   1.743   2.809   7.713
12700SOL    HW250577   1.858   2.694   7.702
12701SOL     OW50578   3.968   3.762   8.912
12701SOL    HW150579   4.042   3.823   8.884
12701SOL    HW250580   3.931   3.791   9.000
12702SOL     OW50581   2.740   5.705   8.097
12702SOL    HW150582   2.783   5.634   8.040
12702SOL    HW250583   2.775   5.795   8.070
12703SOL     OW50584   2.513   1.707   8.530
12703SOL    HW150585   2.495   1.624   8.582
12703SOL    HW250586   2.432   1.731   8.476
12704SOL     OW50587   4.406   0.085   7.505
12704SOL    HW150588   4.374  -0.006   7.478
12704SOL    HW250589   4.327   0.142   7.529
12705SOL     OW50590   0.421   4.142   7.754
12705SOL    HW150591   0.424   4.236   7.787
12705SOL    HW250592   0.326   4.114   7.741
12706SOL     OW50593   3.668   6.046   7.816
12706SOL    HW150594   3.660   5.950   7.789
12706SOL    HW250595   3.765   6.074   7.812
12707SOL     OW50596   2.393   3.518   8.876
12707SOL    HW150597   2.489   3.513   8.903
12707SOL    HW250598   2.335   3.508   8.957
12708SOL     OW50599   4.280   3.697   8.040
12708SOL    HW150600   4.360   3.756   8.029
12708SOL    HW250601   4.231   3.723   8.123
12709SOL     OW50602   4.782   4.201   8.399
12709SOL    HW150603   4.828   4.289   8.392
12709SOL    HW250604   4.815   4.152   8.480
12710SOL     OW50605   7.315   3.226   7.490
12710SOL    HW150606   7.350   3.299   7.430
12710SOL    HW250607   7.233   3.187   7.449
12711SOL     OW50608   0.028   1.163   7.388
12711SOL    HW150609   0.037   1.169   7.288
12711SOL    HW250610   0.109   1.119   7.426
12712SOL     OW50611   1.314   1.716   8.746
12712SOL    HW150612   1.354   1.694   8.657
12712SOL    HW250613   1.220   1.684   8.750
12713SOL     OW50614   5.943   5.624   7.400
12713SOL    HW150615   6.008   5.550   7.411
12713SOL    HW250616   5.891   5.611   7.315
12714SOL     OW50617   2.677   3.145   7.576
12714SOL    HW150618   2.581   3.118   7.580
12714SOL    HW250619   2.731   3.086   7.637
12715SOL     OW50620   1.655   4.143   9.156
12715SOL    HW150621   1.622   4.237   9.167
12715SOL    HW250622   1.669   4.124   9.058
12716SOL     OW50623   3.888   0.887   8.830
12716SOL    HW150624   3.898   0.900   8.731
12716SOL    HW250625   3.909   0.792   8.853
12717SOL     OW50626   0.362   0.146   8.221
12717SOL    HW150627   0.294   0.206   8.263
12717SOL    HW250628   0.331   0.052   8.225
12718SOL     OW50629   4.991   4.563   7.554
12718SOL    HW150630   5.042   4.507   7.619
12718SOL    HW250631   5.045   4.575   7.471
12719SOL     OW50632   5.168   0.722   8.674
12719SOL    HW150633   5.200   0.806   8.630
12719SOL    HW250634   5.071   0.710   8.655
12720SOL     OW50635   0.712   7.286   7.464
12720SOL    HW150636   0.778   7.276   7.538
12720SOL    HW250637   0.738   7.363   7.406
12721SOL     OW50638   1.533   1.909   7.797
12721SOL    HW150639   1.594   1.902   7.718
12721SOL    HW250640   1.543   2.000   7.838
12722SOL     OW50641   1.773   4.594   8.662
12722SOL    HW150642   1.731   4.675   8.620
12722SOL    HW250643   1.726   4.512   8.629
12723SOL     OW50644   1.739   6.579   7.492
12723SOL    HW150645   1.709   6.506   7.429
12723SOL    HW250646   1.806   6.542   7.556
12724SOL     OW50647   7.023   7.614   0.558
12724SOL    HW150648   7.002   7.614   0.656
12724SOL    HW250649   7.000   7.525   0.519
12725SOL     OW50650   2.475   7.613   7.259
12725SOL    HW150651   2.567   7.635   7.226
12725SOL    HW250652   2.456   7.666   7.342
12726SOL     OW50653   1.208   8.320   0.986
12726SOL    HW150654   1.246   8.258   1.055
12726SOL    HW250655   1.153   8.267   0.921
12727SOL     OW50656   4.315   7.670   6.661
12727SOL    HW150657   4.410   7.642   6.649
12727SOL    HW250658   4.300   7.694   6.757
12728SOL     OW50659   5.995   8.915   2.390
12728SOL    HW150660   6.074   8.897   2.449
12728SOL    HW250661   5.997   8.852   2.313
12729SOL     OW50662   7.116   8.562   1.373
12729SOL    HW150663   7.116   8.661   1.387
12729SOL    HW250664   7.107   8.543   1.275
12730SOL     OW50665   0.723   7.615   5.189
12730SOL    HW150666   0.637   7.628   5.238
12730SOL    HW250667   0.714   7.649   5.095
12731SOL     OW50668   7.009   8.774   0.303
12731SOL    HW150669   7.058   8.696   0.262
12731SOL    HW250670   6.987   8.840   0.231
12732SOL     OW50671   1.037   8.428   3.353
12732SOL    HW150672   1.083   8.386   3.431
12732SOL    HW250673   1.104   8.478   3.298
12733SOL     OW50674   3.009   7.559   4.104
12733SOL    HW150675   3.050   7.637   4.056
12733SOL    HW250676   3.077   7.515   4.162
12734SOL     OW50677   0.605   8.029   5.847
12734SOL    HW150678   0.675   8.101   5.845
12734SOL    HW250679   0.527   8.060   5.901
12735SOL     OW50680   6.980   7.542   7.064
12735SOL    HW150681   6.932   7.627   7.046
12735SOL    HW250682   7.078   7.559   7.072
12736SOL     OW50683   6.060   8.405   2.654
12736SOL    HW150684   6.151   8.403   2.696
12736SOL    HW250685   6.069   8.419   2.555
12737SOL     OW50686   3.987   8.428   2.092
12737SOL    HW150687   4.012   8.517   2.128
12737SOL    HW250688   3.887   8.421   2.085
12738SOL     OW50689   2.285   8.877   6.948
12738SOL    HW150690   2.235   8.833   6.873
12738SOL    HW250691   2.383   8.862   6.935
12739SOL     OW50692   6.046   7.857   4.359
12739SOL    HW150693   6.008   7.842   4.268
12739SOL    HW250694   6.050   7.770   4.408
12740SOL     OW50695   5.334   8.436   6.730
12740SOL    HW150696   5.246   8.475   6.703
12740SOL    HW250697   5.394   8.509   6.763
12741SOL     OW50698   4.247   8.111   0.691
12741SOL    HW150699   4.320   8.059   0.736
12741SOL    HW250700   4.270   8.209   0.691
12742SOL     OW50701   5.912   7.756   6.570
12742SOL    HW150702   5.954   7.673   6.607
12742SOL    HW250703   5.870   7.808   6.645
12743SOL     OW50704   6.698   7.553   0.821
12743SOL    HW150705   6.688   7.534   0.724
12743SOL    HW250706   6.704   7.467   0.872
12744SOL     OW50707   4.704   8.668   3.397
12744SOL    HW150708   4.662   8.604   3.462
12744SOL    HW250709   4.722   8.620   3.311
12745SOL     OW50710   5.840   8.339   1.514
12745SOL    HW150711   5.932   8.300   1.518
12745SOL    HW250712   5.802   8.345   1.607
12746SOL     OW50713   2.629   7.802   1.149
12746SOL    HW150714   2.679   7.755   1.222
12746SOL    HW250715   2.531   7.803   1.172
12747SOL     OW50716   3.991   8.030   3.331
12747SOL    HW150717   4.043   8.096   3.277
12747SOL    HW250718   4.016   7.937   3.302
12748SOL     OW50719   4.041   7.513   0.435
12748SOL    HW150720   4.070   7.426   0.396
12748SOL    HW250721   3.983   7.497   0.515
12749SOL     OW50722   5.477   7.488   2.615
12749SOL    HW150723   5.544   7.424   2.652
12749SOL    HW250724   5.524   7.558   2.561
12750SOL     OW50725   6.971   8.694   7.016
12750SOL    HW150726   7.024   8.766   6.973
12750SOL    HW250727   7.031   8.638   7.073
12751SOL     OW50728   1.827   8.731   0.771
12751SOL    HW150729   1.833   8.713   0.870
12751SOL    HW250730   1.918   8.753   0.736
12752SOL     OW50731   1.852   7.828   3.054
12752SOL    HW150732   1.944   7.789   3.059
12752SOL    HW250733   1.790   7.774   3.112
12753SOL     OW50734   2.002   8.872   0.240
12753SOL    HW150735   1.972   8.825   0.323
12753SOL    HW250736   2.101   8.886   0.245
12754SOL     OW50737   0.015   7.928   1.142
12754SOL    HW150738  -0.063   7.991   1.149
12754SOL    HW250739  -0.002   7.863   1.068
12755SOL     OW50740   5.472   8.127   1.613
12755SOL    HW150741   5.464   8.163   1.706
12755SOL    HW250742   5.548   8.062   1.609
12756SOL     OW50743   5.248   8.281   7.154
12756SOL    HW150744   5.173   8.243   7.101
12756SOL    HW250745   5.333   8.273   7.102
12757SOL     OW50746   3.104   8.404   1.257
12757SOL    HW150747   3.203   8.414   1.247
12757SOL    HW250748   3.057   8.478   1.208
12758SOL     OW50749   5.964   8.158   0.871
12758SOL    HW150750   5.934   8.168   0.776
12758SOL    HW250751   5.977   8.061   0.892
12759SOL     OW50752   6.738   8.405   6.721
12759SOL    HW150753   6.657   8.458   6.748
12759SOL    HW250754   6.809   8.415   6.792
12760SOL     OW50755   0.368   7.725   2.298
12760SOL    HW150756   0.447   7.780   2.270
12760SOL    HW250757   0.305   7.716   2.221
12761SOL     OW50758   4.942   8.368   3.170
12761SOL    HW150759   5.041   8.376   3.162
12761SOL    HW250760   4.918   8.335   3.261
12762SOL     OW50761   0.966   7.515   0.898
12762SOL    HW150762   0.877   7.504   0.942
12762SOL    HW250763   0.984   7.436   0.839
12763SOL     OW50764   5.709   8.470   0.158
12763SOL    HW150765   5.686   8.521   0.241
12763SOL    HW250766   5.771   8.395   0.181
12764SOL     OW50767   1.576   7.717   6.420
12764SOL    HW150768   1.491   7.667   6.400
12764SOL    HW250769   1.561   7.777   6.499
12765SOL     OW50770   0.565   7.924   2.550
12765SOL    HW150771   0.538   8.019   2.539
12765SOL    HW250772   0.640   7.917   2.616
12766SOL     OW50773   1.511   8.250   2.195
12766SOL    HW150774   1.428   8.195   2.197
12766SOL    HW250775   1.558   8.236   2.107
12767SOL     OW50776   3.016   7.497   2.534
12767SOL    HW150777   3.014   7.428   2.461
12767SOL    HW250778   2.955   7.468   2.608
12768SOL     OW50779   6.711   8.264   0.570
12768SOL    HW150780   6.758   8.227   0.490
12768SOL    HW250781   6.726   8.362   0.575
12769SOL     OW50782   6.746   9.079   2.667
12769SOL    HW150783   6.711   9.171   2.682
12769SOL    HW250784   6.728   9.023   2.748
12770SOL     OW50785   4.335   8.364   4.846
12770SOL    HW150786   4.290   8.341   4.932
12770SOL    HW250787   4.429   8.330   4.847
12771SOL     OW50788   5.688   7.654   2.506
12771SOL    HW150789   5.760   7.600   2.463
12771SOL    HW250790   5.716   7.679   2.599
12772SOL     OW50791   3.898   8.756   3.536
12772SOL    HW150792   3.943   8.667   3.548
12772SOL    HW250793   3.807   8.743   3.498
12773SOL     OW50794   7.174   7.872   2.457
12773SOL    HW150795   7.107   7.901   2.389
12773SOL    HW250796   7.127   7.826   2.532
12774SOL     OW50797   5.258   8.117   3.649
12774SOL    HW150798   5.283   8.077   3.738
12774SOL    HW250799   5.164   8.092   3.627
12775SOL     OW50800   4.246   7.731   1.059
12775SOL    HW150801   4.209   7.726   0.966
12775SOL    HW250802   4.303   7.652   1.076
12776SOL     OW50803   6.225   8.194   5.440
12776SOL    HW150804   6.174   8.230   5.362
12776SOL    HW250805   6.320   8.176   5.413
12777SOL     OW50806   0.156   8.386   5.542
12777SOL    HW150807   0.216   8.414   5.468
12777SOL    HW250808   0.204   8.323   5.603
12778SOL     OW50809   2.198   7.504   0.034
12778SOL    HW150810   2.291   7.503  -0.002
12778SOL    HW250811   2.154   7.591   0.012
12779SOL     OW50812   1.276   8.604   0.901
12779SOL    HW150813   1.292   8.507   0.918
12779SOL    HW250814   1.183   8.628   0.929
12780SOL     OW50815   3.697   7.726   3.290
12780SOL    HW150816   3.685   7.688   3.381
12780SOL    HW250817   3.628   7.797   3.275
12781SOL     OW50818   5.529   7.384   0.966
12781SOL    HW150819   5.594   7.386   1.042
12781SOL    HW250820   5.576   7.404   0.880
12782SOL     OW50821   0.277   8.130   6.115
12782SOL    HW150822   0.244   8.042   6.081
12782SOL    HW250823   0.217   8.162   6.189
12783SOL     OW50824   2.887   8.693   6.583
12783SOL    HW150825   2.936   8.754   6.646
12783SOL    HW250826   2.949   8.662   6.511
12784SOL     OW50827   2.473   8.434   1.993
12784SOL    HW150828   2.549   8.371   2.009
12784SOL    HW250829   2.433   8.460   2.081
12785SOL     OW50830   2.741   8.784   7.221
12785SOL    HW150831   2.804   8.768   7.297
12785SOL    HW250832   2.647   8.777   7.255
12786SOL     OW50833   7.081   8.442   1.125
12786SOL    HW150834   7.047   8.378   1.055
12786SOL    HW250835   7.153   8.499   1.086
12787SOL     OW50836   3.745   7.714   1.338
12787SOL    HW150837   3.717   7.620   1.356
12787SOL    HW250838   3.840   7.727   1.364
12788SOL     OW50839   5.912   8.377   4.821
12788SOL    HW150840   5.966   8.293   4.832
12788SOL    HW250841   5.818   8.354   4.796
12789SOL     OW50842   4.858   7.363   3.453
12789SOL    HW150843   4.840   7.439   3.390
12789SOL    HW250844   4.870   7.279   3.400
12790SOL     OW50845   6.396   7.724   5.905
12790SOL    HW150846   6.350   7.746   5.990
12790SOL    HW250847   6.484   7.771   5.901
12791SOL     OW50848   6.632   7.891   1.090
12791SOL    HW150849   6.711   7.855   1.139
12791SOL    HW250850   6.648   7.987   1.066
12792SOL     OW50851   4.240   7.616   0.284
12792SOL    HW150852   4.148   7.581   0.301
12792SOL    HW250853   4.235   7.692   0.220
12793SOL     OW50854   0.511   8.019   0.897
12793SOL    HW150855   0.545   8.113   0.895
12793SOL    HW250856   0.434   8.010   0.834
12794SOL     OW50857   5.482   8.273   3.287
12794SOL    HW150858   5.564   8.254   3.233
12794SOL    HW250859   5.491   8.232   3.378
12795SOL     OW50860   1.529   8.090   0.812
12795SOL    HW150861   1.449   8.107   0.755
12795SOL    HW250862   1.612   8.114   0.762
12796SOL     OW50863   2.163   7.415   6.812
12796SOL    HW150864   2.218   7.340   6.774
12796SOL    HW250865   2.174   7.418   6.911
12797SOL     OW50866   4.513   8.385   0.322
12797SOL    HW150867   4.477   8.297   0.354
12797SOL    HW250868   4.525   8.446   0.400
12798SOL     OW50869   5.940   9.070   0.010
12798SOL    HW150870   5.953   8.976  -0.020
12798SOL    HW250871   5.842   9.092   0.010
12799SOL     OW50872   4.146   8.165   2.055
12799SOL    HW150873   4.223   8.166   2.120
12799SOL    HW250874   4.073   8.223   2.090
12800SOL     OW50875   1.130   7.495   5.543
12800SOL    HW150876   1.060   7.525   5.479
12800SOL    HW250877   1.173   7.411   5.510
12801SOL     OW50878   6.774   7.873   7.101
12801SOL    HW150879   6.729   7.825   7.176
12801SOL    HW250880   6.873   7.862   7.109
12802SOL     OW50881   4.276   8.926   5.783
12802SOL    HW150882   4.321   8.950   5.697
12802SOL    HW250883   4.344   8.890   5.847
12803SOL     OW50884   0.753   7.608   5.900
12803SOL    HW150885   0.804   7.693   5.913
12803SOL    HW250886   0.657   7.623   5.925
12804SOL     OW50887   3.388   7.873   1.136
12804SOL    HW150888   3.441   7.900   1.055
12804SOL    HW250889   3.428   7.790   1.174
12805SOL     OW50890   6.179   8.568   0.627
12805SOL    HW150891   6.210   8.554   0.721
12805SOL    HW250892   6.233   8.511   0.565
12806SOL     OW50893   2.053   7.489   2.774
12806SOL    HW150894   1.966   7.452   2.804
12806SOL    HW250895   2.108   7.514   2.854
12807SOL     OW50896   3.186   7.686   3.032
12807SOL    HW150897   3.096   7.722   3.010
12807SOL    HW250898   3.216   7.623   2.960
12808SOL     OW50899   4.385   7.538   6.337
12808SOL    HW150900   4.286   7.532   6.347
12808SOL    HW250901   4.419   7.616   6.391
12809SOL     OW50902   4.643   8.807   6.882
12809SOL    HW150903   4.650   8.787   6.979
12809SOL    HW250904   4.721   8.862   6.853
12810SOL     OW50905   4.665   8.769   0.440
12810SOL    HW150906   4.676   8.793   0.537
12810SOL    HW250907   4.666   8.852   0.385
12811SOL     OW50908   2.545   8.743   6.050
12811SOL    HW150909   2.527   8.840   6.033
12811SOL    HW250910   2.492   8.687   5.986
12812SOL     OW50911   5.197   7.933   1.549
12812SOL    HW150912   5.120   7.871   1.539
12812SOL    HW250913   5.218   7.976   1.461
12813SOL     OW50914   4.905   7.884   0.463
12813SOL    HW150915   4.845   7.939   0.405
12813SOL    HW250916   4.970   7.944   0.509
12814SOL     OW50917   5.225   8.757   7.251
12814SOL    HW150918   5.172   8.841   7.238
12814SOL    HW250919   5.232   8.708   7.165
12815SOL     OW50920   7.011   9.053   3.968
12815SOL    HW150921   7.077   9.036   3.895
12815SOL    HW250922   6.992   9.151   3.973
12816SOL     OW50923   3.190   7.522   2.803
12816SOL    HW150924   3.259   7.504   2.733
12816SOL    HW250925   3.101   7.535   2.759
12817SOL     OW50926   4.188   7.907   4.070
12817SOL    HW150927   4.207   7.912   3.972
12817SOL    HW250928   4.103   7.955   4.091
12818SOL     OW50929   1.066   8.314   3.632
12818SOL    HW150930   1.064   8.356   3.722
12818SOL    HW250931   0.974   8.282   3.608
12819SOL     OW50932   3.066   8.386   4.738
12819SOL    HW150933   3.011   8.430   4.667
12819SOL    HW250934   3.102   8.455   4.800
12820SOL     OW50935   3.919   9.248   5.056
12820SOL    HW150936   3.854   9.201   4.996
12820SOL    HW250937   3.993   9.287   5.002
12821SOL     OW50938   5.703   7.764   3.728
12821SOL    HW150939   5.746   7.698   3.667
12821SOL    HW250940   5.618   7.798   3.687
12822SOL     OW50941   0.862   7.368   5.918
12822SOL    HW150942   0.817   7.455   5.900
12822SOL    HW250943   0.939   7.357   5.855
12823SOL     OW50944   4.221   8.864   3.928
12823SOL    HW150945   4.158   8.801   3.882
12823SOL    HW250946   4.250   8.934   3.863
12824SOL     OW50947   6.941   8.861   2.003
12824SOL    HW150948   6.852   8.817   1.988
12824SOL    HW250949   7.010   8.791   2.022
12825SOL     OW50950   3.411   7.816   3.856
12825SOL    HW150951   3.449   7.899   3.897
12825SOL    HW250952   3.441   7.736   3.909
12826SOL     OW50953   4.221   9.190   6.830
12826SOL    HW150954   4.137   9.140   6.847
12826SOL    HW250955   4.248   9.179   6.734
12827SOL     OW50956   0.397   8.579   3.462
12827SOL    HW150957   0.406   8.491   3.416
12827SOL    HW250958   0.306   8.617   3.444
12828SOL     OW50959   4.111   8.552   4.184
12828SOL    HW150960   4.093   8.455   4.198
12828SOL    HW250961   4.207   8.565   4.161
12829SOL     OW50962   4.872   7.852   2.614
12829SOL    HW150963   4.890   7.873   2.518
12829SOL    HW250964   4.776   7.866   2.635
12830SOL     OW50965   0.276   8.144   5.671
12830SOL    HW150966   0.342   8.093   5.618
12830SOL    HW250967   0.322   8.189   5.748
12831SOL     OW50968   0.830   8.767   0.190
12831SOL    HW150969   0.791   8.840   0.246
12831SOL    HW250970   0.768   8.689   0.189
12832SOL     OW50971   4.265   7.762   3.251
12832SOL    HW150972   4.167   7.745   3.237
12832SOL    HW250973   4.312   7.675   3.264
12833SOL     OW50974   2.261   7.644   6.657
12833SOL    HW150975   2.199   7.651   6.579
12833SOL    HW250976   2.230   7.571   6.717
12834SOL     OW50977   2.152   8.237   2.009
12834SOL    HW150978   2.196   8.249   1.920
12834SOL    HW250979   2.123   8.326   2.044
12835SOL     OW50980   5.607   8.682   5.256
12835SOL    HW150981   5.628   8.619   5.182
12835SOL    HW250982   5.519   8.657   5.297
12836SOL     OW50983   5.252   8.670   0.140
12836SOL    HW150984   5.243   8.712   0.050
12836SOL    HW250985   5.165   8.678   0.189
12837SOL     OW50986   6.516   7.643   1.681
12837SOL    HW150987   6.527   7.731   1.726
12837SOL    HW250988   6.525   7.654   1.582
12838SOL     OW50989   0.245   7.887   0.178
12838SOL    HW150990   0.169   7.823   0.168
12838SOL    HW250991   0.230   7.945   0.258
12839SOL     OW50992   5.691   7.982   4.216
12839SOL    HW150993   5.750   7.911   4.178
12839SOL    HW250994   5.673   7.964   4.312
12840SOL     OW50995   0.829   8.327   6.113
12840SOL    HW150996   0.913   8.284   6.082
12840SOL    HW250997   0.850   8.397   6.181
12841SOL     OW50998   1.027   8.424   7.333
12841SOL    HW150999   1.001   8.520   7.319
12841SOL    HW251000   0.974   8.367   7.270
12842SOL     OW51001   0.445   8.035   4.817
12842SOL    HW151002   0.356   7.994   4.795
12842SOL    HW251003   0.516   7.988   4.765
12843SOL     OW51004   5.327   7.723   6.535
12843SOL    HW151005   5.411   7.674   6.558
12843SOL    HW251006   5.327   7.744   6.437
12844SOL     OW51007   4.134   9.099   0.087
12844SOL    HW151008   4.231   9.077   0.097
12844SOL    HW251009   4.083   9.017   0.059
12845SOL     OW51010   5.500   8.496   7.094
12845SOL    HW151011   5.490   8.484   7.193
12845SOL    HW251012   5.576   8.558   7.075
12846SOL     OW51013   5.431   8.524   0.479
12846SOL    HW151014   5.354   8.589   0.469
12846SOL    HW251015   5.515   8.567   0.445
12847SOL     OW51016   6.226   7.603   5.302
12847SOL    HW151017   6.137   7.636   5.332
12847SOL    HW251018   6.266   7.548   5.375
12848SOL     OW51019   2.429   8.977   5.051
12848SOL    HW151020   2.444   9.031   5.133
12848SOL    HW251021   2.453   8.882   5.069
12849SOL     OW51022   4.285   8.859   0.541
12849SOL    HW151023   4.299   8.930   0.472
12849SOL    HW251024   4.187   8.836   0.546
12850SOL     OW51025   5.725   7.874   6.388
12850SOL    HW151026   5.718   7.947   6.455
12850SOL    HW251027   5.806   7.819   6.408
12851SOL     OW51028   5.325   7.569   3.737
12851SOL    HW151029   5.333   7.474   3.705
12851SOL    HW251030   5.393   7.625   3.690
12852SOL     OW51031   3.780   8.111   0.842
12852SOL    HW151032   3.873   8.101   0.878
12852SOL    HW251033   3.778   8.081   0.747
12853SOL     OW51034   1.938   7.767   0.619
12853SOL    HW151035   1.964   7.673   0.597
12853SOL    HW251036   1.883   7.767   0.703
12854SOL     OW51037   3.860   7.642   2.065
12854SOL    HW151038   3.822   7.715   2.008
12854SOL    HW251039   3.836   7.657   2.160
12855SOL     OW51040   6.122   8.469   6.812
12855SOL    HW151041   6.058   8.397   6.784
12855SOL    HW251042   6.140   8.461   6.910
12856SOL     OW51043   6.221   7.448   5.982
12856SOL    HW151044   6.296   7.478   5.924
12856SOL    HW251045   6.155   7.396   5.927
12857SOL     OW51046   4.981   8.768   2.433
12857SOL    HW151047   4.901   8.752   2.491
12857SOL    HW251048   5.036   8.842   2.471
12858SOL     OW51049   3.156   7.949   0.097
12858SOL    HW151050   3.077   7.990   0.052
12858SOL    HW251051   3.128   7.864   0.142
12859SOL     OW51052   4.347   8.684   0.746
12859SOL    HW151053   4.289   8.723   0.674
12859SOL    HW251054   4.356   8.750   0.821
12860SOL     OW51055   7.073   8.640   2.571
12860SOL    HW151056   6.976   8.666   2.570
12860SOL    HW251057   7.082   8.547   2.607
12861SOL     OW51058   0.784   8.374   2.785
12861SOL    HW151059   0.880   8.402   2.786
12861SOL    HW251060   0.770   8.307   2.712
12862SOL     OW51061   1.364   7.647   5.551
12862SOL    HW151062   1.410   7.615   5.634
12862SOL    HW251063   1.285   7.587   5.533
12863SOL     OW51064   4.436   7.868   1.691
12863SOL    HW151065   4.475   7.958   1.709
12863SOL    HW251066   4.470   7.803   1.759
12864SOL     OW51067   0.848   8.786   3.237
12864SOL    HW151068   0.862   8.755   3.331
12864SOL    HW251069   0.820   8.708   3.180
12865SOL     OW51070   2.611   7.437   0.524
12865SOL    HW151071   2.514   7.423   0.540
12865SOL    HW251072   2.651   7.483   0.603
12866SOL     OW51073   0.028   8.279   1.274
12866SOL    HW151074   0.017   8.376   1.253
12866SOL    HW251075  -0.048   8.228   1.235
12867SOL     OW51076   6.461   8.182   0.568
12867SOL    HW151077   6.452   8.193   0.667
12867SOL    HW251078   6.556   8.200   0.541
12868SOL     OW51079   3.136   7.780   1.138
12868SOL    HW151080   3.229   7.807   1.163
12868SOL    HW251081   3.139   7.724   1.055
12869SOL     OW51082   7.285   8.274   1.818
12869SOL    HW151083   7.209   8.219   1.783
12869SOL    HW251084   7.255   8.368   1.833
12870SOL     OW51085   2.845   8.123   6.444
12870SOL    HW151086   2.899   8.167   6.516
12870SOL    HW251087   2.906   8.081   6.377
12871SOL     OW51088   7.157   8.628   0.114
12871SOL    HW151089   7.174   8.726   0.100
12871SOL    HW251090   7.240   8.576   0.094
12872SOL     OW51091   2.048   7.628   6.485
12872SOL    HW151092   2.018   7.718   6.453
12872SOL    HW251093   1.976   7.586   6.540
12873SOL     OW51094   4.451   8.816   5.000
12873SOL    HW151095   4.406   8.738   4.957
12873SOL    HW251096   4.456   8.891   4.935
12874SOL     OW51097   6.535   8.763   1.805
12874SOL    HW151098   6.552   8.740   1.709
12874SOL    HW251099   6.505   8.858   1.811
12875SOL     OW51100   1.129   7.825   2.275
12875SOL    HW151101   1.056   7.853   2.213
12875SOL    HW251102   1.199   7.776   2.224
12876SOL     OW51103   2.614   7.988   6.529
12876SOL    HW151104   2.606   7.890   6.517
12876SOL    HW251105   2.694   8.021   6.477
12877SOL     OW51106   4.387   8.817   6.829
12877SOL    HW151107   4.352   8.869   6.906
12877SOL    HW251108   4.477   8.780   6.852
12878SOL     OW51109   5.459   7.829   3.370
12878SOL    HW151110   5.464   7.880   3.284
12878SOL    HW251111   5.404   7.746   3.357
12879SOL     OW51112   1.801   8.717   1.725
12879SOL    HW151113   1.714   8.713   1.774
12879SOL    HW251114   1.845   8.805   1.741
12880SOL     OW51115   7.359   7.708   6.206
12880SOL    HW151116   7.333   7.628   6.152
12880SOL    HW251117   7.287   7.777   6.198
12881SOL     OW51118   7.019   7.871   0.588
12881SOL    HW151119   7.017   7.773   0.565
12881SOL    HW251120   7.044   7.882   0.684
12882SOL     OW51121   0.514   8.282   2.037
12882SOL    HW151122   0.442   8.313   1.975
12882SOL    HW251123   0.592   8.345   2.032
12883SOL     OW51124   4.348   8.778   1.443
12883SOL    HW151125   4.341   8.679   1.433
12883SOL    HW251126   4.323   8.804   1.536
12884SOL     OW51127   1.178   8.090   1.468
12884SOL    HW151128   1.110   8.046   1.411
12884SOL    HW251129   1.165   8.061   1.563
12885SOL     OW51130   0.188   7.569   6.344
12885SOL    HW151131   0.186   7.564   6.444
12885SOL    HW251132   0.143   7.654   6.315
12886SOL     OW51133   4.155   8.710   1.150
12886SOL    HW151134   4.088   8.638   1.128
12886SOL    HW251135   4.245   8.669   1.161
12887SOL     OW51136   0.846   7.717   1.405
12887SOL    HW151137   0.755   7.704   1.445
12887SOL    HW251138   0.851   7.668   1.318
12888SOL     OW51139   0.401   9.005   3.464
12888SOL    HW151140   0.477   8.996   3.401
12888SOL    HW251141   0.375   8.914   3.498
12889SOL     OW51142   4.571   8.231   4.261
12889SOL    HW151143   4.574   8.140   4.303
12889SOL    HW251144   4.487   8.278   4.287
12890SOL     OW51145   2.191   8.100   6.838
12890SOL    HW151146   2.247   8.018   6.831
12890SOL    HW251147   2.185   8.129   6.934
12891SOL     OW51148   3.163   7.862   2.206
12891SOL    HW151149   3.147   7.810   2.290
12891SOL    HW251150   3.259   7.854   2.180
12892SOL     OW51151   0.444   8.959   0.475
12892SOL    HW151152   0.398   9.023   0.414
12892SOL    HW251153   0.412   8.866   0.456
12893SOL     OW51154   3.421   8.690   5.746
12893SOL    HW151155   3.387   8.782   5.766
12893SOL    HW251156   3.498   8.670   5.807
12894SOL     OW51157   6.245   7.401   0.484
12894SOL    HW151158   6.315   7.454   0.437
12894SOL    HW251159   6.169   7.381   0.422
12895SOL     OW51160   4.628   7.449   0.311
12895SOL    HW151161   4.552   7.433   0.248
12895SOL    HW251162   4.675   7.533   0.285
12896SOL     OW51163   6.175   7.994   0.971
12896SOL    HW151164   6.163   7.945   0.884
12896SOL    HW251165   6.136   7.939   1.045
12897SOL     OW51166   4.212   8.301   2.947
12897SOL    HW151167   4.312   8.304   2.944
12897SOL    HW251168   4.181   8.288   3.041
12898SOL     OW51169   6.196   9.026   1.422
12898SOL    HW151170   6.149   9.106   1.458
12898SOL    HW251171   6.129   8.958   1.392
12899SOL     OW51172   1.751   8.377   3.136
12899SOL    HW151173   1.793   8.354   3.224
12899SOL    HW251174   1.742   8.294   3.081
12900SOL     OW51175   2.306   8.128   5.343
12900SOL    HW151176   2.358   8.051   5.380
12900SOL    HW251177   2.352   8.213   5.367
12901SOL     OW51178   7.186   8.105   1.245
12901SOL    HW151179   7.106   8.158   1.273
12901SOL    HW251180   7.225   8.059   1.325
12902SOL     OW51181   7.166   7.424   6.559
12902SOL    HW151182   7.196   7.385   6.472
12902SOL    HW251183   7.234   7.403   6.630
12903SOL     OW51184   1.150   8.799   2.913
12903SOL    HW151185   1.126   8.733   2.983
12903SOL    HW251186   1.088   8.878   2.917
12904SOL     OW51187   1.742   8.162   0.665
12904SOL    HW151188   1.740   8.198   0.572
12904SOL    HW251189   1.822   8.197   0.713
12905SOL     OW51190   2.419   7.956   3.564
12905SOL    HW151191   2.412   7.932   3.661
12905SOL    HW251192   2.328   7.983   3.530
12906SOL     OW51193   2.269   7.438   1.156
12906SOL    HW151194   2.284   7.533   1.181
12906SOL    HW251195   2.348   7.405   1.103
12907SOL     OW51196   0.811   7.424   1.690
12907SOL    HW151197   0.840   7.341   1.737
12907SOL    HW251198   0.883   7.494   1.696
12908SOL     OW51199   6.277   7.880   4.590
12908SOL    HW151200   6.259   7.973   4.558
12908SOL    HW251201   6.297   7.821   4.513
12909SOL     OW51202   0.582   7.640   1.468
12909SOL    HW151203   0.494   7.681   1.490
12909SOL    HW251204   0.568   7.548   1.431
12910SOL     OW51205   0.364   8.796   2.145
12910SOL    HW151206   0.447   8.752   2.112
12910SOL    HW251207   0.297   8.726   2.169
12911SOL     OW51208   2.128   8.484   2.120
12911SOL    HW151209   2.202   8.547   2.146
12911SOL    HW251210   2.082   8.518   2.038
12912SOL     OW51211   3.387   7.368   4.568
12912SOL    HW151212   3.389   7.289   4.506
12912SOL    HW251213   3.467   7.367   4.627
12913SOL     OW51214   5.281   8.533   2.435
12913SOL    HW151215   5.314   8.600   2.369
12913SOL    HW251216   5.335   8.539   2.518
12914SOL     OW51217   5.987   7.943   1.592
12914SOL    HW151218   6.013   7.849   1.572
12914SOL    HW251219   5.951   7.948   1.685
12915SOL     OW51220   3.560   8.115   6.593
12915SOL    HW151221   3.649   8.078   6.565
12915SOL    HW251222   3.546   8.099   6.691
12916SOL     OW51223   5.852   8.384   6.706
12916SOL    HW151224   5.830   8.378   6.608
12916SOL    HW251225   5.833   8.477   6.738
12917SOL     OW51226   4.574   7.369   6.233
12917SOL    HW151227   4.658   7.405   6.273
12917SOL    HW251228   4.498   7.429   6.255
12918SOL     OW51229   3.785   8.413   0.242
12918SOL    HW151230   3.819   8.478   0.173
12918SOL    HW251231   3.820   8.322   0.223
12919SOL     OW51232   0.007   8.512   0.911
12919SOL    HW151233   0.021   8.581   0.983
12919SOL    HW251234  -0.055   8.548   0.842
12920SOL     OW51235   4.181   8.097   5.757
12920SOL    HW151236   4.272   8.135   5.779
12920SOL    HW251237   4.114   8.136   5.820
12921SOL     OW51238   6.346   8.082   1.616
12921SOL    HW151239   6.364   8.138   1.535
12921SOL    HW251240   6.305   8.138   1.687
12922SOL     OW51241   2.756   8.182   2.562
12922SOL    HW151242   2.697   8.238   2.621
12922SOL    HW251243   2.749   8.214   2.468
12923SOL     OW51244   1.900   8.584   3.446
12923SOL    HW151245   1.851   8.498   3.458
12923SOL    HW251246   1.998   8.565   3.437
12924SOL     OW51247   6.205   7.692   4.812
12924SOL    HW151248   6.246   7.703   4.903
12924SOL    HW251249   6.239   7.763   4.751
12925SOL     OW51250   2.433   8.660   0.405
12925SOL    HW151251   2.467   8.633   0.315
12925SOL    HW251252   2.470   8.598   0.475
12926SOL     OW51253   3.935   8.428   5.285
12926SOL    HW151254   3.938   8.383   5.375
12926SOL    HW251255   4.028   8.457   5.260
12927SOL     OW51256   1.514   8.188   0.014
12927SOL    HW151257   1.448   8.141   0.074
12927SOL    HW251258   1.548   8.270   0.060
12928SOL     OW51259   6.316   7.811   6.172
12928SOL    HW151260   6.370   7.728   6.188
12928SOL    HW251261   6.242   7.816   6.239
12929SOL     OW51262   3.117   8.174   6.325
12929SOL    HW151263   3.162   8.261   6.308
12929SOL    HW251264   3.174   8.117   6.384
12930SOL     OW51265   6.055   8.544   0.096
12930SOL    HW151266   5.980   8.513   0.154
12930SOL    HW251267   6.118   8.600   0.150
12931SOL     OW51268   1.895   8.435   1.286
12931SOL    HW151269   1.813   8.489   1.266
12931SOL    HW251270   1.892   8.350   1.234
12932SOL     OW51271   0.287   7.474   0.211
12932SOL    HW151272   0.239   7.431   0.287
12932SOL    HW251273   0.220   7.519   0.151
12933SOL     OW51274   4.745   7.906   0.097
12933SOL    HW151275   4.675   7.855   0.146
12933SOL    HW251276   4.727   7.902  -0.001
12934SOL     OW51277   4.090   7.435   1.306
12934SOL    HW151278   4.150   7.417   1.227
12934SOL    HW251279   4.141   7.487   1.374
12935SOL     OW51280   6.990   7.701   2.588
12935SOL    HW151281   7.084   7.680   2.616
12935SOL    HW251282   6.941   7.616   2.570
12936SOL     OW51283   5.530   8.365   1.508
12936SOL    HW151284   5.608   8.351   1.446
12936SOL    HW251285   5.492   8.277   1.535
12937SOL     OW51286   2.390   8.564   5.929
12937SOL    HW151287   2.429   8.507   6.001
12937SOL    HW251288   2.293   8.581   5.950
12938SOL     OW51289   6.679   8.081   6.064
12938SOL    HW151290   6.638   8.160   6.109
12938SOL    HW251291   6.730   8.111   5.983
12939SOL     OW51292   4.001   7.797   0.515
12939SOL    HW151293   4.011   7.734   0.439
12939SOL    HW251294   3.904   7.807   0.538
12940SOL     OW51295   0.845   7.865   5.967
12940SOL    HW151296   0.788   7.924   5.910
12940SOL    HW251297   0.942   7.889   5.954
12941SOL     OW51298   5.090   8.188   2.630
12941SOL    HW151299   5.004   8.155   2.669
12941SOL    HW251300   5.086   8.287   2.617
12942SOL     OW51301   1.382   7.918   5.498
12942SOL    HW151302   1.473   7.943   5.464
12942SOL    HW251303   1.377   7.818   5.508
12943SOL     OW51304   7.249   8.034   0.741
12943SOL    HW151305   7.280   8.007   0.649
12943SOL    HW251306   7.251   8.133   0.749
12944SOL     OW51307   6.675   8.122   2.717
12944SOL    HW151308   6.578   8.123   2.743
12944SOL    HW251309   6.721   8.201   2.757
12945SOL     OW51310   4.382   8.251   3.584
12945SOL    HW151311   4.377   8.343   3.623
12945SOL    HW251312   4.362   8.184   3.656
12946SOL     OW51313   3.356   7.711   6.838
12946SOL    HW151314   3.424   7.722   6.909
12946SOL    HW251315   3.308   7.798   6.823
12947SOL     OW51316   4.923   7.663   3.515
12947SOL    HW151317   4.844   7.682   3.573
12947SOL    HW251318   4.893   7.622   3.429
12948SOL     OW51319   1.358   8.862   0.405
12948SOL    HW151320   1.268   8.819   0.405
12948SOL    HW251321   1.424   8.801   0.449
12949SOL     OW51322   1.805   8.448   5.128
12949SOL    HW151323   1.856   8.435   5.213
12949SOL    HW251324   1.809   8.544   5.101
12950SOL     OW51325   0.577   8.912   3.283
12950SOL    HW151326   0.620   8.994   3.245
12950SOL    HW251327   0.647   8.844   3.303
12951SOL     OW51328   4.767   8.443   6.980
12951SOL    HW151329   4.837   8.498   7.025
12951SOL    HW251330   4.797   8.420   6.887
12952SOL     OW51331   5.630   8.072   6.545
12952SOL    HW151332   5.579   8.010   6.604
12952SOL    HW251333   5.579   8.158   6.536
12953SOL     OW51334   4.960   8.045   2.336
12953SOL    HW151335   5.029   8.004   2.276
12953SOL    HW251336   4.959   8.144   2.323
12954SOL     OW51337   4.371   8.099   2.692
12954SOL    HW151338   4.306   8.118   2.619
12954SOL    HW251339   4.460   8.140   2.669
12955SOL     OW51340   0.910   8.945   2.996
12955SOL    HW151341   0.880   9.040   3.007
12955SOL    HW251342   0.868   8.887   3.066
12956SOL     OW51343   7.171   9.216   4.759
12956SOL    HW151344   7.099   9.232   4.827
12956SOL    HW251345   7.153   9.273   4.678
12957SOL     OW51346   5.637   8.354   3.727
12957SOL    HW151347   5.548   8.322   3.758
12957SOL    HW251348   5.626   8.410   3.645
12958SOL     OW51349   5.411   8.482   3.108
12958SOL    HW151350   5.318   8.447   3.116
12958SOL    HW251351   5.474   8.419   3.153
12959SOL     OW51352   1.351   7.627   6.684
12959SOL    HW151353   1.427   7.571   6.653
12959SOL    HW251354   1.343   7.708   6.625
12960SOL     OW51355   2.628   8.814   1.525
12960SOL    HW151356   2.632   8.752   1.603
12960SOL    HW251357   2.611   8.907   1.556
12961SOL     OW51358   4.193   8.349   1.540
12961SOL    HW151359   4.124   8.297   1.490
12961SOL    HW251360   4.199   8.314   1.634
12962SOL     OW51361   4.946   8.376   4.306
12962SOL    HW151362   4.956   8.383   4.207
12962SOL    HW251363   4.988   8.456   4.349
12963SOL     OW51364   1.679   8.698   0.233
12963SOL    HW151365   1.659   8.634   0.308
12963SOL    HW251366   1.773   8.730   0.241
12964SOL     OW51367   4.773   7.994   2.135
12964SOL    HW151368   4.703   7.927   2.162
12964SOL    HW251369   4.837   8.007   2.211
12965SOL     OW51370   3.215   8.050   3.365
12965SOL    HW151371   3.244   7.984   3.435
12965SOL    HW251372   3.209   8.005   3.276
12966SOL     OW51373   3.576   7.447   1.985
12966SOL    HW151374   3.628   7.512   2.041
12966SOL    HW251375   3.637   7.406   1.917
12967SOL     OW51376   7.093   8.243   2.308
12967SOL    HW151377   7.108   8.211   2.215
12967SOL    HW251378   7.170   8.215   2.366
12968SOL     OW51379   7.269   8.300   5.468
12968SOL    HW151380   7.246   8.392   5.437
12968SOL    HW251381   7.363   8.298   5.500
12969SOL     OW51382   0.705   8.459   2.024
12969SOL    HW151383   0.777   8.488   1.960
12969SOL    HW251384   0.660   8.539   2.063
12970SOL     OW51385   1.773   8.082   3.073
12970SOL    HW151386   1.818   8.106   3.159
12970SOL    HW251387   1.800   7.990   3.046
12971SOL     OW51388   4.359   7.649   0.557
12971SOL    HW151389   4.308   7.618   0.477
12971SOL    HW251390   4.447   7.601   0.561
12972SOL     OW51391   4.600   8.681   4.302
12972SOL    HW151392   4.535   8.752   4.328
12972SOL    HW251393   4.693   8.712   4.321
12973SOL     OW51394   4.025   7.637   3.564
12973SOL    HW151395   3.987   7.711   3.618
12973SOL    HW251396   4.087   7.583   3.621
12974SOL     OW51397   3.119   8.916   2.829
12974SOL    HW151398   3.040   8.877   2.781
12974SOL    HW251399   3.087   8.958   2.915
12975SOL     OW51400   6.278   8.721   7.077
12975SOL    HW151401   6.251   8.626   7.060
12975SOL    HW251402   6.197   8.780   7.073
12976SOL     OW51403   4.021   7.785   6.127
12976SOL    HW151404   4.055   7.811   6.036
12976SOL    HW251405   3.969   7.861   6.166
12977SOL     OW51406   6.187   7.464   6.873
12977SOL    HW151407   6.245   7.538   6.907
12977SOL    HW251408   6.136   7.424   6.949
12978SOL     OW51409   4.645   7.728   3.617
12978SOL    HW151410   4.562   7.676   3.640
12978SOL    HW251411   4.670   7.787   3.694
12979SOL     OW51412   6.889   8.475   1.774
12979SOL    HW151413   6.813   8.457   1.713
12979SOL    HW251414   6.860   8.537   1.847
12980SOL     OW51415   0.665   8.794   1.421
12980SOL    HW151416   0.600   8.801   1.346
12980SOL    HW251417   0.626   8.834   1.504
12981SOL     OW51418   4.876   8.324   6.736
12981SOL    HW151419   4.857   8.310   6.638
12981SOL    HW251420   4.913   8.240   6.775
12982SOL     OW51421   0.455   8.769   1.225
12982SOL    HW151422   0.392   8.703   1.186
12982SOL    HW251423   0.533   8.781   1.164
12983SOL     OW51424   4.402   9.033   6.639
12983SOL    HW151425   4.455   9.095   6.697
12983SOL    HW251426   4.423   8.938   6.663
12984SOL     OW51427   5.879   8.792   1.946
12984SOL    HW151428   5.888   8.891   1.962
12984SOL    HW251429   5.811   8.777   1.874
12985SOL     OW51430   4.441   7.677   2.975
12985SOL    HW151431   4.536   7.673   2.942
12985SOL    HW251432   4.400   7.764   2.949
12986SOL     OW51433   4.630   7.977   1.394
12986SOL    HW151434   4.649   8.046   1.464
12986SOL    HW251435   4.612   8.022   1.307
12987SOL     OW51436   2.329   7.862   6.800
12987SOL    HW151437   2.288   7.799   6.733
12987SOL    HW251438   2.356   7.810   6.881
12988SOL     OW51439   3.131   7.608   5.315
12988SOL    HW151440   3.158   7.512   5.307
12988SOL    HW251441   3.205   7.660   5.358
12989SOL     OW51442   6.421   7.552   6.187
12989SOL    HW151443   6.387   7.483   6.124
12989SOL    HW251444   6.411   7.518   6.281
12990SOL     OW51445   3.619   8.864   0.138
12990SOL    HW151446   3.536   8.878   0.084
12990SOL    HW251447   3.629   8.939   0.204
12991SOL     OW51448   3.892   8.271   1.193
12991SOL    HW151449   3.796   8.245   1.200
12991SOL    HW251450   3.947   8.192   1.166
12992SOL     OW51451   5.290   8.394   3.564
12992SOL    HW151452   5.285   8.298   3.592
12992SOL    HW251453   5.199   8.425   3.536
12993SOL     OW51454   4.253   7.573   1.455
12993SOL    HW151455   4.253   7.542   1.551
12993SOL    HW251456   4.289   7.666   1.450
12994SOL     OW51457   5.427   7.830   3.632
12994SOL    HW151458   5.331   7.851   3.647
12994SOL    HW251459   5.447   7.833   3.533
12995SOL     OW51460   0.563   9.118   3.654
12995SOL    HW151461   0.659   9.134   3.627
12995SOL    HW251462   0.509   9.097   3.573
12996SOL     OW51463   3.678   7.966   6.082
12996SOL    HW151464   3.715   7.896   6.021
12996SOL    HW251465   3.629   8.034   6.029
12997SOL     OW51466   2.059   8.621   1.416
12997SOL    HW151467   2.005   8.691   1.369
12997SOL    HW251468   2.024   8.530   1.391
12998SOL     OW51469   3.150   8.870   6.110
12998SOL    HW151470   3.077   8.863   6.043
12998SOL    HW251471   3.160   8.965   6.140
12999SOL     OW51472   3.003   8.703   7.141
12999SOL    HW151473   2.923   8.695   7.081
12999SOL    HW251474   3.084   8.671   7.092
13000SOL     OW51475   3.925   8.664   6.118
13000SOL    HW151476   3.884   8.742   6.072
13000SOL    HW251477   4.024   8.678   6.125
13001SOL     OW51478   5.891   8.491   0.882
13001SOL    HW151479   5.913   8.407   0.931
13001SOL    HW251480   5.974   8.543   0.865
13002SOL     OW51481   6.252   7.470   3.653
13002SOL    HW151482   6.192   7.422   3.717
13002SOL    HW251483   6.268   7.413   3.573
13003SOL     OW51484   0.620   7.711   3.318
13003SOL    HW151485   0.634   7.792   3.261
13003SOL    HW251486   0.686   7.711   3.393
13004SOL     OW51487   6.209   7.843   7.182
13004SOL    HW151488   6.298   7.812   7.213
13004SOL    HW251489   6.144   7.840   7.258
13005SOL     OW51490   0.153   8.679   3.372
13005SOL    HW151491   0.137   8.687   3.274
13005SOL    HW251492   0.066   8.686   3.421
13006SOL     OW51493   0.948   8.158   6.521
13006SOL    HW151494   0.875   8.118   6.576
13006SOL    HW251495   0.943   8.123   6.428
13007SOL     OW51496   0.790   7.374   7.005
13007SOL    HW151497   0.802   7.397   6.908
13007SOL    HW251498   0.812   7.278   7.020
13008SOL     OW51499   5.508   7.870   2.717
13008SOL    HW151500   5.534   7.962   2.686
13008SOL    HW251501   5.430   7.838   2.663
13009SOL     OW51502   0.566   7.519   0.697
13009SOL    HW151503   0.560   7.618   0.680
13009SOL    HW251504   0.490   7.492   0.756
13010SOL     OW51505   1.049   8.273   0.765
13010SOL    HW151506   1.018   8.367   0.756
13010SOL    HW251507   0.972   8.211   0.752
13011SOL     OW51508   4.787   8.091   5.228
13011SOL    HW151509   4.730   8.014   5.257
13011SOL    HW251510   4.844   8.120   5.305
13012SOL     OW51511   4.440   7.843   2.048
13012SOL    HW151512   4.387   7.873   2.127
13012SOL    HW251513   4.526   7.802   2.078
13013SOL     OW51514   6.782   7.872   6.209
13013SOL    HW151515   6.755   7.949   6.151
13013SOL    HW251516   6.706   7.847   6.270
13014SOL     OW51517   6.073   7.607   4.487
13014SOL    HW151518   6.053   7.515   4.453
13014SOL    HW251519   6.171   7.623   4.483
13015SOL     OW51520   5.130   7.800   2.166
13015SOL    HW151521   5.101   7.838   2.078
13015SOL    HW251522   5.084   7.712   2.181
13016SOL     OW51523   0.053   8.944   3.223
13016SOL    HW151524   0.035   9.012   3.295
13016SOL    HW251525   0.149   8.919   3.224
13017SOL     OW51526   2.594   8.429   3.203
13017SOL    HW151527   2.604   8.425   3.302
13017SOL    HW251528   2.622   8.342   3.163
13018SOL     OW51529   6.181   8.113   7.126
13018SOL    HW151530   6.187   8.014   7.139
13018SOL    HW251531   6.246   8.141   7.055
13019SOL     OW51532   6.156   7.478   3.170
13019SOL    HW151533   6.146   7.572   3.203
13019SOL    HW251534   6.078   7.454   3.114
13020SOL     OW51535   3.844   8.571   0.473
13020SOL    HW151536   3.753   8.606   0.499
13020SOL    HW251537   3.833   8.482   0.428
13021SOL     OW51538   5.276   8.260   0.095
13021SOL    HW151539   5.183   8.286   0.122
13021SOL    HW251540   5.284   8.263  -0.005
13022SOL     OW51541   6.616   8.845   0.835
13022SOL    HW151542   6.533   8.790   0.823
13022SOL    HW251543   6.627   8.868   0.932
13023SOL     OW51544   6.364   7.795   4.173
13023SOL    HW151545   6.297   7.845   4.228
13023SOL    HW251546   6.446   7.851   4.160
13024SOL     OW51547   0.882   8.866   0.626
13024SOL    HW151548   0.855   8.846   0.720
13024SOL    HW251549   0.973   8.830   0.608
13025SOL     OW51550   4.098   7.594   6.323
13025SOL    HW151551   4.091   7.669   6.259
13025SOL    HW251552   4.006   7.560   6.345
13026SOL     OW51553   1.985   8.765   2.978
13026SOL    HW151554   1.979   8.754   2.879
13026SOL    HW251555   2.077   8.796   3.002
13027SOL     OW51556   6.264   7.861   1.894
13027SOL    HW151557   6.216   7.948   1.880
13027SOL    HW251558   6.354   7.865   1.852
13028SOL     OW51559   5.461   8.180   0.883
13028SOL    HW151560   5.543   8.226   0.918
13028SOL    HW251561   5.421   8.236   0.810
13029SOL     OW51562   7.076   8.636   2.105
13029SOL    HW151563   7.139   8.584   2.163
13029SOL    HW251564   6.987   8.644   2.151
13030SOL     OW51565   3.681   7.852   0.035
13030SOL    HW151566   3.695   7.759   0.070
13030SOL    HW251567   3.664   7.914   0.112
13031SOL     OW51568   4.236   8.673   6.129
13031SOL    HW151569   4.249   8.662   6.227
13031SOL    HW251570   4.309   8.731   6.092
13032SOL     OW51571   3.559   8.014   1.816
13032SOL    HW151572   3.529   7.942   1.754
13032SOL    HW251573   3.493   8.089   1.815
13033SOL     OW51574   4.970   8.408   4.032
13033SOL    HW151575   5.040   8.441   3.968
13033SOL    HW251576   4.879   8.428   3.996
13034SOL     OW51577   2.505   8.768   7.320
13034SOL    HW151578   2.504   8.801   7.415
13034SOL    HW251579   2.461   8.678   7.316
13035SOL     OW51580   4.396   8.458   5.721
13035SOL    HW151581   4.342   8.486   5.800
13035SOL    HW251582   4.464   8.528   5.700
13036SOL     OW51583   5.687   8.266   0.400
13036SOL    HW151584   5.744   8.227   0.328
13036SOL    HW251585   5.592   8.268   0.371
13037SOL     OW51586   5.209   8.434   1.724
13037SOL    HW151587   5.258   8.490   1.658
13037SOL    HW251588   5.116   8.469   1.735
13038SOL     OW51589   2.355   8.367   0.092
13038SOL    HW151590   2.389   8.329   0.006
13038SOL    HW251591   2.302   8.449   0.073
13039SOL     OW51592   2.151   8.485   7.065
13039SOL    HW151593   2.206   8.545   7.123
13039SOL    HW251594   2.059   8.523   7.055
13040SOL     OW51595   4.554   7.564   6.620
13040SOL    HW151596   4.618   7.635   6.590
13040SOL    HW251597   4.599   7.504   6.686
13041SOL     OW51598   2.296   7.465   7.052
13041SOL    HW151599   2.386   7.429   7.077
13041SOL    HW251600   2.306   7.557   7.016
13042SOL     OW51601   5.059   7.504   2.126
13042SOL    HW151602   5.129   7.514   2.055
13042SOL    HW251603   4.985   7.447   2.092
13043SOL     OW51604   3.477   7.690   2.318
13043SOL    HW151605   3.451   7.730   2.230
13043SOL    HW251606   3.396   7.673   2.372
13044SOL     OW51607   6.048   8.597   1.848
13044SOL    HW151608   5.996   8.679   1.871
13044SOL    HW251609   6.145   8.614   1.865
13045SOL     OW51610   3.711   7.480   0.387
13045SOL    HW151611   3.741   7.481   0.483
13045SOL    HW251612   3.694   7.386   0.359
13046SOL     OW51613   4.698   8.765   1.554
13046SOL    HW151614   4.613   8.815   1.541
13046SOL    HW251615   4.774   8.814   1.511
13047SOL     OW51616   6.665   7.748   7.303
13047SOL    HW151617   6.684   7.825   7.364
13047SOL    HW251618   6.609   7.681   7.350
13048SOL     OW51619   0.014   8.543   1.252
13048SOL    HW151620   0.041   8.629   1.210
13048SOL    HW251621  -0.046   8.561   1.330
13049SOL     OW51622   4.848   7.849   2.959
13049SOL    HW151623   4.942   7.817   2.976
13049SOL    HW251624   4.792   7.773   2.926
13050SOL     OW51625   6.779   8.364   6.301
13050SOL    HW151626   6.847   8.375   6.228
13050SOL    HW251627   6.688   8.382   6.264
13051SOL     OW51628   4.100   8.526   3.619
13051SOL    HW151629   4.121   8.490   3.528
13051SOL    HW251630   4.180   8.514   3.678
13052SOL     OW51631   0.642   8.719   3.481
13052SOL    HW151632   0.719   8.656   3.468
13052SOL    HW251633   0.557   8.666   3.491
13053SOL     OW51634   0.379   8.448   0.624
13053SOL    HW151635   0.372   8.546   0.604
13053SOL    HW251636   0.466   8.430   0.670
13054SOL     OW51637   4.873   8.649   6.376
13054SOL    HW151638   4.964   8.623   6.344
13054SOL    HW251639   4.805   8.587   6.337
13055SOL     OW51640   7.136   8.632   0.791
13055SOL    HW151641   7.053   8.662   0.745
13055SOL    HW251642   7.139   8.669   0.884
13056SOL     OW51643   3.415   7.469   4.201
13056SOL    HW151644   3.328   7.483   4.248
13056SOL    HW251645   3.413   7.382   4.152
13057SOL     OW51646   3.954   8.674   7.211
13057SOL    HW151647   3.909   8.695   7.299
13057SOL    HW251648   4.014   8.595   7.222
13058SOL     OW51649   6.626   7.798   4.701
13058SOL    HW151650   6.570   7.760   4.627
13058SOL    HW251651   6.663   7.887   4.672
13059SOL     OW51652   1.293   8.163   0.669
13059SOL    HW151653   1.312   8.177   0.572
13059SOL    HW251654   1.201   8.195   0.690
13060SOL     OW51655   3.779   8.037   3.498
13060SOL    HW151656   3.693   8.054   3.449
13060SOL    HW251657   3.855   8.045   3.434
13061SOL     OW51658   3.902   8.195   3.696
13061SOL    HW151659   3.857   8.134   3.762
13061SOL    HW251660   3.892   8.158   3.604
13062SOL     OW51661   3.821   7.476   6.878
13062SOL    HW151662   3.899   7.424   6.843
13062SOL    HW251663   3.828   7.571   6.849
13063SOL     OW51664   1.179   8.345   6.897
13063SOL    HW151665   1.093   8.294   6.884
13063SOL    HW251666   1.180   8.386   6.988
13064SOL     OW51667   1.310   8.524   0.641
13064SOL    HW151668   1.292   8.426   0.642
13064SOL    HW251669   1.324   8.556   0.734
13065SOL     OW51670   6.611   8.423   5.732
13065SOL    HW151671   6.574   8.331   5.722
13065SOL    HW251672   6.627   8.463   5.642
13066SOL     OW51673   4.888   7.868   4.341
13066SOL    HW151674   4.964   7.897   4.398
13066SOL    HW251675   4.861   7.942   4.279
13067SOL     OW51676   6.730   8.141   2.187
13067SOL    HW151677   6.772   8.116   2.274
13067SOL    HW251678   6.798   8.136   2.114
13068SOL     OW51679   3.443   8.356   2.918
13068SOL    HW151680   3.476   8.324   2.830
13068SOL    HW251681   3.453   8.456   2.923
13069SOL     OW51682   6.220   8.090   4.053
13069SOL    HW151683   6.235   8.068   4.150
13069SOL    HW251684   6.221   8.189   4.040
13070SOL     OW51685   2.772   7.869   2.716
13070SOL    HW151686   2.711   7.942   2.747
13070SOL    HW251687   2.776   7.870   2.616
13071SOL     OW51688   3.053   7.689   1.396
13071SOL    HW151689   3.082   7.717   1.304
13071SOL    HW251690   3.073   7.592   1.408
13072SOL     OW51691   4.595   8.607   1.122
13072SOL    HW151692   4.524   8.677   1.116
13072SOL    HW251693   4.609   8.580   1.217
13073SOL     OW51694   2.060   7.742   1.981
13073SOL    HW151695   2.003   7.804   2.035
13073SOL    HW251696   2.013   7.654   1.972
13074SOL     OW51697   3.560   7.625   0.186
13074SOL    HW151698   3.522   7.686   0.256
13074SOL    HW251699   3.645   7.585   0.219
13075SOL     OW51700   2.342   7.783   7.074
13075SOL    HW151701   2.412   7.738   7.130
13075SOL    HW251702   2.268   7.814   7.133
13076SOL     OW51703   6.361   8.490   2.203
13076SOL    HW151704   6.302   8.558   2.247
13076SOL    HW251705   6.330   8.398   2.230
13077SOL     OW51706   6.753   8.029   5.315
13077SOL    HW151707   6.789   7.938   5.338
13077SOL    HW251708   6.808   8.069   5.242
13078SOL     OW51709   6.323   8.807   0.625
13078SOL    HW151710   6.266   8.731   0.655
13078SOL    HW251711   6.291   8.891   0.669
13079SOL     OW51712   6.073   8.765   2.168
13079SOL    HW151713   6.002   8.749   2.100
13079SOL    HW251714   6.146   8.822   2.128
13080SOL     OW51715   5.296   7.409   6.048
13080SOL    HW151716   5.246   7.337   6.096
13080SOL    HW251717   5.350   7.370   5.974
13081SOL     OW51718   2.438   8.439   0.859
13081SOL    HW151719   2.432   8.344   0.890
13081SOL    HW251720   2.481   8.494   0.930
13082SOL     OW51721   2.752   8.662   6.976
13082SOL    HW151722   2.764   8.700   7.068
13082SOL    HW251723   2.661   8.623   6.967
13083SOL     OW51724   2.474   8.304   5.724
13083SOL    HW151725   2.439   8.348   5.806
13083SOL    HW251726   2.572   8.323   5.714
13084SOL     OW51727   3.359   8.803   3.015
13084SOL    HW151728   3.370   8.730   2.947
13084SOL    HW251729   3.272   8.850   2.999
13085SOL     OW51730   1.181   8.060   6.623
13085SOL    HW151731   1.213   8.010   6.543
13085SOL    HW251732   1.084   8.082   6.613
13086SOL     OW51733   4.554   8.123   1.804
13086SOL    HW151734   4.572   8.122   1.903
13086SOL    HW251735   4.636   8.153   1.756
13087SOL     OW51736   3.996   7.754   1.422
13087SOL    HW151737   4.050   7.809   1.360
13087SOL    HW251738   4.047   7.672   1.449
13088SOL     OW51739   4.873   7.632   3.974
13088SOL    HW151740   4.922   7.560   3.925
13088SOL    HW251741   4.913   7.721   3.951
13089SOL     OW51742   6.885   8.110   7.252
13089SOL    HW151743   6.850   8.033   7.198
13089SOL    HW251744   6.875   8.195   7.199
13090SOL     OW51745   6.139   8.839   3.003
13090SOL    HW151746   6.042   8.856   2.983
13090SOL    HW251747   6.183   8.802   2.921
13091SOL     OW51748   5.278   8.070   2.465
13091SOL    HW151749   5.210   8.100   2.531
13091SOL    HW251750   5.292   7.972   2.473
13092SOL     OW51751   3.381   7.647   4.539
13092SOL    HW151752   3.380   7.669   4.636
13092SOL    HW251753   3.385   7.547   4.527
13093SOL     OW51754   1.216   8.122   2.267
13093SOL    HW151755   1.236   8.158   2.359
13093SOL    HW251756   1.174   8.032   2.275
13094SOL     OW51757   3.557   7.781   4.366
13094SOL    HW151758   3.583   7.707   4.303
13094SOL    HW251759   3.506   7.742   4.443
13095SOL     OW51760   3.725   8.774   3.150
13095SOL    HW151761   3.672   8.856   3.129
13095SOL    HW251762   3.817   8.783   3.114
13096SOL     OW51763   6.532   8.765   5.665
13096SOL    HW151764   6.481   8.817   5.596
13096SOL    HW251765   6.602   8.710   5.619
13097SOL     OW51766   5.559   7.921   0.196
13097SOL    HW151767   5.543   7.824   0.178
13097SOL    HW251768   5.588   7.932   0.291
13098SOL     OW51769   3.404   7.998   4.233
13098SOL    HW151770   3.450   7.921   4.277
13098SOL    HW251771   3.340   8.040   4.297
13099SOL     OW51772   5.904   7.433   4.904
13099SOL    HW151773   5.928   7.359   4.842
13099SOL    HW251774   5.886   7.516   4.852
13100SOL     OW51775   5.943   7.664   4.712
13100SOL    HW151776   5.973   7.623   4.626
13100SOL    HW251777   6.022   7.691   4.766
13101SOL     OW51778   4.567   8.470   2.093
13101SOL    HW151779   4.515   8.463   2.008
13101SOL    HW251780   4.602   8.380   2.119
13102SOL     OW51781   0.763   8.827   3.698
13102SOL    HW151782   0.680   8.856   3.746
13102SOL    HW251783   0.738   8.783   3.612
13103SOL     OW51784   5.545   8.453   3.482
13103SOL    HW151785   5.577   8.404   3.402
13103SOL    HW251786   5.453   8.422   3.506
13104SOL     OW51787   2.819   8.427   0.956
13104SOL    HW151788   2.734   8.473   0.981
13104SOL    HW251789   2.814   8.331   0.981
13105SOL     OW51790   1.923   8.374   5.410
13105SOL    HW151791   1.838   8.339   5.449
13105SOL    HW251792   1.975   8.422   5.480
13106SOL     OW51793   3.537   7.632   7.064
13106SOL    HW151794   3.490   7.549   7.036
13106SOL    HW251795   3.525   7.647   7.162
13107SOL     OW51796   4.836   8.128   4.244
13107SOL    HW151797   4.887   8.204   4.284
13107SOL    HW251798   4.743   8.158   4.222
13108SOL     OW51799   5.464   8.947   3.415
13108SOL    HW151800   5.534   8.886   3.379
13108SOL    HW251801   5.381   8.896   3.435
13109SOL     OW51802   4.805   8.586   0.021
13109SOL    HW151803   4.777   8.681   0.013
13109SOL    HW251804   4.870   8.564  -0.052
13110SOL     OW51805   1.578   7.414   6.399
13110SOL    HW151806   1.620   7.497   6.362
13110SOL    HW251807   1.481   7.413   6.375
13111SOL     OW51808   3.348   7.930   7.251
13111SOL    HW151809   3.400   7.845   7.258
13111SOL    HW251810   3.294   7.943   7.334
13112SOL     OW51811   5.183   8.085   5.912
13112SOL    HW151812   5.281   8.074   5.930
13112SOL    HW251813   5.143   8.146   5.980
13113SOL     OW51814   3.184   7.482   4.345
13113SOL    HW151815   3.128   7.401   4.364
13113SOL    HW251816   3.247   7.497   4.422
13114SOL     OW51817   3.394   8.981   5.803
13114SOL    HW151818   3.403   9.014   5.709
13114SOL    HW251819   3.373   9.057   5.863
13115SOL     OW51820   1.389   7.407   1.064
13115SOL    HW151821   1.330   7.440   1.138
13115SOL    HW251822   1.460   7.475   1.045
13116SOL     OW51823   4.146   7.434   3.691
13116SOL    HW151824   4.098   7.379   3.759
13116SOL    HW251825   4.222   7.382   3.653
13117SOL     OW51826   4.657   8.637   4.840
13117SOL    HW151827   4.658   8.707   4.769
13117SOL    HW251828   4.564   8.627   4.876
13118SOL     OW51829   0.379   7.819   1.515
13118SOL    HW151830   0.363   7.850   1.609
13118SOL    HW251831   0.317   7.868   1.453
13119SOL     OW51832   0.803   8.745   2.291
13119SOL    HW151833   0.867   8.788   2.228
13119SOL    HW251834   0.850   8.723   2.377
13120SOL     OW51835   0.383   7.688   0.369
13120SOL    HW151836   0.340   7.760   0.314
13120SOL    HW251837   0.387   7.604   0.316
13121SOL     OW51838   0.225   8.052   2.880
13121SOL    HW151839   0.157   8.017   2.817
13121SOL    HW251840   0.258   8.141   2.848
13122SOL     OW51841   5.292   8.037   3.923
13122SOL    HW151842   5.210   8.058   3.976
13122SOL    HW251843   5.373   8.057   3.979
13123SOL     OW51844   4.859   7.626   6.107
13123SOL    HW151845   4.871   7.554   6.175
13123SOL    HW251846   4.924   7.612   6.032
13124SOL     OW51847   3.077   7.616   3.467
13124SOL    HW151848   3.006   7.659   3.522
13124SOL    HW251849   3.088   7.521   3.494
13125SOL     OW51850   5.092   8.108   0.548
13125SOL    HW151851   5.081   8.195   0.500
13125SOL    HW251852   5.189   8.085   0.553
13126SOL     OW51853   0.928   8.762   1.533
13126SOL    HW151854   0.857   8.765   1.462
13126SOL    HW251855   0.886   8.741   1.621
13127SOL     OW51856   2.658   7.482   5.344
13127SOL    HW151857   2.750   7.462   5.311
13127SOL    HW251858   2.614   7.549   5.284
13128SOL     OW51859   6.757   8.786   7.162
13128SOL    HW151860   6.827   8.739   7.108
13128SOL    HW251861   6.668   8.778   7.117
13129SOL     OW51862   2.641   9.055   6.570
13129SOL    HW151863   2.649   8.957   6.586
13129SOL    HW251864   2.692   9.105   6.640
13130SOL     OW51865   3.750   7.836   1.907
13130SOL    HW151866   3.844   7.855   1.877
13130SOL    HW251867   3.693   7.915   1.888
13131SOL     OW51868   2.635   8.786   6.580
13131SOL    HW151869   2.727   8.745   6.578
13131SOL    HW251870   2.584   8.759   6.499
13132SOL     OW51871   0.472   8.147   1.279
13132SOL    HW151872   0.434   8.186   1.195
13132SOL    HW251873   0.399   8.139   1.347
13133SOL     OW51874   0.543   8.249   4.650
13133SOL    HW151875   0.512   8.201   4.732
13133SOL    HW251876   0.643   8.254   4.650
13134SOL     OW51877   2.441   8.790   0.711
13134SOL    HW151878   2.394   8.830   0.790
13134SOL    HW251879   2.470   8.697   0.734
13135SOL     OW51880   0.306   8.315   0.036
13135SOL    HW151881   0.327   8.359  -0.052
13135SOL    HW251882   0.274   8.221   0.019
13136SOL     OW51883   6.595   7.893   5.895
13136SOL    HW151884   6.671   7.893   5.829
13136SOL    HW251885   6.618   7.954   5.971
13137SOL     OW51886   6.623   8.692   1.562
13137SOL    HW151887   6.548   8.664   1.502
13137SOL    HW251888   6.700   8.722   1.507
13138SOL     OW51889   4.366   8.159   2.275
13138SOL    HW151890   4.374   8.062   2.299
13138SOL    HW251891   4.397   8.215   2.352
13139SOL     OW51892   6.818   8.315   7.110
13139SOL    HW151893   6.876   8.371   7.051
13139SOL    HW251894   6.756   8.374   7.161
13140SOL     OW51895   1.368   7.710   1.268
13140SOL    HW151896   1.291   7.664   1.223
13140SOL    HW251897   1.446   7.715   1.206
13141SOL     OW51898   3.481   8.289   4.810
13141SOL    HW151899   3.567   8.302   4.761
13141SOL    HW251900   3.413   8.249   4.749
13142SOL     OW51901   3.058   7.430   1.902
13142SOL    HW151902   3.136   7.491   1.891
13142SOL    HW251903   3.076   7.366   1.978
13143SOL     OW51904   1.847   7.374   7.253
13143SOL    HW151905   1.839   7.290   7.307
13143SOL    HW251906   1.806   7.360   7.163
13144SOL     OW51907   3.281   8.067   6.512
13144SOL    HW151908   3.375   8.083   6.545
13144SOL    HW251909   3.265   7.969   6.506
13145SOL     OW51910   4.623   8.005   0.744
13145SOL    HW151911   4.720   7.985   0.761
13145SOL    HW251912   4.606   8.102   0.759
13146SOL     OW51913   0.770   8.422   6.706
13146SOL    HW151914   0.686   8.437   6.654
13146SOL    HW251915   0.806   8.510   6.738
13147SOL     OW51916   4.628   7.861   5.236
13147SOL    HW151917   4.689   7.795   5.192
13147SOL    HW251918   4.533   7.843   5.208
13148SOL     OW51919   4.511   8.455   6.834
13148SOL    HW151920   4.422   8.495   6.860
13148SOL    HW251921   4.579   8.478   6.904
13149SOL     OW51922   1.395   8.210   4.110
13149SOL    HW151923   1.353   8.163   4.187
13149SOL    HW251924   1.494   8.207   4.120
13150SOL     OW51925   1.265   7.814   2.507
13150SOL    HW151926   1.227   7.795   2.417
13150SOL    HW251927   1.269   7.729   2.560
13151SOL     OW51928   1.343   8.878   0.930
13151SOL    HW151929   1.330   8.779   0.921
13151SOL    HW251930   1.407   8.910   0.861
13152SOL     OW51931   7.046   9.104   4.273
13152SOL    HW151932   7.030   9.080   4.177
13152SOL    HW251933   6.977   9.169   4.303
13153SOL     OW51934   0.563   8.271   0.871
13153SOL    HW151935   0.476   8.315   0.895
13153SOL    HW251936   0.622   8.337   0.824
13154SOL     OW51937   6.850   8.746   0.741
13154SOL    HW151938   6.768   8.776   0.791
13154SOL    HW251939   6.824   8.678   0.673
13155SOL     OW51940   3.143   7.784   4.009
13155SOL    HW151941   3.109   7.878   4.007
13155SOL    HW251942   3.239   7.783   3.980
13156SOL     OW51943   3.354   8.510   5.518
13156SOL    HW151944   3.289   8.459   5.574
13156SOL    HW251945   3.389   8.588   5.569
13157SOL     OW51946   4.126   7.445   2.195
13157SOL    HW151947   4.105   7.536   2.159
13157SOL    HW251948   4.061   7.379   2.159
13158SOL     OW51949   2.937   7.448   6.654
13158SOL    HW151950   3.011   7.444   6.587
13158SOL    HW251951   2.910   7.356   6.680
13159SOL     OW51952   0.525   7.794   0.599
13159SOL    HW151953   0.473   7.861   0.653
13159SOL    HW251954   0.469   7.762   0.523
13160SOL     OW51955   4.036   8.909   5.963
13160SOL    HW151956   4.077   8.906   5.872
13160SOL    HW251957   4.042   9.002   5.999
13161SOL     OW51958   6.273   8.345   1.738
13161SOL    HW151959   6.295   8.320   1.832
13161SOL    HW251960   6.216   8.427   1.738
13162SOL     OW51961   5.289   7.606   3.343
13162SOL    HW151962   5.248   7.550   3.415
13162SOL    HW251963   5.220   7.625   3.273
13163SOL     OW51964   3.315   8.976   0.912
13163SOL    HW151965   3.393   9.024   0.871
13163SOL    HW251966   3.259   9.041   0.963
13164SOL     OW51967   0.487   7.626   5.359
13164SOL    HW151968   0.400   7.666   5.388
13164SOL    HW251969   0.521   7.565   5.430
13165SOL     OW51970   6.914   7.578   6.243
13165SOL    HW151971   6.971   7.654   6.212
13165SOL    HW251972   6.827   7.578   6.193
13166SOL     OW51973   4.580   8.250   0.845
13166SOL    HW151974   4.501   8.299   0.808
13166SOL    HW251975   4.645   8.315   0.882
13167SOL     OW51976   5.344   7.509   2.869
13167SOL    HW151977   5.389   7.539   2.785
13167SOL    HW251978   5.364   7.412   2.885
13168SOL     OW51979   5.743   8.714   4.307
13168SOL    HW151980   5.677   8.710   4.232
13168SOL    HW251981   5.800   8.632   4.307
13169SOL     OW51982   1.258   7.556   2.607
13169SOL    HW151983   1.176   7.501   2.621
13169SOL    HW251984   1.327   7.501   2.560
13170SOL     OW51985   2.913   7.760   2.445
13170SOL    HW151986   2.992   7.706   2.472
13170SOL    HW251987   2.884   7.735   2.353
13171SOL     OW51988   0.581   8.445   1.663
13171SOL    HW151989   0.515   8.431   1.589
13171SOL    HW251990   0.657   8.381   1.653
13172SOL     OW51991   4.429   7.640   2.415
13172SOL    HW151992   4.416   7.609   2.509
13172SOL    HW251993   4.449   7.561   2.357
13173SOL     OW51994   1.119   8.109   4.041
13173SOL    HW151995   1.198   8.160   4.074
13173SOL    HW251996   1.037   8.165   4.051
13174SOL     OW51997   6.198   8.031   5.647
13174SOL    HW151998   6.195   8.101   5.576
13174SOL    HW251999   6.110   7.984   5.651
13175SOL     OW52000   3.321   7.518   1.858
13175SOL    HW152001   3.390   7.484   1.921
13175SOL    HW252002   3.339   7.614   1.837
13176SOL     OW52003   4.209   8.509   5.292
13176SOL    HW152004   4.261   8.457   5.361
13176SOL    HW252005   4.232   8.606   5.300
13177SOL     OW52006   0.377   7.643   3.242
13177SOL    HW152007   0.342   7.735   3.226
13177SOL    HW252008   0.474   7.648   3.266
13178SOL     OW52009   2.787   7.804   6.920
13178SOL    HW152010   2.847   7.859   6.977
13178SOL    HW252011   2.719   7.864   6.876
13179SOL     OW52012   5.961   8.807   7.302
13179SOL    HW152013   5.876   8.755   7.305
13179SOL    HW252014   6.013   8.790   7.386
13180SOL     OW52015   1.801   9.123   0.349
13180SOL    HW152016   1.728   9.072   0.305
13180SOL    HW252017   1.854   9.062   0.408
13181SOL     OW52018   7.257   7.624   2.621
13181SOL    HW152019   7.243   7.571   2.537
13181SOL    HW252020   7.354   7.625   2.644
13182SOL     OW52021   7.118   8.557   7.177
13182SOL    HW152022   7.087   8.547   7.272
13182SOL    HW252023   7.212   8.524   7.169
13183SOL     OW52024   5.732   8.674   7.324
13183SOL    HW152025   5.670   8.749   7.349
13183SOL    HW252026   5.713   8.594   7.380
13184SOL     OW52027   4.378   8.593   4.176
13184SOL    HW152028   4.443   8.615   4.248
13184SOL    HW252029   4.403   8.642   4.093
13185SOL     OW52030   7.249   7.699   0.357
13185SOL    HW152031   7.259   7.659   0.448
13185SOL    HW252032   7.230   7.797   0.365
13186SOL     OW52033   0.027   9.090   2.842
13186SOL    HW152034   0.066   9.043   2.763
13186SOL    HW252035   0.080   9.172   2.862
13187SOL     OW52036   4.101   8.250   4.164
13187SOL    HW152037   4.109   8.264   4.065
13187SOL    HW252038   4.064   8.159   4.182
13188SOL     OW52039   5.533   8.132   0.039
13188SOL    HW152040   5.455   8.186   0.069
13188SOL    HW252041   5.562   8.071   0.112
13189SOL     OW52042   4.751   7.511   6.820
13189SOL    HW152043   4.697   7.590   6.849
13189SOL    HW252044   4.836   7.507   6.873
13190SOL     OW52045   2.205   8.122   0.430
13190SOL    HW152046   2.301   8.146   0.444
13190SOL    HW252047   2.168   8.080   0.513
13191SOL     OW52048   2.916   8.868   1.040
13191SOL    HW152049   2.998   8.818   1.011
13191SOL    HW252050   2.862   8.810   1.101
13192SOL     OW52051   5.761   8.189   3.889
13192SOL    HW152052   5.801   8.255   3.952
13192SOL    HW252053   5.728   8.237   3.807
13193SOL     OW52054   3.626   8.525   1.028
13193SOL    HW152055   3.634   8.462   0.950
13193SOL    HW252056   3.681   8.606   1.010
13194SOL     OW52057   3.199   8.016   0.882
13194SOL    HW152058   3.109   8.048   0.851
13194SOL    HW252059   3.256   8.095   0.905
13195SOL     OW52060   0.276   7.788   5.487
13195SOL    HW152061   0.183   7.751   5.495
13195SOL    HW252062   0.271   7.881   5.451
13196SOL     OW52063   5.279   7.759   2.571
13196SOL    HW152064   5.265   7.683   2.509
13196SOL    HW252065   5.217   7.752   2.649
13197SOL     OW52066   0.839   7.827   1.868
13197SOL    HW152067   0.888   7.832   1.955
13197SOL    HW252068   0.778   7.905   1.860
13198SOL     OW52069   4.416   8.850   6.036
13198SOL    HW152070   4.496   8.794   6.014
13198SOL    HW252071   4.442   8.917   6.106
13199SOL     OW52072   6.902   8.774   1.536
13199SOL    HW152073   7.000   8.767   1.551
13199SOL    HW252074   6.861   8.833   1.605
13200SOL     OW52075   5.048   7.687   6.633
13200SOL    HW152076   5.131   7.707   6.581
13200SOL    HW252077   5.059   7.718   6.727
13201SOL     OW52078   5.612   8.080   6.972
13201SOL    HW152079   5.534   8.053   7.029
13201SOL    HW252080   5.603   8.176   6.947
13202SOL     OW52081   5.592   7.595   1.374
13202SOL    HW152082   5.527   7.579   1.449
13202SOL    HW252083   5.541   7.623   1.293
13203SOL     OW52084   3.794   8.409   2.475
13203SOL    HW152085   3.843   8.492   2.448
13203SOL    HW252086   3.830   8.376   2.562
13204SOL     OW52087   5.915   8.595   0.524
13204SOL    HW152088   5.903   8.498   0.548
13204SOL    HW252089   6.013   8.617   0.524
13205SOL     OW52090   4.930   8.641   5.403
13205SOL    HW152091   4.883   8.716   5.356
13205SOL    HW252092   5.021   8.629   5.362
13206SOL     OW52093   2.609   8.194   1.286
13206SOL    HW152094   2.666   8.179   1.367
13206SOL    HW252095   2.658   8.162   1.204
13207SOL     OW52096   3.207   8.132   2.356
13207SOL    HW152097   3.213   8.105   2.260
13207SOL    HW252098   3.130   8.085   2.400
13208SOL     OW52099   1.909   8.201   3.300
13208SOL    HW152100   1.911   8.204   3.400
13208SOL    HW252101   1.999   8.223   3.264
13209SOL     OW52102   3.389   8.657   0.975
13209SOL    HW152103   3.470   8.607   1.006
13209SOL    HW252104   3.414   8.752   0.957
13210SOL     OW52105   5.171   8.712   3.815
13210SOL    HW152106   5.165   8.778   3.890
13210SOL    HW252107   5.262   8.718   3.773
13211SOL     OW52108   5.137   8.038   1.927
13211SOL    HW152109   5.219   8.051   1.984
13211SOL    HW252110   5.151   8.079   1.838
13212SOL     OW52111   2.300   7.387   0.546
13212SOL    HW152112   2.222   7.391   0.608
13212SOL    HW252113   2.267   7.362   0.454
13213SOL     OW52114   3.208   8.934   1.721
13213SOL    HW152115   3.148   8.909   1.797
13213SOL    HW252116   3.303   8.924   1.749
13214SOL     OW52117   1.454   8.124   1.873
13214SOL    HW152118   1.358   8.123   1.902
13214SOL    HW252119   1.483   8.032   1.850
13215SOL     OW52120   4.225   7.475   1.696
13215SOL    HW152121   4.295   7.421   1.743
13215SOL    HW252122   4.145   7.483   1.755
13216SOL     OW52123   7.033   8.220   2.876
13216SOL    HW152124   7.085   8.254   2.954
13216SOL    HW252125   7.060   8.126   2.856
13217SOL     OW52126   6.499   8.663   0.466
13217SOL    HW152127   6.436   8.692   0.539
13217SOL    HW252128   6.548   8.743   0.432
13218SOL     OW52129   0.835   7.876   7.112
13218SOL    HW152130   0.902   7.834   7.051
13218SOL    HW252131   0.774   7.806   7.148
13219SOL     OW52132   6.537   7.891   1.850
13219SOL    HW152133   6.550   7.983   1.812
13219SOL    HW252134   6.626   7.850   1.866
13220SOL     OW52135   0.269   7.879   3.109
13220SOL    HW152136   0.283   7.947   3.037
13220SOL    HW252137   0.227   7.923   3.189
13221SOL     OW52138   6.081   8.100   6.409
13221SOL    HW152139   6.144   8.036   6.454
13221SOL    HW252140   6.134   8.162   6.351
13222SOL     OW52141   3.234   8.234   1.535
13222SOL    HW152142   3.179   8.154   1.511
13222SOL    HW252143   3.179   8.317   1.520
13223SOL     OW52144   5.004   7.733   1.506
13223SOL    HW152145   4.933   7.761   1.441
13223SOL    HW252146   4.978   7.645   1.546
13224SOL     OW52147   6.670   7.775   5.546
13224SOL    HW152148   6.582   7.821   5.541
13224SOL    HW252149   6.724   7.813   5.621
13225SOL     OW52150   3.178   7.384   2.197
13225SOL    HW152151   3.140   7.309   2.251
13225SOL    HW252152   3.262   7.353   2.151
13226SOL     OW52153   4.558   8.665   5.677
13226SOL    HW152154   4.610   8.695   5.757
13226SOL    HW252155   4.558   8.738   5.608
13227SOL     OW52156   1.639   8.451   0.084
13227SOL    HW152157   1.699   8.415   0.155
13227SOL    HW252158   1.634   8.551   0.090
13228SOL     OW52159   3.442   8.796   6.900
13228SOL    HW152160   3.385   8.843   6.834
13228SOL    HW252161   3.519   8.752   6.853
13229SOL     OW52162   6.233   7.948   2.769
13229SOL    HW152163   6.295   8.025   2.758
13229SOL    HW252164   6.175   7.940   2.688
13230SOL     OW52165   4.547   8.199   6.747
13230SOL    HW152166   4.601   8.198   6.662
13230SOL    HW252167   4.527   8.294   6.772
13231SOL     OW52168   1.425   8.071   6.258
13231SOL    HW152169   1.424   8.150   6.197
13231SOL    HW252170   1.447   7.989   6.206
13232SOL     OW52171   0.027   9.100   0.596
13232SOL    HW152172  -0.029   9.017   0.598
13232SOL    HW252173   0.051   9.126   0.689
13233SOL     OW52174   7.067   8.132   5.422
13233SOL    HW152175   7.142   8.198   5.427
13233SOL    HW252176   7.034   8.128   5.327
13234SOL     OW52177   0.547   7.415   5.561
13234SOL    HW152178   0.509   7.432   5.652
13234SOL    HW252179   0.620   7.348   5.568
13235SOL     OW52180   2.260   8.634   0.024
13235SOL    HW152181   2.301   8.713   0.070
13235SOL    HW252182   2.175   8.662  -0.020
13236SOL     OW52183   5.765   8.037   3.016
13236SOL    HW152184   5.816   7.972   3.071
13236SOL    HW252185   5.821   8.067   2.939
13237SOL     OW52186   5.861   7.790   4.160
13237SOL    HW152187   5.886   7.693   4.161
13237SOL    HW252188   5.876   7.827   4.068
13238SOL     OW52189   5.848   8.510   3.368
13238SOL    HW152190   5.913   8.514   3.443
13238SOL    HW252191   5.846   8.418   3.329
13239SOL     OW52192   7.058   7.930   4.971
13239SOL    HW152193   7.054   7.973   4.881
13239SOL    HW252194   6.991   7.855   4.975
13240SOL     OW52195   3.301   8.818   6.393
13240SOL    HW152196   3.331   8.723   6.397
13240SOL    HW252197   3.207   8.822   6.359
13241SOL     OW52198   0.362   7.427   5.778
13241SOL    HW152199   0.338   7.408   5.874
13241SOL    HW252200   0.372   7.525   5.766
13242SOL     OW52201   0.163   7.596   2.702
13242SOL    HW152202   0.162   7.621   2.799
13242SOL    HW252203   0.245   7.633   2.659
13243SOL     OW52204   2.441   7.396   2.935
13243SOL    HW152205   2.439   7.302   2.968
13243SOL    HW252206   2.464   7.397   2.837
13244SOL     OW52207   0.858   8.696   6.764
13244SOL    HW152208   0.939   8.728   6.814
13244SOL    HW252209   0.778   8.702   6.824
13245SOL     OW52210   5.029   8.415   1.317
13245SOL    HW152211   5.038   8.380   1.224
13245SOL    HW252212   4.938   8.393   1.352
13246SOL     OW52213   3.686   8.097   0.548
13246SOL    HW152214   3.640   8.186   0.550
13246SOL    HW252215   3.732   8.085   0.460
13247SOL     OW52216   2.013   7.558   0.462
13247SOL    HW152217   1.978   7.464   0.456
13247SOL    HW252218   2.055   7.584   0.375
13248SOL     OW52219   4.433   8.841   1.197
13248SOL    HW152220   4.489   8.923   1.207
13248SOL    HW252221   4.403   8.810   1.287
13249SOL     OW52222   7.289   7.610   2.145
13249SOL    HW152223   7.336   7.525   2.123
13249SOL    HW252224   7.190   7.594   2.147
13250SOL     OW52225   3.129   8.694   0.988
13250SOL    HW152226   3.095   8.663   1.077
13250SOL    HW252227   3.228   8.680   0.984
13251SOL     OW52228   3.570   8.982   3.034
13251SOL    HW152229   3.492   8.920   3.031
13251SOL    HW252230   3.579   9.030   2.947
13252SOL     OW52231   2.155   7.983   0.153
13252SOL    HW152232   2.099   7.920   0.208
13252SOL    HW252233   2.178   8.063   0.207
13253SOL     OW52234   4.336   8.344   4.267
13253SOL    HW152235   4.242   8.313   4.250
13253SOL    HW252236   4.348   8.437   4.232
13254SOL     OW52237   6.024   7.486   6.629
13254SOL    HW152238   6.090   7.509   6.701
13254SOL    HW252239   6.001   7.389   6.635
13255SOL     OW52240   5.432   8.836   0.236
13255SOL    HW152241   5.356   8.773   0.218
13255SOL    HW252242   5.441   8.850   0.334
13256SOL     OW52243   5.301   8.403   4.836
13256SOL    HW152244   5.394   8.372   4.858
13256SOL    HW252245   5.235   8.335   4.866
13257SOL     OW52246   1.231   8.797   0.093
13257SOL    HW152247   1.267   8.890   0.094
13257SOL    HW252248   1.147   8.794   0.038
13258SOL     OW52249   4.181   8.474   3.328
13258SOL    HW152250   4.098   8.470   3.272
13258SOL    HW252251   4.219   8.566   3.326
13259SOL     OW52252   1.930   8.113   6.823
13259SOL    HW152253   1.890   8.039   6.769
13259SOL    HW252254   2.029   8.102   6.827
13260SOL     OW52255   2.994   8.016   2.567
13260SOL    HW152256   2.963   7.925   2.538
13260SOL    HW252257   2.914   8.072   2.589
13261SOL     OW52258   5.146   8.644   0.442
13261SOL    HW152259   5.128   8.676   0.535
13261SOL    HW252260   5.080   8.684   0.379
13262SOL     OW52261   1.420   8.460   2.929
13262SOL    HW152262   1.516   8.436   2.942
13262SOL    HW252263   1.363   8.395   2.979
13263SOL     OW52264   3.855   8.138   2.385
13263SOL    HW152265   3.869   8.235   2.405
13263SOL    HW252266   3.772   8.126   2.329
13264SOL     OW52267   5.588   7.601   6.513
13264SOL    HW152268   5.639   7.518   6.492
13264SOL    HW252269   5.632   7.680   6.470
13265SOL     OW52270   5.234   8.313   4.125
13265SOL    HW152271   5.150   8.366   4.116
13265SOL    HW252272   5.212   8.215   4.129
13266SOL     OW52273   6.115   8.596   3.583
13266SOL    HW152274   6.119   8.653   3.500
13266SOL    HW252275   6.177   8.518   3.573
13267SOL     OW52276   7.235   8.156   2.506
13267SOL    HW152277   7.202   8.062   2.513
13267SOL    HW252278   7.334   8.157   2.515
13268SOL     OW52279   1.659   8.026   5.480
13268SOL    HW152280   1.688   7.992   5.390
13268SOL    HW252281   1.712   7.980   5.551
13269SOL     OW52282   3.685   7.511   3.770
13269SOL    HW152283   3.743   7.452   3.714
13269SOL    HW252284   3.655   7.589   3.716
13270SOL     OW52285   5.309   7.814   6.965
13270SOL    HW152286   5.282   7.826   7.061
13270SOL    HW252287   5.382   7.746   6.959
13271SOL     OW52288   1.477   8.409   1.892
13271SOL    HW152289   1.470   8.311   1.909
13271SOL    HW252290   1.399   8.439   1.837
13272SOL     OW52291   2.230   7.984   2.090
13272SOL    HW152292   2.192   8.075   2.075
13272SOL    HW252293   2.155   7.917   2.094
13273SOL     OW52294   6.936   8.210   1.978
13273SOL    HW152295   7.036   8.215   1.978
13273SOL    HW252296   6.898   8.302   1.987
13274SOL     OW52297   2.714   8.623   4.621
13274SOL    HW152298   2.772   8.586   4.549
13274SOL    HW252299   2.771   8.673   4.686
13275SOL     OW52300   6.579   8.680   3.064
13275SOL    HW152301   6.504   8.710   3.123
13275SOL    HW252302   6.616   8.593   3.099
13276SOL     OW52303   3.881   7.885   3.039
13276SOL    HW152304   3.919   7.851   3.125
13276SOL    HW252305   3.936   7.963   3.007
13277SOL     OW52306   6.861   8.940   1.752
13277SOL    HW152307   6.869   8.922   1.850
13277SOL    HW252308   6.945   8.982   1.719
13278SOL     OW52309   2.041   7.731   0.049
13278SOL    HW152310   1.962   7.757  -0.006
13278SOL    HW252311   2.054   7.797   0.122
13279SOL     OW52312   2.026   8.241   1.500
13279SOL    HW152313   2.028   8.163   1.436
13279SOL    HW252314   1.932   8.267   1.517
13280SOL     OW52315   2.319   7.685   1.953
13280SOL    HW152316   2.229   7.726   1.944
13280SOL    HW252317   2.345   7.684   2.050
13281SOL     OW52318   6.951   8.204   6.492
13281SOL    HW152319   6.887   8.136   6.526
13281SOL    HW252320   6.902   8.274   6.439
13282SOL     OW52321   6.360   7.617   5.669
13282SOL    HW152322   6.356   7.660   5.759
13282SOL    HW252323   6.381   7.686   5.599
13283SOL     OW52324   5.451   7.696   1.896
13283SOL    HW152325   5.429   7.728   1.804
13283SOL    HW252326   5.437   7.771   1.962
13284SOL     OW52327   4.608   8.499   5.320
13284SOL    HW152328   4.664   8.460   5.394
13284SOL    HW252329   4.524   8.446   5.310
13285SOL     OW52330   6.583   8.203   1.829
13285SOL    HW152331   6.600   8.291   1.785
13285SOL    HW252332   6.500   8.209   1.885
13286SOL     OW52333   0.608   8.928   1.911
13286SOL    HW152334   0.528   8.956   1.965
13286SOL    HW252335   0.685   8.988   1.932
13287SOL     OW52336   0.932   8.940   1.169
13287SOL    HW152337   0.950   8.938   1.267
13287SOL    HW252338   1.017   8.959   1.119
13288SOL     OW52339   7.262   8.452   2.220
13288SOL    HW152340   7.210   8.371   2.247
13288SOL    HW252341   7.288   8.504   2.301
13289SOL     OW52342   1.837   9.064   6.943
13289SOL    HW152343   1.842   9.020   6.853
13289SOL    HW252344   1.835   8.994   7.014
13290SOL     OW52345   4.107   7.878   2.525
13290SOL    HW152346   4.025   7.858   2.472
13290SOL    HW252347   4.113   7.976   2.541
13291SOL     OW52348   1.150   7.428   4.058
13291SOL    HW152349   1.096   7.403   4.139
13291SOL    HW252350   1.238   7.465   4.088
13292SOL     OW52351   7.078   8.341   6.692
13292SOL    HW152352   7.020   8.285   6.633
13292SOL    HW252353   7.171   8.304   6.691
13293SOL     OW52354   2.736   7.432   1.260
13293SOL    HW152355   2.655   7.444   1.203
13293SOL    HW252356   2.769   7.522   1.289
13294SOL     OW52357   6.465   9.007   1.488
13294SOL    HW152358   6.367   9.000   1.470
13294SOL    HW252359   6.501   9.090   1.447
13295SOL     OW52360   2.358   8.731   1.150
13295SOL    HW152361   2.381   8.790   1.228
13295SOL    HW252362   2.296   8.659   1.180
13296SOL     OW52363   1.773   7.575   5.755
13296SOL    HW152364   1.731   7.506   5.814
13296SOL    HW252365   1.783   7.538   5.663
13297SOL     OW52366   0.943   8.538   0.718
13297SOL    HW152367   0.958   8.592   0.801
13297SOL    HW252368   0.977   8.588   0.639
13298SOL     OW52369   6.909   7.388   6.696
13298SOL    HW152370   6.938   7.345   6.782
13298SOL    HW252371   6.976   7.458   6.670
13299SOL     OW52372   0.403   8.259   5.885
13299SOL    HW152373   0.491   8.305   5.898
13299SOL    HW252374   0.368   8.230   5.974
13300SOL     OW52375   2.298   8.698   6.415
13300SOL    HW152376   2.294   8.698   6.315
13300SOL    HW252377   2.250   8.617   6.450
13301SOL     OW52378   1.443   8.121   6.721
13301SOL    HW152379   1.348   8.116   6.689
13301SOL    HW252380   1.447   8.175   6.805
13302SOL     OW52381   4.083   8.056   0.455
13302SOL    HW152382   4.130   8.091   0.536
13302SOL    HW252383   4.052   7.962   0.472
13303SOL     OW52384   3.784   7.577   5.393
13303SOL    HW152385   3.839   7.580   5.476
13303SOL    HW252386   3.761   7.482   5.372
13304SOL     OW52387   2.423   8.096   0.088
13304SOL    HW152388   2.422   8.169   0.157
13304SOL    HW252389   2.363   8.022   0.117
13305SOL     OW52390   2.436   8.383   1.736
13305SOL    HW152391   2.450   8.391   1.835
13305SOL    HW252392   2.339   8.373   1.716
13306SOL     OW52393   7.286   7.859   5.091
13306SOL    HW152394   7.242   7.775   5.123
13306SOL    HW252395   7.217   7.919   5.050
13307SOL     OW52396   2.907   7.535   7.286
13307SOL    HW152397   2.864   7.453   7.322
13307SOL    HW252398   2.841   7.610   7.284
13308SOL     OW52399   2.721   8.356   5.648
13308SOL    HW152400   2.787   8.300   5.698
13308SOL    HW252401   2.760   8.381   5.559
13309SOL     OW52402   7.182   7.800   5.615
13309SOL    HW152403   7.090   7.781   5.581
13309SOL    HW252404   7.244   7.812   5.538
13310SOL     OW52405   4.751   8.433   0.967
13310SOL    HW152406   4.696   8.491   1.026
13310SOL    HW252407   4.784   8.487   0.889
13311SOL     OW52408   1.826   7.931   3.733
13311SOL    HW152409   1.818   7.832   3.743
13311SOL    HW252410   1.921   7.956   3.715
13312SOL     OW52411   5.693   8.662   3.190
13312SOL    HW152412   5.639   8.594   3.141
13312SOL    HW252413   5.752   8.616   3.257
13313SOL     OW52414   3.235   8.597   2.602
13313SOL    HW152415   3.324   8.625   2.568
13313SOL    HW252416   3.225   8.498   2.593
13314SOL     OW52417   5.516   8.113   3.503
13314SOL    HW152418   5.440   8.097   3.566
13314SOL    HW252419   5.529   8.032   3.445
13315SOL     OW52420   4.016   8.794   0.589
13315SOL    HW152421   4.001   8.870   0.526
13315SOL    HW252422   3.941   8.728   0.581
13316SOL     OW52423   6.148   8.739   1.571
13316SOL    HW152424   6.049   8.727   1.575
13316SOL    HW252425   6.177   8.800   1.644
13317SOL     OW52426   0.056   8.517   7.114
13317SOL    HW152427   0.117   8.467   7.052
13317SOL    HW252428   0.090   8.611   7.125
13318SOL     OW52429   1.226   8.559   3.247
13318SOL    HW152430   1.250   8.634   3.308
13318SOL    HW252431   1.304   8.498   3.235
13319SOL     OW52432   5.682   9.081   4.659
13319SOL    HW152433   5.753   9.086   4.729
13319SOL    HW252434   5.720   9.045   4.574
13320SOL     OW52435   2.690   7.972   0.082
13320SOL    HW152436   2.600   8.012   0.068
13320SOL    HW252437   2.682   7.884   0.128
13321SOL     OW52438   4.798   8.305   3.420
13321SOL    HW152439   4.835   8.296   3.512
13321SOL    HW252440   4.713   8.253   3.413
13322SOL     OW52441   5.661   8.276   1.244
13322SOL    HW152442   5.750   8.263   1.287
13322SOL    HW252443   5.605   8.194   1.258
13323SOL     OW52444   5.919   8.883   3.362
13323SOL    HW152445   5.863   8.835   3.294
13323SOL    HW252446   5.900   8.981   3.358
13324SOL     OW52447   1.533   8.895   0.022
13324SOL    HW152448   1.581   8.813   0.051
13324SOL    HW252449   1.585   8.943  -0.048
13325SOL     OW52450   5.286   7.400   0.312
13325SOL    HW152451   5.209   7.462   0.315
13325SOL    HW252452   5.264   7.322   0.253
13326SOL     OW52453   4.422   7.523   2.663
13326SOL    HW152454   4.372   7.602   2.698
13326SOL    HW252455   4.367   7.440   2.676
13327SOL     OW52456   0.169   8.813   7.070
13327SOL    HW152457   0.082   8.850   7.102
13327SOL    HW252458   0.195   8.858   6.984
13328SOL     OW52459   3.784   8.831   5.717
13328SOL    HW152460   3.714   8.759   5.720
13328SOL    HW252461   3.869   8.793   5.682
13329SOL     OW52462   1.778   8.645   7.135
13329SOL    HW152463   1.773   8.659   7.036
13329SOL    HW252464   1.702   8.587   7.163
13330SOL     OW52465   1.816   9.173   5.474
13330SOL    HW152466   1.737   9.126   5.434
13330SOL    HW252467   1.900   9.126   5.448
13331SOL     OW52468   0.206   7.686   1.003
13331SOL    HW152469   0.275   7.740   1.051
13331SOL    HW252470   0.134   7.746   0.969
13332SOL     OW52471   1.840   7.991   7.039
13332SOL    HW152472   1.923   7.979   7.093
13332SOL    HW252473   1.864   8.033   6.951
13333SOL     OW52474   1.912   7.495   6.689
13333SOL    HW152475   1.848   7.526   6.759
13333SOL    HW252476   2.001   7.476   6.731
13334SOL     OW52477   6.495   8.113   5.331
13334SOL    HW152478   6.469   8.090   5.237
13334SOL    HW252479   6.589   8.085   5.347
13335SOL     OW52480   0.739   8.920   0.403
13335SOL    HW152481   0.648   8.949   0.432
13335SOL    HW252482   0.799   8.915   0.483
13336SOL     OW52483   5.140   8.457   3.824
13336SOL    HW152484   5.142   8.553   3.797
13336SOL    HW252485   5.233   8.420   3.820
13337SOL     OW52486   5.422   7.518   1.582
13337SOL    HW152487   5.444   7.612   1.610
13337SOL    HW252488   5.337   7.519   1.529
13338SOL     OW52489   5.656   7.631   3.982
13338SOL    HW152490   5.656   7.702   3.912
13338SOL    HW252491   5.593   7.656   4.055
13339SOL     OW52492   5.479   7.416   3.274
13339SOL    HW152493   5.410   7.357   3.231
13339SOL    HW252494   5.433   7.483   3.332
13340SOL     OW52495   5.276   8.299   2.299
13340SOL    HW152496   5.285   8.391   2.339
13340SOL    HW252497   5.271   8.232   2.373
13341SOL     OW52498   1.962   8.435   0.153
13341SOL    HW152499   1.923   8.354   0.110
13341SOL    HW252500   2.035   8.407   0.216
13342SOL     OW52501   1.160   7.537   1.184
13342SOL    HW152502   1.104   7.546   1.102
13342SOL    HW252503   1.101   7.541   1.265
13343SOL     OW52504   5.884   7.978   2.200
13343SOL    HW152505   5.793   8.019   2.199
13343SOL    HW252506   5.877   7.883   2.231
13344SOL     OW52507   1.814   8.874   6.717
13344SOL    HW152508   1.842   8.795   6.771
13344SOL    HW252509   1.754   8.844   6.642
13345SOL     OW52510   1.715   8.090   6.599
13345SOL    HW152511   1.645   8.090   6.670
13345SOL    HW252512   1.708   8.174   6.545
13346SOL     OW52513   3.984   8.347   0.656
13346SOL    HW152514   3.940   8.429   0.621
13346SOL    HW252515   4.050   8.372   0.727
13347SOL     OW52516   7.313   8.672   1.715
13347SOL    HW152517   7.258   8.617   1.778
13347SOL    HW252518   7.387   8.615   1.678
13348SOL     OW52519   2.356   7.531   3.382
13348SOL    HW152520   2.412   7.588   3.443
13348SOL    HW252521   2.396   7.533   3.290
13349SOL     OW52522   0.061   8.448   2.645
13349SOL    HW152523   0.150   8.409   2.624
13349SOL    HW252524   0.002   8.377   2.684
13350SOL     OW52525   5.480   7.677   0.142
13350SOL    HW152526   5.381   7.664   0.140
13350SOL    HW252527   5.519   7.646   0.055
13351SOL     OW52528   4.599   7.959   4.363
13351SOL    HW152529   4.513   7.922   4.328
13351SOL    HW252530   4.671   7.890   4.357
13352SOL     OW52531   3.984   7.454   5.603
13352SOL    HW152532   3.997   7.374   5.661
13352SOL    HW252533   4.043   7.446   5.522
13353SOL     OW52534   4.290   7.758   6.922
13353SOL    HW152535   4.286   7.665   6.959
13353SOL    HW252536   4.281   7.824   6.997
13354SOL     OW52537   4.151   7.506   7.249
13354SOL    HW152538   4.058   7.472   7.232
13354SOL    HW252539   4.195   7.448   7.317
13355SOL     OW52540   4.091   8.239   3.878
13355SOL    HW152541   4.148   8.317   3.849
13355SOL    HW252542   4.032   8.211   3.803
13356SOL     OW52543   3.339   8.140   1.219
13356SOL    HW152544   3.355   8.043   1.200
13356SOL    HW252545   3.282   8.150   1.301
13357SOL     OW52546   1.142   7.383   3.794
13357SOL    HW152547   1.066   7.322   3.774
13357SOL    HW252548   1.151   7.395   3.893
13358SOL     OW52549   0.411   8.395   1.463
13358SOL    HW152550   0.358   8.311   1.449
13358SOL    HW252551   0.427   8.439   1.374
13359SOL     OW52552   5.498   8.037   4.936
13359SOL    HW152553   5.543   8.097   5.001
13359SOL    HW252554   5.443   7.970   4.985
13360SOL     OW52555   7.339   9.219   3.759
13360SOL    HW152556   7.315   9.304   3.712
13360SOL    HW252557   7.370   9.240   3.851
13361SOL     OW52558   6.544   8.146   2.460
13361SOL    HW152559   6.630   8.137   2.511
13361SOL    HW252560   6.557   8.213   2.387
13362SOL     OW52561   5.846   8.213   0.601
13362SOL    HW152562   5.937   8.218   0.561
13362SOL    HW252563   5.777   8.222   0.530
13363SOL     OW52564   4.330   7.599   6.026
13363SOL    HW152565   4.340   7.595   6.125
13363SOL    HW252566   4.400   7.659   5.988
13364SOL     OW52567   3.757   7.790   2.821
13364SOL    HW152568   3.799   7.836   2.898
13364SOL    HW252569   3.771   7.691   2.829
13365SOL     OW52570   4.461   7.936   0.190
13365SOL    HW152571   4.465   7.897   0.282
13365SOL    HW252572   4.464   8.035   0.195
13366SOL     OW52573   2.005   8.636   7.297
13366SOL    HW152574   1.982   8.589   7.383
13366SOL    HW252575   1.922   8.647   7.242
13367SOL     OW52576   3.004   8.643   1.228
13367SOL    HW152577   3.061   8.722   1.255
13367SOL    HW252578   2.911   8.657   1.261
13368SOL     OW52579   2.397   8.995   1.900
13368SOL    HW152580   2.324   9.064   1.895
13368SOL    HW252581   2.369   8.915   1.848
13369SOL     OW52582   4.768   8.230   3.000
13369SOL    HW152583   4.830   8.284   3.058
13369SOL    HW252584   4.822   8.169   2.942
13370SOL     OW52585   5.987   7.835   0.011
13370SOL    HW152586   5.956   7.925  -0.021
13370SOL    HW252587   5.909   7.780   0.038
13371SOL     OW52588   6.726   8.514   2.659
13371SOL    HW152589   6.762   8.599   2.620
13371SOL    HW252590   6.729   8.442   2.590
13372SOL     OW52591   2.532   8.564   0.165
13372SOL    HW152592   2.466   8.490   0.157
13372SOL    HW252593   2.624   8.528   0.145
13373SOL     OW52594   3.978   8.008   4.228
13373SOL    HW152595   4.014   7.951   4.301
13373SOL    HW252596   3.879   8.016   4.237
13374SOL     OW52597   2.128   8.925   2.105
13374SOL    HW152598   2.156   9.009   2.058
13374SOL    HW252599   2.037   8.938   2.145
13375SOL     OW52600   1.362   7.752   7.225
13375SOL    HW152601   1.366   7.711   7.134
13375SOL    HW252602   1.307   7.694   7.286
13376SOL     OW52603   6.242   8.255   6.266
13376SOL    HW152604   6.312   8.183   6.264
13376SOL    HW252605   6.252   8.309   6.349
13377SOL     OW52606   1.951   8.481   5.920
13377SOL    HW152607   1.963   8.399   5.863
13377SOL    HW252608   1.854   8.493   5.942
13378SOL     OW52609   4.895   8.117   1.275
13378SOL    HW152610   4.819   8.053   1.282
13378SOL    HW252611   4.878   8.196   1.334
13379SOL     OW52612   0.124   8.871   1.592
13379SOL    HW152613   0.178   8.840   1.514
13379SOL    HW252614   0.071   8.794   1.628
13380SOL     OW52615   2.639   8.905   2.028
13380SOL    HW152616   2.639   8.806   2.011
13380SOL    HW252617   2.549   8.943   2.005
13381SOL     OW52618   0.197   8.029   5.407
13381SOL    HW152619   0.162   8.095   5.473
13381SOL    HW252620   0.265   8.073   5.349
13382SOL     OW52621   3.047   9.140   6.166
13382SOL    HW152622   3.021   9.180   6.254
13382SOL    HW252623   2.966   9.107   6.118
13383SOL     OW52624   6.963   7.920   0.901
13383SOL    HW152625   6.992   7.938   0.995
13383SOL    HW252626   6.875   7.964   0.884
13384SOL     OW52627   0.200   8.212   0.608
13384SOL    HW152628   0.262   8.291   0.609
13384SOL    HW252629   0.106   8.244   0.619
13385SOL     OW52630   6.311   7.772   5.086
13385SOL    HW152631   6.268   7.862   5.076
13385SOL    HW252632   6.303   7.743   5.181
13386SOL     OW52633   3.918   8.470   3.200
13386SOL    HW152634   3.838   8.479   3.260
13386SOL    HW252635   3.910   8.388   3.144
13387SOL     OW52636   4.859   8.569   0.722
13387SOL    HW152637   4.854   8.668   0.729
13387SOL    HW252638   4.831   8.540   0.630
13388SOL     OW52639   6.194   9.220   4.283
13388SOL    HW152640   6.095   9.220   4.298
13388SOL    HW252641   6.213   9.255   4.191
13389SOL     OW52642   0.284   7.516   1.636
13389SOL    HW152643   0.280   7.422   1.602
13389SOL    HW252644   0.243   7.578   1.569
13390SOL     OW52645   1.956   8.243   5.775
13390SOL    HW152646   1.990   8.150   5.762
13390SOL    HW252647   1.979   8.299   5.695
13391SOL     OW52648   6.020   7.588   7.242
13391SOL    HW152649   6.112   7.550   7.233
13391SOL    HW252650   6.026   7.677   7.289
13392SOL     OW52651   7.014   8.083   5.697
13392SOL    HW152652   7.087   8.130   5.747
13392SOL    HW252653   7.026   8.097   5.599
13393SOL     OW52654   6.073   7.398   1.971
13393SOL    HW152655   5.997   7.354   2.020
13393SOL    HW252656   6.076   7.495   1.995
13394SOL     OW52657   5.930   8.106   6.675
13394SOL    HW152658   5.948   8.103   6.576
13394SOL    HW252659   5.895   8.196   6.700
13395SOL     OW52660   3.693   7.483   2.339
13395SOL    HW152661   3.620   7.545   2.311
13395SOL    HW252662   3.747   7.526   2.412
13396SOL     OW52663   5.618   8.173   5.147
13396SOL    HW152664   5.557   8.137   5.218
13396SOL    HW252665   5.711   8.178   5.183
13397SOL     OW52666   0.328   8.778   2.845
13397SOL    HW152667   0.254   8.819   2.793
13397SOL    HW252668   0.399   8.745   2.782
13398SOL     OW52669   3.227   7.413   0.613
13398SOL    HW152670   3.191   7.352   0.543
13398SOL    HW252671   3.179   7.398   0.699
13399SOL     OW52672   5.465   7.913   1.016
13399SOL    HW152673   5.529   7.851   0.971
13399SOL    HW252674   5.444   7.989   0.955
13400SOL     OW52675   6.640   7.376   0.595
13400SOL    HW152676   6.570   7.446   0.581
13400SOL    HW252677   6.596   7.288   0.614
13401SOL     OW52678   7.022   7.581   2.183
13401SOL    HW152679   7.031   7.574   2.282
13401SOL    HW252680   6.929   7.557   2.156
13402SOL     OW52681   2.435   8.692   5.684
13402SOL    HW152682   2.371   8.662   5.613
13402SOL    HW252683   2.421   8.638   5.767
13403SOL     OW52684   5.353   8.596   1.543
13403SOL    HW152685   5.406   8.512   1.537
13403SOL    HW252686   5.414   8.675   1.547
13404SOL     OW52687   1.642   8.338   2.441
13404SOL    HW152688   1.729   8.381   2.418
13404SOL    HW252689   1.600   8.302   2.358
13405SOL     OW52690   3.542   8.610   2.927
13405SOL    HW152691   3.578   8.649   3.012
13405SOL    HW252692   3.606   8.630   2.853
13406SOL     OW52693   3.327   8.195   4.446
13406SOL    HW152694   3.412   8.245   4.459
13406SOL    HW252695   3.284   8.178   4.535
13407SOL     OW52696   6.094   7.526   1.109
13407SOL    HW152697   6.066   7.525   1.205
13407SOL    HW252698   6.189   7.495   1.102
13408SOL     OW52699   4.187   7.884   0.183
13408SOL    HW152700   4.132   7.967   0.169
13408SOL    HW252701   4.283   7.909   0.191
13409SOL     OW52702   4.858   8.953   6.805
13409SOL    HW152703   4.866   8.920   6.711
13409SOL    HW252704   4.935   9.014   6.825
13410SOL     OW52705   0.418   7.790   1.176
13410SOL    HW152706   0.499   7.830   1.134
13410SOL    HW252707   0.414   7.816   1.272
13411SOL     OW52708   2.379   8.922   3.273
13411SOL    HW152709   2.416   8.829   3.276
13411SOL    HW252710   2.437   8.982   3.329
13412SOL     OW52711   6.255   8.015   4.313
13412SOL    HW152712   6.169   7.966   4.325
13412SOL    HW252713   6.282   8.058   4.400
13413SOL     OW52714   4.966   8.602   7.082
13413SOL    HW152715   4.962   8.531   7.152
13413SOL    HW252716   5.061   8.629   7.068
13414SOL     OW52717   2.193   8.837   1.584
13414SOL    HW152718   2.232   8.773   1.649
13414SOL    HW252719   2.121   8.791   1.530
13415SOL     OW52720   7.319   7.813   0.902
13415SOL    HW152721   7.324   7.734   0.840
13415SOL    HW252722   7.285   7.892   0.851
13416SOL     OW52723   7.341   7.601   0.732
13416SOL    HW152724   7.422   7.590   0.675
13416SOL    HW252725   7.288   7.516   0.731
13417SOL     OW52726   4.813   8.315   1.453
13417SOL    HW152727   4.748   8.391   1.450
13417SOL    HW252728   4.831   8.291   1.549
13418SOL     OW52729   0.355   7.510   1.899
13418SOL    HW152730   0.332   7.523   1.802
13418SOL    HW252731   0.384   7.416   1.915
13419SOL     OW52732   4.001   8.739   3.079
13419SOL    HW152733   4.096   8.745   3.110
13419SOL    HW252734   3.956   8.664   3.126
13420SOL     OW52735   2.626   7.517   3.696
13420SOL    HW152736   2.593   7.423   3.691
13420SOL    HW252737   2.725   7.517   3.714
13421SOL     OW52738   2.933   8.957   0.459
13421SOL    HW152739   3.022   8.987   0.493
13421SOL    HW252740   2.867   8.958   0.534
13422SOL     OW52741   5.135   8.216   4.968
13422SOL    HW152742   5.173   8.184   5.055
13422SOL    HW252743   5.035   8.220   4.975
13423SOL     OW52744   1.382   7.980   2.681
13423SOL    HW152745   1.328   7.924   2.619
13423SOL    HW252746   1.396   7.932   2.767
13424SOL     OW52747   2.076   7.989   5.762
13424SOL    HW152748   2.156   8.027   5.716
13424SOL    HW252749   2.098   7.971   5.858
13425SOL     OW52750   6.213   7.465   0.757
13425SOL    HW152751   6.201   7.448   0.659
13425SOL    HW252752   6.129   7.440   0.805
13426SOL     OW52753   0.949   8.668   6.497
13426SOL    HW152754   0.975   8.756   6.456
13426SOL    HW252755   0.926   8.682   6.594
13427SOL     OW52756   5.767   8.885   5.162
13427SOL    HW152757   5.732   8.807   5.214
13427SOL    HW252758   5.705   8.906   5.087
13428SOL     OW52759   5.068   8.608   4.398
13428SOL    HW152760   5.163   8.635   4.382
13428SOL    HW252761   5.055   8.587   4.495
13429SOL     OW52762   5.187   8.244   5.264
13429SOL    HW152763   5.283   8.214   5.269
13429SOL    HW252764   5.184   8.342   5.245
13430SOL     OW52765   6.013   8.163   7.336
13430SOL    HW152766   6.078   8.149   7.261
13430SOL    HW252767   5.922   8.182   7.298
13431SOL     OW52768   1.947   7.484   1.940
13431SOL    HW152769   1.864   7.458   1.891
13431SOL    HW252770   2.025   7.434   1.903
13432SOL     OW52771   2.633   8.505   4.858
13432SOL    HW152772   2.654   8.565   4.780
13432SOL    HW252773   2.615   8.413   4.825
13433SOL     OW52774   5.618   7.559   6.797
13433SOL    HW152775   5.611   7.622   6.719
13433SOL    HW252776   5.616   7.465   6.765
13434SOL     OW52777   6.505   8.056   5.038
13434SOL    HW152778   6.544   7.964   5.033
13434SOL    HW252779   6.573   8.122   5.006
13435SOL     OW52780   6.453   7.841   1.489
13435SOL    HW152781   6.399   7.905   1.544
13435SOL    HW252782   6.395   7.800   1.419
13436SOL     OW52783   2.453   8.002   1.940
13436SOL    HW152784   2.507   7.922   1.965
13436SOL    HW252785   2.368   8.002   1.994
13437SOL     OW52786   4.998   8.301   0.179
13437SOL    HW152787   4.983   8.202   0.173
13437SOL    HW252788   4.911   8.349   0.162
13438SOL     OW52789   3.618   8.150   1.165
13438SOL    HW152790   3.524   8.165   1.195
13438SOL    HW252791   3.618   8.119   1.070
13439SOL     OW52792   1.103   8.008   3.773
13439SOL    HW152793   1.015   8.032   3.732
13439SOL    HW252794   1.091   7.991   3.871
13440SOL     OW52795   2.082   7.994   0.655
13440SOL    HW152796   2.043   7.909   0.619
13440SOL    HW252797   2.139   7.974   0.734
13441SOL     OW52798   5.864   7.938   3.893
13441SOL    HW152799   5.833   8.033   3.890
13441SOL    HW252800   5.808   7.883   3.831
13442SOL     OW52801   5.561   8.880   7.355
13442SOL    HW152802   5.605   8.969   7.365
13442SOL    HW252803   5.508   8.860   7.437
13443SOL     OW52804   5.684   8.721   3.531
13443SOL    HW152805   5.782   8.719   3.549
13443SOL    HW252806   5.652   8.629   3.509
13444SOL     OW52807   5.397   8.285   0.347
13444SOL    HW152808   5.368   8.312   0.256
13444SOL    HW252809   5.387   8.362   0.410
13445SOL     OW52810   3.871   7.406   6.273
13445SOL    HW152811   3.832   7.459   6.197
13445SOL    HW252812   3.879   7.310   6.245
13446SOL     OW52813   3.659   8.773   3.411
13446SOL    HW152814   3.586   8.706   3.424
13446SOL    HW252815   3.679   8.782   3.314
13447SOL     OW52816   1.517   8.466   7.166
13447SOL    HW152817   1.561   8.416   7.241
13447SOL    HW252818   1.470   8.546   7.202
13448SOL     OW52819   0.791   8.790   2.727
13448SOL    HW152820   0.833   8.814   2.815
13448SOL    HW252821   0.771   8.873   2.675
13449SOL     OW52822   5.292   7.905   6.141
13449SOL    HW152823   5.380   7.862   6.158
13449SOL    HW252824   5.306   7.992   6.093
13450SOL     OW52825   4.212   8.669   6.676
13450SOL    HW152826   4.242   8.663   6.580
13450SOL    HW252827   4.259   8.746   6.720
13451SOL     OW52828   2.145   8.066   6.445
13451SOL    HW152829   2.129   8.090   6.541
13451SOL    HW252830   2.229   8.110   6.412
13452SOL     OW52831   5.288   8.307   6.318
13452SOL    HW152832   5.203   8.301   6.265
13452SOL    HW252833   5.352   8.238   6.284
13453SOL     OW52834   4.825   8.594   2.033
13453SOL    HW152835   4.790   8.685   2.057
13453SOL    HW252836   4.757   8.525   2.055
13454SOL     OW52837   2.590   8.597   1.697
13454SOL    HW152838   2.674   8.574   1.649
13454SOL    HW252839   2.530   8.518   1.702
13455SOL     OW52840   1.014   7.767   6.926
13455SOL    HW152841   1.099   7.818   6.929
13455SOL    HW252842   1.028   7.680   6.878
13456SOL     OW52843   6.480   7.462   6.471
13456SOL    HW152844   6.564   7.492   6.425
13456SOL    HW252845   6.443   7.382   6.425
13457SOL     OW52846   3.939   7.749   5.648
13457SOL    HW152847   3.975   7.656   5.653
13457SOL    HW252848   3.941   7.781   5.554
13458SOL     OW52849   5.784   7.476   7.036
13458SOL    HW152850   5.723   7.463   6.957
13458SOL    HW252851   5.809   7.572   7.043
13459SOL     OW52852   4.445   8.056   5.389
13459SOL    HW152853   4.529   8.003   5.376
13459SOL    HW252854   4.403   8.074   5.300
13460SOL     OW52855   4.829   8.206   1.728
13460SOL    HW152856   4.926   8.191   1.708
13460SOL    HW252857   4.820   8.255   1.814
13461SOL     OW52858   2.945   8.695   0.389
13461SOL    HW152859   2.953   8.795   0.393
13461SOL    HW252860   2.906   8.669   0.300
13462SOL     OW52861   1.328   8.171   5.599
13462SOL    HW152862   1.396   8.176   5.672
13462SOL    HW252863   1.345   8.091   5.541
13463SOL     OW52864   3.873   7.511   0.092
13463SOL    HW152865   3.867   7.500  -0.007
13463SOL    HW252866   3.843   7.426   0.137
13464SOL     OW52867   0.030   8.269   6.163
13464SOL    HW152868  -0.060   8.233   6.189
13464SOL    HW252869   0.034   8.280   6.064
13465SOL     OW52870   4.807   8.514   5.972
13465SOL    HW152871   4.784   8.448   5.900
13465SOL    HW252872   4.906   8.514   5.987
13466SOL     OW52873   6.126   7.811   6.898
13466SOL    HW152874   6.134   7.836   6.995
13466SOL    HW252875   6.164   7.883   6.841
13467SOL     OW52876   5.582   7.567   7.263
13467SOL    HW152877   5.608   7.650   7.213
13467SOL    HW252878   5.654   7.498   7.252
13468SOL     OW52879   5.881   7.495   3.619
13468SOL    HW152880   5.923   7.562   3.680
13468SOL    HW252881   5.876   7.532   3.527
13469SOL     OW52882   5.652   7.626   3.174
13469SOL    HW152883   5.585   7.555   3.194
13469SOL    HW252884   5.608   7.699   3.122
13470SOL     OW52885   1.590   8.864   1.265
13470SOL    HW152886   1.594   8.830   1.359
13470SOL    HW252887   1.507   8.830   1.221
13471SOL     OW52888   5.673   8.259   4.770
13471SOL    HW152889   5.630   8.190   4.829
13471SOL    HW252890   5.638   8.250   4.677
13472SOL     OW52891   4.404   8.214   7.102
13472SOL    HW152892   4.355   8.295   7.068
13472SOL    HW252893   4.500   8.220   7.076
13473SOL     OW52894   3.322   8.192   1.833
13473SOL    HW152895   3.272   8.107   1.850
13473SOL    HW252896   3.303   8.225   1.741
13474SOL     OW52897   2.187   8.586   0.525
13474SOL    HW152898   2.277   8.595   0.483
13474SOL    HW252899   2.130   8.525   0.470
13475SOL     OW52900   4.803   7.474   6.349
13475SOL    HW152901   4.854   7.419   6.415
13475SOL    HW252902   4.757   7.550   6.396
13476SOL     OW52903   6.477   8.032   2.106
13476SOL    HW152904   6.482   7.952   2.046
13476SOL    HW252905   6.570   8.058   2.134
13477SOL     OW52906   4.353   8.664   3.628
13477SOL    HW152907   4.422   8.697   3.691
13477SOL    HW252908   4.319   8.740   3.572
13478SOL     OW52909   5.909   7.882   2.637
13478SOL    HW152910   6.000   7.870   2.596
13478SOL    HW252911   5.839   7.858   2.571
13479SOL     OW52912   3.264   8.318   2.608
13479SOL    HW152913   3.261   8.260   2.689
13479SOL    HW252914   3.293   8.264   2.529
13480SOL     OW52915   6.360   8.250   6.520
13480SOL    HW152916   6.459   8.256   6.508
13480SOL    HW252917   6.330   8.156   6.501
13481SOL     OW52918   3.501   8.649   2.549
13481SOL    HW152919   3.492   8.558   2.508
13481SOL    HW252920   3.569   8.701   2.497
13482SOL     OW52921   6.381   8.801   6.162
13482SOL    HW152922   6.312   8.733   6.139
13482SOL    HW252923   6.441   8.816   6.083
13483SOL     OW52924   0.499   8.705   2.618
13483SOL    HW152925   0.458   8.639   2.554
13483SOL    HW252926   0.535   8.783   2.567
13484SOL     OW52927   2.347   8.710   1.795
13484SOL    HW152928   2.359   8.672   1.887
13484SOL    HW252929   2.433   8.704   1.745
13485SOL     OW52930   1.616   7.975   5.880
13485SOL    HW152931   1.657   8.021   5.958
13485SOL    HW252932   1.687   7.935   5.823
13486SOL     OW52933   4.551   8.150   3.393
13486SOL    HW152934   4.482   8.180   3.459
13486SOL    HW252935   4.553   8.050   3.388
13487SOL     OW52936   5.053   7.469   1.605
13487SOL    HW152937   5.043   7.373   1.578
13487SOL    HW252938   5.117   7.474   1.682
13488SOL     OW52939   1.187   8.725   1.587
13488SOL    HW152940   1.091   8.753   1.583
13488SOL    HW252941   1.243   8.803   1.613
13489SOL     OW52942   2.651   8.478   1.264
13489SOL    HW152943   2.609   8.502   1.176
13489SOL    HW252944   2.617   8.389   1.294
13490SOL     OW52945   5.620   8.675   4.070
13490SOL    HW152946   5.598   8.704   3.977
13490SOL    HW252947   5.541   8.629   4.110
13491SOL     OW52948   4.629   8.620   6.620
13491SOL    HW152949   4.598   8.554   6.688
13491SOL    HW252950   4.648   8.707   6.664
13492SOL     OW52951   5.724   8.481   2.964
13492SOL    HW152952   5.636   8.457   2.921
13492SOL    HW252953   5.776   8.540   2.902
13493SOL     OW52954   0.915   8.252   6.875
13493SOL    HW152955   0.913   8.155   6.852
13493SOL    HW252956   0.874   8.305   6.801
13494SOL     OW52957   5.295   8.228   2.966
13494SOL    HW152958   5.217   8.290   2.952
13494SOL    HW252959   5.335   8.245   3.056
13495SOL     OW52960   3.870   8.090   6.304
13495SOL    HW152961   3.799   8.053   6.245
13495SOL    HW252962   3.894   8.023   6.374
13496SOL     OW52963   6.713   7.924   0.629
13496SOL    HW152964   6.807   7.951   0.648
13496SOL    HW252965   6.665   7.904   0.714
13497SOL     OW52966   6.531   8.590   6.774
13497SOL    HW152967   6.551   8.643   6.692
13497SOL    HW252968   6.445   8.542   6.763
13498SOL     OW52969   3.674   7.394   4.356
13498SOL    HW152970   3.674   7.432   4.448
13498SOL    HW252971   3.584   7.408   4.314
13499SOL     OW52972   2.173   8.470   6.501
13499SOL    HW152973   2.117   8.415   6.439
13499SOL    HW252974   2.222   8.409   6.564
13500SOL     OW52975   1.848   7.863   5.324
13500SOL    HW152976   1.867   7.772   5.359
13500SOL    HW252977   1.919   7.927   5.355
13501SOL     OW52978   4.962   8.260   1.976
13501SOL    HW152979   4.969   8.283   2.073
13501SOL    HW252980   5.016   8.178   1.957
13502SOL     OW52981   0.010   7.727   7.176
13502SOL    HW152982  -0.005   7.822   7.146
13502SOL    HW252983  -0.045   7.666   7.120
13503SOL     OW52984   3.243   7.737   3.296
13503SOL    HW152985   3.184   7.690   3.361
13503SOL    HW252986   3.223   7.704   3.203
13504SOL     OW52987   4.723   8.054   0.341
13504SOL    HW152988   4.749   8.054   0.245
13504SOL    HW252989   4.653   8.124   0.357
13505SOL     OW52990   1.574   7.420   6.682
13505SOL    HW152991   1.642   7.489   6.709
13505SOL    HW252992   1.603   7.377   6.596
13506SOL     OW52993   4.133   8.442   7.272
13506SOL    HW152994   4.205   8.399   7.326
13506SOL    HW252995   4.069   8.372   7.239
13507SOL     OW52996   0.511   7.892   2.122
13507SOL    HW152997   0.567   7.946   2.059
13507SOL    HW252998   0.425   7.867   2.077
13508SOL     OW52999   1.550   9.002   1.551
13508SOL    HW153000   1.541   8.918   1.605
13508SOL    HW253001   1.509   8.989   1.461
13509SOL     OW53002   6.695   9.045   5.998
13509SOL    HW153003   6.752   9.115   5.955
13509SOL    HW253004   6.664   9.078   6.087
13510SOL     OW53005   5.590   7.929   1.471
13510SOL    HW153006   5.543   7.970   1.393
13510SOL    HW253007   5.664   7.870   1.439
13511SOL     OW53008   0.293   8.678   0.358
13511SOL    HW153009   0.393   8.689   0.359
13511SOL    HW253010   0.271   8.582   0.343
13512SOL     OW53011   5.591   8.574   0.846
13512SOL    HW153012   5.649   8.509   0.894
13512SOL    HW253013   5.515   8.526   0.803
13513SOL     OW53014   6.268   7.756   1.320
13513SOL    HW153015   6.351   7.711   1.287
13513SOL    HW253016   6.211   7.782   1.242
13514SOL     OW53017   6.218   7.736   0.832
13514SOL    HW153018   6.202   7.638   0.846
13514SOL    HW253019   6.316   7.756   0.841
13515SOL     OW53020   3.231   7.874   3.581
13515SOL    HW153021   3.210   7.778   3.561
13515SOL    HW253022   3.288   7.878   3.663
13516SOL     OW53023   2.899   7.606   3.750
13516SOL    HW153024   2.938   7.587   3.840
13516SOL    HW253025   2.940   7.689   3.712
13517SOL     OW53026   5.024   7.483   0.353
13517SOL    HW153027   5.027   7.580   0.332
13517SOL    HW253028   5.010   7.470   0.451
13518SOL     OW53029   1.656   8.490   6.859
13518SOL    HW153030   1.741   8.438   6.855
13518SOL    HW253031   1.581   8.431   6.887
13519SOL     OW53032   5.240   7.604   7.337
13519SOL    HW153033   5.316   7.554   7.296
13519SOL    HW253034   5.154   7.566   7.304
13520SOL     OW53035   3.990   7.944   1.922
13520SOL    HW153036   4.024   8.014   1.985
13520SOL    HW253037   4.039   7.953   1.834
13521SOL     OW53038   7.100   9.271   3.436
13521SOL    HW153039   7.159   9.202   3.393
13521SOL    HW253040   7.005   9.239   3.435
13522SOL     OW53041   4.758   7.840   5.808
13522SOL    HW153042   4.853   7.840   5.838
13522SOL    HW253043   4.745   7.770   5.738
13523SOL     OW53044   2.771   8.730   1.306
13523SOL    HW153045   2.723   8.648   1.274
13523SOL    HW253046   2.726   8.765   1.388
13524SOL     OW53047   1.484   8.357   3.744
13524SOL    HW153048   1.499   8.278   3.684
13524SOL    HW253049   1.513   8.441   3.697
13525SOL     OW53050   6.513   8.554   5.960
13525SOL    HW153051   6.516   8.654   5.956
13525SOL    HW253052   6.550   8.516   5.876
13526SOL     OW53053   1.774   8.370   3.578
13526SOL    HW153054   1.711   8.446   3.559
13526SOL    HW253055   1.723   8.284   3.576
13527SOL     OW53056   4.101   7.379   5.342
13527SOL    HW153057   4.180   7.432   5.373
13527SOL    HW253058   4.101   7.289   5.386
13528SOL     OW53059   3.819   7.464   6.566
13528SOL    HW153060   3.804   7.561   6.588
13528SOL    HW253061   3.807   7.450   6.468
13529SOL     OW53062   2.082   7.819   1.222
13529SOL    HW153063   2.011   7.758   1.187
13529SOL    HW253064   2.062   7.913   1.194
13530SOL     OW53065   1.087   8.157   5.750
13530SOL    HW153066   1.161   8.170   5.684
13530SOL    HW253067   1.005   8.125   5.702
13531SOL     OW53068   5.621   7.783   4.679
13531SOL    HW153069   5.644   7.876   4.708
13531SOL    HW253070   5.690   7.719   4.713
13532SOL     OW53071   6.235   8.241   1.300
13532SOL    HW153072   6.292   8.267   1.379
13532SOL    HW253073   6.169   8.171   1.329
13533SOL     OW53074   4.722   8.847   0.055
13533SOL    HW153075   4.693   8.903  -0.023
13533SOL    HW253076   4.732   8.904   0.136
13534SOL     OW53077   0.264   7.444   2.302
13534SOL    HW153078   0.317   7.529   2.307
13534SOL    HW253079   0.233   7.419   2.394
13535SOL     OW53080   3.845   8.358   6.746
13535SOL    HW153081   3.793   8.304   6.680
13535SOL    HW253082   3.943   8.350   6.725
13536SOL     OW53083   5.036   8.749   5.862
13536SOL    HW153084   5.002   8.786   5.775
13536SOL    HW253085   4.984   8.787   5.938
13537SOL     OW53086   1.864   7.483   0.805
13537SOL    HW153087   1.831   7.578   0.809
13537SOL    HW253088   1.816   7.429   0.874
13538SOL     OW53089   4.615   7.572   1.236
13538SOL    HW153090   4.585   7.577   1.141
13538SOL    HW253091   4.566   7.499   1.283
13539SOL     OW53092   6.993   7.469   4.961
13539SOL    HW153093   7.080   7.468   5.010
13539SOL    HW253094   6.938   7.547   4.992
13540SOL     OW53095   3.381   8.690   6.083
13540SOL    HW153096   3.311   8.760   6.096
13540SOL    HW253097   3.457   8.729   6.031
13541SOL     OW53098   4.170   8.677   1.870
13541SOL    HW153099   4.105   8.625   1.814
13541SOL    HW253100   4.237   8.722   1.811
13542SOL     OW53101   7.248   7.760   2.936
13542SOL    HW153102   7.213   7.667   2.944
13542SOL    HW253103   7.348   7.758   2.927
13543SOL     OW53104   4.995   9.000   6.262
13543SOL    HW153105   5.048   9.083   6.245
13543SOL    HW253106   5.058   8.922   6.268
13544SOL     OW53107   3.752   8.204   1.951
13544SOL    HW153108   3.725   8.229   1.858
13544SOL    HW253109   3.713   8.271   2.015
13545SOL     OW53110   4.726   8.534   1.679
13545SOL    HW153111   4.728   8.620   1.629
13545SOL    HW253112   4.817   8.515   1.717
13546SOL     OW53113   1.908   8.448   2.335
13546SOL    HW153114   1.967   8.432   2.414
13546SOL    HW253115   1.963   8.446   2.252
13547SOL     OW53116   6.145   7.713   3.519
13547SOL    HW153117   6.197   7.628   3.526
13547SOL    HW253118   6.077   7.717   3.592
13548SOL     OW53119   3.436   8.953   7.291
13548SOL    HW153120   3.484   8.931   7.206
13548SOL    HW253121   3.392   9.042   7.281
13549SOL     OW53122   1.003   7.415   2.609
13549SOL    HW153123   0.970   7.510   2.612
13549SOL    HW253124   0.944   7.362   2.548
13550SOL     OW53125   1.633   8.282   6.406
13550SOL    HW153126   1.575   8.354   6.368
13550SOL    HW253127   1.656   8.216   6.335
13551SOL     OW53128   6.110   8.339   1.044
13551SOL    HW153129   6.060   8.262   1.004
13551SOL    HW253130   6.152   8.310   1.130
13552SOL     OW53131   6.180   8.617   2.369
13552SOL    HW153132   6.121   8.659   2.300
13552SOL    HW253133   6.163   8.519   2.372
13553SOL     OW53134   1.869   8.792   0.471
13553SOL    HW153135   1.773   8.803   0.496
13553SOL    HW253136   1.927   8.809   0.551
13554SOL     OW53137   6.176   7.510   2.286
13554SOL    HW153138   6.230   7.426   2.289
13554SOL    HW253139   6.204   7.565   2.207
13555SOL     OW53140   6.835   7.887   5.764
13555SOL    HW153141   6.908   7.945   5.728
13555SOL    HW253142   6.875   7.814   5.820
13556SOL     OW53143   7.034   8.147   1.687
13556SOL    HW153144   6.942   8.111   1.700
13556SOL    HW253145   7.028   8.244   1.662
13557SOL     OW53146   5.629   7.559   5.564
13557SOL    HW153147   5.538   7.550   5.522
13557SOL    HW253148   5.699   7.538   5.495
13558SOL     OW53149   1.444   8.322   6.962
13558SOL    HW153150   1.351   8.333   6.926
13558SOL    HW253151   1.453   8.374   7.047
13559SOL     OW53152   4.161   8.221   3.217
13559SOL    HW153153   4.241   8.163   3.205
13559SOL    HW253154   4.180   8.293   3.284
13560SOL     OW53155   5.534   9.219   1.046
13560SOL    HW153156   5.533   9.189   0.950
13560SOL    HW253157   5.468   9.165   1.098
13561SOL     OW53158   7.313   7.695   5.820
13561SOL    HW153159   7.397   7.750   5.819
13561SOL    HW253160   7.246   7.735   5.758
13562SOL     OW53161   2.592   8.683   3.614
13562SOL    HW153162   2.563   8.778   3.625
13562SOL    HW253163   2.619   8.646   3.703
13563SOL     OW53164   5.111   7.739   3.043
13563SOL    HW153165   5.106   7.662   2.978
13563SOL    HW253166   5.197   7.789   3.028
13564SOL     OW53167   6.658   8.073   6.948
13564SOL    HW153168   6.713   8.150   6.980
13564SOL    HW253169   6.692   7.988   6.989
13565SOL     OW53170   1.843   8.204   0.033
13565SOL    HW153171   1.902   8.144  -0.021
13565SOL    HW253172   1.760   8.225  -0.020
13566SOL     OW53173   6.316   8.597   1.936
13566SOL    HW153174   6.390   8.657   1.906
13566SOL    HW253175   6.318   8.590   2.036
13567SOL     OW53176   6.726   8.372   2.425
13567SOL    HW153177   6.709   8.398   2.330
13567SOL    HW253178   6.780   8.288   2.428
13568SOL     OW53179   3.383   8.520   0.697
13568SOL    HW153180   3.390   8.521   0.796
13568SOL    HW253181   3.330   8.599   0.666
13569SOL     OW53182   0.300   7.472   6.063
13569SOL    HW153183   0.248   7.388   6.048
13569SOL    HW253184   0.254   7.528   6.131
13570SOL     OW53185   5.860   9.246   4.409
13570SOL    HW153186   5.879   9.268   4.504
13570SOL    HW253187   5.841   9.148   4.400
13571SOL     OW53188   1.213   7.396   2.321
13571SOL    HW153189   1.307   7.430   2.319
13571SOL    HW253190   1.206   7.319   2.383
13572SOL     OW53191   4.834   8.368   5.754
13572SOL    HW153192   4.811   8.421   5.672
13572SOL    HW253193   4.786   8.280   5.751
13573SOL     OW53194   4.717   7.402   4.370
13573SOL    HW153195   4.801   7.348   4.364
13573SOL    HW253196   4.724   7.481   4.309
13574SOL     OW53197   2.637   8.461   3.498
13574SOL    HW153198   2.624   8.543   3.554
13574SOL    HW253199   2.602   8.382   3.548
13575SOL     OW53200   1.335   8.962   3.093
13575SOL    HW153201   1.265   8.890   3.098
13575SOL    HW253202   1.367   8.971   2.999
13576SOL     OW53203   5.500   7.577   5.795
13576SOL    HW153204   5.552   7.567   5.710
13576SOL    HW253205   5.486   7.486   5.836
13577SOL     OW53206   3.478   7.619   1.213
13577SOL    HW153207   3.397   7.560   1.206
13577SOL    HW253208   3.523   7.603   1.301
13578SOL     OW53209   0.092   8.749   1.062
13578SOL    HW153210   0.017   8.815   1.052
13578SOL    HW253211   0.166   8.773   1.000
13579SOL     OW53212   0.156   8.531   1.610
13579SOL    HW153213   0.156   8.453   1.548
13579SOL    HW253214   0.224   8.597   1.581
13580SOL     OW53215   4.144   8.745   5.610
13580SOL    HW153216   4.176   8.808   5.681
13580SOL    HW253217   4.182   8.772   5.522
13581SOL     OW53218   1.700   8.232   7.135
13581SOL    HW153219   1.715   8.133   7.139
13581SOL    HW253220   1.605   8.250   7.109
13582SOL     OW53221   2.447   7.481   1.521
13582SOL    HW153222   2.429   7.573   1.486
13582SOL    HW253223   2.475   7.487   1.617
13583SOL     OW53224   5.071   7.387   2.858
13583SOL    HW153225   5.044   7.433   2.774
13583SOL    HW253226   5.165   7.415   2.882
13584SOL     OW53227   5.667   7.761   0.782
13584SOL    HW153228   5.680   7.664   0.802
13584SOL    HW253229   5.642   7.773   0.686
13585SOL     OW53230   3.458   8.924   1.840
13585SOL    HW153231   3.418   8.934   1.931
13585SOL    HW253232   3.533   8.857   1.843
13586SOL     OW53233   0.403   8.552   2.415
13586SOL    HW153234   0.329   8.604   2.373
13586SOL    HW253235   0.453   8.503   2.343
13587SOL     OW53236   4.390   8.350   5.447
13587SOL    HW153237   4.438   8.263   5.437
13587SOL    HW253238   4.379   8.371   5.545
13588SOL     OW53239   5.008   9.077   3.731
13588SOL    HW153240   5.095   9.036   3.760
13588SOL    HW253241   5.026   9.162   3.682
13589SOL     OW53242   4.826   7.404   3.008
13589SOL    HW153243   4.804   7.316   3.049
13589SOL    HW253244   4.920   7.402   2.973
13590SOL     OW53245   6.655   7.557   5.727
13590SOL    HW153246   6.688   7.638   5.679
13590SOL    HW253247   6.558   7.543   5.705
13591SOL     OW53248   5.109   8.522   5.190
13591SOL    HW153249   5.144   8.535   5.097
13591SOL    HW253250   5.018   8.482   5.186
13592SOL     OW53251   4.196   8.808   4.658
13592SOL    HW153252   4.234   8.900   4.658
13592SOL    HW253253   4.106   8.810   4.614
13593SOL     OW53254   2.672   8.651   1.969
13593SOL    HW153255   2.645   8.580   2.035
13593SOL    HW253256   2.666   8.614   1.876
13594SOL     OW53257   1.331   7.663   6.078
13594SOL    HW153258   1.273   7.731   6.034
13594SOL    HW253259   1.308   7.572   6.042
13595SOL     OW53260   1.494   8.417   3.262
13595SOL    HW153261   1.585   8.399   3.225
13595SOL    HW253262   1.430   8.348   3.227
13596SOL     OW53263   0.923   8.286   4.054
13596SOL    HW153264   0.839   8.339   4.067
13596SOL    HW253265   0.982   8.333   3.989
13597SOL     OW53266   3.700   7.455   4.614
13597SOL    HW153267   3.692   7.410   4.703
13597SOL    HW253268   3.731   7.549   4.626
13598SOL     OW53269   0.707   7.789   2.349
13598SOL    HW153270   0.658   7.824   2.269
13598SOL    HW253271   0.677   7.838   2.431
13599SOL     OW53272   0.998   8.269   2.552
13599SOL    HW153273   1.079   8.218   2.524
13599SOL    HW253274   1.024   8.341   2.617
13600SOL     OW53275   0.708   8.738   1.113
13600SOL    HW153276   0.728   8.643   1.136
13600SOL    HW253277   0.762   8.799   1.172
13601SOL     OW53278   5.586   9.177   3.546
13601SOL    HW153279   5.530   9.096   3.526
13601SOL    HW253280   5.656   9.152   3.612
13602SOL     OW53281   5.441   7.700   4.159
13602SOL    HW153282   5.341   7.711   4.158
13602SOL    HW253283   5.477   7.738   4.244
13603SOL     OW53284   4.332   7.459   0.996
13603SOL    HW153285   4.377   7.385   1.046
13603SOL    HW253286   4.250   7.424   0.951
13604SOL     OW53287   4.325   7.534   7.049
13604SOL    HW153288   4.271   7.498   7.125
13604SOL    HW253289   4.394   7.467   7.022
13605SOL     OW53290   6.810   7.431   7.264
13605SOL    HW153291   6.831   7.475   7.177
13605SOL    HW253292   6.894   7.394   7.304
13606SOL     OW53293   2.024   8.289   3.537
13606SOL    HW153294   1.931   8.319   3.561
13606SOL    HW253295   2.064   8.353   3.472
13607SOL     OW53296   5.194   7.552   1.870
13607SOL    HW153297   5.294   7.562   1.876
13607SOL    HW253298   5.152   7.642   1.859
13608SOL     OW53299   5.915   7.890   0.832
13608SOL    HW153300   5.976   7.822   0.871
13608SOL    HW253301   5.842   7.844   0.781
13609SOL     OW53302   2.183   8.405   0.327
13609SOL    HW153303   2.243   8.400   0.247
13609SOL    HW253304   2.188   8.319   0.378
13610SOL     OW53305   4.726   8.563   3.131
13610SOL    HW153306   4.806   8.504   3.135
13610SOL    HW253307   4.654   8.520   3.077
13611SOL     OW53308   4.183   8.086   6.491
13611SOL    HW153309   4.161   8.145   6.569
13611SOL    HW253310   4.153   7.993   6.511
13612SOL     OW53311   3.315   7.788   0.759
13612SOL    HW153312   3.376   7.843   0.702
13612SOL    HW253313   3.245   7.846   0.800
13613SOL     OW53314   3.018   7.595   2.206
13613SOL    HW153315   3.099   7.536   2.200
13613SOL    HW253316   3.010   7.650   2.123
13614SOL     OW53317   3.315   8.358   2.246
13614SOL    HW153318   3.298   8.270   2.290
13614SOL    HW253319   3.393   8.403   2.289
13615SOL     OW53320   4.760   7.658   5.102
13615SOL    HW153321   4.780   7.705   5.016
13615SOL    HW253322   4.756   7.559   5.086
13616SOL     OW53323   5.910   8.270   2.209
13616SOL    HW153324   5.922   8.171   2.217
13616SOL    HW253325   5.891   8.293   2.114
13617SOL     OW53326   4.790   8.422   5.492
13617SOL    HW153327   4.838   8.507   5.468
13617SOL    HW253328   4.847   8.344   5.468
13618SOL     OW53329   2.965   8.601   0.795
13618SOL    HW153330   3.021   8.641   0.867
13618SOL    HW253331   2.925   8.515   0.828
13619SOL     OW53332   1.581   8.169   2.662
13619SOL    HW153333   1.605   8.220   2.580
13619SOL    HW253334   1.508   8.104   2.641
13620SOL     OW53335   2.841   7.526   7.018
13620SOL    HW153336   2.870   7.536   7.114
13620SOL    HW253337   2.827   7.617   6.979
13621SOL     OW53338   0.476   8.374   3.324
13621SOL    HW153339   0.454   8.400   3.230
13621SOL    HW253340   0.573   8.353   3.331
13622SOL     OW53341   3.491   8.667   6.650
13622SOL    HW153342   3.440   8.726   6.587
13622SOL    HW253343   3.453   8.575   6.648
13623SOL     OW53344   3.787   8.734   0.941
13623SOL    HW153345   3.770   8.797   0.865
13623SOL    HW253346   3.758   8.775   1.027
13624SOL     OW53347   1.750   8.623   2.978
13624SOL    HW153348   1.842   8.663   2.984
13624SOL    HW253349   1.742   8.549   3.045
13625SOL     OW53350   5.514   8.895   2.829
13625SOL    HW153351   5.592   8.846   2.789
13625SOL    HW253352   5.525   8.993   2.814
13626SOL     OW53353   4.834   7.893   6.218
13626SOL    HW153354   4.825   7.798   6.189
13626SOL    HW253355   4.920   7.904   6.269
13627SOL     OW53356   6.692   8.433   3.141
13627SOL    HW153357   6.778   8.452   3.187
13627SOL    HW253358   6.693   8.339   3.106
13628SOL     OW53359   0.096   7.671   0.080
13628SOL    HW153360   0.020   7.616   0.113
13628SOL    HW253361   0.081   7.695  -0.016
13629SOL     OW53362   0.823   8.112   0.778
13629SOL    HW153363   0.819   8.013   0.773
13629SOL    HW253364   0.733   8.148   0.801
13630SOL     OW53365   4.120   7.483   5.924
13630SOL    HW153366   4.201   7.538   5.942
13630SOL    HW253367   4.040   7.542   5.915
13631SOL     OW53368   3.622   7.644   1.734
13631SOL    HW153369   3.684   7.700   1.788
13631SOL    HW253370   3.668   7.560   1.707
13632SOL     OW53371   1.222   7.402   3.364
13632SOL    HW153372   1.309   7.355   3.379
13632SOL    HW253373   1.205   7.465   3.440
13633SOL     OW53374   2.974   7.609   1.681
13633SOL    HW153375   2.989   7.523   1.631
13633SOL    HW253376   2.952   7.588   1.776
13634SOL     OW53377   1.566   7.410   7.096
13634SOL    HW153378   1.553   7.368   7.186
13634SOL    HW253379   1.625   7.351   7.040
13635SOL     OW53380   5.745   8.274   3.156
13635SOL    HW153381   5.741   8.186   3.108
13635SOL    HW253382   5.743   8.348   3.089
13636SOL     OW53383   2.787   7.405   4.234
13636SOL    HW153384   2.847   7.473   4.191
13636SOL    HW253385   2.769   7.331   4.168
13637SOL     OW53386   6.978   8.142   5.149
13637SOL    HW153387   6.999   8.060   5.095
13637SOL    HW253388   6.999   8.224   5.096
13638SOL     OW53389   5.390   8.321   3.863
13638SOL    HW153390   5.399   8.348   3.959
13638SOL    HW253391   5.361   8.226   3.858
13639SOL     OW53392   6.323   8.439   2.718
13639SOL    HW153393   6.364   8.478   2.635
13639SOL    HW253394   6.335   8.502   2.794
13640SOL     OW53395   1.764   8.239   0.365
13640SOL    HW153396   1.840   8.287   0.322
13640SOL    HW253397   1.759   8.146   0.329
13641SOL     OW53398   3.467   7.817   1.603
13641SOL    HW153399   3.530   7.874   1.549
13641SOL    HW253400   3.519   7.747   1.651
13642SOL     OW53401   2.225   7.968   0.878
13642SOL    HW153402   2.248   7.901   0.948
13642SOL    HW253403   2.287   8.046   0.885
13643SOL     OW53404   3.227   7.530   7.027
13643SOL    HW153405   3.205   7.577   7.112
13643SOL    HW253406   3.260   7.596   6.959
13644SOL     OW53407   3.663   7.489   4.978
13644SOL    HW153408   3.677   7.585   5.003
13644SOL    HW253409   3.580   7.455   5.022
13645SOL     OW53410   5.168   8.778   6.246
13645SOL    HW153411   5.256   8.779   6.198
13645SOL    HW253412   5.163   8.696   6.303
13646SOL     OW53413   5.891   8.119   2.771
13646SOL    HW153414   5.923   8.030   2.737
13646SOL    HW253415   5.954   8.191   2.741
13647SOL     OW53416   5.803   8.514   3.926
13647SOL    HW153417   5.738   8.473   3.861
13647SOL    HW253418   5.755   8.579   3.984
13648SOL     OW53419   7.248   7.494   0.149
13648SOL    HW153420   7.276   7.428   0.218
13648SOL    HW253421   7.242   7.585   0.190
13649SOL     OW53422   3.357   8.250   0.932
13649SOL    HW153423   3.340   8.254   1.031
13649SOL    HW253424   3.444   8.294   0.911
13650SOL     OW53425   7.285   8.206   5.731
13650SOL    HW153426   7.267   8.243   5.640
13650SOL    HW253427   7.342   8.270   5.783
13651SOL     OW53428   0.635   8.144   5.365
13651SOL    HW153429   0.624   8.120   5.461
13651SOL    HW253430   0.729   8.172   5.348
13652SOL     OW53431   6.947   7.451   0.252
13652SOL    HW153432   6.885   7.372   0.253
13652SOL    HW253433   6.893   7.535   0.244
13653SOL     OW53434   5.973   7.736   5.386
13653SOL    HW153435   5.972   7.795   5.305
13653SOL    HW253436   5.946   7.789   5.466
13654SOL     OW53437   3.158   7.997   1.930
13654SOL    HW153438   3.152   7.935   2.008
13654SOL    HW253439   3.157   7.944   1.845
13655SOL     OW53440   3.939   8.614   2.395
13655SOL    HW153441   4.032   8.646   2.413
13655SOL    HW253442   3.910   8.646   2.305
13656SOL     OW53443   5.068   8.522   4.672
13656SOL    HW153444   5.159   8.499   4.706
13656SOL    HW253445   5.009   8.547   4.749
13657SOL     OW53446   1.879   8.659   1.038
13657SOL    HW153447   1.798   8.614   1.074
13657SOL    HW253448   1.955   8.648   1.102
13658SOL     OW53449   0.577   8.957   2.416
13658SOL    HW153450   0.630   8.900   2.353
13658SOL    HW253451   0.486   8.973   2.377
13659SOL     OW53452   5.262   8.236   1.102
13659SOL    HW153453   5.300   8.234   1.009
13659SOL    HW253454   5.162   8.237   1.097
13660SOL     OW53455   3.768   8.809   4.873
13660SOL    HW153456   3.829   8.771   4.942
13660SOL    HW253457   3.808   8.796   4.782
13661SOL     OW53458   5.807   7.428   5.160
13661SOL    HW153459   5.848   7.416   5.069
13661SOL    HW253460   5.767   7.519   5.166
13662SOL     OW53461   5.979   8.110   4.845
13662SOL    HW153462   5.900   8.094   4.904
13662SOL    HW253463   5.970   8.056   4.761
13663SOL     OW53464   7.301   8.893   7.156
13663SOL    HW153465   7.219   8.936   7.118
13663SOL    HW253466   7.285   8.873   7.253
13664SOL     OW53467   0.763   8.382   3.319
13664SOL    HW153468   0.743   8.351   3.413
13664SOL    HW253469   0.861   8.395   3.309
13665SOL     OW53470   3.537   7.703   0.922
13665SOL    HW153471   3.497   7.632   0.980
13665SOL    HW253472   3.471   7.730   0.852
13666SOL     OW53473   6.168   8.613   6.098
13666SOL    HW153474   6.140   8.644   6.007
13666SOL    HW253475   6.162   8.513   6.102
13667SOL     OW53476   4.998   7.458   2.604
13667SOL    HW153477   4.900   7.467   2.622
13667SOL    HW253478   5.012   7.419   2.512
13668SOL     OW53479   0.915   8.408   6.368
13668SOL    HW153480   0.885   8.485   6.423
13668SOL    HW253481   0.917   8.325   6.424
13669SOL     OW53482   3.502   8.303   7.021
13669SOL    HW153483   3.552   8.386   7.046
13669SOL    HW253484   3.483   8.250   7.103
13670SOL     OW53485   6.552   7.403   7.357
13670SOL    HW153486   6.648   7.418   7.335
13670SOL    HW253487   6.503   7.370   7.276
13671SOL     OW53488   1.077   8.802   0.321
13671SOL    HW153489   0.984   8.772   0.299
13671SOL    HW253490   1.130   8.809   0.236
13672SOL     OW53491   6.379   7.703   6.529
13672SOL    HW153492   6.416   7.619   6.490
13672SOL    HW253493   6.355   7.689   6.625
13673SOL     OW53494   5.176   8.745   0.721
13673SOL    HW153495   5.120   8.704   0.793
13673SOL    HW253496   5.272   8.743   0.748
13674SOL     OW53497   2.485   7.620   5.548
13674SOL    HW153498   2.568   7.575   5.516
13674SOL    HW253499   2.417   7.551   5.571
13675SOL     OW53500   4.645   8.001   3.089
13675SOL    HW153501   4.733   7.958   3.068
13675SOL    HW253502   4.647   8.097   3.061
13676SOL     OW53503   2.264   8.799   3.053
13676SOL    HW153504   2.281   8.847   3.138
13676SOL    HW253505   2.341   8.811   2.991
13677SOL     OW53506   1.089   7.509   6.815
13677SOL    HW153507   1.151   7.524   6.738
13677SOL    HW253508   1.139   7.466   6.890
13678SOL     OW53509   3.596   8.450   5.404
13678SOL    HW153510   3.498   8.456   5.419
13678SOL    HW253511   3.621   8.498   5.320
13679SOL     OW53512   1.129   7.919   5.948
13679SOL    HW153513   1.201   7.920   5.878
13679SOL    HW253514   1.131   8.006   5.998
13680SOL     OW53515   5.361   8.485   6.043
13680SOL    HW153516   5.432   8.419   6.015
13680SOL    HW253517   5.401   8.576   6.049
13681SOL     OW53518   4.658   7.916   7.213
13681SOL    HW153519   4.562   7.894   7.202
13681SOL    HW253520   4.687   7.978   7.140
13682SOL     OW53521   2.403   8.876   1.379
13682SOL    HW153522   2.332   8.862   1.447
13682SOL    HW253523   2.488   8.832   1.408
13683SOL     OW53524   4.470   8.911   7.197
13683SOL    HW153525   4.397   8.953   7.143
13683SOL    HW253526   4.461   8.811   7.193
13684SOL     OW53527   3.267   7.923   2.906
13684SOL    HW153528   3.235   7.845   2.960
13684SOL    HW253529   3.244   8.008   2.954
13685SOL     OW53530   7.142   7.649   6.723
13685SOL    HW153531   7.157   7.581   6.652
13685SOL    HW253532   7.080   7.720   6.689
13686SOL     OW53533   3.984   7.905   5.412
13686SOL    HW153534   3.896   7.951   5.421
13686SOL    HW253535   4.058   7.973   5.423
13687SOL     OW53536   5.085   8.160   1.678
13687SOL    HW153537   5.109   8.096   1.605
13687SOL    HW253538   5.156   8.230   1.686
13688SOL     OW53539   6.976   7.649   0.818
13688SOL    HW153540   6.966   7.744   0.847
13688SOL    HW253541   6.889   7.601   0.828
13689SOL     OW53542   5.917   7.511   2.410
13689SOL    HW153543   6.002   7.498   2.360
13689SOL    HW253544   5.860   7.429   2.400
13690SOL     OW53545   0.641   8.337   7.336
13690SOL    HW153546   0.663   8.241   7.316
13690SOL    HW253547   0.544   8.353   7.319
13691SOL     OW53548   2.799   8.034   1.595
13691SOL    HW153549   2.813   8.112   1.535
13691SOL    HW253550   2.722   8.054   1.657
13692SOL     OW53551   2.186   9.024   7.201
13692SOL    HW153552   2.186   9.118   7.167
13692SOL    HW253553   2.185   8.961   7.123
13693SOL     OW53554   3.096   8.507   1.521
13693SOL    HW153555   3.088   8.606   1.514
13693SOL    HW253556   3.082   8.465   1.431
13694SOL     OW53557   1.755   8.365   1.896
13694SOL    HW153558   1.730   8.388   1.990
13694SOL    HW253559   1.682   8.392   1.834
13695SOL     OW53560   3.840   7.595   2.544
13695SOL    HW153561   3.938   7.606   2.529
13695SOL    HW253562   3.822   7.584   2.641
13696SOL     OW53563   2.247   8.566   5.477
13696SOL    HW153564   2.249   8.613   5.389
13696SOL    HW253565   2.297   8.479   5.469
13697SOL     OW53566   2.925   7.870   3.304
13697SOL    HW153567   2.866   7.919   3.367
13697SOL    HW253568   2.991   7.815   3.356
13698SOL     OW53569   5.009   8.026   0.145
13698SOL    HW153570   5.076   7.952   0.148
13698SOL    HW253571   4.922   7.993   0.109
13699SOL     OW53572   4.393   8.104   5.108
13699SOL    HW153573   4.334   8.184   5.103
13699SOL    HW253574   4.351   8.028   5.059
13700SOL     OW53575   5.607   7.818   7.134
13700SOL    HW153576   5.667   7.863   7.068
13700SOL    HW253577   5.539   7.884   7.168
13701SOL     OW53578   7.343   7.504   6.009
13701SOL    HW153579   7.399   7.429   5.972
13701SOL    HW253580   7.320   7.568   5.935
13702SOL     OW53581   4.997   8.295   2.253
13702SOL    HW153582   4.969   8.390   2.271
13702SOL    HW253583   5.091   8.281   2.283
13703SOL     OW53584   5.025   8.896   4.549
13703SOL    HW153585   5.071   8.818   4.507
13703SOL    HW253586   4.943   8.865   4.597
13704SOL     OW53587   4.545   7.592   1.686
13704SOL    HW153588   4.492   7.635   1.613
13704SOL    HW253589   4.620   7.539   1.646
13705SOL     OW53590   4.059   8.249   7.107
13705SOL    HW153591   4.024   8.161   7.139
13705SOL    HW253592   4.052   8.254   7.008
13706SOL     OW53593   3.341   8.055   0.279
13706SOL    HW153594   3.264   8.022   0.226
13706SOL    HW253595   3.390   8.126   0.228
13707SOL     OW53596   1.361   7.850   5.818
13707SOL    HW153597   1.449   7.893   5.838
13707SOL    HW253598   1.355   7.831   5.720
13708SOL     OW53599   1.267   8.198   2.523
13708SOL    HW153600   1.317   8.125   2.569
13708SOL    HW253601   1.312   8.286   2.541
13709SOL     OW53602   6.118   7.914   3.872
13709SOL    HW153603   6.021   7.922   3.893
13709SOL    HW253604   6.169   7.988   3.917
13710SOL     OW53605   4.520   7.873   3.407
13710SOL    HW153606   4.583   7.862   3.484
13710SOL    HW253607   4.550   7.816   3.331
13711SOL     OW53608   4.291   7.452   3.002
13711SOL    HW153609   4.345   7.535   3.019
13711SOL    HW253610   4.204   7.477   2.960
13712SOL     OW53611   1.031   9.051   1.810
13712SOL    HW153612   1.103   8.986   1.784
13712SOL    HW253613   1.067   9.144   1.804
13713SOL     OW53614   1.012   8.886   2.064
13713SOL    HW153615   1.075   8.926   2.130
13713SOL    HW253616   0.992   8.953   1.992
13714SOL     OW53617   5.415   7.799   1.648
13714SOL    HW153618   5.328   7.840   1.619
13714SOL    HW253619   5.491   7.846   1.604
13715SOL     OW53620   1.864   8.339   6.948
13715SOL    HW153621   1.792   8.314   7.013
13715SOL    HW253622   1.898   8.257   6.902
13716SOL     OW53623   4.160   7.708   0.799
13716SOL    HW153624   4.062   7.693   0.791
13716SOL    HW253625   4.204   7.685   0.713
13717SOL     OW53626   1.489   7.826   0.851
13717SOL    HW153627   1.409   7.804   0.907
13717SOL    HW253628   1.503   7.925   0.848
13718SOL     OW53629   2.502   8.700   5.069
13718SOL    HW153630   2.417   8.652   5.092
13718SOL    HW253631   2.553   8.647   5.001
13719SOL     OW53632   4.902   7.413   0.606
13719SOL    HW153633   4.864   7.497   0.644
13719SOL    HW253634   4.835   7.370   0.546
13720SOL     OW53635   2.497   8.047   3.289
13720SOL    HW153636   2.486   8.001   3.377
13720SOL    HW253637   2.415   8.034   3.234
13721SOL     OW53638   4.311   8.300   0.079
13721SOL    HW153639   4.307   8.303   0.179
13721SOL    HW253640   4.404   8.279   0.050
13722SOL     OW53641   2.280   9.270   1.634
13722SOL    HW153642   2.287   9.289   1.536
13722SOL    HW253643   2.217   9.194   1.649
13723SOL     OW53644   4.903   8.060   2.823
13723SOL    HW153645   4.892   7.996   2.899
13723SOL    HW253646   4.868   8.018   2.739
13724SOL     OW53647   5.037   8.243   6.097
13724SOL    HW153648   4.940   8.221   6.085
13724SOL    HW253649   5.057   8.331   6.054
13725SOL     OW53650   5.472   8.483   1.211
13725SOL    HW153651   5.537   8.407   1.215
13725SOL    HW253652   5.380   8.448   1.191
13726SOL     OW53653   6.780   8.605   0.492
13726SOL    HW153654   6.829   8.645   0.414
13726SOL    HW253655   6.682   8.619   0.480
13727SOL     OW53656   2.958   7.818   2.931
13727SOL    HW153657   2.898   7.798   2.853
13727SOL    HW253658   2.930   7.904   2.973
13728SOL     OW53659   5.359   9.024   1.158
13728SOL    HW153660   5.290   9.058   1.222
13728SOL    HW253661   5.313   8.981   1.080
13729SOL     OW53662   6.302   7.550   4.067
13729SOL    HW153663   6.321   7.638   4.109
13729SOL    HW253664   6.377   7.525   4.007
13730SOL     OW53665   4.343   8.852   0.942
13730SOL    HW153666   4.244   8.867   0.944
13730SOL    HW253667   4.382   8.876   1.031
13731SOL     OW53668   3.011   8.773   1.875
13731SOL    HW153669   3.020   8.679   1.843
13731SOL    HW253670   3.008   8.774   1.975
13732SOL     OW53671   1.703   7.586   6.893
13732SOL    HW153672   1.667   7.524   6.963
13732SOL    HW253673   1.667   7.678   6.910
13733SOL     OW53674   6.555   8.364   6.135
13733SOL    HW153675   6.530   8.439   6.074
13733SOL    HW253676   6.476   8.304   6.149
13734SOL     OW53677   2.757   7.631   6.709
13734SOL    HW153678   2.790   7.682   6.789
13734SOL    HW253679   2.823   7.559   6.687
13735SOL     OW53680   1.622   8.236   1.048
13735SOL    HW153681   1.586   8.254   1.140
13735SOL    HW253682   1.546   8.224   0.984
13736SOL     OW53683   6.675   8.413   1.643
13736SOL    HW153684   6.669   8.509   1.615
13736SOL    HW253685   6.708   8.358   1.566
13737SOL     OW53686   5.593   8.004   1.898
13737SOL    HW153687   5.554   8.096   1.894
13737SOL    HW253688   5.547   7.951   1.969
13738SOL     OW53689   2.198   8.338   5.108
13738SOL    HW153690   2.122   8.375   5.161
13738SOL    HW253691   2.225   8.249   5.144
13739SOL     OW53692   0.474   8.875   1.658
13739SOL    HW153693   0.481   8.848   1.754
13739SOL    HW253694   0.520   8.963   1.645
13740SOL     OW53695   2.051   8.060   5.381
13740SOL    HW153696   2.007   8.146   5.407
13740SOL    HW253697   2.149   8.074   5.373
13741SOL     OW53698   7.331   7.485   4.721
13741SOL    HW153699   7.335   7.572   4.771
13741SOL    HW253700   7.415   7.434   4.736
13742SOL     OW53701   2.631   7.801   1.972
13742SOL    HW153702   2.660   7.738   2.044
13742SOL    HW253703   2.695   7.795   1.895
13743SOL     OW53704   4.937   8.551   2.270
13743SOL    HW153705   4.903   8.583   2.181
13743SOL    HW253706   4.966   8.630   2.325
13744SOL     OW53707   0.175   7.593   0.529
13744SOL    HW153708   0.251   7.636   0.479
13744SOL    HW253709   0.171   7.496   0.506
13745SOL     OW53710   2.454   8.923   0.214
13745SOL    HW153711   2.359   8.929   0.246
13745SOL    HW253712   2.515   8.914   0.292
13746SOL     OW53713   6.433   9.210   2.348
13746SOL    HW153714   6.422   9.133   2.411
13746SOL    HW253715   6.364   9.203   2.275
13747SOL     OW53716   5.390   7.773   2.957
13747SOL    HW153717   5.366   7.681   2.926
13747SOL    HW253718   5.418   7.828   2.878
13748SOL     OW53719   4.573   7.364   6.997
13748SOL    HW153720   4.595   7.399   7.088
13748SOL    HW253721   4.641   7.397   6.931
13749SOL     OW53722   2.761   8.157   1.033
13749SOL    HW153723   2.735   8.090   0.963
13749SOL    HW253724   2.850   8.132   1.071
13750SOL     OW53725   4.342   8.151   0.355
13750SOL    HW153726   4.247   8.138   0.328
13750SOL    HW253727   4.368   8.079   0.419
13751SOL     OW53728   6.659   8.155   1.066
13751SOL    HW153729   6.684   8.209   1.147
13751SOL    HW253730   6.561   8.134   1.070
13752SOL     OW53731   2.606   7.973   6.791
13752SOL    HW153732   2.508   7.959   6.805
13752SOL    HW253733   2.622   8.010   6.700
13753SOL     OW53734   3.498   8.976   6.296
13753SOL    HW153735   3.544   8.926   6.223
13753SOL    HW253736   3.428   8.918   6.338
13754SOL     OW53737   3.435   8.648   7.335
13754SOL    HW153738   3.380   8.729   7.354
13754SOL    HW253739   3.478   8.617   7.420
13755SOL     OW53740   4.031   7.996   0.814
13755SOL    HW153741   4.087   8.061   0.762
13755SOL    HW253742   4.052   7.903   0.784
13756SOL     OW53743   6.471   7.908   0.491
13756SOL    HW153744   6.496   7.986   0.549
13756SOL    HW253745   6.397   7.857   0.534
13757SOL     OW53746   0.668   8.485   7.021
13757SOL    HW153747   0.723   8.436   7.089
13757SOL    HW253748   0.674   8.438   6.933
13758SOL     OW53749   2.527   7.492   3.176
13758SOL    HW153750   2.579   7.577   3.188
13758SOL    HW253751   2.527   7.467   3.079
13759SOL     OW53752   5.103   8.414   2.930
13759SOL    HW153753   5.009   8.397   2.959
13759SOL    HW253754   5.103   8.455   2.839
13760SOL     OW53755   3.149   8.556   6.685
13760SOL    HW153756   3.144   8.625   6.757
13760SOL    HW253757   3.245   8.532   6.669
13761SOL     OW53758   2.482   7.941   5.474
13761SOL    HW153759   2.488   7.844   5.499
13761SOL    HW253760   2.541   7.959   5.396
13762SOL     OW53761   4.833   7.616   0.116
13762SOL    HW153762   4.897   7.676   0.163
13762SOL    HW253763   4.740   7.653   0.122
13763SOL     OW53764   4.266   8.457   3.835
13763SOL    HW153765   4.348   8.507   3.863
13763SOL    HW253766   4.185   8.506   3.866
13764SOL     OW53767   4.397   7.604   1.935
13764SOL    HW153768   4.384   7.694   1.976
13764SOL    HW253769   4.461   7.611   1.858
13765SOL     OW53770   0.696   8.083   7.212
13765SOL    HW153771   0.762   8.011   7.192
13765SOL    HW253772   0.636   8.096   7.133
13766SOL     OW53773   4.497   8.511   1.831
13766SOL    HW153774   4.590   8.511   1.794
13766SOL    HW253775   4.441   8.445   1.781
13767SOL     OW53776   4.827   8.228   5.001
13767SOL    HW153777   4.742   8.256   4.957
13767SOL    HW253778   4.806   8.168   5.078
13768SOL     OW53779   5.921   7.935   4.654
13768SOL    HW153780   5.957   7.959   4.565
13768SOL    HW253781   5.925   7.835   4.665
13769SOL     OW53782   2.964   8.749   2.636
13769SOL    HW153783   2.926   8.675   2.690
13769SOL    HW253784   3.064   8.740   2.631
13770SOL     OW53785   6.348   7.636   4.422
13770SOL    HW153786   6.345   7.660   4.325
13770SOL    HW253787   6.433   7.587   4.442
13771SOL     OW53788   4.593   7.525   0.559
13771SOL    HW153789   4.603   7.500   0.463
13771SOL    HW253790   4.671   7.580   0.588
13772SOL     OW53791   3.600   8.840   5.118
13772SOL    HW153792   3.516   8.786   5.111
13772SOL    HW253793   3.659   8.821   5.039
13773SOL     OW53794   4.828   7.550   3.275
13773SOL    HW153795   4.835   7.499   3.189
13773SOL    HW253796   4.750   7.612   3.270
13774SOL     OW53797   4.727   7.598   5.598
13774SOL    HW153798   4.776   7.644   5.524
13774SOL    HW253799   4.793   7.558   5.661
13775SOL     OW53800   1.309   7.684   6.357
13775SOL    HW153801   1.282   7.637   6.273
13775SOL    HW253802   1.276   7.778   6.355
13776SOL     OW53803   5.759   8.468   5.394
13776SOL    HW153804   5.760   8.566   5.374
13776SOL    HW253805   5.699   8.450   5.472
13777SOL     OW53806   3.762   7.794   3.964
13777SOL    HW153807   3.795   7.709   3.923
13777SOL    HW253808   3.672   7.779   4.004
13778SOL     OW53809   4.685   7.621   2.877
13778SOL    HW153810   4.663   7.615   2.780
13778SOL    HW253811   4.735   7.539   2.906
13779SOL     OW53812   3.878   7.408   1.099
13779SOL    HW153813   3.935   7.397   1.181
13779SOL    HW253814   3.852   7.504   1.090
13780SOL     OW53815   3.558   8.569   0.212
13780SOL    HW153816   3.644   8.525   0.237
13780SOL    HW253817   3.572   8.668   0.209
13781SOL     OW53818   4.694   7.475   2.638
13781SOL    HW153819   4.698   7.449   2.541
13781SOL    HW253820   4.602   7.510   2.659
13782SOL     OW53821   4.413   7.410   2.131
13782SOL    HW153822   4.402   7.470   2.052
13782SOL    HW253823   4.327   7.362   2.149
13783SOL     OW53824   2.954   8.723   0.039
13783SOL    HW153825   3.026   8.778   0.080
13783SOL    HW253826   2.976   8.705  -0.057
13784SOL     OW53827   6.041   7.653   3.794
13784SOL    HW153828   6.070   7.736   3.842
13784SOL    HW253829   6.111   7.582   3.805
13785SOL     OW53830   0.259   7.741   2.027
13785SOL    HW153831   0.295   7.658   1.984
13785SOL    HW253832   0.159   7.733   2.035
13786SOL     OW53833   2.182   7.961   3.404
13786SOL    HW153834   2.210   8.004   3.319
13786SOL    HW253835   2.145   7.870   3.384
13787SOL     OW53836   5.697   8.916   3.089
13787SOL    HW153837   5.696   8.826   3.131
13787SOL    HW253838   5.610   8.932   3.041
13788SOL     OW53839   3.119   8.974   7.181
13788SOL    HW153840   3.037   9.029   7.200
13788SOL    HW253841   3.092   8.880   7.162
13789SOL     OW53842   6.338   7.676   0.056
13789SOL    HW153843   6.370   7.771   0.048
13789SOL    HW253844   6.376   7.636   0.139
13790SOL     OW53845   4.436   7.978   6.443
13790SOL    HW153846   4.465   7.958   6.536
13790SOL    HW253847   4.357   8.039   6.444
13791SOL     OW53848   4.860   8.773   2.999
13791SOL    HW153849   4.957   8.749   3.009
13791SOL    HW253850   4.804   8.700   3.038
13792SOL     OW53851   2.064   8.047   3.655
13792SOL    HW153852   2.068   8.146   3.642
13792SOL    HW253853   2.059   8.002   3.566
13793SOL     OW53854   1.207   7.930   6.872
13793SOL    HW153855   1.195   7.966   6.780
13793SOL    HW253856   1.300   7.950   6.905
13794SOL     OW53857   4.110   7.495   2.774
13794SOL    HW153858   4.134   7.434   2.698
13794SOL    HW253859   4.166   7.578   2.769
13795SOL     OW53860   3.490   8.053   3.984
13795SOL    HW153861   3.439   8.031   4.066
13795SOL    HW253862   3.448   8.131   3.937
13796SOL     OW53863   2.792   8.430   6.609
13796SOL    HW153864   2.872   8.371   6.604
13796SOL    HW253865   2.819   8.525   6.596
13797SOL     OW53866   5.460   8.794   0.787
13797SOL    HW153867   5.467   8.813   0.689
13797SOL    HW253868   5.517   8.715   0.810
13798SOL     OW53869   2.711   8.694   5.684
13798SOL    HW153870   2.612   8.704   5.675
13798SOL    HW253871   2.733   8.598   5.703
13799SOL     OW53872   3.177   8.352   2.013
13799SOL    HW153873   3.223   8.289   1.950
13799SOL    HW253874   3.230   8.358   2.098
13800SOL     OW53875   3.641   8.350   0.831
13800SOL    HW153876   3.620   8.363   0.734
13800SOL    HW253877   3.703   8.272   0.841
13801SOL     OW53878   3.837   7.423   7.202
13801SOL    HW153879   3.844   7.324   7.207
13801SOL    HW253880   3.813   7.450   7.109
13802SOL     OW53881   6.169   7.413   5.060
13802SOL    HW153882   6.144   7.510   5.062
13802SOL    HW253883   6.215   7.392   4.974
13803SOL     OW53884   0.817   7.407   6.720
13803SOL    HW153885   0.915   7.415   6.733
13803SOL    HW253886   0.794   7.431   6.625
13804SOL     OW53887   4.367   7.541   3.369
13804SOL    HW153888   4.393   7.554   3.465
13804SOL    HW253889   4.298   7.470   3.362
13805SOL     OW53890   2.116   8.345   6.248
13805SOL    HW153891   2.179   8.278   6.207
13805SOL    HW253892   2.023   8.309   6.245
13806SOL     OW53893   1.794   7.807   7.307
13806SOL    HW153894   1.723   7.760   7.359
13806SOL    HW253895   1.751   7.871   7.243
13807SOL     OW53896   4.957   8.481   1.830
13807SOL    HW153897   4.931   8.550   1.896
13807SOL    HW253898   4.969   8.393   1.876
13808SOL     OW53899   0.672   8.083   1.489
13808SOL    HW153900   0.633   8.041   1.572
13808SOL    HW253901   0.601   8.089   1.419
13809SOL     OW53902   1.932   9.321   7.062
13809SOL    HW153903   1.915   9.223   7.057
13809SOL    HW253904   2.023   9.341   7.025
13810SOL     OW53905   6.953   8.305   1.328
13810SOL    HW153906   6.988   8.365   1.256
13810SOL    HW253907   7.002   8.324   1.413
13811SOL     OW53908   6.694   8.259   1.407
13811SOL    HW153909   6.684   8.159   1.414
13811SOL    HW253910   6.779   8.281   1.359
13812SOL     OW53911   4.286   8.151   6.040
13812SOL    HW153912   4.346   8.173   5.963
13812SOL    HW253913   4.301   8.057   6.069
13813SOL     OW53914   5.646   8.046   0.664
13813SOL    HW153915   5.730   8.097   0.643
13813SOL    HW253916   5.585   8.103   0.718
13814SOL     OW53917   7.262   7.563   6.991
13814SOL    HW153918   7.294   7.468   6.984
13814SOL    HW253919   7.226   7.592   6.902
13815SOL     OW53920   6.230   7.897   3.045
13815SOL    HW153921   6.234   7.919   2.948
13815SOL    HW253922   6.293   7.956   3.095
13816SOL     OW53923   0.466   7.680   5.984
13816SOL    HW153924   0.397   7.752   5.989
13816SOL    HW253925   0.428   7.595   6.021
13817SOL     OW53926   4.196   7.857   4.976
13817SOL    HW153927   4.213   7.783   4.911
13817SOL    HW253928   4.125   7.829   5.040
13818SOL     OW53929   5.387   8.552   4.156
13818SOL    HW153930   5.351   8.597   4.238
13818SOL    HW253931   5.360   8.456   4.156
13819SOL     OW53932   0.309   8.328   0.927
13819SOL    HW153933   0.235   8.372   0.875
13819SOL    HW253934   0.292   8.230   0.934
13820SOL     OW53935   5.412   7.513   2.101
13820SOL    HW153936   5.438   7.548   2.011
13820SOL    HW253937   5.417   7.587   2.168
13821SOL     OW53938   3.440   7.809   2.072
13821SOL    HW153939   3.448   7.789   1.974
13821SOL    HW253940   3.445   7.907   2.087
13822SOL     OW53941   2.135   9.059   1.698
13822SOL    HW153942   2.037   9.038   1.696
13822SOL    HW253943   2.187   8.982   1.662
13823SOL     OW53944   5.082   8.732   3.264
13823SOL    HW153945   5.098   8.809   3.327
13823SOL    HW253946   5.111   8.759   3.172
13824SOL     OW53947   3.824   8.424   2.752
13824SOL    HW153948   3.803   8.516   2.784
13824SOL    HW253949   3.781   8.357   2.812
13825SOL     OW53950   4.333   7.890   2.321
13825SOL    HW153951   4.346   7.819   2.390
13825SOL    HW253952   4.240   7.886   2.286
13826SOL     OW53953   1.892   8.277   1.046
13826SOL    HW153954   1.926   8.284   0.952
13826SOL    HW253955   1.796   8.252   1.044
13827SOL     OW53956   6.267   8.016   0.348
13827SOL    HW153957   6.199   7.943   0.343
13827SOL    HW253958   6.349   7.983   0.395
13828SOL     OW53959   5.934   8.926   3.754
13828SOL    HW153960   5.979   8.846   3.795
13828SOL    HW253961   5.979   8.949   3.668
13829SOL     OW53962   5.462   8.507   0.010
13829SOL    HW153963   5.525   8.463   0.074
13829SOL    HW253964   5.400   8.567   0.061
13830SOL     OW53965   2.558   8.629   6.324
13830SOL    HW153966   2.556   8.641   6.224
13830SOL    HW253967   2.475   8.667   6.363
13831SOL     OW53968   2.494   7.638   5.898
13831SOL    HW153969   2.443   7.723   5.908
13831SOL    HW253970   2.531   7.633   5.805
13832SOL     OW53971   5.243   7.594   1.356
13832SOL    HW153972   5.173   7.654   1.395
13832SOL    HW253973   5.293   7.643   1.284
13833SOL     OW53974   2.364   8.549   3.541
13833SOL    HW153975   2.444   8.599   3.574
13833SOL    HW253976   2.356   8.462   3.590
13834SOL     OW53977   1.214   9.300   1.534
13834SOL    HW153978   1.200   9.363   1.459
13834SOL    HW253979   1.262   9.218   1.501
13835SOL     OW53980   2.074   8.810   0.669
13835SOL    HW153981   2.153   8.829   0.727
13835SOL    HW253982   2.094   8.733   0.609
13836SOL     OW53983   5.488   8.119   6.239
13836SOL    HW153984   5.482   8.026   6.275
13836SOL    HW253985   5.505   8.116   6.141
13837SOL     OW53986   3.404   8.086   2.121
13837SOL    HW153987   3.492   8.085   2.169
13837SOL    HW253988   3.417   8.124   2.029
13838SOL     OW53989   4.322   7.895   4.327
13838SOL    HW153990   4.308   7.934   4.236
13838SOL    HW253991   4.242   7.913   4.384
13839SOL     OW53992   0.228   7.384   5.524
13839SOL    HW153993   0.277   7.393   5.611
13839SOL    HW253994   0.137   7.422   5.534
13840SOL     OW53995   5.030   8.211   5.680
13840SOL    HW153996   5.060   8.169   5.766
13840SOL    HW253997   4.962   8.281   5.700
13841SOL     OW53998   0.679   8.344   5.893
13841SOL    HW153999   0.740   8.329   5.971
13841SOL    HW254000   0.721   8.407   5.829
13842SOL     OW54001   0.401   7.681   5.712
13842SOL    HW154002   0.417   7.740   5.791
13842SOL    HW254003   0.346   7.730   5.644
13843SOL     OW54004   1.503   8.221   5.802
13843SOL    HW154005   1.523   8.132   5.842
13843SOL    HW254006   1.581   8.252   5.748
13844SOL     OW54007   4.072   8.835   0.863
13844SOL    HW154008   4.054   8.811   0.768
13844SOL    HW254009   4.007   8.788   0.923
13845SOL     OW54010   1.179   7.645   1.872
13845SOL    HW154011   1.150   7.633   1.967
13845SOL    HW254012   1.100   7.636   1.812
13846SOL     OW54013   1.241   8.780   3.389
13846SOL    HW154014   1.188   8.865   3.396
13846SOL    HW254015   1.338   8.801   3.399
13847SOL     OW54016   5.753   7.450   1.127
13847SOL    HW154017   5.767   7.526   1.191
13847SOL    HW254018   5.824   7.382   1.141
13848SOL     OW54019   2.565   8.293   6.766
13848SOL    HW154020   2.590   8.202   6.797
13848SOL    HW254021   2.634   8.327   6.701
13849SOL     OW54022   4.099   7.793   6.536
13849SOL    HW154023   4.171   7.758   6.596
13849SOL    HW254024   4.096   7.738   6.452
13850SOL     OW54025   4.929   7.873   7.152
13850SOL    HW154026   4.830   7.864   7.144
13850SOL    HW254027   4.972   7.838   7.069
13851SOL     OW54028   3.512   7.734   0.458
13851SOL    HW154029   3.504   7.644   0.501
13851SOL    HW254030   3.447   7.797   0.501
13852SOL     OW54031   6.305   8.401   3.508
13852SOL    HW154032   6.250   8.319   3.497
13852SOL    HW254033   6.357   8.418   3.424
13853SOL     OW54034   1.925   9.347   1.057
13853SOL    HW154035   1.961   9.278   1.119
13853SOL    HW254036   1.996   9.415   1.039
13854SOL     OW54037   2.690   8.244   2.054
13854SOL    HW154038   2.643   8.157   2.038
13854SOL    HW254039   2.788   8.227   2.066
13855SOL     OW54040   3.001   7.709   0.282
13855SOL    HW154041   3.049   7.652   0.216
13855SOL    HW254042   3.060   7.725   0.361
13856SOL     OW54043   5.750   8.193   7.257
13856SOL    HW154044   5.746   8.126   7.183
13856SOL    HW254045   5.672   8.181   7.318
13857SOL     OW54046   1.672   8.526   1.141
13857SOL    HW154047   1.619   8.588   1.199
13857SOL    HW254048   1.619   8.444   1.122
13858SOL     OW54049   5.203   8.359   3.236
13858SOL    HW154050   5.259   8.297   3.293
13858SOL    HW254051   5.140   8.410   3.294
13859SOL     OW54052   0.927   8.672   2.512
13859SOL    HW154053   1.007   8.622   2.544
13859SOL    HW254054   0.877   8.708   2.591
13860SOL     OW54055   3.979   8.908   2.867
13860SOL    HW154056   4.011   8.853   2.790
13860SOL    HW254057   3.997   8.859   2.953
13861SOL     OW54058   4.198   8.296   5.115
13861SOL    HW154059   4.190   8.375   5.176
13861SOL    HW254060   4.131   8.226   5.142
13862SOL     OW54061   3.581   9.071   5.264
13862SOL    HW154062   3.574   9.032   5.356
13862SOL    HW254063   3.582   8.997   5.196
13863SOL     OW54064   6.116   7.398   3.920
13863SOL    HW154065   6.103   7.302   3.942
13863SOL    HW254066   6.175   7.441   3.988
13864SOL     OW54067   6.676   8.184   3.049
13864SOL    HW154068   6.749   8.122   3.076
13864SOL    HW254069   6.698   8.227   2.961
13865SOL     OW54070   5.726   7.465   0.789
13865SOL    HW154071   5.813   7.442   0.833
13865SOL    HW254072   5.726   7.430   0.696
13866SOL     OW54073   3.024   7.407   1.464
13866SOL    HW154074   3.107   7.360   1.432
13866SOL    HW254075   2.961   7.341   1.503
13867SOL     OW54076   2.250   7.461   6.387
13867SOL    HW154077   2.286   7.444   6.479
13867SOL    HW254078   2.160   7.503   6.393
13868SOL     OW54079   2.180   8.401   0.730
13868SOL    HW154080   2.165   8.479   0.669
13868SOL    HW254081   2.250   8.425   0.797
13869SOL     OW54082   0.201   7.865   6.020
13869SOL    HW154083   0.150   7.787   6.057
13869SOL    HW254084   0.184   7.873   5.922
13870SOL     OW54085   6.377   7.432   1.006
13870SOL    HW154086   6.420   7.343   1.010
13870SOL    HW254087   6.348   7.452   0.912
13871SOL     OW54088   2.700   7.679   3.273
13871SOL    HW154089   2.770   7.750   3.269
13871SOL    HW254090   2.639   7.696   3.350
13872SOL     OW54091   0.994   8.679   0.943
13872SOL    HW154092   0.941   8.757   0.976
13872SOL    HW254093   0.957   8.594   0.981
13873SOL     OW54094   1.687   8.810   3.533
13873SOL    HW154095   1.677   8.711   3.522
13873SOL    HW254096   1.783   8.832   3.550
13874SOL     OW54097   3.223   7.810   1.734
13874SOL    HW154098   3.149   7.759   1.690
13874SOL    HW254099   3.305   7.808   1.677
13875SOL     OW54100   3.013   8.031   1.080
13875SOL    HW154101   2.997   7.947   1.133
13875SOL    HW254102   3.108   8.031   1.046
13876SOL     OW54103   5.561   8.862   0.535
13876SOL    HW154104   5.641   8.836   0.588
13876SOL    HW254105   5.576   8.954   0.496
13877SOL     OW54106   4.092   8.130   0.034
13877SOL    HW154107   4.036   8.128  -0.049
13877SOL    HW254108   4.186   8.157   0.010
13878SOL     OW54109   1.329   8.645   3.636
13878SOL    HW154110   1.350   8.694   3.721
13878SOL    HW254111   1.234   8.663   3.610
13879SOL     OW54112   5.031   7.749   0.276
13879SOL    HW154113   5.116   7.796   0.253
13879SOL    HW254114   4.984   7.799   0.349
13880SOL     OW54115   7.148   8.506   1.878
13880SOL    HW154116   7.060   8.495   1.832
13880SOL    HW254117   7.132   8.544   1.970
13881SOL     OW54118   3.733   8.616   6.754
13881SOL    HW154119   3.646   8.637   6.710
13881SOL    HW254120   3.741   8.517   6.765
13882SOL     OW54121   2.894   8.963   2.454
13882SOL    HW154122   2.859   8.911   2.375
13882SOL    HW254123   2.894   8.904   2.535
13883SOL     OW54124   7.351   7.527   5.453
13883SOL    HW154125   7.335   7.619   5.417
13883SOL    HW254126   7.264   7.484   5.476
13884SOL     OW54127   4.105   8.357   2.686
13884SOL    HW154128   4.008   8.334   2.698
13884SOL    HW254129   4.151   8.356   2.774
13885SOL     OW54130   0.327   8.738   1.457
13885SOL    HW154131   0.392   8.780   1.520
13885SOL    HW254132   0.355   8.757   1.362
13886SOL     OW54133   5.445   8.911   4.015
13886SOL    HW154134   5.426   9.005   3.985
13886SOL    HW254135   5.529   8.879   3.972
13887SOL     OW54136   6.211   8.711   2.763
13887SOL    HW154137   6.224   8.773   2.686
13887SOL    HW254138   6.299   8.674   2.792
13888SOL     OW54139   4.413   7.803   1.426
13888SOL    HW154140   4.433   7.830   1.520
13888SOL    HW254141   4.482   7.841   1.364
13889SOL     OW54142   2.072   8.077   1.176
13889SOL    HW154143   2.019   8.127   1.107
13889SOL    HW254144   2.168   8.104   1.170
13890SOL     OW54145   5.501   7.929   3.133
13890SOL    HW154146   5.458   7.871   3.064
13890SOL    HW254147   5.566   7.991   3.089
13891SOL     OW54148   0.294   7.970   0.692
13891SOL    HW154149   0.269   8.066   0.685
13891SOL    HW254150   0.214   7.916   0.717
13892SOL     OW54151   4.809   8.691   2.637
13892SOL    HW154152   4.834   8.774   2.687
13892SOL    HW254153   4.735   8.645   2.685
13893SOL     OW54154   1.248   7.427   1.619
13893SOL    HW154155   1.196   7.449   1.537
13893SOL    HW254156   1.255   7.508   1.678
13894SOL     OW54157   5.889   8.886   2.915
13894SOL    HW154158   5.837   8.872   2.831
13894SOL    HW254159   5.825   8.891   2.993
13895SOL     OW54160   1.367   8.245   6.035
13895SOL    HW154161   1.382   8.327   6.090
13895SOL    HW254162   1.409   8.256   5.946
13896SOL     OW54163   2.213   8.385   1.354
13896SOL    HW154164   2.154   8.320   1.402
13896SOL    HW254165   2.239   8.459   1.416
13897SOL     OW54166   5.087   8.511   5.983
13897SOL    HW154167   5.071   8.587   5.920
13897SOL    HW254168   5.185   8.505   6.004
13898SOL     OW54169   4.647   7.397   1.918
13898SOL    HW154170   4.550   7.376   1.914
13898SOL    HW254171   4.671   7.456   1.840
13899SOL     OW54172   3.833   7.528   2.834
13899SOL    HW154173   3.771   7.472   2.889
13899SOL    HW254174   3.927   7.502   2.853
13900SOL     OW54175   6.596   7.661   0.296
13900SOL    HW154176   6.547   7.734   0.345
13900SOL    HW254177   6.694   7.682   0.295
13901SOL     OW54178   3.871   8.434   3.908
13901SOL    HW154179   3.895   8.339   3.925
13901SOL    HW254180   3.830   8.443   3.818
13902SOL     OW54181   6.237   7.435   4.782
13902SOL    HW154182   6.238   7.534   4.795
13902SOL    HW254183   6.157   7.410   4.728
13903SOL     OW54184   4.991   8.411   7.262
13903SOL    HW154185   4.992   8.315   7.236
13903SOL    HW254186   5.061   8.428   7.332
13904SOL     OW54187   5.094   7.924   6.345
13904SOL    HW154188   5.167   7.909   6.279
13904SOL    HW254189   5.133   7.946   6.435
13905SOL     OW54190   0.186   8.059   0.938
13905SOL    HW154191   0.103   8.114   0.927
13905SOL    HW254192   0.181   8.008   1.023
13906SOL     OW54193   6.707   7.994   0.070
13906SOL    HW154194   6.779   8.042   0.020
13906SOL    HW254195   6.709   8.022   0.166
13907SOL     OW54196   3.535   8.137   3.046
13907SOL    HW154197   3.501   8.227   3.020
13907SOL    HW254198   3.539   8.078   2.964
13908SOL     OW54199   5.355   8.072   0.497
13908SOL    HW154200   5.392   8.143   0.437
13908SOL    HW254201   5.420   7.996   0.503
13909SOL     OW54202   3.038   8.516   1.803
13909SOL    HW154203   3.070   8.484   1.714
13909SOL    HW254204   3.081   8.463   1.876
13910SOL     OW54205   1.819   8.346   2.777
13910SOL    HW154206   1.795   8.443   2.778
13910SOL    HW254207   1.748   8.294   2.728
13911SOL     OW54208   1.561   7.633   1.043
13911SOL    HW154209   1.657   7.635   1.072
13911SOL    HW254210   1.545   7.706   0.976
13912SOL     OW54211   4.918   8.840   1.411
13912SOL    HW154212   4.996   8.778   1.403
13912SOL    HW254213   4.880   8.858   1.320
13913SOL     OW54214   2.559   7.382   7.040
13913SOL    HW154215   2.619   7.443   6.989
13913SOL    HW254216   2.608   7.296   7.059
13914SOL     OW54217   4.187   7.960   1.741
13914SOL    HW154218   4.213   8.056   1.755
13914SOL    HW254219   4.269   7.904   1.733
13915SOL     OW54220   4.604   7.848   0.997
13915SOL    HW154221   4.571   7.763   0.957
13915SOL    HW254222   4.667   7.892   0.933
13916SOL     OW54223   0.017   7.921   1.782
13916SOL    HW154224   0.038   7.825   1.799
13916SOL    HW254225  -0.024   7.961   1.864
13917SOL     OW54226   3.806   8.607   5.524
13917SOL    HW154227   3.746   8.544   5.475
13917SOL    HW254228   3.863   8.555   5.588
13918SOL     OW54229   1.532   7.842   6.645
13918SOL    HW154230   1.512   7.940   6.640
13918SOL    HW254231   1.560   7.819   6.738
13919SOL     OW54232   1.201   7.939   6.359
13919SOL    HW154233   1.109   7.960   6.327
13919SOL    HW254234   1.265   8.006   6.323
13920SOL     OW54235   2.491   8.522   6.938
13920SOL    HW154236   2.433   8.488   7.012
13920SOL    HW254237   2.499   8.451   6.867
13921SOL     OW54238   1.085   7.567   2.140
13921SOL    HW154239   0.986   7.579   2.149
13921SOL    HW254240   1.116   7.500   2.208
13922SOL     OW54241   5.261   8.627   7.000
13922SOL    HW154242   5.264   8.688   6.921
13922SOL    HW254243   5.339   8.563   6.995
13923SOL     OW54244   0.669   7.618   2.006
13923SOL    HW154245   0.581   7.587   1.969
13923SOL    HW254246   0.703   7.695   1.952
13924SOL     OW54247   6.508   8.672   2.800
13924SOL    HW154248   6.590   8.625   2.767
13924SOL    HW254249   6.515   8.684   2.899
13925SOL     OW54250   6.015   8.676   3.820
13925SOL    HW154251   6.054   8.649   3.732
13925SOL    HW254252   5.953   8.605   3.852
13926SOL     OW54253   3.506   8.100   2.444
13926SOL    HW154254   3.410   8.075   2.433
13926SOL    HW254255   3.560   8.017   2.459
13927SOL     OW54256   3.512   8.177   1.563
13927SOL    HW154257   3.415   8.193   1.543
13927SOL    HW254258   3.540   8.088   1.526
13928SOL     OW54259   4.121   7.559   2.461
13928SOL    HW154260   4.179   7.640   2.475
13928SOL    HW254261   4.133   7.526   2.367
13929SOL     OW54262   5.874   8.235   5.281
13929SOL    HW154263   5.963   8.262   5.246
13929SOL    HW254264   5.832   8.312   5.329
13930SOL     OW54265   4.074   8.694   2.121
13930SOL    HW154266   4.097   8.689   2.023
13930SOL    HW254267   4.133   8.760   2.166
13931SOL     OW54268   3.875   7.446   0.648
13931SOL    HW154269   3.873   7.376   0.720
13931SOL    HW254270   3.869   7.536   0.690
13932SOL     OW54271   0.213   8.079   7.322
13932SOL    HW154272   0.230   8.000   7.381
13932SOL    HW254273   0.173   8.048   7.235
13933SOL     OW54274   3.683   8.883   0.701
13933SOL    HW154275   3.637   8.836   0.626
13933SOL    HW254276   3.742   8.954   0.663
13934SOL     OW54277   5.493   7.452   4.285
13934SOL    HW154278   5.487   7.540   4.239
13934SOL    HW254279   5.587   7.418   4.279
13935SOL     OW54280   3.722   7.954   4.230
13935SOL    HW154281   3.661   7.902   4.290
13935SOL    HW254282   3.668   7.997   4.157
13936SOL     OW54283   5.118   8.370   0.444
13936SOL    HW154284   5.099   8.336   0.351
13936SOL    HW254285   5.117   8.470   0.443
13937SOL     OW54286   7.349   7.670   1.898
13937SOL    HW154287   7.348   7.594   1.832
13937SOL    HW254288   7.336   7.634   1.990
13938SOL     OW54289   7.069   8.983   7.029
13938SOL    HW154290   7.013   9.026   6.957
13938SOL    HW254291   7.009   8.953   7.104
13939SOL     OW54292   3.104   8.047   3.905
13939SOL    HW154293   3.182   8.108   3.917
13939SOL    HW254294   3.055   8.072   3.821
13940SOL     OW54295   6.272   8.396   7.303
13940SOL    HW154296   6.305   8.313   7.347
13940SOL    HW254297   6.195   8.434   7.355
13941SOL     OW54298   2.472   8.371   5.454
13941SOL    HW154299   2.462   8.322   5.541
13941SOL    HW254300   2.569   8.391   5.439
13942SOL     OW54301   0.011   8.616   2.453
13942SOL    HW154302  -0.033   8.698   2.490
13942SOL    HW254303   0.032   8.554   2.529
13943SOL     OW54304   5.103   8.082   4.161
13943SOL    HW154305   5.017   8.123   4.191
13943SOL    HW254306   5.117   7.995   4.208
13944SOL     OW54307   1.330   8.156   3.607
13944SOL    HW154308   1.272   8.232   3.636
13944SOL    HW254309   1.287   8.069   3.633
13945SOL     OW54310   4.778   7.750   1.370
13945SOL    HW154311   4.726   7.833   1.390
13945SOL    HW254312   4.720   7.684   1.322
13946SOL     OW54313   6.179   8.910   5.347
13946SOL    HW154314   6.145   8.867   5.263
13946SOL    HW254315   6.124   8.990   5.367
13947SOL     OW54316   3.726   8.329   1.688
13947SOL    HW154317   3.809   8.329   1.633
13947SOL    HW254318   3.651   8.289   1.634
13948SOL     OW54319   6.103   7.731   3.226
13948SOL    HW154320   6.141   7.794   3.159
13948SOL    HW254321   6.139   7.752   3.317
13949SOL     OW54322   4.120   8.252   1.790
13949SOL    HW154323   4.045   8.318   1.794
13949SOL    HW254324   4.136   8.214   1.881
13950SOL     OW54325   1.369   8.263   1.535
13950SOL    HW154326   1.317   8.189   1.493
13950SOL    HW254327   1.410   8.231   1.621
13951SOL     OW54328   6.019   7.370   7.055
13951SOL    HW154329   5.928   7.400   7.029
13951SOL    HW254330   6.048   7.417   7.138
13952SOL     OW54331   3.473   8.164   7.250
13952SOL    HW154332   3.492   8.186   7.346
13952SOL    HW254333   3.432   8.073   7.244
13953SOL     OW54334   3.732   8.195   5.463
13953SOL    HW154335   3.821   8.220   5.501
13953SOL    HW254336   3.682   8.277   5.438
13954SOL     OW54337   4.977   9.000   1.134
13954SOL    HW154338   5.040   8.924   1.117
13954SOL    HW254339   5.017   9.061   1.203
13955SOL     OW54340   3.321   8.247   6.850
13955SOL    HW154341   3.387   8.275   6.920
13955SOL    HW254342   3.301   8.149   6.861
13956SOL     OW54343   1.980   8.219   0.789
13956SOL    HW154344   2.026   8.142   0.744
13956SOL    HW254345   2.034   8.302   0.777
13957SOL     OW54346   7.041   8.406   1.572
13957SOL    HW154347   7.051   8.484   1.510
13957SOL    HW254348   6.996   8.436   1.656
13958SOL     OW54349   0.584   8.750   0.839
13958SOL    HW154350   0.634   8.763   0.925
13958SOL    HW254351   0.552   8.839   0.806
13959SOL     OW54352   4.030   8.508   5.709
13959SOL    HW154353   4.071   8.460   5.786
13959SOL    HW254354   4.079   8.593   5.692
13960SOL     OW54355   6.748   7.725   1.896
13960SOL    HW154356   6.835   7.774   1.908
13960SOL    HW254357   6.739   7.655   1.967
13961SOL     OW54358   4.484   8.325   2.998
13961SOL    HW154359   4.451   8.374   3.080
13961SOL    HW254360   4.584   8.317   3.003
13962SOL     OW54361   6.539   8.706   7.032
13962SOL    HW154362   6.542   8.671   6.938
13962SOL    HW254363   6.444   8.716   7.061
13963SOL     OW54364   6.193   8.918   1.781
13963SOL    HW154365   6.167   9.009   1.750
13963SOL    HW254366   6.219   8.921   1.877
13964SOL     OW54367   3.827   8.272   3.028
13964SOL    HW154368   3.892   8.206   2.990
13964SOL    HW254369   3.749   8.223   3.066
13965SOL     OW54370   6.468   7.651   1.186
13965SOL    HW154371   6.519   7.725   1.142
13965SOL    HW254372   6.454   7.577   1.121
13966SOL     OW54373   5.134   8.680   1.396
13966SOL    HW154374   5.210   8.676   1.461
13966SOL    HW254375   5.104   8.587   1.375
13967SOL     OW54376   5.920   7.380   3.074
13967SOL    HW154377   5.870   7.368   3.160
13967SOL    HW254378   5.857   7.400   3.000
13968SOL     OW54379   1.147   9.057   0.994
13968SOL    HW154380   1.218   8.991   0.970
13968SOL    HW254381   1.152   9.135   0.932
13969SOL     OW54382   2.011   9.179   4.338
13969SOL    HW154383   1.979   9.130   4.256
13969SOL    HW254384   2.007   9.117   4.417
13970SOL     OW54385   5.884   7.568   1.355
13970SOL    HW154386   5.939   7.601   1.432
13970SOL    HW254387   5.787   7.569   1.379
13971SOL     OW54388   7.322   8.272   2.816
13971SOL    HW154389   7.294   8.294   2.909
13971SOL    HW254390   7.303   8.176   2.797
13972SOL     OW54391   2.739   7.571   2.127
13972SOL    HW154392   2.697   7.481   2.119
13972SOL    HW254393   2.826   7.564   2.174
13973SOL     OW54394   0.677   8.524   0.177
13973SOL    HW154395   0.658   8.461   0.102
13973SOL    HW254396   0.745   8.484   0.238
13974SOL     OW54397   1.654   8.746   1.496
13974SOL    HW154398   1.736   8.733   1.552
13974SOL    HW254399   1.581   8.685   1.528
13975SOL     OW54400   4.065   9.309   2.642
13975SOL    HW154401   4.002   9.239   2.677
13975SOL    HW254402   4.026   9.400   2.659
13976SOL     OW54403   1.064   8.278   4.332
13976SOL    HW154404   1.150   8.233   4.354
13976SOL    HW254405   1.045   8.271   4.234
13977SOL     OW54406   5.393   8.421   0.721
13977SOL    HW154407   5.295   8.429   0.740
13977SOL    HW254408   5.412   8.453   0.628
13978SOL     OW54409   1.245   8.555   6.701
13978SOL    HW154410   1.192   8.544   6.616
13978SOL    HW254411   1.230   8.476   6.759
13979SOL     OW54412   1.477   8.688   6.807
13979SOL    HW154413   1.533   8.613   6.841
13979SOL    HW254414   1.401   8.651   6.754
13980SOL     OW54415   0.858   8.358   2.341
13980SOL    HW154416   0.908   8.312   2.413
13980SOL    HW254417   0.879   8.456   2.341
13981SOL     OW54418   1.572   8.505   1.625
13981SOL    HW154419   1.619   8.545   1.704
13981SOL    HW254420   1.559   8.407   1.639
13982SOL     OW54421   3.212   7.602   0.915
13982SOL    HW154422   3.243   7.662   0.842
13982SOL    HW254423   3.201   7.509   0.880
13983SOL     OW54424   2.757   7.772   1.706
13983SOL    HW154425   2.842   7.723   1.688
13983SOL    HW254426   2.757   7.858   1.655
13984SOL     OW54427   0.648   7.758   4.965
13984SOL    HW154428   0.653   7.858   4.964
13984SOL    HW254429   0.557   7.729   4.936
13985SOL     OW54430   5.004   8.067   6.789
13985SOL    HW154431   5.085   8.017   6.821
13985SOL    HW254432   4.977   8.032   6.700
13986SOL     OW54433   5.959   7.376   0.906
13986SOL    HW154434   5.972   7.439   0.983
13986SOL    HW254435   5.935   7.286   0.941
13987SOL     OW54436   2.134   7.756   3.062
13987SOL    HW154437   2.119   7.746   3.160
13987SOL    HW254438   2.126   7.667   3.018
13988SOL     OW54439   6.583   7.825   4.970
13988SOL    HW154440   6.605   7.819   4.873
13988SOL    HW254441   6.499   7.773   4.988
13989SOL     OW54442   3.819   7.711   0.290
13989SOL    HW154443   3.864   7.667   0.213
13989SOL    HW254444   3.790   7.641   0.355
13990SOL     OW54445   3.720   7.832   0.601
13990SOL    HW154446   3.647   7.790   0.547
13990SOL    HW254447   3.707   7.931   0.601
13991SOL     OW54448   1.989   8.443   4.364
13991SOL    HW154449   2.015   8.381   4.290
13991SOL    HW254450   1.937   8.519   4.326
13992SOL     OW54451   5.162   7.744   3.605
13992SOL    HW154452   5.073   7.712   3.572
13992SOL    HW254453   5.213   7.666   3.643
13993SOL     OW54454   6.760   8.057   1.703
13993SOL    HW154455   6.693   8.120   1.742
13993SOL    HW254456   6.726   8.020   1.617
13994SOL     OW54457   3.964   8.674   5.026
13994SOL    HW154458   4.046   8.619   5.014
13994SOL    HW254459   3.945   8.684   5.124
13995SOL     OW54460   3.897   8.811   4.623
13995SOL    HW154461   3.949   8.782   4.542
13995SOL    HW254462   3.826   8.876   4.595
13996SOL     OW54463   0.264   8.858   0.873
13996SOL    HW154464   0.355   8.884   0.842
13996SOL    HW254465   0.198   8.928   0.844
13997SOL     OW54466   6.780   7.576   6.493
13997SOL    HW154467   6.838   7.566   6.412
13997SOL    HW254468   6.790   7.495   6.551
13998SOL     OW54469   1.884   7.790   6.809
13998SOL    HW154470   1.906   7.816   6.903
13998SOL    HW254471   1.798   7.739   6.807
13999SOL     OW54472   5.500   7.797   2.388
13999SOL    HW154473   5.579   7.747   2.422
13999SOL    HW254474   5.425   7.790   2.454
14000SOL     OW54475   6.219   7.569   1.736
14000SOL    HW154476   6.300   7.624   1.754
14000SOL    HW254477   6.152   7.581   1.809
14001SOL     OW54478   3.325   7.377   1.402
14001SOL    HW154479   3.402   7.317   1.381
14001SOL    HW254480   3.290   7.416   1.317
14002SOL     OW54481   5.786   7.894   1.089
14002SOL    HW154482   5.818   7.906   0.995
14002SOL    HW254483   5.698   7.941   1.101
14003SOL     OW54484   4.503   8.574   3.888
14003SOL    HW154485   4.534   8.552   3.981
14003SOL    HW254486   4.574   8.550   3.822
14004SOL     OW54487   1.695   8.233   6.070
14004SOL    HW154488   1.783   8.229   6.118
14004SOL    HW254489   1.697   8.306   6.002
14005SOL     OW54490   0.926   7.737   3.209
14005SOL    HW154491   0.857   7.796   3.169
14005SOL    HW254492   0.882   7.658   3.252
14006SOL     OW54493   7.036   8.380   5.032
14006SOL    HW154494   7.116   8.350   4.981
14006SOL    HW254495   7.062   8.451   5.097
14007SOL     OW54496   7.264   8.743   3.498
14007SOL    HW154497   7.221   8.662   3.459
14007SOL    HW254498   7.274   8.730   3.597
14008SOL     OW54499   3.508   9.264   5.059
14008SOL    HW154500   3.479   9.357   5.081
14008SOL    HW254501   3.541   9.219   5.142
14009SOL     OW54502   4.931   8.168   0.762
14009SOL    HW154503   4.993   8.113   0.705
14009SOL    HW254504   4.984   8.235   0.813
14010SOL     OW54505   2.511   7.604   1.783
14010SOL    HW154506   2.591   7.660   1.803
14010SOL    HW254507   2.432   7.640   1.832
14011SOL     OW54508   7.099   8.753   1.052
14011SOL    HW154509   7.061   8.829   1.000
14011SOL    HW254510   7.039   8.732   1.129
14012SOL     OW54511   5.531   8.533   4.485
14012SOL    HW154512   5.607   8.577   4.437
14012SOL    HW254513   5.561   8.444   4.520
14013SOL     OW54514   3.540   7.962   2.824
14013SOL    HW154515   3.447   7.926   2.810
14013SOL    HW254516   3.605   7.886   2.821
14014SOL     OW54517   5.098   7.789   1.847
14014SOL    HW154518   5.097   7.884   1.876
14014SOL    HW254519   5.039   7.778   1.766
14015SOL     OW54520   6.927   8.762   1.270
14015SOL    HW154521   6.885   8.751   1.360
14015SOL    HW254522   6.932   8.859   1.246
14016SOL     OW54523   0.838   7.566   1.174
14016SOL    HW154524   0.845   7.467   1.186
14016SOL    HW254525   0.750   7.589   1.131
14017SOL     OW54526   5.137   7.645   6.000
14017SOL    HW154527   5.181   7.704   6.068
14017SOL    HW254528   5.188   7.559   5.993
14018SOL     OW54529   6.882   8.151   2.428
14018SOL    HW154530   6.883   8.086   2.504
14018SOL    HW254531   6.976   8.170   2.399
14019SOL     OW54532   4.922   8.110   3.851
14019SOL    HW154533   4.822   8.108   3.848
14019SOL    HW254534   4.952   8.139   3.942
14020SOL     OW54535   1.773   7.991   0.231
14020SOL    HW154536   1.696   7.930   0.217
14020SOL    HW254537   1.803   8.028   0.142
14021SOL     OW54538   2.553   7.700   6.544
14021SOL    HW154539   2.616   7.682   6.619
14021SOL    HW254540   2.460   7.680   6.573
14022SOL     OW54541   0.980   8.374   1.923
14022SOL    HW154542   0.955   8.342   1.832
14022SOL    HW254543   0.991   8.473   1.921
14023SOL     OW54544   5.801   8.667   6.775
14023SOL    HW154545   5.765   8.735   6.839
14023SOL    HW254546   5.891   8.696   6.743
14024SOL     OW54547   5.495   8.318   6.515
14024SOL    HW154548   5.434   8.309   6.436
14024SOL    HW254549   5.444   8.355   6.592
14025SOL     OW54550   4.061   8.717   2.670
14025SOL    HW154551   4.005   8.634   2.679
14025SOL    HW254552   4.141   8.697   2.613
14026SOL     OW54553   0.808   7.849   0.742
14026SOL    HW154554   0.862   7.765   0.753
14026SOL    HW254555   0.736   7.833   0.674
14027SOL     OW54556   0.303   7.447   3.080
14027SOL    HW154557   0.331   7.524   3.137
14027SOL    HW254558   0.242   7.387   3.132
14028SOL     OW54559   6.295   8.162   0.131
14028SOL    HW154560   6.288   8.106   0.214
14028SOL    HW254561   6.206   8.167   0.086
14029SOL     OW54562   5.924   8.283   0.223
14029SOL    HW154563   5.987   8.262   0.298
14029SOL    HW254564   5.974   8.278   0.136
14030SOL     OW54565   0.046   7.827   2.293
14030SOL    HW154566   0.055   7.737   2.250
14030SOL    HW254567  -0.032   7.827   2.355
14031SOL     OW54568   5.065   8.532   6.751
14031SOL    HW154569   4.974   8.495   6.732
14031SOL    HW254570   5.071   8.560   6.846
14032SOL     OW54571   1.860   7.623   3.769
14032SOL    HW154572   1.833   7.571   3.688
14032SOL    HW254573   1.918   7.566   3.827
14033SOL     OW54574   7.255   8.549   5.371
14033SOL    HW154575   7.201   8.582   5.294
14033SOL    HW254576   7.257   8.618   5.443
14034SOL     OW54577   3.474   7.482   0.592
14034SOL    HW154578   3.379   7.453   0.605
14034SOL    HW254579   3.535   7.403   0.600
14035SOL     OW54580   4.205   7.968   3.789
14035SOL    HW154581   4.153   8.053   3.794
14035SOL    HW254582   4.178   7.917   3.708
14036SOL     OW54583   0.605   7.543   1.032
14036SOL    HW154584   0.641   7.636   1.027
14036SOL    HW254585   0.534   7.530   0.964
14037SOL     OW54586   3.350   8.546   6.341
14037SOL    HW154587   3.415   8.472   6.360
14037SOL    HW254588   3.352   8.568   6.244
14038SOL     OW54589   3.855   8.410   6.110
14038SOL    HW154590   3.912   8.353   6.170
14038SOL    HW254591   3.887   8.504   6.112
14039SOL     OW54592   0.772   8.267   1.660
14039SOL    HW154593   0.733   8.198   1.598
14039SOL    HW254594   0.865   8.290   1.630
14040SOL     OW54595   2.135   8.544   1.134
14040SOL    HW154596   2.126   8.474   1.064
14040SOL    HW254597   2.152   8.500   1.223
14041SOL     OW54598   1.667   7.399   3.721
14041SOL    HW154599   1.581   7.450   3.723
14041SOL    HW254600   1.708   7.400   3.812
14042SOL     OW54601   4.553   7.692   0.140
14042SOL    HW154602   4.486   7.765   0.129
14042SOL    HW254603   4.506   7.604   0.151
14043SOL     OW54604   6.667   7.984   1.423
14043SOL    HW154605   6.728   7.951   1.350
14043SOL    HW254606   6.586   7.926   1.427
14044SOL     OW54607   4.758   8.798   4.025
14044SOL    HW154608   4.834   8.777   4.087
14044SOL    HW254609   4.757   8.732   3.950
14045SOL     OW54610   5.438   8.023   1.251
14045SOL    HW154611   5.437   8.008   1.153
14045SOL    HW254612   5.348   8.054   1.281
14046SOL     OW54613   1.911   8.604   6.890
14046SOL    HW154614   2.004   8.622   6.857
14046SOL    HW254615   1.897   8.506   6.899
14047SOL     OW54616   0.177   7.918   1.368
14047SOL    HW154617   0.115   7.924   1.290
14047SOL    HW254618   0.168   8.001   1.424
14048SOL     OW54619   0.651   7.821   1.035
14048SOL    HW154620   0.588   7.860   0.968
14048SOL    HW254621   0.707   7.894   1.076
14049SOL     OW54622   2.522   9.010   6.048
14049SOL    HW154623   2.516   9.076   6.123
14049SOL    HW254624   2.429   8.991   6.014
14050SOL     OW54625   2.719   7.715   7.256
14050SOL    HW154626   2.711   7.740   7.352
14050SOL    HW254627   2.736   7.797   7.201
14051SOL     OW54628   3.705   8.496   5.129
14051SOL    HW154629   3.736   8.557   5.056
14051SOL    HW254630   3.784   8.468   5.184
14052SOL     OW54631   7.028   8.232   0.981
14052SOL    HW154632   7.117   8.226   0.935
14052SOL    HW254633   6.959   8.185   0.926
14053SOL     OW54634   2.900   7.510   5.220
14053SOL    HW154635   2.972   7.560   5.269
14053SOL    HW254636   2.929   7.495   5.125
14054SOL     OW54637   0.916   8.002   1.410
14054SOL    HW154638   0.911   7.906   1.436
14054SOL    HW254639   0.825   8.043   1.413
14055SOL     OW54640   3.776   8.748   7.024
14055SOL    HW154641   3.764   8.702   6.936
14055SOL    HW254642   3.855   8.708   7.072
14056SOL     OW54643   3.937   8.173   0.257
14056SOL    HW154644   3.983   8.180   0.169
14056SOL    HW254645   3.990   8.112   0.317
14057SOL     OW54646   1.379   7.599   6.999
14057SOL    HW154647   1.449   7.540   7.040
14057SOL    HW254648   1.402   7.615   6.903
14058SOL     OW54649   5.530   8.298   2.840
14058SOL    HW154650   5.567   8.233   2.773
14058SOL    HW254651   5.444   8.263   2.877
14059SOL     OW54652   5.424   8.272   6.954
14059SOL    HW154653   5.387   8.315   6.872
14059SOL    HW254654   5.469   8.341   7.010
14060SOL     OW54655   4.877   8.931   2.778
14060SOL    HW154656   4.872   8.884   2.866
14060SOL    HW254657   4.820   9.013   2.780
14061SOL     OW54658   3.385   7.407   0.320
14061SOL    HW154659   3.424   7.426   0.410
14061SOL    HW254660   3.434   7.459   0.251
14062SOL     OW54661   5.772   8.876   6.968
14062SOL    HW154662   5.711   8.839   7.038
14062SOL    HW254663   5.735   8.961   6.933
14063SOL     OW54664   3.159   7.565   5.721
14063SOL    HW154665   3.210   7.627   5.662
14063SOL    HW254666   3.119   7.617   5.797
14064SOL     OW54667   3.260   8.173   4.707
14064SOL    HW154668   3.191   8.102   4.695
14064SOL    HW254669   3.217   8.256   4.743
14065SOL     OW54670   3.467   7.882   3.234
14065SOL    HW154671   3.445   7.945   3.160
14065SOL    HW254672   3.387   7.826   3.255
14066SOL     OW54673   7.051   7.465   2.420
14066SOL    HW154674   7.016   7.433   2.509
14066SOL    HW254675   7.130   7.409   2.394
14067SOL     OW54676   6.263   8.938   2.063
14067SOL    HW154677   6.350   8.895   2.087
14067SOL    HW254678   6.276   9.036   2.049
14068SOL     OW54679   4.231   7.733   2.708
14068SOL    HW154680   4.166   7.791   2.659
14068SOL    HW254681   4.265   7.782   2.789
14069SOL     OW54682   6.585   7.382   1.714
14069SOL    HW154683   6.499   7.351   1.673
14069SOL    HW254684   6.586   7.482   1.718
14070SOL     OW54685   0.501   8.026   5.588
14070SOL    HW154686   0.532   7.949   5.531
14070SOL    HW254687   0.543   8.019   5.679
14071SOL     OW54688   1.540   7.827   0.121
14071SOL    HW154689   1.483   7.760   0.167
14071SOL    HW254690   1.487   7.871   0.048
14072SOL     OW54691   3.869   7.691   0.783
14072SOL    HW154692   3.832   7.692   0.876
14072SOL    HW254693   3.816   7.753   0.725
14073SOL     OW54694   2.579   8.552   2.236
14073SOL    HW154695   2.551   8.584   2.326
14073SOL    HW254696   2.630   8.466   2.245
14074SOL     OW54697   6.302   8.198   1.990
14074SOL    HW154698   6.358   8.128   2.034
14074SOL    HW254699   6.207   8.168   1.987
14075SOL     OW54700   5.505   8.829   1.500
14075SOL    HW154701   5.546   8.795   1.415
14075SOL    HW254702   5.458   8.916   1.482
14076SOL     OW54703   6.497   7.404   0.257
14076SOL    HW154704   6.536   7.490   0.291
14076SOL    HW254705   6.510   7.399   0.158
14077SOL     OW54706   4.377   7.978   0.902
14077SOL    HW154707   4.362   7.892   0.951
14077SOL    HW254708   4.465   7.975   0.855
14078SOL     OW54709   5.044   7.365   2.359
14078SOL    HW154710   5.000   7.279   2.333
14078SOL    HW254711   5.048   7.426   2.280
14079SOL     OW54712   3.210   7.889   2.660
14079SOL    HW154713   3.138   7.956   2.641
14079SOL    HW254714   3.237   7.895   2.756
14080SOL     OW54715   1.539   8.172   2.966
14080SOL    HW154716   1.619   8.127   3.005
14080SOL    HW254717   1.528   8.144   2.871
14081SOL     OW54718   1.378   8.684   7.240
14081SOL    HW154719   1.337   8.726   7.321
14081SOL    HW254720   1.433   8.752   7.192
14082SOL     OW54721   0.108   7.959   5.783
14082SOL    HW154722   0.015   7.998   5.786
14082SOL    HW254723   0.170   8.026   5.741
14083SOL     OW54724   3.263   8.613   7.032
14083SOL    HW154725   3.323   8.550   7.082
14083SOL    HW254726   3.318   8.679   6.982
14084SOL     OW54727   3.530   7.601   3.997
14084SOL    HW154728   3.498   7.562   4.084
14084SOL    HW254729   3.577   7.530   3.944
14085SOL     OW54730   4.106   9.263   4.510
14085SOL    HW154731   4.106   9.229   4.604
14085SOL    HW254732   4.199   9.290   4.484
14086SOL     OW54733   3.033   8.286   6.614
14086SOL    HW154734   3.112   8.227   6.604
14086SOL    HW254735   3.063   8.378   6.640
14087SOL     OW54736   2.736   7.731   0.193
14087SOL    HW154737   2.691   7.646   0.220
14087SOL    HW254738   2.834   7.723   0.209
14088SOL     OW54739   5.186   8.514   1.014
14088SOL    HW154740   5.157   8.466   0.932
14088SOL    HW254741   5.284   8.532   1.009
14089SOL     OW54742   6.876   7.723   0.298
14089SOL    HW154743   6.923   7.687   0.378
14089SOL    HW254744   6.913   7.813   0.275
14090SOL     OW54745   2.746   8.054   3.449
14090SOL    HW154746   2.673   8.053   3.380
14090SOL    HW254747   2.808   8.131   3.431
14091SOL     OW54748   1.613   8.211   1.655
14091SOL    HW154749   1.686   8.163   1.607
14091SOL    HW254750   1.587   8.159   1.737
14092SOL     OW54751   2.946   7.851   3.634
14092SOL    HW154752   3.011   7.898   3.695
14092SOL    HW254753   2.879   7.917   3.600
14093SOL     OW54754   4.687   8.837   4.640
14093SOL    HW154755   4.679   8.873   4.547
14093SOL    HW254756   4.672   8.911   4.705
14094SOL     OW54757   4.603   7.737   6.021
14094SOL    HW154758   4.659   7.694   6.092
14094SOL    HW254759   4.659   7.754   5.940
14095SOL     OW54760   4.518   7.626   0.855
14095SOL    HW154761   4.455   7.555   0.885
14095SOL    HW254762   4.479   7.673   0.776
14096SOL     OW54763   5.131   8.710   3.000
14096SOL    HW154764   5.175   8.623   3.020
14096SOL    HW254765   5.172   8.750   2.918
14097SOL     OW54766   1.313   8.421   3.958
14097SOL    HW154767   1.356   8.376   3.880
14097SOL    HW254768   1.340   8.375   4.043
14098SOL     OW54769   6.043   7.808   1.125
14098SOL    HW154770   5.953   7.840   1.152
14098SOL    HW254771   6.041   7.708   1.112
14099SOL     OW54772   4.705   8.213   7.126
14099SOL    HW154773   4.725   8.264   7.043
14099SOL    HW254774   4.789   8.196   7.177
14100SOL     OW54775   3.558   8.554   7.129
14100SOL    HW154776   3.652   8.586   7.139
14100SOL    HW254777   3.499   8.602   7.194
14101SOL     OW54778   0.930   8.715   3.493
14101SOL    HW154779   0.976   8.776   3.557
14101SOL    HW254780   0.970   8.624   3.498
14102SOL     OW54781   2.065   7.964   7.238
14102SOL    HW154782   2.093   8.058   7.220
14102SOL    HW254783   2.092   7.938   7.331
14103SOL     OW54784   6.055   7.807   0.335
14103SOL    HW154785   5.963   7.769   0.325
14103SOL    HW254786   6.099   7.811   0.245
14104SOL     OW54787   2.782   8.522   0.146
14104SOL    HW154788   2.834   8.449   0.190
14104SOL    HW254789   2.845   8.585   0.100
14105SOL     OW54790   6.256   8.487   0.881
14105SOL    HW154791   6.343   8.502   0.929
14105SOL    HW254792   6.198   8.428   0.936
14106SOL     OW54793   4.639   8.137   6.463
14106SOL    HW154794   4.581   8.067   6.422
14106SOL    HW254795   4.627   8.224   6.414
14107SOL     OW54796   5.743   8.952   0.894
14107SOL    HW154797   5.651   8.913   0.883
14107SOL    HW254798   5.800   8.924   0.817
14108SOL     OW54799   7.261   8.865   0.644
14108SOL    HW154800   7.177   8.893   0.598
14108SOL    HW254801   7.243   8.785   0.701
14109SOL     OW54802   6.457   9.036   2.541
14109SOL    HW154803   6.427   9.125   2.576
14109SOL    HW254804   6.551   9.019   2.571
14110SOL     OW54805   7.199   8.204   2.060
14110SOL    HW154806   7.232   8.111   2.080
14110SOL    HW254807   7.268   8.253   2.007
14111SOL     OW54808   5.962   8.627   2.726
14111SOL    HW154809   5.977   8.531   2.703
14111SOL    HW254810   6.050   8.669   2.750
14112SOL     OW54811   2.819   8.563   1.547
14112SOL    HW154812   2.902   8.544   1.600
14112SOL    HW254813   2.832   8.645   1.492
14113SOL     OW54814   7.088   8.955   4.499
14113SOL    HW154815   7.154   9.006   4.555
14113SOL    HW254816   7.097   8.981   4.403
14114SOL     OW54817   6.354   8.390   6.739
14114SOL    HW154818   6.264   8.424   6.766
14114SOL    HW254819   6.349   8.353   6.646
14115SOL     OW54820   5.409   8.634   3.668
14115SOL    HW154821   5.400   8.541   3.634
14115SOL    HW254822   5.448   8.692   3.596
14116SOL     OW54823   3.715   7.731   5.155
14116SOL    HW154824   3.675   7.819   5.182
14116SOL    HW254825   3.747   7.683   5.237
14117SOL     OW54826   4.268   8.354   6.416
14117SOL    HW154827   4.257   8.329   6.512
14117SOL    HW254828   4.196   8.312   6.362
14118SOL     OW54829   1.434   8.817   3.828
14118SOL    HW154830   1.417   8.878   3.905
14118SOL    HW254831   1.486   8.865   3.758
14119SOL     OW54832   6.889   9.242   2.395
14119SOL    HW154833   6.804   9.287   2.422
14119SOL    HW254834   6.882   9.209   2.301
14120SOL     OW54835   3.854   8.720   0.121
14120SOL    HW154836   3.776   8.779   0.140
14120SOL    HW254837   3.931   8.746   0.178
14121SOL     OW54838   5.867   7.709   2.237
14121SOL    HW154839   5.828   7.661   2.158
14121SOL    HW254840   5.891   7.643   2.308
14122SOL     OW54841   1.996   8.493   1.836
14122SOL    HW154842   1.958   8.565   1.778
14122SOL    HW254843   1.927   8.424   1.853
14123SOL     OW54844   3.644   7.870   2.439
14123SOL    HW154845   3.578   7.814   2.389
14123SOL    HW254846   3.652   7.836   2.533
14124SOL     OW54847   2.202   7.498   3.002
14124SOL    HW154848   2.140   7.442   3.057
14124SOL    HW254849   2.289   7.451   2.991
14125SOL     OW54850   4.462   7.962   6.139
14125SOL    HW154851   4.448   7.951   6.238
14125SOL    HW254852   4.510   7.883   6.103
14126SOL     OW54853   4.260   8.743   3.211
14126SOL    HW154854   4.259   8.800   3.293
14126SOL    HW254855   4.355   8.728   3.182
14127SOL     OW54856   5.254   8.031   2.776
14127SOL    HW154857   5.221   8.101   2.712
14127SOL    HW254858   5.284   8.075   2.861
14128SOL     OW54859   5.139   7.508   4.242
14128SOL    HW154860   5.112   7.464   4.156
14128SOL    HW254861   5.232   7.480   4.266
14129SOL     OW54862   6.034   8.846   5.125
14129SOL    HW154863   5.937   8.871   5.134
14129SOL    HW254864   6.067   8.872   5.035
14130SOL     OW54865   3.970   7.468   1.839
14130SOL    HW154866   3.961   7.519   1.924
14130SOL    HW254867   3.916   7.383   1.845
14131SOL     OW54868   3.122   8.697   0.602
14131SOL    HW154869   3.070   8.690   0.516
14131SOL    HW254870   3.080   8.639   0.671
14132SOL     OW54871   4.958   8.276   1.077
14132SOL    HW154872   4.882   8.331   1.041
14132SOL    HW254873   4.922   8.206   1.138
14133SOL     OW54874   0.915   8.176   2.144
14133SOL    HW154875   0.949   8.223   2.063
14133SOL    HW254876   0.888   8.242   2.213
14134SOL     OW54877   4.480   8.391   3.281
14134SOL    HW154878   4.404   8.407   3.345
14134SOL    HW254879   4.516   8.299   3.294
14135SOL     OW54880   6.040   7.577   6.180
14135SOL    HW154881   6.106   7.515   6.138
14135SOL    HW254882   6.088   7.638   6.243
14136SOL     OW54883   7.177   8.810   1.536
14136SOL    HW154884   7.221   8.760   1.610
14136SOL    HW254885   7.183   8.908   1.554
14137SOL     OW54886   5.489   8.644   6.799
14137SOL    HW154887   5.586   8.619   6.800
14137SOL    HW254888   5.478   8.735   6.758
14138SOL     OW54889   1.591   8.427   4.936
14138SOL    HW154890   1.615   8.400   4.843
14138SOL    HW254891   1.672   8.420   4.994
14139SOL     OW54892   4.814   7.667   0.645
14139SOL    HW154893   4.819   7.740   0.577
14139SOL    HW254894   4.851   7.699   0.732
14140SOL     OW54895   2.204   8.822   6.120
14140SOL    HW154896   2.170   8.729   6.101
14140SOL    HW254897   2.163   8.855   6.205
14141SOL     OW54898   5.115   7.500   3.933
14141SOL    HW154899   5.195   7.542   3.892
14141SOL    HW254900   5.114   7.402   3.911
14142SOL     OW54901   2.936   8.075   7.357
14142SOL    HW154902   2.963   8.158   7.406
14142SOL    HW254903   2.846   8.045   7.389
14143SOL     OW54904   4.653   8.465   4.103
14143SOL    HW154905   4.598   8.385   4.127
14143SOL    HW254906   4.659   8.526   4.182
14144SOL     OW54907   4.954   7.529   6.993
14144SOL    HW154908   4.927   7.504   7.086
14144SOL    HW254909   5.032   7.473   6.964
14145SOL     OW54910   2.156   8.191   7.113
14145SOL    HW154911   2.243   8.241   7.110
14145SOL    HW254912   2.083   8.250   7.078
14146SOL     OW54913   5.179   7.854   7.279
14146SOL    HW154914   5.080   7.867   7.267
14146SOL    HW254915   5.196   7.759   7.305
14147SOL     OW54916   4.202   7.875   1.272
14147SOL    HW154917   4.229   7.812   1.199
14147SOL    HW254918   4.276   7.882   1.339
14148SOL     OW54919   5.335   8.151   2.096
14148SOL    HW154920   5.371   8.060   2.117
14148SOL    HW254921   5.330   8.206   2.179
14149SOL     OW54922   1.331   7.438   3.617
14149SOL    HW154923   1.353   7.529   3.652
14149SOL    HW254924   1.253   7.400   3.667
14150SOL     OW54925   4.229   7.661   4.792
14150SOL    HW154926   4.314   7.637   4.837
14150SOL    HW254927   4.194   7.582   4.741
14151SOL     OW54928   6.081   8.177   1.529
14151SOL    HW154929   6.036   8.088   1.520
14151SOL    HW254930   6.134   8.179   1.615
14152SOL     OW54931   6.984   8.936   0.883
14152SOL    HW154932   6.930   9.016   0.909
14152SOL    HW254933   6.938   8.888   0.808
14153SOL     OW54934   6.443   7.943   0.023
14153SOL    HW154935   6.390   8.022   0.052
14153SOL    HW254936   6.540   7.969   0.014
14154SOL     OW54937   3.993   8.024   1.560
14154SOL    HW154938   3.945   7.940   1.535
14154SOL    HW254939   4.066   8.003   1.625
14155SOL     OW54940   4.769   7.644   4.235
14155SOL    HW154941   4.796   7.625   4.140
14155SOL    HW254942   4.824   7.719   4.271
14156SOL     OW54943   1.066   8.581   3.025
14156SOL    HW154944   0.968   8.577   3.041
14156SOL    HW254945   1.114   8.563   3.111
14157SOL     OW54946   5.533   7.779   6.227
14157SOL    HW154947   5.608   7.819   6.280
14157SOL    HW254948   5.556   7.685   6.201
14158SOL     OW54949   2.854   8.884   6.834
14158SOL    HW154950   2.829   8.938   6.914
14158SOL    HW254951   2.802   8.799   6.834
14159SOL     OW54952   4.299   8.632   6.387
14159SOL    HW154953   4.398   8.646   6.383
14159SOL    HW254954   4.278   8.535   6.373
14160SOL     OW54955   6.271   8.196   5.849
14160SOL    HW154956   6.232   8.125   5.791
14160SOL    HW254957   6.369   8.205   5.831
14161SOL     OW54958   5.044   8.482   3.425
14161SOL    HW154959   4.947   8.459   3.415
14161SOL    HW254960   5.063   8.566   3.374
14162SOL     OW54961   2.347   7.712   1.223
14162SOL    HW154962   2.252   7.743   1.217
14162SOL    HW254963   2.375   7.713   1.319
14163SOL     OW54964   5.889   7.520   4.132
14163SOL    HW154965   5.944   7.459   4.076
14163SOL    HW254966   5.803   7.539   4.085
14164SOL     OW54967   2.182   8.540   3.113
14164SOL    HW154968   2.201   8.636   3.091
14164SOL    HW254969   2.123   8.501   3.042
14165SOL     OW54970   7.143   7.401   6.194
14165SOL    HW154971   7.049   7.434   6.197
14165SOL    HW254972   7.186   7.428   6.107
14166SOL     OW54973   2.341   7.396   5.611
14166SOL    HW154974   2.397   7.323   5.650
14166SOL    HW254975   2.245   7.369   5.611
14167SOL     OW54976   2.413   8.164   0.944
14167SOL    HW154977   2.395   8.188   1.039
14167SOL    HW254978   2.483   8.093   0.941
14168SOL     OW54979   4.223   8.233   0.983
14168SOL    HW154980   4.263   8.162   0.925
14168SOL    HW254981   4.137   8.199   1.021
14169SOL     OW54982   7.116   7.963   2.787
14169SOL    HW154983   7.060   7.931   2.711
14169SOL    HW254984   7.143   7.886   2.844
14170SOL     OW54985   5.595   8.339   5.935
14170SOL    HW154986   5.679   8.299   5.973
14170SOL    HW254987   5.610   8.364   5.839
14171SOL     OW54988   6.829   7.707   5.051
14171SOL    HW154989   6.735   7.741   5.041
14171SOL    HW254990   6.844   7.678   5.145
14172SOL     OW54991   4.380   7.691   5.160
14172SOL    HW154992   4.318   7.723   5.089
14172SOL    HW254993   4.328   7.666   5.241
14173SOL     OW54994   3.510   9.037   7.004
14173SOL    HW154995   3.417   9.072   7.016
14173SOL    HW254996   3.506   8.942   6.972
14174SOL     OW54997   6.717   7.995   0.356
14174SOL    HW154998   6.630   7.973   0.311
14174SOL    HW254999   6.714   7.965   0.451
14175SOL     OW55000   2.216   7.366   1.404
14175SOL    HW155001   2.300   7.412   1.433
14175SOL    HW255002   2.215   7.360   1.305
14176SOL     OW55003   2.282   7.992   3.127
14176SOL    HW155004   2.230   8.069   3.090
14176SOL    HW255005   2.248   7.907   3.086
14177SOL     OW55006   3.528   8.390   2.433
14177SOL    HW155007   3.503   8.297   2.458
14177SOL    HW255008   3.627   8.399   2.432
14178SOL     OW55009   1.070   8.450   3.885
14178SOL    HW155010   1.036   8.543   3.898
14178SOL    HW255011   1.166   8.446   3.911
14179SOL     OW55012   2.051   8.907   1.116
14179SOL    HW155013   1.978   8.870   1.173
14179SOL    HW255014   2.012   8.956   1.038
14180SOL     OW55015   3.410   7.991   0.556
14180SOL    HW155016   3.388   8.021   0.463
14180SOL    HW255017   3.465   8.060   0.601
14181SOL     OW55018   0.680   8.490   0.787
14181SOL    HW155019   0.648   8.583   0.804
14181SOL    HW255020   0.774   8.493   0.752
14182SOL     OW55021   3.553   7.500   6.356
14182SOL    HW155022   3.513   7.517   6.447
14182SOL    HW255023   3.611   7.577   6.330
14183SOL     OW55024   4.531   7.825   2.648
14183SOL    HW155025   4.454   7.889   2.656
14183SOL    HW255026   4.521   7.772   2.563
14184SOL     OW55027   2.944   8.187   1.980
14184SOL    HW155028   2.959   8.110   1.918
14184SOL    HW255029   3.032   8.226   2.006
14185SOL     OW55030   4.900   7.429   6.595
14185SOL    HW155031   4.964   7.505   6.582
14185SOL    HW255032   4.839   7.449   6.671
14186SOL     OW55033   4.352   8.626   4.844
14186SOL    HW155034   4.298   8.680   4.779
14186SOL    HW255035   4.333   8.529   4.829
14187SOL     OW55036   2.153   8.497   3.391
14187SOL    HW155037   2.224   8.539   3.448
14187SOL    HW255038   2.185   8.491   3.297
14188SOL     OW55039   4.542   7.372   2.368
14188SOL    HW155040   4.542   7.295   2.432
14188SOL    HW255041   4.475   7.355   2.296
14189SOL     OW55042   6.837   9.245   4.421
14189SOL    HW155043   6.763   9.177   4.426
14189SOL    HW255044   6.817   9.320   4.484
14190SOL     OW55045   3.340   8.657   5.054
14190SOL    HW155046   3.310   8.569   5.016
14190SOL    HW255047   3.293   8.731   5.006
14191SOL     OW55048   0.597   7.978   1.730
14191SOL    HW155049   0.503   7.945   1.726
14191SOL    HW255050   0.615   8.017   1.820
14192SOL     OW55051   5.746   8.744   0.678
14192SOL    HW155052   5.829   8.721   0.627
14192SOL    HW255053   5.719   8.666   0.734
14193SOL     OW55054   4.778   7.995   6.930
14193SOL    HW155055   4.770   7.897   6.912
14193SOL    HW255056   4.870   8.026   6.908
14194SOL     OW55057   6.422   8.070   6.224
14194SOL    HW155058   6.434   8.017   6.307
14194SOL    HW255059   6.381   8.013   6.153
14195SOL     OW55060   5.547   7.513   6.142
14195SOL    HW155061   5.463   7.487   6.094
14195SOL    HW255062   5.615   7.441   6.129
14196SOL     OW55063   6.727   7.442   2.315
14196SOL    HW155064   6.741   7.505   2.393
14196SOL    HW255065   6.688   7.357   2.348
14197SOL     OW55066   5.886   8.901   1.461
14197SOL    HW155067   5.854   8.920   1.368
14197SOL    HW255068   5.899   8.803   1.472
14198SOL     OW55069   3.674   7.456   1.371
14198SOL    HW155070   3.730   7.445   1.453
14198SOL    HW255071   3.686   7.376   1.311
14199SOL     OW55072   5.529   8.086   4.013
14199SOL    HW155073   5.579   8.036   4.084
14199SOL    HW255074   5.588   8.158   3.975
14200SOL     OW55075   1.304   8.119   4.357
14200SOL    HW155076   1.315   8.176   4.439
14200SOL    HW255077   1.294   8.023   4.384
14201SOL     OW55078   2.455   7.754   1.480
14201SOL    HW155079   2.386   7.783   1.547
14201SOL    HW255080   2.534   7.816   1.485
14202SOL     OW55081   6.971   7.778   6.016
14202SOL    HW155082   6.889   7.798   6.070
14202SOL    HW255083   6.964   7.686   5.977
14203SOL     OW55084   4.642   7.521   3.875
14203SOL    HW155085   4.669   7.478   3.789
14203SOL    HW255086   4.714   7.584   3.905
14204SOL     OW55087   2.771   8.825   2.258
14204SOL    HW155088   2.752   8.866   2.169
14204SOL    HW255089   2.688   8.784   2.295
14205SOL     OW55090   6.673   7.613   6.113
14205SOL    HW155091   6.582   7.593   6.147
14205SOL    HW255092   6.667   7.672   6.032
14206SOL     OW55093   5.737   7.421   3.827
14206SOL    HW155094   5.705   7.501   3.879
14206SOL    HW255095   5.765   7.450   3.736
14207SOL     OW55096   5.681   9.314   2.280
14207SOL    HW155097   5.730   9.232   2.306
14207SOL    HW255098   5.666   9.314   2.181
14208SOL     OW55099   0.969   7.668   1.673
14208SOL    HW155100   0.930   7.733   1.739
14208SOL    HW255101   0.942   7.694   1.580
14209SOL     OW55102   6.419   8.080   3.151
14209SOL    HW155103   6.440   8.144   3.226
14209SOL    HW255104   6.493   8.082   3.084
14210SOL     OW55105   6.441   8.376   3.274
14210SOL    HW155106   6.411   8.388   3.180
14210SOL    HW255107   6.539   8.398   3.281
14211SOL     OW55108   4.849   8.461   5.165
14211SOL    HW155109   4.772   8.482   5.225
14211SOL    HW255110   4.827   8.381   5.109
14212SOL     OW55111   6.953   7.915   1.880
14212SOL    HW155112   6.882   7.980   1.852
14212SOL    HW255113   7.040   7.964   1.892
14213SOL     OW55114   2.821   8.808   6.078
14213SOL    HW155115   2.732   8.809   6.032
14213SOL    HW255116   2.844   8.715   6.105
14214SOL     OW55117   3.892   7.859   3.697
14214SOL    HW155118   3.866   7.875   3.792
14214SOL    HW255119   3.848   7.928   3.639
14215SOL     OW55120   0.176   8.204   1.711
14215SOL    HW155121   0.084   8.232   1.739
14215SOL    HW255122   0.234   8.196   1.793
14216SOL     OW55123   5.004   8.726   0.228
14216SOL    HW155124   4.971   8.789   0.158
14216SOL    HW255125   4.930   8.664   0.255
14217SOL     OW55126   1.780   7.874   5.676
14217SOL    HW155127   1.877   7.890   5.662
14217SOL    HW255128   1.764   7.777   5.694
14218SOL     OW55129   6.313   7.966   6.495
14218SOL    HW155130   6.338   7.869   6.493
14218SOL    HW255131   6.275   7.988   6.585
14219SOL     OW55132   5.736   7.708   2.768
14219SOL    HW155133   5.664   7.773   2.745
14219SOL    HW255134   5.822   7.756   2.780
14220SOL     OW55135   3.026   8.785   1.546
14220SOL    HW155136   3.045   8.830   1.634
14220SOL    HW255137   3.078   8.830   1.474
14221SOL     OW55138   5.708   8.244   0.947
14221SOL    HW155139   5.802   8.217   0.925
14221SOL    HW255140   5.701   8.263   1.045
14222SOL     OW55141   2.852   8.996   1.865
14222SOL    HW155142   2.756   8.974   1.886
14222SOL    HW255143   2.906   8.912   1.868
14223SOL     OW55144   2.771   8.612   0.608
14223SOL    HW155145   2.834   8.594   0.684
14223SOL    HW255146   2.818   8.663   0.536
14224SOL     OW55147   4.010   8.042   1.105
14224SOL    HW155148   4.051   7.978   1.169
14224SOL    HW255149   4.017   8.005   1.012
14225SOL     OW55150   6.644   8.517   7.223
14225SOL    HW155151   6.604   8.556   7.140
14225SOL    HW255152   6.660   8.591   7.289
14226SOL     OW55153   4.986   7.489   7.274
14226SOL    HW155154   4.914   7.536   7.326
14226SOL    HW255155   4.983   7.391   7.294
14227SOL     OW55156   1.525   8.839   7.065
14227SOL    HW155157   1.619   8.861   7.092
14227SOL    HW255158   1.526   8.795   6.975
14228SOL     OW55159   3.752   7.741   5.912
14228SOL    HW155160   3.803   7.736   5.826
14228SOL    HW255161   3.722   7.649   5.938
14229SOL     OW55162   4.012   8.087   5.121
14229SOL    HW155163   3.915   8.081   5.098
14229SOL    HW255164   4.056   7.999   5.102
14230SOL     OW55165   6.363   8.904   7.279
14230SOL    HW155166   6.330   8.878   7.370
14230SOL    HW255167   6.329   8.839   7.211
14231SOL     OW55168   6.991   7.991   0.346
14231SOL    HW155169   7.001   7.972   0.443
14231SOL    HW255170   6.935   8.073   0.333
14232SOL     OW55171   4.229   8.457   5.943
14232SOL    HW155172   4.219   8.362   5.973
14232SOL    HW255173   4.222   8.518   6.021
14233SOL     OW55174   6.345   8.420   0.467
14233SOL    HW155175   6.392   8.335   0.489
14233SOL    HW255176   6.413   8.491   0.446
14234SOL     OW55177   3.777   8.055   3.941
14234SOL    HW155178   3.678   8.068   3.947
14234SOL    HW255179   3.799   7.959   3.956
14235SOL     OW55180   1.887   8.147   6.237
14235SOL    HW155181   1.809   8.086   6.251
14235SOL    HW255182   1.969   8.106   6.277
14236SOL     OW55183   3.680   7.694   6.659
14236SOL    HW155184   3.588   7.655   6.657
14236SOL    HW255185   3.693   7.747   6.743
14237SOL     OW55186   7.333   8.218   0.945
14237SOL    HW155187   7.286   8.217   1.033
14237SOL    HW255188   7.361   8.311   0.924
14238SOL     OW55189   0.567   8.663   0.392
14238SOL    HW155190   0.640   8.688   0.456
14238SOL    HW255191   0.605   8.608   0.318
14239SOL     OW55192   6.270   8.178   2.384
14239SOL    HW155193   6.256   8.080   2.367
14239SOL    HW255194   6.366   8.195   2.408
14240SOL     OW55195   2.305   8.701   2.106
14240SOL    HW155196   2.391   8.723   2.152
14240SOL    HW255197   2.243   8.780   2.111
14241SOL     OW55198   3.977   8.504   1.052
14241SOL    HW155199   3.885   8.515   1.014
14241SOL    HW255200   3.976   8.432   1.122
14242SOL     OW55201   5.226   7.965   6.590
14242SOL    HW155202   5.260   7.872   6.596
14242SOL    HW255203   5.270   8.021   6.660
14243SOL     OW55204   4.883   8.007   6.539
14243SOL    HW155205   4.947   7.998   6.463
14243SOL    HW255206   4.813   8.074   6.516
14244SOL     OW55207   1.432   7.542   5.827
14244SOL    HW155208   1.376   7.475   5.875
14244SOL    HW255209   1.405   7.634   5.856
14245SOL     OW55210   6.188   8.024   6.729
14245SOL    HW155211   6.100   8.070   6.738
14245SOL    HW255212   6.253   8.065   6.793
14246SOL     OW55213   0.996   7.474   7.317
14246SOL    HW155214   0.898   7.461   7.303
14246SOL    HW255215   1.011   7.527   7.401
14247SOL     OW55216   1.068   8.334   1.649
14247SOL    HW155217   1.102   8.286   1.569
14247SOL    HW255218   1.135   8.403   1.677
14248SOL     OW55219   3.948   8.498   1.825
14248SOL    HW155220   3.871   8.455   1.778
14248SOL    HW255221   3.956   8.460   1.917
14249SOL     OW55222   4.276   8.591   2.534
14249SOL    HW155223   4.238   8.507   2.573
14249SOL    HW255224   4.376   8.586   2.532
14250SOL     OW55225   2.511   8.337   6.061
14250SOL    HW155226   2.473   8.249   6.088
14250SOL    HW255227   2.604   8.345   6.097
14251SOL     OW55228   0.285   8.784   3.643
14251SOL    HW155229   0.355   8.715   3.661
14251SOL    HW255230   0.224   8.751   3.571
14252SOL     OW55231   2.122   8.642   6.724
14252SOL    HW155232   2.112   8.596   6.636
14252SOL    HW255233   2.208   8.614   6.767
14253SOL     OW55234   4.578   7.738   6.919
14253SOL    HW155235   4.505   7.716   6.984
14253SOL    HW255236   4.539   7.784   6.839
14254SOL     OW55237   4.321   8.528   1.376
14254SOL    HW155238   4.274   8.451   1.419
14254SOL    HW255239   4.326   8.512   1.277
14255SOL     OW55240   3.596   7.381   0.845
14255SOL    HW155241   3.685   7.377   0.890
14255SOL    HW255242   3.584   7.470   0.801
14256SOL     OW55243   2.873   8.540   6.183
14256SOL    HW155244   2.950   8.540   6.247
14256SOL    HW255245   2.826   8.452   6.187
14257SOL     OW55246   4.794   7.371   5.065
14257SOL    HW155247   4.746   7.353   4.979
14257SOL    HW255248   4.891   7.349   5.054
14258SOL     OW55249   5.579   8.779   3.806
14258SOL    HW155250   5.649   8.785   3.735
14258SOL    HW255251   5.499   8.731   3.771
14259SOL     OW55252   3.459   9.207   5.976
14259SOL    HW155253   3.491   9.204   6.071
14259SOL    HW255254   3.364   9.239   5.974
14260SOL     OW55255   6.269   7.429   5.500
14260SOL    HW155256   6.192   7.392   5.552
14260SOL    HW255257   6.323   7.489   5.559
14261SOL     OW55258   6.638   8.256   6.503
14261SOL    HW155259   6.666   8.335   6.557
14261SOL    HW255260   6.688   8.255   6.417
14262SOL     OW55261   0.559   8.210   2.580
14262SOL    HW155262   0.494   8.253   2.642
14262SOL    HW255263   0.545   8.246   2.487
14263SOL     OW55264   7.262   8.827   2.588
14263SOL    HW155265   7.180   8.770   2.600
14263SOL    HW255266   7.237   8.923   2.599
14264SOL     OW55267   6.963   8.436   6.911
14264SOL    HW155268   6.971   8.535   6.920
14264SOL    HW255269   7.020   8.403   6.836
14265SOL     OW55270   5.615   7.736   4.398
14265SOL    HW155271   5.632   7.762   4.493
14265SOL    HW255272   5.644   7.641   4.384
14266SOL     OW55273   4.868   8.313   6.463
14266SOL    HW155274   4.836   8.270   6.378
14266SOL    HW255275   4.889   8.409   6.445
14267SOL     OW55276   3.962   8.810   6.734
14267SOL    HW155277   3.893   8.739   6.746
14267SOL    HW255278   4.049   8.769   6.708
14268SOL     OW55279   3.133   7.685   7.233
14268SOL    HW155280   3.224   7.705   7.269
14268SOL    HW255281   3.076   7.646   7.305
14269SOL     OW55282   6.375   8.120   1.087
14269SOL    HW155283   6.298   8.065   1.053
14269SOL    HW255284   6.352   8.159   1.175
14270SOL     OW55285   3.088   7.526   0.122
14270SOL    HW155286   3.002   7.503   0.076
14270SOL    HW255287   3.136   7.441   0.145
14271SOL     OW55288   1.019   7.470   1.429
14271SOL    HW155289   0.976   7.379   1.425
14271SOL    HW255290   0.949   7.538   1.453
14272SOL     OW55291   6.138   7.748   6.372
14272SOL    HW155292   6.212   7.718   6.433
14272SOL    HW255293   6.064   7.786   6.427
14273SOL     OW55294   3.559   8.155   3.368
14273SOL    HW155295   3.579   8.115   3.279
14273SOL    HW255296   3.467   8.195   3.367
14274SOL     OW55297   5.410   8.554   2.684
14274SOL    HW155298   5.364   8.627   2.734
14274SOL    HW255299   5.445   8.485   2.748
14275SOL     OW55300   2.326   8.076   5.692
14275SOL    HW155301   2.382   8.010   5.641
14275SOL    HW255302   2.372   8.165   5.692
14276SOL     OW55303   0.993   8.449   4.541
14276SOL    HW155304   0.987   8.549   4.529
14276SOL    HW255305   1.001   8.406   4.452
14277SOL     OW55306   0.944   8.635   1.960
14277SOL    HW155307   0.871   8.656   1.895
14277SOL    HW255308   0.972   8.719   2.007
14278SOL     OW55309   5.351   8.038   6.812
14278SOL    HW155310   5.321   7.955   6.859
14278SOL    HW255311   5.398   8.097   6.878
14279SOL     OW55312   0.784   8.571   3.083
14279SOL    HW155313   0.717   8.567   3.009
14279SOL    HW255314   0.765   8.499   3.150
14280SOL     OW55315   2.280   8.314   6.708
14280SOL    HW155316   2.241   8.230   6.745
14280SOL    HW255317   2.378   8.316   6.728
14281SOL     OW55318   4.027   8.096   2.914
14281SOL    HW155319   4.006   8.085   2.817
14281SOL    HW255320   4.105   8.158   2.924
14282SOL     OW55321   3.893   7.866   2.346
14282SOL    HW155322   3.892   7.965   2.364
14282SOL    HW255323   3.817   7.823   2.395
14283SOL     OW55324   5.314   8.705   4.373
14283SOL    HW155325   5.372   8.644   4.428
14283SOL    HW255326   5.369   8.780   4.338
14284SOL     OW55327   1.600   7.833   6.935
14284SOL    HW155328   1.530   7.836   7.006
14284SOL    HW255329   1.685   7.873   6.970
14285SOL     OW55330   2.646   8.147   3.087
14285SOL    HW155331   2.591   8.111   3.161
14285SOL    HW255332   2.593   8.148   3.002
14286SOL     OW55333   0.182   8.604   2.216
14286SOL    HW155334   0.129   8.617   2.299
14286SOL    HW255335   0.126   8.557   2.148
14287SOL     OW55336   3.665   7.823   6.926
14287SOL    HW155337   3.626   7.733   6.943
14287SOL    HW255338   3.704   7.859   7.011
14288SOL     OW55339   4.251   7.837   3.552
14288SOL    HW155340   4.334   7.858   3.501
14288SOL    HW255341   4.186   7.789   3.493
14289SOL     OW55342   5.784   8.978   4.377
14289SOL    HW155343   5.767   8.882   4.352
14289SOL    HW255344   5.710   9.035   4.341
14290SOL     OW55345   4.086   9.034   1.985
14290SOL    HW155346   3.987   9.026   1.978
14290SOL    HW255347   4.123   8.953   2.030
14291SOL     OW55348   3.517   8.348   6.432
14291SOL    HW155349   3.605   8.375   6.394
14291SOL    HW255350   3.526   8.260   6.478
14292SOL     OW55351   5.767   7.916   6.795
14292SOL    HW155352   5.823   7.986   6.751
14292SOL    HW255353   5.696   7.960   6.851
14293SOL     OW55354   2.972   7.774   1.982
14293SOL    HW155355   2.936   7.826   1.905
14293SOL    HW255356   2.972   7.831   2.064
14294SOL     OW55357   2.567   8.125   1.708
14294SOL    HW155358   2.523   8.214   1.690
14294SOL    HW255359   2.522   8.081   1.785
14295SOL     OW55360   6.366   8.151   6.900
14295SOL    HW155361   6.373   8.236   6.848
14295SOL    HW255362   6.454   8.130   6.942
14296SOL     OW55363   1.130   8.020   1.753
14296SOL    HW155364   1.207   7.978   1.800
14296SOL    HW255365   1.089   8.091   1.810
14297SOL     OW55366   0.369   8.202   5.284
14297SOL    HW155367   0.362   8.302   5.286
14297SOL    HW255368   0.465   8.175   5.290
14298SOL     OW55369   4.139   7.810   7.252
14298SOL    HW155370   4.132   7.795   7.351
14298SOL    HW255371   4.155   7.723   7.206
14299SOL     OW55372   4.544   8.887   3.290
14299SOL    HW155373   4.585   8.920   3.205
14299SOL    HW255374   4.585   8.799   3.316
14300SOL     OW55375   0.337   8.513   1.183
14300SOL    HW155376   0.334   8.474   1.090
14300SOL    HW255377   0.244   8.527   1.217
14301SOL     OW55378   2.577   7.415   4.853
14301SOL    HW155379   2.669   7.428   4.890
14301SOL    HW255380   2.511   7.466   4.908
14302SOL     OW55381   5.640   7.893   0.451
14302SOL    HW155382   5.658   7.948   0.533
14302SOL    HW255383   5.724   7.845   0.425
14303SOL     OW55384   4.437   8.193   5.786
14303SOL    HW155385   4.443   8.286   5.749
14303SOL    HW255386   4.529   8.160   5.806
14304SOL     OW55387   4.945   8.186   5.415
14304SOL    HW155388   4.972   8.155   5.506
14304SOL    HW255389   5.026   8.197   5.358
14305SOL     OW55390   5.456   8.075   5.963
14305SOL    HW155391   5.504   7.991   5.940
14305SOL    HW255392   5.492   8.151   5.909
14306SOL     OW55393   4.229   8.500   6.923
14306SOL    HW155394   4.174   8.480   7.004
14306SOL    HW255395   4.183   8.569   6.867
14307SOL     OW55396   3.390   7.637   7.332
14307SOL    HW155397   3.444   7.653   7.415
14307SOL    HW255398   3.382   7.539   7.316
14308SOL     OW55399   4.482   8.561   0.527
14308SOL    HW155400   4.530   8.639   0.486
14308SOL    HW255401   4.439   8.590   0.613
14309SOL     OW55402   0.112   8.350   6.445
14309SOL    HW155403   0.057   8.291   6.504
14309SOL    HW255404   0.093   8.328   6.350
14310SOL     OW55405   4.572   7.675   3.218
14310SOL    HW155406   4.521   7.696   3.134
14310SOL    HW255407   4.521   7.607   3.271
14311SOL     OW55408   5.169   8.907   4.007
14311SOL    HW155409   5.264   8.880   4.024
14311SOL    HW255410   5.127   8.937   4.092
14312SOL     OW55411   5.054   7.777   6.908
14312SOL    HW155412   5.048   7.680   6.929
14312SOL    HW255413   5.150   7.806   6.913
14313SOL     OW55414   1.569   8.543   3.536
14313SOL    HW155415   1.502   8.610   3.567
14313SOL    HW255416   1.534   8.494   3.457
14314SOL     OW55417   5.788   9.195   5.896
14314SOL    HW155418   5.774   9.103   5.860
14314SOL    HW255419   5.822   9.189   5.990
14315SOL     OW55420   7.066   7.492   5.435
14315SOL    HW155421   7.066   7.405   5.483
14315SOL    HW255422   6.972   7.521   5.418
14316SOL     OW55423   0.886   7.894   2.153
14316SOL    HW155424   0.892   7.990   2.180
14316SOL    HW255425   0.833   7.843   2.221
14317SOL     OW55426   4.403   7.618   3.654
14317SOL    HW155427   4.308   7.647   3.663
14317SOL    HW255428   4.417   7.532   3.702
14318SOL     OW55429   4.603   8.509   1.371
14318SOL    HW155430   4.512   8.482   1.400
14318SOL    HW255431   4.639   8.580   1.432
14319SOL     OW55432   7.343   7.716   4.875
14319SOL    HW155433   7.337   7.779   4.952
14319SOL    HW255434   7.410   7.751   4.808
14320SOL     OW55435   3.562   8.201   0.167
14320SOL    HW155436   3.607   8.119   0.205
14320SOL    HW255437   3.618   8.282   0.188
14321SOL     OW55438   2.330   8.218   1.185
14321SOL    HW155439   2.408   8.207   1.246
14321SOL    HW255440   2.267   8.285   1.223
14322SOL     OW55441   5.885   7.360   6.261
14322SOL    HW155442   5.943   7.436   6.231
14322SOL    HW255443   5.857   7.374   6.356
14323SOL     OW55444   4.564   7.913   6.687
14323SOL    HW155445   4.662   7.906   6.669
14323SOL    HW255446   4.547   7.987   6.752
14324SOL     OW55447   2.887   8.042   3.079
14324SOL    HW155448   2.806   8.100   3.082
14324SOL    HW255449   2.888   7.983   3.160
14325SOL     OW55450   0.055   7.365   1.791
14325SOL    HW155451   0.049   7.269   1.764
14325SOL    HW255452  -0.001   7.421   1.730
14326SOL     OW55453   0.336   8.292   2.828
14326SOL    HW155454   0.391   8.334   2.900
14326SOL    HW255455   0.243   8.329   2.831
14327SOL     OW55456   3.994   8.291   5.522
14327SOL    HW155457   4.077   8.237   5.508
14327SOL    HW255458   4.002   8.342   5.608
14328SOL     OW55459   1.292   8.506   1.717
14328SOL    HW155460   1.329   8.448   1.644
14328SOL    HW255461   1.252   8.589   1.678
14329SOL     OW55462   4.142   8.302   6.706
14329SOL    HW155463   4.156   8.380   6.767
14329SOL    HW255464   4.172   8.219   6.752
14330SOL     OW55465   5.867   8.664   1.556
14330SOL    HW155466   5.899   8.570   1.548
14330SOL    HW255467   5.804   8.671   1.633
14331SOL     OW55468   5.702   8.717   2.735
14331SOL    HW155469   5.798   8.691   2.736
14331SOL    HW255470   5.645   8.635   2.742
14332SOL     OW55471   0.401   8.484   3.088
14332SOL    HW155472   0.304   8.495   3.067
14332SOL    HW255473   0.456   8.504   3.006
14333SOL     OW55474   4.374   7.953   7.185
14333SOL    HW155475   4.381   8.051   7.167
14333SOL    HW255476   4.281   7.931   7.214
14334SOL     OW55477   3.241   8.440   4.948
14334SOL    HW155478   3.327   8.409   4.905
14334SOL    HW255479   3.174   8.365   4.945
14335SOL     OW55480   3.650   7.739   6.211
14335SOL    HW155481   3.650   7.835   6.238
14335SOL    HW255482   3.694   7.730   6.121
14336SOL     OW55483   4.785   7.747   6.525
14336SOL    HW155484   4.786   7.836   6.480
14336SOL    HW255485   4.877   7.725   6.558
14337SOL     OW55486   5.815   7.662   3.423
14337SOL    HW155487   5.890   7.684   3.361
14337SOL    HW255488   5.728   7.691   3.382
14338SOL     OW55489   7.236   7.995   1.512
14338SOL    HW155490   7.289   7.950   1.584
14338SOL    HW255491   7.189   8.074   1.551
14339SOL     OW55492   6.975   7.834   6.398
14339SOL    HW155493   6.893   7.841   6.342
14339SOL    HW255494   7.056   7.834   6.339
14340SOL     OW55495   1.266   8.734   2.676
14340SOL    HW155496   1.211   8.751   2.757
14340SOL    HW255497   1.350   8.787   2.681
14341SOL     OW55498   5.242   7.489   6.929
14341SOL    HW155499   5.306   7.438   6.871
14341SOL    HW255500   5.254   7.461   7.024
14342SOL     OW55501   3.734   8.726   2.760
14342SOL    HW155502   3.696   8.761   2.675
14342SOL    HW255503   3.803   8.789   2.794
14343SOL     OW55504   5.661   8.644   0.408
14343SOL    HW155505   5.632   8.736   0.433
14343SOL    HW255506   5.747   8.622   0.454
14344SOL     OW55507   3.666   7.747   3.577
14344SOL    HW155508   3.751   7.781   3.617
14344SOL    HW255509   3.589   7.803   3.609
14345SOL     OW55510   3.426   7.595   6.592
14345SOL    HW155511   3.387   7.610   6.683
14345SOL    HW255512   3.391   7.665   6.529
14346SOL     OW55513   0.354   8.406   1.843
14346SOL    HW155514   0.417   8.427   1.769
14346SOL    HW255515   0.260   8.425   1.815
14347SOL     OW55516   1.650   8.109   3.598
14347SOL    HW155517   1.689   8.033   3.650
14347SOL    HW255518   1.556   8.086   3.572
14348SOL     OW55519   6.138   7.691   2.069
14348SOL    HW155520   6.175   7.747   1.994
14348SOL    HW255521   6.078   7.747   2.125
14349SOL     OW55522   6.087   7.660   1.509
14349SOL    HW155523   6.157   7.619   1.567
14349SOL    HW255524   6.130   7.697   1.426
14350SOL     OW55525   2.131   8.225   3.126
14350SOL    HW155526   2.203   8.289   3.153
14350SOL    HW255527   2.093   8.254   3.038
14351SOL     OW55528   4.751   7.483   1.538
14351SOL    HW155529   4.845   7.475   1.572
14351SOL    HW255530   4.752   7.525   1.447
14352SOL     OW55531   0.955   8.028   6.260
14352SOL    HW155532   0.976   8.099   6.193
14352SOL    HW255533   0.864   7.990   6.241
14353SOL     OW55534   5.670   8.398   1.800
14353SOL    HW155535   5.600   8.327   1.811
14353SOL    HW255536   5.629   8.478   1.757
14354SOL     OW55537   5.180   7.400   3.505
14354SOL    HW155538   5.179   7.306   3.473
14354SOL    HW255539   5.086   7.434   3.511
14355SOL     OW55540   0.734   7.479   7.262
14355SOL    HW155541   0.779   7.439   7.182
14355SOL    HW255542   0.677   7.556   7.234
14356SOL     OW55543   1.145   7.417   7.082
14356SOL    HW155544   1.216   7.488   7.082
14356SOL    HW255545   1.107   7.409   7.175
14357SOL     OW55546   4.751   8.833   2.156
14357SOL    HW155547   4.687   8.802   2.226
14357SOL    HW255548   4.772   8.930   2.170
14358SOL     OW55549   1.307   8.459   2.653
14358SOL    HW155550   1.305   8.557   2.635
14358SOL    HW255551   1.373   8.439   2.726
14359SOL     OW55552   4.567   8.181   0.040
14359SOL    HW155553   4.637   8.243   0.076
14359SOL    HW255554   4.604   8.132  -0.039
14360SOL     OW55555   7.239   7.942   2.112
14360SOL    HW155556   7.316   7.906   2.165
14360SOL    HW255557   7.171   7.870   2.099
14361SOL     OW55558   1.613   8.743   0.604
14361SOL    HW155559   1.587   8.654   0.566
14361SOL    HW255560   1.681   8.729   0.676
14362SOL     OW55561   4.184   8.151   2.514
14362SOL    HW155562   4.192   8.175   2.417
14362SOL    HW255563   4.139   8.225   2.563
14363SOL     OW55564   2.702   7.442   0.256
14363SOL    HW155565   2.678   7.445   0.353
14363SOL    HW255566   2.783   7.384   0.244
14364SOL     OW55567   5.414   7.573   4.624
14364SOL    HW155568   5.323   7.601   4.655
14364SOL    HW255569   5.476   7.651   4.626
14365SOL     OW55570   1.318   8.147   1.154
14365SOL    HW155571   1.300   8.167   1.251
14365SOL    HW255572   1.342   8.051   1.145
14366SOL     OW55573   4.729   8.361   0.142
14366SOL    HW155574   4.754   8.433   0.078
14366SOL    HW255575   4.648   8.388   0.194
14367SOL     OW55576   1.505   7.414   0.359
14367SOL    HW155577   1.437   7.470   0.312
14367SOL    HW255578   1.577   7.472   0.398
14368SOL     OW55579   4.409   8.862   4.406
14368SOL    HW155580   4.342   8.851   4.479
14368SOL    HW255581   4.364   8.898   4.325
14369SOL     OW55582   6.219   8.029   5.032
14369SOL    HW155583   6.155   8.052   4.959
14369SOL    HW255584   6.312   8.032   4.997
14370SOL     OW55585   3.658   7.972   0.292
14370SOL    HW155586   3.733   7.906   0.298
14370SOL    HW255587   3.582   7.941   0.349
14371SOL     OW55588   3.825   7.852   6.482
14371SOL    HW155589   3.750   7.796   6.518
14371SOL    HW255590   3.910   7.828   6.529
14372SOL     OW55591   4.908   8.349   3.719
14372SOL    HW155592   4.976   8.420   3.736
14372SOL    HW255593   4.941   8.262   3.758
14373SOL     OW55594   2.780   7.707   1.413
14373SOL    HW155595   2.880   7.712   1.401
14373SOL    HW255596   2.760   7.670   1.503
14374SOL     OW55597   1.029   7.416   4.328
14374SOL    HW155598   0.961   7.490   4.331
14374SOL    HW255599   1.102   7.437   4.393
14375SOL     OW55600   4.044   8.771   4.375
14375SOL    HW155601   4.066   8.697   4.311
14375SOL    HW255602   4.037   8.857   4.325
14376SOL     OW55603   3.607   8.231   5.064
14376SOL    HW155604   3.634   8.320   5.101
14376SOL    HW255605   3.565   8.244   4.974
14377SOL     OW55606   0.952   8.719   3.855
14377SOL    HW155607   0.984   8.801   3.901
14377SOL    HW255608   0.888   8.743   3.783
14378SOL     OW55609   3.084   8.499   6.351
14378SOL    HW155610   3.065   8.440   6.429
14378SOL    HW255611   3.172   8.545   6.365
14379SOL     OW55612   2.115   7.704   3.336
14379SOL    HW155613   2.197   7.656   3.369
14379SOL    HW255614   2.035   7.674   3.389
14380SOL     OW55615   4.109   7.843   2.190
14380SOL    HW155616   4.014   7.848   2.222
14380SOL    HW255617   4.115   7.877   2.097
14381SOL     OW55618   0.686   8.766   6.967
14381SOL    HW155619   0.616   8.837   6.961
14381SOL    HW255620   0.646   8.684   7.009
14382SOL     OW55621   0.105   7.629   1.415
14382SOL    HW155622   0.110   7.728   1.400
14382SOL    HW255623   0.089   7.583   1.327
14383SOL     OW55624   0.823   7.578   2.221
14383SOL    HW155625   0.786   7.631   2.297
14383SOL    HW255626   0.759   7.578   2.145
14384SOL     OW55627   1.957   7.521   3.464
14384SOL    HW155628   2.034   7.465   3.493
14384SOL    HW255629   1.901   7.470   3.398
14385SOL     OW55630   4.400   7.381   1.292
14385SOL    HW155631   4.452   7.315   1.346
14385SOL    HW255632   4.338   7.432   1.352
14386SOL     OW55633   6.750   8.057   6.664
14386SOL    HW155634   6.713   8.138   6.619
14386SOL    HW255635   6.699   8.039   6.748
14387SOL     OW55636   2.257   8.874   0.910
14387SOL    HW155637   2.286   8.835   0.997
14387SOL    HW255638   2.157   8.882   0.909
14388SOL     OW55639   6.787   8.182   5.848
14388SOL    HW155640   6.871   8.159   5.799
14388SOL    HW255641   6.772   8.281   5.843
14389SOL     OW55642   1.781   7.987   0.922
14389SOL    HW155643   1.838   8.056   0.877
14389SOL    HW255644   1.720   8.031   0.988
14390SOL     OW55645   2.470   8.744   6.795
14390SOL    HW155646   2.482   8.662   6.852
14390SOL    HW255647   2.528   8.736   6.713
14391SOL     OW55648   6.362   8.728   3.193
14391SOL    HW155649   6.309   8.766   3.268
14391SOL    HW255650   6.301   8.706   3.117
14392SOL     OW55651   6.124   8.502   7.102
14392SOL    HW155652   6.027   8.481   7.117
14392SOL    HW255653   6.176   8.479   7.185
14393SOL     OW55654   4.291   7.919   2.891
14393SOL    HW155655   4.314   7.997   2.832
14393SOL    HW255656   4.255   7.953   2.978
14394SOL     OW55657   3.196   9.141   5.537
14394SOL    HW155658   3.159   9.052   5.507
14394SOL    HW255659   3.296   9.136   5.540
14395SOL     OW55660   2.047   8.467   5.643
14395SOL    HW155661   1.999   8.523   5.710
14395SOL    HW255662   2.115   8.523   5.595
14396SOL     OW55663   5.747   8.387   6.432
14396SOL    HW155664   5.659   8.374   6.477
14396SOL    HW255665   5.777   8.300   6.392
14397SOL     OW55666   6.652   8.434   2.163
14397SOL    HW155667   6.683   8.345   2.128
14397SOL    HW255668   6.555   8.446   2.142
14398SOL     OW55669   6.468   7.570   0.565
14398SOL    HW155670   6.384   7.582   0.618
14398SOL    HW255671   6.518   7.656   0.562
14399SOL     OW55672   3.275   8.887   6.679
14399SOL    HW155673   3.288   8.876   6.581
14399SOL    HW255674   3.195   8.944   6.696
14400SOL     OW55675   1.095   8.727   0.576
14400SOL    HW155676   1.185   8.692   0.604
14400SOL    HW255677   1.101   8.764   0.483
14401SOL     OW55678   4.687   8.537   3.692
14401SOL    HW155679   4.738   8.621   3.712
14401SOL    HW255680   4.746   8.457   3.709
14402SOL     OW55681   1.701   7.555   0.489
14402SOL    HW155682   1.765   7.632   0.490
14402SOL    HW255683   1.647   7.556   0.574
14403SOL     OW55684   7.095   8.363   2.641
14403SOL    HW155685   7.076   8.321   2.729
14403SOL    HW255686   7.154   8.302   2.587
14404SOL     OW55687   6.760   8.873   2.906
14404SOL    HW155688   6.858   8.884   2.895
14404SOL    HW255689   6.741   8.813   2.983
14405SOL     OW55690   1.126   8.703   6.923
14405SOL    HW155691   1.137   8.636   6.996
14405SOL    HW255692   1.151   8.661   6.835
14406SOL     OW55693   1.901   7.542   0.154
14406SOL    HW155694   1.875   7.495   0.069
14406SOL    HW255695   1.969   7.613   0.134
14407SOL     OW55696   0.398   8.404   7.138
14407SOL    HW155697   0.493   8.426   7.117
14407SOL    HW255698   0.348   8.381   7.055
14408SOL     OW55699   1.267   7.401   5.998
14408SOL    HW155700   1.194   7.377   5.934
14408SOL    HW255701   1.277   7.329   6.066
14409SOL     OW55702   6.870   7.943   2.595
14409SOL    HW155703   6.794   7.953   2.659
14409SOL    HW255704   6.907   7.851   2.600
14410SOL     OW55705   3.751   8.782   2.484
14410SOL    HW155706   3.778   8.875   2.458
14410SOL    HW255707   3.830   8.722   2.481
14411SOL     OW55708   4.765   8.816   0.709
14411SOL    HW155709   4.674   8.853   0.693
14411SOL    HW255710   4.784   8.815   0.807
14412SOL     OW55711   6.096   8.212   0.426
14412SOL    HW155712   6.143   8.127   0.400
14412SOL    HW255713   6.161   8.287   0.429
14413SOL     OW55714   3.525   8.324   0.562
14413SOL    HW155715   3.516   8.347   0.465
14413SOL    HW255716   3.472   8.390   0.616
14414SOL     OW55717   7.269   7.409   5.042
14414SOL    HW155718   7.322   7.362   5.113
14414SOL    HW255719   7.312   7.394   4.953
14415SOL     OW55720   4.589   8.191   2.096
14415SOL    HW155721   4.512   8.173   2.157
14415SOL    HW255722   4.660   8.122   2.111
14416SOL     OW55723   5.890   7.923   1.858
14416SOL    HW155724   5.901   7.876   1.946
14416SOL    HW255725   5.793   7.943   1.842
14417SOL     OW55726   4.873   8.726   3.770
14417SOL    HW155727   4.825   8.797   3.718
14417SOL    HW255728   4.971   8.742   3.767
14418SOL     OW55729   5.266   7.903   0.235
14418SOL    HW155730   5.248   7.991   0.279
14418SOL    HW255731   5.363   7.897   0.211
14419SOL     OW55732   1.185   8.206   1.994
14419SOL    HW155733   1.158   8.179   2.087
14419SOL    HW255734   1.136   8.289   1.968
14420SOL     OW55735   6.420   8.190   0.839
14420SOL    HW155736   6.385   8.141   0.919
14420SOL    HW255737   6.415   8.289   0.855
14421SOL     OW55738   5.161   8.547   6.437
14421SOL    HW155739   5.108   8.559   6.521
14421SOL    HW255740   5.204   8.457   6.437
14422SOL     OW55741   3.242   7.475   1.161
14422SOL    HW155742   3.210   7.533   1.086
14422SOL    HW255743   3.206   7.383   1.150
14423SOL     OW55744   1.608   8.495   0.439
14423SOL    HW155745   1.674   8.424   0.462
14423SOL    HW255746   1.522   8.453   0.411
14424SOL     OW55747   5.171   7.768   4.148
14424SOL    HW155748   5.133   7.688   4.194
14424SOL    HW255749   5.174   7.751   4.049
14425SOL     OW55750   3.652   8.887   5.484
14425SOL    HW155751   3.707   8.875   5.402
14425SOL    HW255752   3.701   8.852   5.564
14426SOL     OW55753   6.385   8.684   1.451
14426SOL    HW155754   6.292   8.667   1.485
14426SOL    HW255755   6.403   8.783   1.455
14427SOL     OW55756   4.577   8.888   5.487
14427SOL    HW155757   4.653   8.947   5.461
14427SOL    HW255758   4.536   8.848   5.405
14428SOL     OW55759   5.263   8.781   2.780
14428SOL    HW155760   5.323   8.829   2.844
14428SOL    HW255761   5.266   8.827   2.691
14429SOL     OW55762   7.157   8.182   6.285
14429SOL    HW155763   7.094   8.233   6.226
14429SOL    HW255764   7.119   8.174   6.377
14430SOL     OW55765   3.810   8.493   3.645
14430SOL    HW155766   3.781   8.431   3.573
14430SOL    HW255767   3.909   8.503   3.643
14431SOL     OW55768   6.638   8.949   1.073
14431SOL    HW155769   6.688   9.033   1.096
14431SOL    HW255770   6.540   8.964   1.088
14432SOL     OW55771   2.682   7.367   3.413
14432SOL    HW155772   2.782   7.361   3.420
14432SOL    HW255773   2.657   7.426   3.337
14433SOL     OW55774   2.530   7.695   3.515
14433SOL    HW155775   2.506   7.774   3.571
14433SOL    HW255776   2.573   7.625   3.572
14434SOL     OW55777   7.339   7.842   5.394
14434SOL    HW155778   7.417   7.903   5.409
14434SOL    HW255779   7.300   7.859   5.304
14435SOL     OW55780   0.167   8.536   2.900
14435SOL    HW155781   0.112   8.509   2.821
14435SOL    HW255782   0.207   8.626   2.884
14436SOL     OW55783   5.575   7.828   5.926
14436SOL    HW155784   5.554   7.754   5.863
14436SOL    HW255785   5.585   7.791   6.018
14437SOL     OW55786   2.401   8.158   6.428
14437SOL    HW155787   2.441   8.080   6.476
14437SOL    HW255788   2.468   8.194   6.362
14438SOL     OW55789   1.817   9.388   0.307
14438SOL    HW155790   1.806   9.409   0.404
14438SOL    HW255791   1.824   9.289   0.295
14439SOL     OW55792   3.476   8.552   3.409
14439SOL    HW155793   3.426   8.469   3.385
14439SOL    HW255794   3.419   8.632   3.390
14440SOL     OW55795   6.527   8.838   5.924
14440SOL    HW155796   6.578   8.924   5.933
14440SOL    HW255797   6.516   8.815   5.828
14441SOL     OW55798   5.100   7.814   2.774
14441SOL    HW155799   5.137   7.905   2.790
14441SOL    HW255800   5.018   7.821   2.716
14442SOL     OW55801   6.828   8.762   2.638
14442SOL    HW155802   6.878   8.842   2.606
14442SOL    HW255803   6.782   8.783   2.724
14443SOL     OW55804   4.474   7.561   4.912
14443SOL    HW155805   4.503   7.575   5.006
14443SOL    HW255806   4.515   7.477   4.877
14444SOL     OW55807   0.874   7.526   5.376
14444SOL    HW155808   0.848   7.584   5.299
14444SOL    HW255809   0.840   7.434   5.362
14445SOL     OW55810   4.285   8.096   6.829
14445SOL    HW155811   4.307   8.002   6.853
14445SOL    HW255812   4.362   8.136   6.778
14446SOL     OW55813   5.849   8.473   7.172
14446SOL    HW155814   5.824   8.565   7.200
14446SOL    HW255815   5.780   8.408   7.206
14447SOL     OW55816   6.116   8.320   5.190
14447SOL    HW155817   6.165   8.255   5.132
14447SOL    HW255818   6.099   8.405   5.140
14448SOL     OW55819   1.602   9.085   5.317
14448SOL    HW155820   1.592   9.160   5.251
14448SOL    HW255821   1.533   9.016   5.298
14449SOL     OW55822   2.862   8.586   4.039
14449SOL    HW155823   2.921   8.640   4.099
14449SOL    HW255824   2.811   8.520   4.094
14450SOL     OW55825   5.537   8.797   7.081
14450SOL    HW155826   5.500   8.811   7.172
14450SOL    HW255827   5.472   8.745   7.025
14451SOL     OW55828   0.875   8.295   7.148
14451SOL    HW155829   0.884   8.276   7.050
14451SOL    HW255830   0.811   8.230   7.189
14452SOL     OW55831   4.194   8.058   5.472
14452SOL    HW155832   4.179   8.089   5.566
14452SOL    HW255833   4.293   8.051   5.455
14453SOL     OW55834   1.496   8.963   0.712
14453SOL    HW155835   1.521   8.875   0.671
14453SOL    HW255836   1.565   9.032   0.686
14454SOL     OW55837   1.212   8.491   7.129
14454SOL    HW155838   1.266   8.568   7.163
14454SOL    HW255839   1.147   8.462   7.199
14455SOL     OW55840   2.936   7.893   7.136
14455SOL    HW155841   3.016   7.833   7.139
14455SOL    HW255842   2.945   7.965   7.205
14456SOL     OW55843   3.079   7.999   1.489
14456SOL    HW155844   3.007   8.030   1.551
14456SOL    HW255845   3.062   7.904   1.464
14457SOL     OW55846   6.097   8.376   2.377
14457SOL    HW155847   6.155   8.295   2.387
14457SOL    HW255848   6.015   8.352   2.326
14458SOL     OW55849   6.055   8.110   1.932
14458SOL    HW155850   6.011   8.199   1.937
14458SOL    HW255851   5.987   8.039   1.911
14459SOL     OW55852   1.663   8.296   5.520
14459SOL    HW155853   1.686   8.205   5.485
14459SOL    HW255854   1.564   8.309   5.518
14460SOL     OW55855   6.022   8.526   5.041
14460SOL    HW155856   6.013   8.622   5.068
14460SOL    HW255857   5.949   8.502   4.978
14461SOL     OW55858   4.563   8.700   6.383
14461SOL    HW155859   4.589   8.667   6.474
14461SOL    HW255860   4.638   8.683   6.319
14462SOL     OW55861   4.138   8.506   0.824
14462SOL    HW155862   4.082   8.497   0.907
14462SOL    HW255863   4.204   8.580   0.836
14463SOL     OW55864   5.787   7.408   6.499
14463SOL    HW155865   5.857   7.474   6.525
14463SOL    HW255866   5.768   7.347   6.577
14464SOL     OW55867   3.826   8.790   1.829
14464SOL    HW155868   3.899   8.723   1.840
14464SOL    HW255869   3.783   8.778   1.740
14465SOL     OW55870   0.135   7.924   2.661
14465SOL    HW155871   0.215   7.865   2.648
14465SOL    HW255872   0.106   7.961   2.573
14466SOL     OW55873   6.751   7.493   2.049
14466SOL    HW155874   6.757   7.407   1.998
14466SOL    HW255875   6.735   7.473   2.146
14467SOL     OW55876   6.508   7.756   0.878
14467SOL    HW155877   6.537   7.829   0.940
14467SOL    HW255878   6.587   7.701   0.852
14468SOL     OW55879   5.502   9.223   4.785
14468SOL    HW155880   5.551   9.173   4.714
14468SOL    HW255881   5.503   9.169   4.870
14469SOL     OW55882   1.511   7.972   7.168
14469SOL    HW155883   1.444   7.899   7.185
14469SOL    HW255884   1.486   8.053   7.222
14470SOL     OW55885   3.963   7.753   3.281
14470SOL    HW155886   3.994   7.697   3.358
14470SOL    HW255887   3.863   7.745   3.272
14471SOL     OW55888   1.393   7.645   1.576
14471SOL    HW155889   1.393   7.546   1.565
14471SOL    HW255890   1.370   7.688   1.489
14472SOL     OW55891   6.118   8.328   6.035
14472SOL    HW155892   6.176   8.277   5.972
14472SOL    HW255893   6.142   8.305   6.129
14473SOL     OW55894   6.928   7.854   6.659
14473SOL    HW155895   6.949   7.849   6.562
14473SOL    HW255896   6.841   7.900   6.673
14474SOL     OW55897   3.949   8.175   5.939
14474SOL    HW155898   3.924   8.079   5.952
14474SOL    HW255899   3.889   8.233   5.994
14475SOL     OW55900   6.287   7.915   2.268
14475SOL    HW155901   6.281   7.830   2.216
14475SOL    HW255902   6.359   7.972   2.230
14476SOL     OW55903   7.180   7.885   6.147
14476SOL    HW155904   7.115   7.863   6.074
14476SOL    HW255905   7.198   7.984   6.147
14477SOL     OW55906   6.958   7.555   5.829
14477SOL    HW155907   7.024   7.508   5.771
14477SOL    HW255908   6.870   7.507   5.827
14478SOL     OW55909   4.459   7.930   0.474
14478SOL    HW155910   4.551   7.952   0.508
14478SOL    HW255911   4.408   7.880   0.544
14479SOL     OW55912   4.919   8.551   4.911
14479SOL    HW155913   4.841   8.610   4.891
14479SOL    HW255914   4.895   8.489   4.986
14480SOL     OW55915   2.041   8.385   2.906
14480SOL    HW155916   1.945   8.362   2.892
14480SOL    HW255917   2.089   8.381   2.818
14481SOL     OW55918   6.398   7.872   5.535
14481SOL    HW155919   6.320   7.911   5.583
14481SOL    HW255920   6.416   7.926   5.453
14482SOL     OW55921   4.738   7.497   2.187
14482SOL    HW155922   4.662   7.468   2.245
14482SOL    HW255923   4.739   7.442   2.103
14483SOL     OW55924   2.583   8.596   1.030
14483SOL    HW155925   2.665   8.652   1.018
14483SOL    HW255926   2.508   8.652   1.063
14484SOL     OW55927   3.662   8.008   5.227
14484SOL    HW155928   3.640   8.071   5.152
14484SOL    HW255929   3.690   8.061   5.307
14485SOL     OW55930   7.175   7.626   5.181
14485SOL    HW155931   7.244   7.586   5.120
14485SOL    HW255932   7.145   7.558   5.248
14486SOL     OW55933   4.823   8.565   0.358
14486SOL    HW155934   4.761   8.642   0.368
14486SOL    HW255935   4.791   8.505   0.285
14487SOL     OW55936   1.093   8.180   6.040
14487SOL    HW155937   1.189   8.210   6.048
14487SOL    HW255938   1.066   8.179   5.944
14488SOL     OW55939   5.410   8.068   5.297
14488SOL    HW155940   5.366   8.035   5.381
14488SOL    HW255941   5.364   8.029   5.217
14489SOL     OW55942   2.182   8.340   1.730
14489SOL    HW155943   2.112   8.396   1.774
14489SOL    HW255944   2.140   8.284   1.659
14490SOL     OW55945   4.021   7.475   4.711
14490SOL    HW155946   3.975   7.408   4.769
14490SOL    HW255947   3.953   7.540   4.675
14491SOL     OW55948   4.510   8.910   0.667
14491SOL    HW155949   4.469   8.920   0.758
14491SOL    HW255950   4.438   8.899   0.599
14492SOL     OW55951   2.116   7.478   2.326
14492SOL    HW155952   2.121   7.488   2.426
14492SOL    HW255953   2.136   7.566   2.283
14493SOL     OW55954   6.014   7.987   5.208
14493SOL    HW155955   6.093   7.984   5.146
14493SOL    HW255956   5.983   8.081   5.219
14494SOL     OW55957   0.353   7.739   2.578
14494SOL    HW155958   0.364   7.728   2.479
14494SOL    HW255959   0.436   7.782   2.616
14495SOL     OW55960   4.840   8.968   6.022
14495SOL    HW155961   4.896   8.963   6.105
14495SOL    HW255962   4.752   9.011   6.044
14496SOL     OW55963   3.688   8.047   2.168
14496SOL    HW155964   3.742   7.965   2.185
14496SOL    HW255965   3.697   8.075   2.073
14497SOL     OW55966   4.505   8.668   2.264
14497SOL    HW155967   4.407   8.658   2.246
14497SOL    HW255968   4.556   8.604   2.207
14498SOL     OW55969   3.900   8.791   5.309
14498SOL    HW155970   3.879   8.732   5.387
14498SOL    HW255971   3.987   8.838   5.325
14499SOL     OW55972   6.785   8.320   2.846
14499SOL    HW155973   6.881   8.294   2.837
14499SOL    HW255974   6.765   8.395   2.783
14500SOL     OW55975   0.570   8.312   2.305
14500SOL    HW155976   0.667   8.337   2.314
14500SOL    HW255977   0.550   8.293   2.209
14501SOL     OW55978   0.601   8.540   2.876
14501SOL    HW155979   0.659   8.461   2.857
14501SOL    HW255980   0.603   8.602   2.798
14502SOL     OW55981   1.691   7.950   6.305
14502SOL    HW155982   1.723   7.879   6.367
14502SOL    HW255983   1.594   7.968   6.322
14503SOL     OW55984   3.643   7.942   1.417
14503SOL    HW155985   3.691   7.854   1.417
14503SOL    HW255986   3.636   7.977   1.324
14504SOL     OW55987   4.596   8.060   1.145
14504SOL    HW155988   4.550   8.137   1.101
14504SOL    HW255989   4.584   7.978   1.089
14505SOL     OW55990   5.420   8.284   1.850
14505SOL    HW155991   5.399   8.245   1.940
14505SOL    HW255992   5.360   8.361   1.832
14506SOL     OW55993   0.384   7.522   1.256
14506SOL    HW155994   0.445   7.469   1.197
14506SOL    HW255995   0.406   7.619   1.248
14507SOL     OW55996   5.868   7.821   3.133
14507SOL    HW155997   5.797   7.751   3.144
14507SOL    HW255998   5.957   7.779   3.147
14508SOL     OW55999   0.166   7.667   2.968
14508SOL    HW156000   0.181   7.593   3.034
14508SOL    HW256001   0.194   7.754   3.008
14509SOL     OW56002   0.834   8.285   4.687
14509SOL    HW156003   0.893   8.213   4.648
14509SOL    HW256004   0.871   8.375   4.662
14510SOL     OW56005   0.025   8.798   0.307
14510SOL    HW156006  -0.019   8.732   0.367
14510SOL    HW256007   0.125   8.791   0.317
14511SOL     OW56008   1.987   7.823   0.303
14511SOL    HW156009   1.912   7.888   0.294
14511SOL    HW256010   1.961   7.751   0.367
14512SOL     OW56011   7.291   7.528   1.609
14512SOL    HW156012   7.356   7.589   1.564
14512SOL    HW256013   7.235   7.482   1.541
14513SOL     OW56014   6.167   8.828   3.416
14513SOL    HW156015   6.075   8.860   3.391
14513SOL    HW256016   6.204   8.887   3.488
14514SOL     OW56017   0.139   7.391   2.532
14514SOL    HW156018   0.140   7.479   2.580
14514SOL    HW256019   0.114   7.318   2.595
14515SOL     OW56020   7.043   7.427   4.686
14515SOL    HW156021   7.142   7.433   4.702
14515SOL    HW256022   6.995   7.424   4.773
14516SOL     OW56023   3.388   8.446   1.162
14516SOL    HW156024   3.476   8.455   1.114
14516SOL    HW256025   3.382   8.517   1.232
14517SOL     OW56026   5.839   8.251   6.014
14517SOL    HW156027   5.926   8.299   6.004
14517SOL    HW256028   5.834   8.210   6.105
14518SOL     OW56029   2.353   7.888   5.902
14518SOL    HW156030   2.368   7.987   5.902
14518SOL    HW256031   2.269   7.866   5.950
14519SOL     OW56032   5.913   8.366   1.955
14519SOL    HW156033   5.822   8.377   1.914
14519SOL    HW256034   5.977   8.430   1.912
14520SOL     OW56035   4.691   8.508   6.216
14520SOL    HW156036   4.605   8.458   6.219
14520SOL    HW256037   4.723   8.513   6.121
14521SOL     OW56038   6.239   7.787   0.552
14521SOL    HW156039   6.199   7.783   0.643
14521SOL    HW256040   6.167   7.785   0.483
14522SOL     OW56041   3.172   7.680   0.494
14522SOL    HW156042   3.204   7.589   0.519
14522SOL    HW256043   3.194   7.745   0.567
14523SOL     OW56044   6.788   8.157   0.809
14523SOL    HW156045   6.756   8.200   0.725
14523SOL    HW256046   6.729   8.183   0.885
14524SOL     OW56047   0.300   7.888   1.771
14524SOL    HW156048   0.216   7.939   1.757
14524SOL    HW256049   0.296   7.839   1.858
14525SOL     OW56050   1.437   8.996   2.812
14525SOL    HW156051   1.528   9.030   2.787
14525SOL    HW256052   1.446   8.903   2.848
14526SOL     OW56053   1.584   7.590   6.165
14526SOL    HW156054   1.493   7.609   6.129
14526SOL    HW256055   1.608   7.660   6.233
14527SOL     OW56056   1.354   7.854   1.820
14527SOL    HW156057   1.279   7.797   1.854
14527SOL    HW256058   1.380   7.824   1.728
14528SOL     OW56059   1.520   8.068   0.517
14528SOL    HW156060   1.578   8.063   0.597
14528SOL    HW256061   1.567   8.117   0.444
14529SOL     OW56062   6.410   8.167   2.706
14529SOL    HW156063   6.380   8.259   2.732
14529SOL    HW256064   6.445   8.168   2.613
14530SOL     OW56065   1.564   8.310   1.324
14530SOL    HW156066   1.607   8.381   1.379
14530SOL    HW256067   1.496   8.262   1.380
14531SOL     OW56068   5.415   7.994   7.210
14531SOL    HW156069   5.469   8.026   7.288
14531SOL    HW256070   5.317   8.004   7.230
14532SOL     OW56071   2.068   8.880   6.391
14532SOL    HW156072   2.090   8.906   6.485
14532SOL    HW256073   1.978   8.836   6.388
14533SOL     OW56074   0.322   8.365   0.314
14533SOL    HW156075   0.303   8.332   0.222
14533SOL    HW256076   0.421   8.374   0.327
14534SOL     OW56077   3.789   7.654   1.068
14534SOL    HW156078   3.788   7.696   1.159
14534SOL    HW256079   3.707   7.680   1.018
14535SOL     OW56080   5.393   7.862   2.101
14535SOL    HW156081   5.297   7.840   2.122
14535SOL    HW256082   5.447   7.856   2.185
14536SOL     OW56083   3.018   8.164   3.620
14536SOL    HW156084   3.085   8.103   3.577
14536SOL    HW256085   2.955   8.199   3.551
14537SOL     OW56086   0.680   8.063   1.987
14537SOL    HW156087   0.769   8.067   2.033
14537SOL    HW256088   0.623   8.138   2.019
14538SOL     OW56089   6.151   7.815   2.501
14538SOL    HW156090   6.208   7.875   2.445
14538SOL    HW256091   6.142   7.726   2.457
14539SOL     OW56092   2.854   8.249   1.422
14539SOL    HW156093   2.820   8.343   1.428
14539SOL    HW256094   2.931   8.246   1.358
14540SOL     OW56095   3.706   8.381   3.440
14540SOL    HW156096   3.675   8.288   3.425
14540SOL    HW256097   3.627   8.442   3.445
14541SOL     OW56098   2.724   8.342   6.256
14541SOL    HW156099   2.701   8.427   6.304
14541SOL    HW256100   2.753   8.273   6.322
14542SOL     OW56101   5.109   8.446   0.740
14542SOL    HW156102   5.119   8.420   0.644
14542SOL    HW256103   5.016   8.477   0.757
14543SOL     OW56104   4.783   8.137   6.095
14543SOL    HW156105   4.800   8.050   6.140
14543SOL    HW256106   4.693   8.171   6.121
14544SOL     OW56107   5.718   7.467   2.889
14544SOL    HW156108   5.738   7.535   2.818
14544SOL    HW256109   5.685   7.514   2.971
14545SOL     OW56110   4.840   7.630   5.359
14545SOL    HW156111   4.803   7.660   5.271
14545SOL    HW256112   4.826   7.532   5.369
14546SOL     OW56113   7.110   7.412   1.010
14546SOL    HW156114   7.189   7.472   1.022
14546SOL    HW256115   7.080   7.415   0.915
14547SOL     OW56116   5.639   8.444   5.084
14547SOL    HW156117   5.609   8.363   5.134
14547SOL    HW256118   5.676   8.416   4.995
14548SOL     OW56119   2.878   8.303   3.413
14548SOL    HW156120   2.801   8.366   3.428
14548SOL    HW256121   2.964   8.353   3.426
14549SOL     OW56122   5.042   8.487   2.623
14549SOL    HW156123   4.968   8.553   2.625
14549SOL    HW256124   5.106   8.510   2.549
14550SOL     OW56125   2.532   7.387   1.071
14550SOL    HW156126   2.593   7.393   0.992
14550SOL    HW256127   2.536   7.295   1.109
14551SOL     OW56128   6.620   7.779   6.416
14551SOL    HW156129   6.530   7.776   6.461
14551SOL    HW256130   6.677   7.704   6.450
14552SOL     OW56131   2.183   8.879   6.633
14552SOL    HW156132   2.272   8.845   6.601
14552SOL    HW256133   2.130   8.802   6.670
14553SOL     OW56134   4.648   7.761   2.189
14553SOL    HW156135   4.721   7.699   2.158
14553SOL    HW256136   4.591   7.713   2.256
14554SOL     OW56137   4.753   9.303   7.033
14554SOL    HW156138   4.727   9.236   7.102
14554SOL    HW256139   4.703   9.388   7.048
14555SOL     OW56140   4.941   8.754   4.209
14555SOL    HW156141   4.977   8.675   4.260
14555SOL    HW256142   5.000   8.833   4.225
14556SOL     OW56143   3.157   8.100   3.077
14556SOL    HW156144   3.059   8.082   3.076
14556SOL    HW256145   3.179   8.163   3.151
14557SOL     OW56146   5.648   8.708   1.253
14557SOL    HW156147   5.566   8.655   1.232
14557SOL    HW256148   5.727   8.647   1.254
14558SOL     OW56149   2.504   7.388   0.061
14558SOL    HW156150   2.580   7.395   0.125
14558SOL    HW256151   2.510   7.460  -0.008
14559SOL     OW56152   3.339   8.329   3.310
14559SOL    HW156153   3.270   8.302   3.377
14559SOL    HW256154   3.294   8.371   3.231
14560SOL     OW56155   3.576   8.084   6.858
14560SOL    HW156156   3.544   8.141   6.934
14560SOL    HW256157   3.595   7.992   6.891
14561SOL     OW56158   5.404   7.684   1.159
14561SOL    HW156159   5.381   7.632   1.077
14561SOL    HW256160   5.429   7.777   1.134
14562SOL     OW56161   0.718   8.679   1.780
14562SOL    HW156162   0.670   8.634   1.705
14562SOL    HW256163   0.674   8.766   1.801
14563SOL     OW56164   5.099   8.742   1.125
14563SOL    HW156165   5.113   8.653   1.083
14563SOL    HW256166   5.118   8.736   1.223
14564SOL     OW56167   1.524   8.751   2.894
14564SOL    HW156168   1.613   8.713   2.921
14564SOL    HW256169   1.457   8.677   2.886
14565SOL     OW56170   3.955   8.023   7.186
14565SOL    HW156171   4.009   7.943   7.211
14565SOL    HW256172   3.859   7.995   7.174
14566SOL     OW56173   3.762   7.467   3.197
14566SOL    HW156174   3.735   7.563   3.193
14566SOL    HW256175   3.831   7.454   3.268
14567SOL     OW56176   2.619   8.562   3.875
14567SOL    HW156177   2.550   8.552   3.946
14567SOL    HW256178   2.710   8.548   3.914
14568SOL     OW56179   4.086   8.265   6.241
14568SOL    HW156180   4.011   8.208   6.273
14568SOL    HW256181   4.130   8.222   6.162
14569SOL     OW56182   4.971   7.852   3.831
14569SOL    HW156183   4.991   7.831   3.735
14569SOL    HW256184   4.958   7.950   3.841
14570SOL     OW56185   4.812   8.770   0.974
14570SOL    HW156186   4.744   8.705   1.007
14570SOL    HW256187   4.875   8.793   1.048
14571SOL     OW56188   5.671   8.740   1.743
14571SOL    HW156189   5.604   8.753   1.816
14571SOL    HW256190   5.630   8.764   1.655
14572SOL     OW56191   4.711   8.110   5.828
14572SOL    HW156192   4.721   8.013   5.804
14572SOL    HW256193   4.744   8.125   5.921
14573SOL     OW56194   2.600   7.951   0.906
14573SOL    HW156195   2.547   7.933   0.824
14573SOL    HW256196   2.620   7.864   0.952
14574SOL     OW56197   5.876   7.463   5.411
14574SOL    HW156198   5.914   7.556   5.417
14574SOL    HW256199   5.850   7.444   5.316
14575SOL     OW56200   0.191   8.009   0.411
14575SOL    HW156201   0.251   7.975   0.484
14575SOL    HW256202   0.190   8.109   0.413
14576SOL     OW56203   4.060   8.632   3.921
14576SOL    HW156204   4.062   8.630   4.021
14576SOL    HW256205   3.985   8.576   3.888
14577SOL     OW56206   3.939   7.425   3.427
14577SOL    HW156207   3.974   7.501   3.482
14577SOL    HW256208   4.009   7.396   3.361
14578SOL     OW56209   3.596   8.661   0.536
14578SOL    HW156210   3.537   8.599   0.587
14578SOL    HW256211   3.540   8.718   0.476
14579SOL     OW56212   4.334   8.494   1.094
14579SOL    HW156213   4.428   8.499   1.060
14579SOL    HW256214   4.280   8.438   1.031
14580SOL     OW56215   4.967   8.130   7.250
14580SOL    HW156216   5.002   8.107   7.340
14580SOL    HW256217   4.949   8.047   7.198
14581SOL     OW56218   0.239   8.190   1.452
14581SOL    HW156219   0.213   8.198   1.548
14581SOL    HW256220   0.178   8.245   1.396
14582SOL     OW56221   0.092   7.463   1.186
14582SOL    HW156222   0.185   7.440   1.215
14582SOL    HW256223   0.095   7.525   1.108
14583SOL     OW56224   5.660   8.101   2.643
14583SOL    HW156225   5.668   8.151   2.556
14583SOL    HW256226   5.743   8.116   2.697
14584SOL     OW56227   6.401   8.344   1.499
14584SOL    HW156228   6.496   8.375   1.503
14584SOL    HW256229   6.353   8.374   1.582
14585SOL     OW56230   6.503   8.162   5.709
14585SOL    HW156231   6.439   8.114   5.648
14585SOL    HW256232   6.569   8.097   5.746
14586SOL     OW56233   5.846   8.131   6.258
14586SOL    HW156234   5.785   8.057   6.287
14586SOL    HW256235   5.935   8.119   6.302
14587SOL     OW56236   5.617   8.053   2.266
14587SOL    HW156237   5.623   8.138   2.319
14587SOL    HW256238   5.580   7.980   2.323
14588SOL     OW56239   3.673   8.000   7.181
14588SOL    HW156240   3.607   8.074   7.197
14588SOL    HW256241   3.667   7.934   7.256
14589SOL     OW56242   3.005   8.816   6.349
14589SOL    HW156243   2.906   8.829   6.342
14589SOL    HW256244   3.046   8.820   6.258
14590SOL     OW56245   1.738   7.765   0.798
14590SOL    HW156246   1.638   7.763   0.796
14590SOL    HW256247   1.769   7.847   0.847
14591SOL     OW56248   4.983   7.880   5.914
14591SOL    HW156249   5.049   7.954   5.905
14591SOL    HW256250   5.023   7.805   5.967
14592SOL     OW56251   2.364   7.359   2.208
14592SOL    HW156252   2.288   7.396   2.262
14592SOL    HW256253   2.335   7.276   2.162
14593SOL     OW56254   1.890   7.895   6.553
14593SOL    HW156255   1.897   7.836   6.633
14593SOL    HW256256   1.827   7.971   6.572
14594SOL     OW56257   6.549   9.262   1.425
14594SOL    HW156258   6.496   9.315   1.359
14594SOL    HW256259   6.641   9.300   1.433
14595SOL     OW56260   5.862   7.739   6.989
14595SOL    HW156261   5.961   7.749   6.975
14595SOL    HW256262   5.813   7.770   6.908
14596SOL     OW56263   2.727   7.501   6.444
14596SOL    HW156264   2.643   7.554   6.446
14596SOL    HW256265   2.778   7.517   6.529
14597SOL     OW56266   2.488   8.676   3.260
14597SOL    HW156267   2.449   8.653   3.349
14597SOL    HW256268   2.534   8.595   3.222
14598SOL     OW56269   4.406   7.444   0.146
14598SOL    HW156270   4.374   7.353   0.119
14598SOL    HW256271   4.327   7.501   0.170
14599SOL     OW56272   4.086   7.877   5.870
14599SOL    HW156273   4.131   7.963   5.848
14599SOL    HW256274   4.047   7.837   5.787
14600SOL     OW56275   2.526   8.265   3.637
14600SOL    HW156276   2.481   8.307   3.715
14600SOL    HW256277   2.521   8.165   3.644
14601SOL     OW56278   2.135   8.573   6.103
14601SOL    HW156279   2.087   8.554   6.017
14601SOL    HW256280   2.130   8.492   6.162
14602SOL     OW56281   6.735   8.623   1.964
14602SOL    HW156282   6.665   8.656   1.901
14602SOL    HW256283   6.694   8.563   2.032
14603SOL     OW56284   4.471   8.302   6.246
14603SOL    HW156285   4.408   8.318   6.321
14603SOL    HW256286   4.426   8.246   6.176
14604SOL     OW56287   1.533   8.710   1.809
14604SOL    HW156288   1.514   8.709   1.908
14604SOL    HW256289   1.452   8.678   1.760
14605SOL     OW56290   0.028   8.522   0.029
14605SOL    HW156291   0.037   8.528  -0.071
14605SOL    HW256292   0.109   8.478   0.067
14606SOL     OW56293   1.314   9.075   1.387
14606SOL    HW156294   1.354   9.053   1.298
14606SOL    HW256295   1.220   9.043   1.391
14607SOL     OW56296   1.827   7.440   2.968
14607SOL    HW156297   1.751   7.382   2.997
14607SOL    HW256298   1.816   7.532   3.008
14608SOL     OW56299   1.036   8.448   2.763
14608SOL    HW156300   1.135   8.435   2.756
14608SOL    HW256301   1.017   8.531   2.817
14609SOL     OW56302   3.898   8.144   2.665
14609SOL    HW156303   3.885   8.107   2.573
14609SOL    HW256304   3.809   8.173   2.702
14610SOL     OW56305   3.988   7.792   5.153
14610SOL    HW156306   3.997   7.828   5.246
14610SOL    HW256307   3.892   7.775   5.132
14611SOL     OW56308   4.614   7.453   7.241
14611SOL    HW156309   4.618   7.546   7.279
14611SOL    HW256310   4.638   7.387   7.312
14612SOL     OW56311   3.888   8.246   1.471
14612SOL    HW156312   3.898   8.259   1.372
14612SOL    HW256313   3.909   8.151   1.494
14613SOL     OW56314   0.362   7.505   0.862
14613SOL    HW156315   0.294   7.565   0.904
14613SOL    HW256316   0.331   7.411   0.866
14614SOL     OW56317   4.340   8.026   3.150
14614SOL    HW156318   4.294   7.942   3.179
14614SOL    HW256319   4.438   8.008   3.138
14615SOL     OW56320   3.999   9.078   4.331
14615SOL    HW156321   4.079   9.071   4.270
14615SOL    HW256322   4.012   9.155   4.393
14616SOL     OW56323   5.168   8.081   1.315
14616SOL    HW156324   5.200   8.165   1.271
14616SOL    HW256325   5.071   8.069   1.296
14617SOL     OW56326   3.227   7.691   2.443
14617SOL    HW156327   3.187   7.603   2.469
14617SOL    HW256328   3.211   7.759   2.515
14618SOL     OW56329   1.533   9.268   0.438
14618SOL    HW156330   1.594   9.261   0.359
14618SOL    HW256331   1.543   9.359   0.479
14619SOL     OW56332   7.023   7.614   7.917
14619SOL    HW156333   7.002   7.614   8.015
14619SOL    HW256334   7.000   7.525   7.878
14620SOL     OW56335   1.208   8.320   8.345
14620SOL    HW156336   1.246   8.258   8.414
14620SOL    HW256337   1.153   8.267   8.280
14621SOL     OW56338   7.116   8.562   8.732
14621SOL    HW156339   7.116   8.661   8.746
14621SOL    HW256340   7.107   8.543   8.634
14622SOL     OW56341   7.009   8.774   7.662
14622SOL    HW156342   7.058   8.696   7.621
14622SOL    HW256343   6.987   8.840   7.590
14623SOL     OW56344   4.247   8.111   8.050
14623SOL    HW156345   4.320   8.059   8.095
14623SOL    HW256346   4.270   8.209   8.050
14624SOL     OW56347   6.698   7.553   8.180
14624SOL    HW156348   6.688   7.534   8.083
14624SOL    HW256349   6.704   7.467   8.231
14625SOL     OW56350   5.840   8.339   8.873
14625SOL    HW156351   5.932   8.300   8.877
14625SOL    HW256352   5.802   8.345   8.966
14626SOL     OW56353   2.629   7.802   8.508
14626SOL    HW156354   2.679   7.755   8.581
14626SOL    HW256355   2.531   7.803   8.531
14627SOL     OW56356   4.041   7.513   7.794
14627SOL    HW156357   4.070   7.426   7.755
14627SOL    HW256358   3.983   7.497   7.874
14628SOL     OW56359   1.827   8.731   8.130
14628SOL    HW156360   1.833   8.713   8.229
14628SOL    HW256361   1.918   8.753   8.095
14629SOL     OW56362   2.002   8.872   7.599
14629SOL    HW156363   1.972   8.825   7.682
14629SOL    HW256364   2.101   8.886   7.604
14630SOL     OW56365   0.015   7.928   8.501
14630SOL    HW156366  -0.063   7.991   8.508
14630SOL    HW256367  -0.002   7.863   8.427
14631SOL     OW56368   3.104   8.404   8.616
14631SOL    HW156369   3.203   8.414   8.606
14631SOL    HW256370   3.057   8.478   8.567
14632SOL     OW56371   5.964   8.158   8.230
14632SOL    HW156372   5.934   8.168   8.135
14632SOL    HW256373   5.977   8.061   8.251
14633SOL     OW56374   0.966   7.515   8.257
14633SOL    HW156375   0.877   7.504   8.301
14633SOL    HW256376   0.984   7.436   8.198
14634SOL     OW56377   5.709   8.470   7.517
14634SOL    HW156378   5.686   8.521   7.600
14634SOL    HW256379   5.771   8.395   7.540
14635SOL     OW56380   6.711   8.264   7.929
14635SOL    HW156381   6.758   8.227   7.849
14635SOL    HW256382   6.726   8.362   7.934
14636SOL     OW56383   4.246   7.731   8.418
14636SOL    HW156384   4.209   7.726   8.325
14636SOL    HW256385   4.303   7.652   8.435
14637SOL     OW56386   2.198   7.504   7.393
14637SOL    HW156387   2.291   7.503   7.357
14637SOL    HW256388   2.154   7.591   7.371
14638SOL     OW56389   1.276   8.604   8.260
14638SOL    HW156390   1.292   8.507   8.277
14638SOL    HW256391   1.183   8.628   8.288
14639SOL     OW56392   5.529   7.384   8.325
14639SOL    HW156393   5.594   7.386   8.401
14639SOL    HW256394   5.576   7.404   8.239
14640SOL     OW56395   7.081   8.442   8.484
14640SOL    HW156396   7.047   8.378   8.414
14640SOL    HW256397   7.153   8.499   8.445
14641SOL     OW56398   3.745   7.714   8.697
14641SOL    HW156399   3.717   7.620   8.715
14641SOL    HW256400   3.840   7.727   8.723
14642SOL     OW56401   6.632   7.891   8.449
14642SOL    HW156402   6.711   7.855   8.498
14642SOL    HW256403   6.648   7.987   8.425
14643SOL     OW56404   4.240   7.616   7.643
14643SOL    HW156405   4.148   7.581   7.660
14643SOL    HW256406   4.235   7.692   7.579
14644SOL     OW56407   0.511   8.019   8.256
14644SOL    HW156408   0.545   8.113   8.254
14644SOL    HW256409   0.434   8.010   8.193
14645SOL     OW56410   1.529   8.090   8.171
14645SOL    HW156411   1.449   8.107   8.114
14645SOL    HW256412   1.612   8.114   8.121
14646SOL     OW56413   4.513   8.385   7.681
14646SOL    HW156414   4.477   8.297   7.713
14646SOL    HW256415   4.525   8.446   7.759
14647SOL     OW56416   5.940   9.070   7.369
14647SOL    HW156417   5.953   8.976   7.339
14647SOL    HW256418   5.842   9.092   7.369
14648SOL     OW56419   3.388   7.873   8.495
14648SOL    HW156420   3.441   7.900   8.414
14648SOL    HW256421   3.428   7.790   8.533
14649SOL     OW56422   6.179   8.568   7.986
14649SOL    HW156423   6.210   8.554   8.080
14649SOL    HW256424   6.233   8.511   7.924
14650SOL     OW56425   4.665   8.769   7.799
14650SOL    HW156426   4.676   8.793   7.896
14650SOL    HW256427   4.666   8.852   7.744
14651SOL     OW56428   5.197   7.933   8.908
14651SOL    HW156429   5.120   7.871   8.898
14651SOL    HW256430   5.218   7.976   8.820
14652SOL     OW56431   4.905   7.884   7.822
14652SOL    HW156432   4.845   7.939   7.764
14652SOL    HW256433   4.970   7.944   7.868
14653SOL     OW56434   7.212   8.883   7.458
14653SOL    HW156435   7.296   8.868   7.511
14653SOL    HW256436   7.181   8.977   7.473
14654SOL     OW56437   0.830   8.767   7.549
14654SOL    HW156438   0.791   8.840   7.605
14654SOL    HW256439   0.768   8.689   7.548
14655SOL     OW56440   5.252   8.670   7.499
14655SOL    HW156441   5.243   8.712   7.409
14655SOL    HW256442   5.165   8.678   7.548
14656SOL     OW56443   6.516   7.643   9.040
14656SOL    HW156444   6.527   7.731   9.085
14656SOL    HW256445   6.525   7.654   8.941
14657SOL     OW56446   0.245   7.887   7.537
14657SOL    HW156447   0.169   7.823   7.527
14657SOL    HW256448   0.230   7.945   7.617
14658SOL     OW56449   5.431   8.524   7.838
14658SOL    HW156450   5.354   8.589   7.828
14658SOL    HW256451   5.515   8.567   7.804
14659SOL     OW56452   4.285   8.859   7.900
14659SOL    HW156453   4.299   8.930   7.831
14659SOL    HW256454   4.187   8.836   7.905
14660SOL     OW56455   3.780   8.111   8.201
14660SOL    HW156456   3.873   8.101   8.237
14660SOL    HW256457   3.778   8.081   8.106
14661SOL     OW56458   1.938   7.767   7.978
14661SOL    HW156459   1.964   7.673   7.956
14661SOL    HW256460   1.883   7.767   8.062
14662SOL     OW56461   3.156   7.949   7.456
14662SOL    HW156462   3.077   7.990   7.411
14662SOL    HW256463   3.128   7.864   7.501
14663SOL     OW56464   4.347   8.684   8.105
14663SOL    HW156465   4.289   8.723   8.033
14663SOL    HW256466   4.356   8.750   8.180
14664SOL     OW56467   2.611   7.437   7.883
14664SOL    HW156468   2.514   7.423   7.899
14664SOL    HW256469   2.651   7.483   7.962
14665SOL     OW56470   0.028   8.279   8.633
14665SOL    HW156471   0.017   8.376   8.612
14665SOL    HW256472  -0.048   8.228   8.594
14666SOL     OW56473   6.461   8.182   7.927
14666SOL    HW156474   6.452   8.193   8.026
14666SOL    HW256475   6.556   8.200   7.900
14667SOL     OW56476   3.136   7.780   8.497
14667SOL    HW156477   3.229   7.807   8.522
14667SOL    HW256478   3.139   7.724   8.414
14668SOL     OW56479   7.285   8.274   9.177
14668SOL    HW156480   7.209   8.219   9.142
14668SOL    HW256481   7.255   8.368   9.192
14669SOL     OW56482   7.157   8.628   7.473
14669SOL    HW156483   7.174   8.726   7.459
14669SOL    HW256484   7.240   8.576   7.453
14670SOL     OW56485   6.535   8.763   9.164
14670SOL    HW156486   6.552   8.740   9.068
14670SOL    HW256487   6.505   8.858   9.170
14671SOL     OW56488   7.019   7.871   7.947
14671SOL    HW156489   7.017   7.773   7.924
14671SOL    HW256490   7.044   7.882   8.043
14672SOL     OW56491   4.348   8.778   8.802
14672SOL    HW156492   4.341   8.679   8.792
14672SOL    HW256493   4.323   8.804   8.895
14673SOL     OW56494   1.178   8.090   8.827
14673SOL    HW156495   1.110   8.046   8.770
14673SOL    HW256496   1.165   8.061   8.922
14674SOL     OW56497   4.155   8.710   8.509
14674SOL    HW156498   4.088   8.638   8.487
14674SOL    HW256499   4.245   8.669   8.520
14675SOL     OW56500   0.846   7.717   8.764
14675SOL    HW156501   0.755   7.704   8.804
14675SOL    HW256502   0.851   7.668   8.677
14676SOL     OW56503   0.444   8.959   7.834
14676SOL    HW156504   0.398   9.023   7.773
14676SOL    HW256505   0.412   8.866   7.815
14677SOL     OW56506   6.245   7.401   7.843
14677SOL    HW156507   6.315   7.454   7.796
14677SOL    HW256508   6.169   7.381   7.781
14678SOL     OW56509   4.628   7.449   7.670
14678SOL    HW156510   4.552   7.433   7.607
14678SOL    HW256511   4.675   7.533   7.644
14679SOL     OW56512   6.175   7.994   8.330
14679SOL    HW156513   6.163   7.945   8.243
14679SOL    HW256514   6.136   7.939   8.404
14680SOL     OW56515   6.196   9.026   8.781
14680SOL    HW156516   6.149   9.106   8.817
14680SOL    HW256517   6.129   8.958   8.751
14681SOL     OW56518   7.186   8.105   8.604
14681SOL    HW156519   7.106   8.158   8.632
14681SOL    HW256520   7.225   8.059   8.684
14682SOL     OW56521   1.742   8.162   8.024
14682SOL    HW156522   1.740   8.198   7.931
14682SOL    HW256523   1.822   8.197   8.072
14683SOL     OW56524   2.269   7.438   8.515
14683SOL    HW156525   2.284   7.533   8.540
14683SOL    HW256526   2.348   7.405   8.462
14684SOL     OW56527   0.582   7.640   8.827
14684SOL    HW156528   0.494   7.681   8.849
14684SOL    HW256529   0.568   7.548   8.790
14685SOL     OW56530   3.785   8.413   7.601
14685SOL    HW156531   3.819   8.478   7.532
14685SOL    HW256532   3.820   8.322   7.582
14686SOL     OW56533   0.007   8.512   8.270
14686SOL    HW156534   0.021   8.581   8.342
14686SOL    HW256535  -0.055   8.548   8.201
14687SOL     OW56536   2.433   8.660   7.764
14687SOL    HW156537   2.467   8.633   7.674
14687SOL    HW256538   2.470   8.598   7.834
14688SOL     OW56539   1.514   8.188   7.373
14688SOL    HW156540   1.448   8.141   7.433
14688SOL    HW256541   1.548   8.270   7.419
14689SOL     OW56542   6.055   8.544   7.455
14689SOL    HW156543   5.980   8.513   7.513
14689SOL    HW256544   6.118   8.600   7.509
14690SOL     OW56545   1.895   8.435   8.645
14690SOL    HW156546   1.813   8.489   8.625
14690SOL    HW256547   1.892   8.350   8.593
14691SOL     OW56548   0.287   7.474   7.570
14691SOL    HW156549   0.239   7.431   7.646
14691SOL    HW256550   0.220   7.519   7.510
14692SOL     OW56551   4.745   7.906   7.456
14692SOL    HW156552   4.675   7.855   7.505
14692SOL    HW256553   4.727   7.902   7.358
14693SOL     OW56554   4.090   7.435   8.665
14693SOL    HW156555   4.150   7.417   8.586
14693SOL    HW256556   4.141   7.487   8.733
14694SOL     OW56557   5.530   8.365   8.867
14694SOL    HW156558   5.608   8.351   8.805
14694SOL    HW256559   5.492   8.277   8.894
14695SOL     OW56560   4.001   7.797   7.874
14695SOL    HW156561   4.011   7.734   7.798
14695SOL    HW256562   3.904   7.807   7.897
14696SOL     OW56563   7.249   8.034   8.100
14696SOL    HW156564   7.280   8.007   8.008
14696SOL    HW256565   7.251   8.133   8.108
14697SOL     OW56566   1.358   8.862   7.764
14697SOL    HW156567   1.268   8.819   7.764
14697SOL    HW256568   1.424   8.801   7.808
14698SOL     OW56569   2.628   8.814   8.884
14698SOL    HW156570   2.632   8.752   8.962
14698SOL    HW256571   2.611   8.907   8.915
14699SOL     OW56572   1.679   8.698   7.592
14699SOL    HW156573   1.659   8.634   7.667
14699SOL    HW256574   1.773   8.730   7.600
14700SOL     OW56575   4.359   7.649   7.916
14700SOL    HW156576   4.308   7.618   7.836
14700SOL    HW256577   4.447   7.601   7.920
14701SOL     OW56578   0.665   8.794   8.780
14701SOL    HW156579   0.600   8.801   8.705
14701SOL    HW256580   0.626   8.834   8.863
14702SOL     OW56581   0.455   8.769   8.584
14702SOL    HW156582   0.392   8.703   8.545
14702SOL    HW256583   0.533   8.781   8.523
14703SOL     OW56584   5.879   8.792   9.305
14703SOL    HW156585   5.888   8.891   9.321
14703SOL    HW256586   5.811   8.777   9.233
14704SOL     OW56587   4.630   7.977   8.753
14704SOL    HW156588   4.649   8.046   8.823
14704SOL    HW256589   4.612   8.022   8.666
14705SOL     OW56590   3.619   8.864   7.497
14705SOL    HW156591   3.536   8.878   7.443
14705SOL    HW256592   3.629   8.939   7.563
14706SOL     OW56593   3.892   8.271   8.552
14706SOL    HW156594   3.796   8.245   8.559
14706SOL    HW256595   3.947   8.192   8.525
14707SOL     OW56596   4.253   7.573   8.814
14707SOL    HW156597   4.253   7.542   8.910
14707SOL    HW256598   4.289   7.666   8.809
14708SOL     OW56599   2.059   8.621   8.775
14708SOL    HW156600   2.005   8.691   8.728
14708SOL    HW256601   2.024   8.530   8.750
14709SOL     OW56602   5.891   8.491   8.241
14709SOL    HW156603   5.913   8.407   8.290
14709SOL    HW256604   5.974   8.543   8.224
14710SOL     OW56605   0.566   7.519   8.056
14710SOL    HW156606   0.560   7.618   8.039
14710SOL    HW256607   0.490   7.492   8.115
14711SOL     OW56608   1.049   8.273   8.124
14711SOL    HW156609   1.018   8.367   8.115
14711SOL    HW256610   0.972   8.211   8.111
14712SOL     OW56611   3.844   8.571   7.832
14712SOL    HW156612   3.753   8.606   7.858
14712SOL    HW256613   3.833   8.482   7.787
14713SOL     OW56614   5.276   8.260   7.454
14713SOL    HW156615   5.183   8.286   7.481
14713SOL    HW256616   5.284   8.263   7.354
14714SOL     OW56617   6.616   8.845   8.194
14714SOL    HW156618   6.533   8.790   8.182
14714SOL    HW256619   6.627   8.868   8.291
14715SOL     OW56620   0.882   8.866   7.985
14715SOL    HW156621   0.855   8.846   8.079
14715SOL    HW256622   0.973   8.830   7.967
14716SOL     OW56623   5.461   8.180   8.242
14716SOL    HW156624   5.543   8.226   8.277
14716SOL    HW256625   5.421   8.236   8.169
14717SOL     OW56626   3.681   7.852   7.394
14717SOL    HW156627   3.695   7.759   7.429
14717SOL    HW256628   3.664   7.914   7.471
14718SOL     OW56629   5.687   8.266   7.759
14718SOL    HW156630   5.744   8.227   7.687
14718SOL    HW256631   5.592   8.268   7.730
14719SOL     OW56632   5.209   8.434   9.083
14719SOL    HW156633   5.258   8.490   9.017
14719SOL    HW256634   5.116   8.469   9.094
14720SOL     OW56635   2.355   8.367   7.451
14720SOL    HW156636   2.389   8.329   7.365
14720SOL    HW256637   2.302   8.449   7.432
14721SOL     OW56638   3.711   7.480   7.746
14721SOL    HW156639   3.741   7.481   7.842
14721SOL    HW256640   3.694   7.386   7.718
14722SOL     OW56641   0.014   8.543   8.611
14722SOL    HW156642   0.041   8.629   8.569
14722SOL    HW256643  -0.046   8.561   8.689
14723SOL     OW56644   0.379   8.448   7.983
14723SOL    HW156645   0.372   8.546   7.963
14723SOL    HW256646   0.466   8.430   8.029
14724SOL     OW56647   7.136   8.632   8.150
14724SOL    HW156648   7.053   8.662   8.104
14724SOL    HW256649   7.139   8.669   8.243
14725SOL     OW56650   1.293   8.163   8.028
14725SOL    HW156651   1.312   8.177   7.931
14725SOL    HW256652   1.201   8.195   8.049
14726SOL     OW56653   1.310   8.524   8.000
14726SOL    HW156654   1.292   8.426   8.001
14726SOL    HW256655   1.324   8.556   8.093
14727SOL     OW56656   3.053   7.689   8.755
14727SOL    HW156657   3.082   7.717   8.663
14727SOL    HW256658   3.073   7.592   8.767
14728SOL     OW56659   4.595   8.607   8.481
14728SOL    HW156660   4.524   8.677   8.475
14728SOL    HW256661   4.609   8.580   8.576
14729SOL     OW56662   3.560   7.625   7.545
14729SOL    HW156663   3.522   7.686   7.615
14729SOL    HW256664   3.645   7.585   7.578
14730SOL     OW56665   6.323   8.807   7.984
14730SOL    HW156666   6.266   8.731   8.014
14730SOL    HW256667   6.291   8.891   8.028
14731SOL     OW56668   2.438   8.439   8.218
14731SOL    HW156669   2.432   8.344   8.249
14731SOL    HW256670   2.481   8.494   8.289
14732SOL     OW56671   3.996   7.754   8.781
14732SOL    HW156672   4.050   7.809   8.719
14732SOL    HW256673   4.047   7.672   8.808
14733SOL     OW56674   5.559   7.921   7.555
14733SOL    HW156675   5.543   7.824   7.537
14733SOL    HW256676   5.588   7.932   7.650
14734SOL     OW56677   2.819   8.427   8.315
14734SOL    HW156678   2.734   8.473   8.340
14734SOL    HW256679   2.814   8.331   8.340
14735SOL     OW56680   4.805   8.586   7.380
14735SOL    HW156681   4.777   8.681   7.372
14735SOL    HW256682   4.870   8.564   7.307
14736SOL     OW56683   1.389   7.407   8.423
14736SOL    HW156684   1.330   7.440   8.497
14736SOL    HW256685   1.460   7.475   8.404
14737SOL     OW56686   0.379   7.819   8.874
14737SOL    HW156687   0.363   7.850   8.968
14737SOL    HW256688   0.317   7.868   8.812
14738SOL     OW56689   0.383   7.688   7.728
14738SOL    HW156690   0.340   7.760   7.673
14738SOL    HW256691   0.387   7.604   7.675
14739SOL     OW56692   5.092   8.108   7.907
14739SOL    HW156693   5.081   8.195   7.859
14739SOL    HW256694   5.189   8.085   7.912
14740SOL     OW56695   0.928   8.762   8.892
14740SOL    HW156696   0.857   8.765   8.821
14740SOL    HW256697   0.886   8.741   8.980
14741SOL     OW56698   0.472   8.147   8.638
14741SOL    HW156699   0.434   8.186   8.554
14741SOL    HW256700   0.399   8.139   8.706
14742SOL     OW56701   2.441   8.790   8.070
14742SOL    HW156702   2.394   8.830   8.149
14742SOL    HW256703   2.470   8.697   8.093
14743SOL     OW56704   0.306   8.315   7.395
14743SOL    HW156705   0.327   8.359   7.307
14743SOL    HW256706   0.274   8.221   7.378
14744SOL     OW56707   6.623   8.692   8.921
14744SOL    HW156708   6.548   8.664   8.861
14744SOL    HW256709   6.700   8.722   8.866
14745SOL     OW56710   1.368   7.710   8.627
14745SOL    HW156711   1.291   7.664   8.582
14745SOL    HW256712   1.446   7.715   8.565
14746SOL     OW56713   4.623   8.005   8.103
14746SOL    HW156714   4.720   7.985   8.120
14746SOL    HW256715   4.606   8.102   8.118
14747SOL     OW56716   1.343   8.878   8.289
14747SOL    HW156717   1.330   8.779   8.280
14747SOL    HW256718   1.407   8.910   8.220
14748SOL     OW56719   0.563   8.271   8.230
14748SOL    HW156720   0.476   8.315   8.254
14748SOL    HW256721   0.622   8.337   8.183
14749SOL     OW56722   6.850   8.746   8.100
14749SOL    HW156723   6.768   8.776   8.150
14749SOL    HW256724   6.824   8.678   8.032
14750SOL     OW56725   0.525   7.794   7.958
14750SOL    HW156726   0.473   7.861   8.012
14750SOL    HW256727   0.469   7.762   7.882
14751SOL     OW56728   6.273   8.345   9.097
14751SOL    HW156729   6.295   8.320   9.191
14751SOL    HW256730   6.216   8.427   9.097
14752SOL     OW56731   3.315   8.976   8.271
14752SOL    HW156732   3.393   9.024   8.230
14752SOL    HW256733   3.259   9.041   8.322
14753SOL     OW56734   4.580   8.250   8.204
14753SOL    HW156735   4.501   8.299   8.167
14753SOL    HW256736   4.645   8.315   8.241
14754SOL     OW56737   1.801   9.123   7.708
14754SOL    HW156738   1.728   9.072   7.664
14754SOL    HW256739   1.854   9.062   7.767
14755SOL     OW56740   7.249   7.699   7.716
14755SOL    HW156741   7.259   7.659   7.807
14755SOL    HW256742   7.230   7.797   7.724
14756SOL     OW56743   5.533   8.132   7.398
14756SOL    HW156744   5.455   8.186   7.428
14756SOL    HW256745   5.562   8.071   7.471
14757SOL     OW56746   2.205   8.122   7.789
14757SOL    HW156747   2.301   8.146   7.803
14757SOL    HW256748   2.168   8.080   7.872
14758SOL     OW56749   2.916   8.868   8.399
14758SOL    HW156750   2.998   8.818   8.370
14758SOL    HW256751   2.862   8.810   8.460
14759SOL     OW56752   3.626   8.525   8.387
14759SOL    HW156753   3.634   8.462   8.309
14759SOL    HW256754   3.681   8.606   8.369
14760SOL     OW56755   3.199   8.016   8.241
14760SOL    HW156756   3.109   8.048   8.210
14760SOL    HW256757   3.256   8.095   8.264
14761SOL     OW56758   6.902   8.774   8.895
14761SOL    HW156759   7.000   8.767   8.910
14761SOL    HW256760   6.861   8.833   8.964
14762SOL     OW56761   5.592   7.595   8.733
14762SOL    HW156762   5.527   7.579   8.808
14762SOL    HW256763   5.541   7.623   8.652
14763SOL     OW56764   5.915   8.595   7.883
14763SOL    HW156765   5.903   8.498   7.907
14763SOL    HW256766   6.013   8.617   7.883
14764SOL     OW56767   2.609   8.194   8.645
14764SOL    HW156768   2.666   8.179   8.726
14764SOL    HW256769   2.658   8.162   8.563
14765SOL     OW56770   3.389   8.657   8.334
14765SOL    HW156771   3.470   8.607   8.365
14765SOL    HW256772   3.414   8.752   8.316
14766SOL     OW56773   2.300   7.387   7.905
14766SOL    HW156774   2.222   7.391   7.967
14766SOL    HW256775   2.267   7.362   7.813
14767SOL     OW56776   3.208   8.934   9.080
14767SOL    HW156777   3.148   8.909   9.156
14767SOL    HW256778   3.303   8.924   9.108
14768SOL     OW56779   1.454   8.124   9.232
14768SOL    HW156780   1.358   8.123   9.261
14768SOL    HW256781   1.483   8.032   9.209
14769SOL     OW56782   6.499   8.663   7.825
14769SOL    HW156783   6.436   8.692   7.898
14769SOL    HW256784   6.548   8.743   7.791
14770SOL     OW56785   6.537   7.891   9.209
14770SOL    HW156786   6.550   7.983   9.171
14770SOL    HW256787   6.626   7.850   9.225
14771SOL     OW56788   5.004   7.733   8.865
14771SOL    HW156789   4.933   7.761   8.800
14771SOL    HW256790   4.978   7.645   8.905
14772SOL     OW56791   1.639   8.451   7.443
14772SOL    HW156792   1.699   8.415   7.514
14772SOL    HW256793   1.634   8.551   7.449
14773SOL     OW56794   0.027   9.100   7.955
14773SOL    HW156795  -0.029   9.017   7.957
14773SOL    HW256796   0.051   9.126   8.048
14774SOL     OW56797   2.260   8.634   7.383
14774SOL    HW156798   2.301   8.713   7.429
14774SOL    HW256799   2.175   8.662   7.339
14775SOL     OW56800   5.029   8.415   8.676
14775SOL    HW156801   5.038   8.380   8.583
14775SOL    HW256802   4.938   8.393   8.711
14776SOL     OW56803   3.686   8.097   7.907
14776SOL    HW156804   3.640   8.186   7.909
14776SOL    HW256805   3.732   8.085   7.819
14777SOL     OW56806   2.013   7.558   7.821
14777SOL    HW156807   1.978   7.464   7.815
14777SOL    HW256808   2.055   7.584   7.734
14778SOL     OW56809   4.433   8.841   8.556
14778SOL    HW156810   4.489   8.923   8.566
14778SOL    HW256811   4.403   8.810   8.646
14779SOL     OW56812   3.129   8.694   8.347
14779SOL    HW156813   3.095   8.663   8.436
14779SOL    HW256814   3.228   8.680   8.343
14780SOL     OW56815   2.155   7.983   7.512
14780SOL    HW156816   2.099   7.920   7.567
14780SOL    HW256817   2.178   8.063   7.566
14781SOL     OW56818   5.432   8.836   7.595
14781SOL    HW156819   5.356   8.773   7.577
14781SOL    HW256820   5.441   8.850   7.693
14782SOL     OW56821   1.231   8.797   7.452
14782SOL    HW156822   1.267   8.890   7.453
14782SOL    HW256823   1.147   8.794   7.397
14783SOL     OW56824   5.146   8.644   7.801
14783SOL    HW156825   5.128   8.676   7.894
14783SOL    HW256826   5.080   8.684   7.738
14784SOL     OW56827   6.836   9.269   9.070
14784SOL    HW156828   6.820   9.333   9.145
14784SOL    HW256829   6.749   9.248   9.025
14785SOL     OW56830   2.041   7.731   7.408
14785SOL    HW156831   1.962   7.757   7.353
14785SOL    HW256832   2.054   7.797   7.481
14786SOL     OW56833   2.026   8.241   8.859
14786SOL    HW156834   2.028   8.163   8.795
14786SOL    HW256835   1.932   8.267   8.876
14787SOL     OW56836   6.583   8.203   9.188
14787SOL    HW156837   6.600   8.291   9.144
14787SOL    HW256838   6.500   8.209   9.244
14788SOL     OW56839   0.932   8.940   8.528
14788SOL    HW156840   0.950   8.938   8.626
14788SOL    HW256841   1.017   8.959   8.478
14789SOL     OW56842   2.736   7.432   8.619
14789SOL    HW156843   2.655   7.444   8.562
14789SOL    HW256844   2.769   7.522   8.648
14790SOL     OW56845   6.465   9.007   8.847
14790SOL    HW156846   6.367   9.000   8.829
14790SOL    HW256847   6.501   9.090   8.806
14791SOL     OW56848   2.358   8.731   8.509
14791SOL    HW156849   2.381   8.790   8.587
14791SOL    HW256850   2.296   8.659   8.539
14792SOL     OW56851   0.943   8.538   8.077
14792SOL    HW156852   0.958   8.592   8.160
14792SOL    HW256853   0.977   8.588   7.998
14793SOL     OW56854   4.083   8.056   7.814
14793SOL    HW156855   4.130   8.091   7.895
14793SOL    HW256856   4.052   7.962   7.831
14794SOL     OW56857   2.423   8.096   7.447
14794SOL    HW156858   2.422   8.169   7.516
14794SOL    HW256859   2.363   8.022   7.476
14795SOL     OW56860   4.751   8.433   8.326
14795SOL    HW156861   4.696   8.491   8.385
14795SOL    HW256862   4.784   8.487   8.248
14796SOL     OW56863   4.016   8.794   7.948
14796SOL    HW156864   4.001   8.870   7.885
14796SOL    HW256865   3.941   8.728   7.940
14797SOL     OW56866   6.148   8.739   8.930
14797SOL    HW156867   6.049   8.727   8.934
14797SOL    HW256868   6.177   8.800   9.003
14798SOL     OW56869   2.690   7.972   7.441
14798SOL    HW156870   2.600   8.012   7.427
14798SOL    HW256871   2.682   7.884   7.487
14799SOL     OW56872   5.661   8.276   8.603
14799SOL    HW156873   5.750   8.263   8.646
14799SOL    HW256874   5.605   8.194   8.617
14800SOL     OW56875   1.533   8.895   7.381
14800SOL    HW156876   1.581   8.813   7.410
14800SOL    HW256877   1.585   8.943   7.311
14801SOL     OW56878   5.286   7.400   7.671
14801SOL    HW156879   5.209   7.462   7.674
14801SOL    HW256880   5.264   7.322   7.612
14802SOL     OW56881   0.206   7.686   8.362
14802SOL    HW156882   0.275   7.740   8.410
14802SOL    HW256883   0.134   7.746   8.328
14803SOL     OW56884   0.739   8.920   7.762
14803SOL    HW156885   0.648   8.949   7.791
14803SOL    HW256886   0.799   8.915   7.842
14804SOL     OW56887   1.962   8.435   7.512
14804SOL    HW156888   1.923   8.354   7.469
14804SOL    HW256889   2.035   8.407   7.575
14805SOL     OW56890   1.160   7.537   8.543
14805SOL    HW156891   1.104   7.546   8.461
14805SOL    HW256892   1.101   7.541   8.624
14806SOL     OW56893   3.984   8.347   8.015
14806SOL    HW156894   3.940   8.429   7.980
14806SOL    HW256895   4.050   8.372   8.086
14807SOL     OW56896   5.480   7.677   7.501
14807SOL    HW156897   5.381   7.664   7.499
14807SOL    HW256898   5.519   7.646   7.414
14808SOL     OW56899   3.339   8.140   8.578
14808SOL    HW156900   3.355   8.043   8.559
14808SOL    HW256901   3.282   8.150   8.660
14809SOL     OW56902   0.411   8.395   8.822
14809SOL    HW156903   0.358   8.311   8.808
14809SOL    HW256904   0.427   8.439   8.733
14810SOL     OW56905   5.846   8.213   7.960
14810SOL    HW156906   5.937   8.218   7.920
14810SOL    HW256907   5.777   8.222   7.889
14811SOL     OW56908   4.461   7.936   7.549
14811SOL    HW156909   4.465   7.897   7.641
14811SOL    HW256910   4.464   8.035   7.554
14812SOL     OW56911   3.004   8.643   8.587
14812SOL    HW156912   3.061   8.722   8.614
14812SOL    HW256913   2.911   8.657   8.620
14813SOL     OW56914   5.987   7.835   7.370
14813SOL    HW156915   5.956   7.925   7.338
14813SOL    HW256916   5.909   7.780   7.397
14814SOL     OW56917   2.532   8.564   7.524
14814SOL    HW156918   2.466   8.490   7.516
14814SOL    HW256919   2.624   8.528   7.504
14815SOL     OW56920   4.895   8.117   8.634
14815SOL    HW156921   4.819   8.053   8.641
14815SOL    HW256922   4.878   8.196   8.693
14816SOL     OW56923   0.124   8.871   8.951
14816SOL    HW156924   0.178   8.840   8.873
14816SOL    HW256925   0.071   8.794   8.987
14817SOL     OW56926   6.963   7.920   8.260
14817SOL    HW156927   6.992   7.938   8.354
14817SOL    HW256928   6.875   7.964   8.243
14818SOL     OW56929   0.200   8.212   7.967
14818SOL    HW156930   0.262   8.291   7.968
14818SOL    HW256931   0.106   8.244   7.978
14819SOL     OW56932   4.859   8.569   8.081
14819SOL    HW156933   4.854   8.668   8.088
14819SOL    HW256934   4.831   8.540   7.989
14820SOL     OW56935   0.284   7.516   8.995
14820SOL    HW156936   0.280   7.422   8.961
14820SOL    HW256937   0.243   7.578   8.928
14821SOL     OW56938   3.227   7.413   7.972
14821SOL    HW156939   3.191   7.352   7.902
14821SOL    HW256940   3.179   7.398   8.058
14822SOL     OW56941   5.465   7.913   8.375
14822SOL    HW156942   5.529   7.851   8.330
14822SOL    HW256943   5.444   7.989   8.314
14823SOL     OW56944   6.640   7.376   7.954
14823SOL    HW156945   6.570   7.446   7.940
14823SOL    HW256946   6.596   7.288   7.973
14824SOL     OW56947   6.094   7.526   8.468
14824SOL    HW156948   6.066   7.525   8.564
14824SOL    HW256949   6.189   7.495   8.461
14825SOL     OW56950   4.187   7.884   7.542
14825SOL    HW156951   4.132   7.967   7.528
14825SOL    HW256952   4.283   7.909   7.550
14826SOL     OW56953   0.418   7.790   8.535
14826SOL    HW156954   0.499   7.830   8.493
14826SOL    HW256955   0.414   7.816   8.631
14827SOL     OW56956   7.319   7.813   8.261
14827SOL    HW156957   7.324   7.734   8.199
14827SOL    HW256958   7.285   7.892   8.210
14828SOL     OW56959   7.341   7.601   8.091
14828SOL    HW156960   7.422   7.590   8.034
14828SOL    HW256961   7.288   7.516   8.090
14829SOL     OW56962   4.813   8.315   8.812
14829SOL    HW156963   4.748   8.391   8.809
14829SOL    HW256964   4.831   8.291   8.908
14830SOL     OW56965   2.933   8.957   7.818
14830SOL    HW156966   3.022   8.987   7.852
14830SOL    HW256967   2.867   8.958   7.893
14831SOL     OW56968   6.213   7.465   8.116
14831SOL    HW156969   6.201   7.448   8.018
14831SOL    HW256970   6.129   7.440   8.164
14832SOL     OW56971   4.998   8.301   7.538
14832SOL    HW156972   4.983   8.202   7.532
14832SOL    HW256973   4.911   8.349   7.521
14833SOL     OW56974   3.618   8.150   8.524
14833SOL    HW156975   3.524   8.165   8.554
14833SOL    HW256976   3.618   8.119   8.429
14834SOL     OW56977   2.082   7.994   8.014
14834SOL    HW156978   2.043   7.909   7.978
14834SOL    HW256979   2.139   7.974   8.093
14835SOL     OW56980   5.397   8.285   7.706
14835SOL    HW156981   5.368   8.312   7.615
14835SOL    HW256982   5.387   8.362   7.769
14836SOL     OW56983   2.945   8.695   7.748
14836SOL    HW156984   2.953   8.795   7.752
14836SOL    HW256985   2.906   8.669   7.659
14837SOL     OW56986   3.873   7.511   7.451
14837SOL    HW156987   3.867   7.500   7.352
14837SOL    HW256988   3.843   7.426   7.496
14838SOL     OW56989   1.590   8.864   8.624
14838SOL    HW156990   1.594   8.830   8.718
14838SOL    HW256991   1.507   8.830   8.580
14839SOL     OW56992   2.187   8.586   7.884
14839SOL    HW156993   2.277   8.595   7.842
14839SOL    HW256994   2.130   8.525   7.829
14840SOL     OW56995   5.053   7.469   8.964
14840SOL    HW156996   5.043   7.373   8.937
14840SOL    HW256997   5.117   7.474   9.041
14841SOL     OW56998   2.651   8.478   8.623
14841SOL    HW156999   2.609   8.502   8.535
14841SOL    HW257000   2.617   8.389   8.653
14842SOL     OW57001   6.713   7.924   7.988
14842SOL    HW157002   6.807   7.951   8.007
14842SOL    HW257003   6.665   7.904   8.073
14843SOL     OW57004   4.723   8.054   7.700
14843SOL    HW157005   4.749   8.054   7.604
14843SOL    HW257006   4.653   8.124   7.716
14844SOL     OW57007   5.590   7.929   8.830
14844SOL    HW157008   5.543   7.970   8.752
14844SOL    HW257009   5.664   7.870   8.798
14845SOL     OW57010   0.293   8.678   7.717
14845SOL    HW157011   0.393   8.689   7.718
14845SOL    HW257012   0.271   8.582   7.702
14846SOL     OW57013   5.591   8.574   8.205
14846SOL    HW157014   5.649   8.509   8.253
14846SOL    HW257015   5.515   8.526   8.162
14847SOL     OW57016   6.268   7.756   8.679
14847SOL    HW157017   6.351   7.711   8.646
14847SOL    HW257018   6.211   7.782   8.601
14848SOL     OW57019   6.218   7.736   8.191
14848SOL    HW157020   6.202   7.638   8.205
14848SOL    HW257021   6.316   7.756   8.200
14849SOL     OW57022   5.024   7.483   7.712
14849SOL    HW157023   5.027   7.580   7.691
14849SOL    HW257024   5.010   7.470   7.810
14850SOL     OW57025   2.771   8.730   8.665
14850SOL    HW157026   2.723   8.648   8.633
14850SOL    HW257027   2.726   8.765   8.747
14851SOL     OW57028   2.082   7.819   8.581
14851SOL    HW157029   2.011   7.758   8.546
14851SOL    HW257030   2.062   7.913   8.553
14852SOL     OW57031   6.235   8.241   8.659
14852SOL    HW157032   6.292   8.267   8.738
14852SOL    HW257033   6.169   8.171   8.688
14853SOL     OW57034   4.722   8.847   7.414
14853SOL    HW157035   4.693   8.903   7.336
14853SOL    HW257036   4.732   8.904   7.495
14854SOL     OW57037   1.864   7.483   8.164
14854SOL    HW157038   1.831   7.578   8.168
14854SOL    HW257039   1.816   7.429   8.233
14855SOL     OW57040   4.615   7.572   8.595
14855SOL    HW157041   4.585   7.577   8.500
14855SOL    HW257042   4.566   7.499   8.642
14856SOL     OW57043   6.110   8.339   8.403
14856SOL    HW157044   6.060   8.262   8.363
14856SOL    HW257045   6.152   8.310   8.489
14857SOL     OW57046   1.869   8.792   7.830
14857SOL    HW157047   1.773   8.803   7.855
14857SOL    HW257048   1.927   8.809   7.910
14858SOL     OW57049   5.534   9.219   8.405
14858SOL    HW157050   5.533   9.189   8.309
14858SOL    HW257051   5.468   9.165   8.457
14859SOL     OW57052   1.843   8.204   7.392
14859SOL    HW157053   1.902   8.144   7.338
14859SOL    HW257054   1.760   8.225   7.339
14860SOL     OW57055   6.316   8.597   9.295
14860SOL    HW157056   6.390   8.657   9.265
14860SOL    HW257057   6.318   8.590   9.395
14861SOL     OW57058   3.383   8.520   8.056
14861SOL    HW157059   3.390   8.521   8.155
14861SOL    HW257060   3.330   8.599   8.025
14862SOL     OW57061   3.478   7.619   8.572
14862SOL    HW157062   3.397   7.560   8.565
14862SOL    HW257063   3.523   7.603   8.660
14863SOL     OW57064   0.092   8.749   8.421
14863SOL    HW157065   0.017   8.815   8.411
14863SOL    HW257066   0.166   8.773   8.359
14864SOL     OW57067   5.667   7.761   8.141
14864SOL    HW157068   5.680   7.664   8.161
14864SOL    HW257069   5.642   7.773   8.045
14865SOL     OW57070   0.708   8.738   8.472
14865SOL    HW157071   0.728   8.643   8.495
14865SOL    HW257072   0.762   8.799   8.531
14866SOL     OW57073   4.332   7.459   8.355
14866SOL    HW157074   4.377   7.385   8.405
14866SOL    HW257075   4.250   7.424   8.310
14867SOL     OW57076   5.915   7.890   8.191
14867SOL    HW157077   5.976   7.822   8.230
14867SOL    HW257078   5.842   7.844   8.140
14868SOL     OW57079   2.183   8.405   7.686
14868SOL    HW157080   2.243   8.400   7.606
14868SOL    HW257081   2.188   8.319   7.737
14869SOL     OW57082   3.315   7.788   8.118
14869SOL    HW157083   3.376   7.843   8.061
14869SOL    HW257084   3.245   7.846   8.159
14870SOL     OW57085   2.965   8.601   8.154
14870SOL    HW157086   3.021   8.641   8.226
14870SOL    HW257087   2.925   8.515   8.187
14871SOL     OW57088   3.787   8.734   8.300
14871SOL    HW157089   3.770   8.797   8.224
14871SOL    HW257090   3.758   8.775   8.386
14872SOL     OW57091   0.096   7.671   7.439
14872SOL    HW157092   0.020   7.616   7.472
14872SOL    HW257093   0.081   7.695   7.343
14873SOL     OW57094   0.823   8.112   8.137
14873SOL    HW157095   0.819   8.013   8.132
14873SOL    HW257096   0.733   8.148   8.160
14874SOL     OW57097   1.764   8.239   7.724
14874SOL    HW157098   1.840   8.287   7.681
14874SOL    HW257099   1.759   8.146   7.688
14875SOL     OW57100   3.467   7.817   8.962
14875SOL    HW157101   3.530   7.874   8.908
14875SOL    HW257102   3.519   7.747   9.010
14876SOL     OW57103   2.225   7.968   8.237
14876SOL    HW157104   2.248   7.901   8.307
14876SOL    HW257105   2.287   8.046   8.244
14877SOL     OW57106   7.248   7.494   7.508
14877SOL    HW157107   7.276   7.428   7.577
14877SOL    HW257108   7.242   7.585   7.549
14878SOL     OW57109   3.357   8.250   8.291
14878SOL    HW157110   3.340   8.254   8.390
14878SOL    HW257111   3.444   8.294   8.270
14879SOL     OW57112   6.947   7.451   7.611
14879SOL    HW157113   6.885   7.372   7.612
14879SOL    HW257114   6.893   7.535   7.603
14880SOL     OW57115   1.879   8.659   8.397
14880SOL    HW157116   1.798   8.614   8.433
14880SOL    HW257117   1.955   8.648   8.461
14881SOL     OW57118   5.262   8.236   8.461
14881SOL    HW157119   5.300   8.234   8.368
14881SOL    HW257120   5.162   8.237   8.456
14882SOL     OW57121   3.537   7.703   8.281
14882SOL    HW157122   3.497   7.632   8.339
14882SOL    HW257123   3.471   7.730   8.211
14883SOL     OW57124   1.077   8.802   7.680
14883SOL    HW157125   0.984   8.772   7.658
14883SOL    HW257126   1.130   8.809   7.595
14884SOL     OW57127   5.176   8.745   8.080
14884SOL    HW157128   5.120   8.704   8.152
14884SOL    HW257129   5.272   8.743   8.107
14885SOL     OW57130   2.403   8.876   8.738
14885SOL    HW157131   2.332   8.862   8.806
14885SOL    HW257132   2.488   8.832   8.767
14886SOL     OW57133   6.976   7.649   8.177
14886SOL    HW157134   6.966   7.744   8.206
14886SOL    HW257135   6.889   7.601   8.187
14887SOL     OW57136   5.009   8.026   7.504
14887SOL    HW157137   5.076   7.952   7.507
14887SOL    HW257138   4.922   7.993   7.468
14888SOL     OW57139   3.341   8.055   7.638
14888SOL    HW157140   3.264   8.022   7.585
14888SOL    HW257141   3.390   8.126   7.587
14889SOL     OW57142   1.031   9.051   9.169
14889SOL    HW157143   1.103   8.986   9.143
14889SOL    HW257144   1.067   9.144   9.163
14890SOL     OW57145   5.415   7.799   9.007
14890SOL    HW157146   5.328   7.840   8.978
14890SOL    HW257147   5.491   7.846   8.963
14891SOL     OW57148   4.160   7.708   8.158
14891SOL    HW157149   4.062   7.693   8.150
14891SOL    HW257150   4.204   7.685   8.072
14892SOL     OW57151   1.489   7.826   8.210
14892SOL    HW157152   1.409   7.804   8.266
14892SOL    HW257153   1.503   7.925   8.207
14893SOL     OW57154   4.902   7.413   7.965
14893SOL    HW157155   4.864   7.497   8.003
14893SOL    HW257156   4.835   7.370   7.905
14894SOL     OW57157   4.311   8.300   7.438
14894SOL    HW157158   4.307   8.303   7.538
14894SOL    HW257159   4.404   8.279   7.409
14895SOL     OW57160   5.472   8.483   8.570
14895SOL    HW157161   5.537   8.407   8.574
14895SOL    HW257162   5.380   8.448   8.550
14896SOL     OW57163   6.780   8.605   7.851
14896SOL    HW157164   6.829   8.645   7.773
14896SOL    HW257165   6.682   8.619   7.839
14897SOL     OW57166   5.359   9.024   8.517
14897SOL    HW157167   5.290   9.058   8.581
14897SOL    HW257168   5.313   8.981   8.439
14898SOL     OW57169   4.343   8.852   8.301
14898SOL    HW157170   4.244   8.867   8.303
14898SOL    HW257171   4.382   8.876   8.390
14899SOL     OW57172   1.622   8.236   8.407
14899SOL    HW157173   1.586   8.254   8.499
14899SOL    HW257174   1.546   8.224   8.343
14900SOL     OW57175   0.474   8.875   9.017
14900SOL    HW157176   0.481   8.848   9.113
14900SOL    HW257177   0.520   8.963   9.004
14901SOL     OW57178   0.175   7.593   7.888
14901SOL    HW157179   0.251   7.636   7.838
14901SOL    HW257180   0.171   7.496   7.865
14902SOL     OW57181   2.454   8.923   7.573
14902SOL    HW157182   2.359   8.929   7.605
14902SOL    HW257183   2.515   8.914   7.651
14903SOL     OW57184   2.761   8.157   8.392
14903SOL    HW157185   2.735   8.090   8.322
14903SOL    HW257186   2.850   8.132   8.430
14904SOL     OW57187   4.342   8.151   7.714
14904SOL    HW157188   4.247   8.138   7.687
14904SOL    HW257189   4.368   8.079   7.778
14905SOL     OW57190   6.659   8.155   8.425
14905SOL    HW157191   6.684   8.209   8.506
14905SOL    HW257192   6.561   8.134   8.429
14906SOL     OW57193   4.031   7.996   8.173
14906SOL    HW157194   4.087   8.061   8.121
14906SOL    HW257195   4.052   7.903   8.143
14907SOL     OW57196   6.471   7.908   7.850
14907SOL    HW157197   6.496   7.986   7.908
14907SOL    HW257198   6.397   7.857   7.893
14908SOL     OW57199   4.833   7.616   7.475
14908SOL    HW157200   4.897   7.676   7.522
14908SOL    HW257201   4.740   7.653   7.481
14909SOL     OW57202   4.497   8.511   9.190
14909SOL    HW157203   4.590   8.511   9.153
14909SOL    HW257204   4.441   8.445   9.140
14910SOL     OW57205   4.593   7.525   7.918
14910SOL    HW157206   4.603   7.500   7.822
14910SOL    HW257207   4.671   7.580   7.947
14911SOL     OW57208   3.878   7.408   8.458
14911SOL    HW157209   3.935   7.397   8.540
14911SOL    HW257210   3.852   7.504   8.449
14912SOL     OW57211   3.558   8.569   7.571
14912SOL    HW157212   3.644   8.525   7.596
14912SOL    HW257213   3.572   8.668   7.568
14913SOL     OW57214   2.954   8.723   7.398
14913SOL    HW157215   3.026   8.778   7.439
14913SOL    HW257216   2.976   8.705   7.302
14914SOL     OW57217   6.338   7.676   7.415
14914SOL    HW157218   6.370   7.771   7.407
14914SOL    HW257219   6.376   7.636   7.498
14915SOL     OW57220   5.460   8.794   8.146
14915SOL    HW157221   5.467   8.813   8.048
14915SOL    HW257222   5.517   8.715   8.169
14916SOL     OW57223   3.641   8.350   8.190
14916SOL    HW157224   3.620   8.363   8.093
14916SOL    HW257225   3.703   8.272   8.200
14917SOL     OW57226   0.672   8.083   8.848
14917SOL    HW157227   0.633   8.041   8.931
14917SOL    HW257228   0.601   8.089   8.778
14918SOL     OW57229   6.953   8.305   8.687
14918SOL    HW157230   6.988   8.365   8.615
14918SOL    HW257231   7.002   8.324   8.772
14919SOL     OW57232   6.694   8.259   8.766
14919SOL    HW157233   6.684   8.159   8.773
14919SOL    HW257234   6.779   8.281   8.718
14920SOL     OW57235   5.646   8.046   8.023
14920SOL    HW157236   5.730   8.097   8.002
14920SOL    HW257237   5.585   8.103   8.077
14921SOL     OW57238   0.309   8.328   8.286
14921SOL    HW157239   0.235   8.372   8.234
14921SOL    HW257240   0.292   8.230   8.293
14922SOL     OW57241   1.892   8.277   8.405
14922SOL    HW157242   1.926   8.284   8.311
14922SOL    HW257243   1.796   8.252   8.403
14923SOL     OW57244   6.267   8.016   7.707
14923SOL    HW157245   6.199   7.943   7.702
14923SOL    HW257246   6.349   7.983   7.754
14924SOL     OW57247   5.462   8.507   7.369
14924SOL    HW157248   5.525   8.463   7.433
14924SOL    HW257249   5.400   8.567   7.420
14925SOL     OW57250   5.243   7.594   8.715
14925SOL    HW157251   5.173   7.654   8.754
14925SOL    HW257252   5.293   7.643   8.643
14926SOL     OW57253   1.214   9.300   8.893
14926SOL    HW157254   1.200   9.363   8.818
14926SOL    HW257255   1.262   9.218   8.860
14927SOL     OW57256   2.074   8.810   8.028
14927SOL    HW157257   2.153   8.829   8.086
14927SOL    HW257258   2.094   8.733   7.968
14928SOL     OW57259   4.072   8.835   8.222
14928SOL    HW157260   4.054   8.811   8.127
14928SOL    HW257261   4.007   8.788   8.282
14929SOL     OW57262   5.753   7.450   8.486
14929SOL    HW157263   5.767   7.526   8.550
14929SOL    HW257264   5.824   7.382   8.500
14930SOL     OW57265   3.512   7.734   7.817
14930SOL    HW157266   3.504   7.644   7.860
14930SOL    HW257267   3.447   7.797   7.860
14931SOL     OW57268   1.925   9.347   8.416
14931SOL    HW157269   1.961   9.278   8.478
14931SOL    HW257270   1.996   9.415   8.398
14932SOL     OW57271   3.001   7.709   7.641
14932SOL    HW157272   3.049   7.652   7.575
14932SOL    HW257273   3.060   7.725   7.720
14933SOL     OW57274   1.672   8.526   8.500
14933SOL    HW157275   1.619   8.588   8.558
14933SOL    HW257276   1.619   8.444   8.481
14934SOL     OW57277   5.726   7.465   8.148
14934SOL    HW157278   5.813   7.442   8.192
14934SOL    HW257279   5.726   7.430   8.055
14935SOL     OW57280   3.024   7.407   8.823
14935SOL    HW157281   3.107   7.360   8.791
14935SOL    HW257282   2.961   7.341   8.862
14936SOL     OW57283   2.180   8.401   8.089
14936SOL    HW157284   2.165   8.479   8.028
14936SOL    HW257285   2.250   8.425   8.156
14937SOL     OW57286   6.377   7.432   8.365
14937SOL    HW157287   6.420   7.343   8.369
14937SOL    HW257288   6.348   7.452   8.271
14938SOL     OW57289   0.994   8.679   8.302
14938SOL    HW157290   0.941   8.757   8.335
14938SOL    HW257291   0.957   8.594   8.340
14939SOL     OW57292   3.013   8.031   8.439
14939SOL    HW157293   2.997   7.947   8.492
14939SOL    HW257294   3.108   8.031   8.405
14940SOL     OW57295   5.561   8.862   7.894
14940SOL    HW157296   5.641   8.836   7.947
14940SOL    HW257297   5.576   8.954   7.855
14941SOL     OW57298   4.092   8.130   7.393
14941SOL    HW157299   4.036   8.128   7.310
14941SOL    HW257300   4.186   8.157   7.369
14942SOL     OW57301   5.031   7.749   7.635
14942SOL    HW157302   5.116   7.796   7.612
14942SOL    HW257303   4.984   7.799   7.708
14943SOL     OW57304   0.327   8.738   8.816
14943SOL    HW157305   0.392   8.780   8.879
14943SOL    HW257306   0.355   8.757   8.721
14944SOL     OW57307   4.413   7.803   8.785
14944SOL    HW157308   4.433   7.830   8.879
14944SOL    HW257309   4.482   7.841   8.723
14945SOL     OW57310   2.072   8.077   8.535
14945SOL    HW157311   2.019   8.127   8.466
14945SOL    HW257312   2.168   8.104   8.529
14946SOL     OW57313   0.294   7.970   8.051
14946SOL    HW157314   0.269   8.066   8.044
14946SOL    HW257315   0.214   7.916   8.076
14947SOL     OW57316   1.248   7.427   8.978
14947SOL    HW157317   1.196   7.449   8.896
14947SOL    HW257318   1.255   7.508   9.037
14948SOL     OW57319   2.213   8.385   8.713
14948SOL    HW157320   2.154   8.320   8.761
14948SOL    HW257321   2.239   8.459   8.775
14949SOL     OW57322   6.596   7.661   7.655
14949SOL    HW157323   6.547   7.734   7.704
14949SOL    HW257324   6.694   7.682   7.654
14950SOL     OW57325   0.186   8.059   8.297
14950SOL    HW157326   0.103   8.114   8.286
14950SOL    HW257327   0.181   8.008   8.382
14951SOL     OW57328   6.707   7.994   7.429
14951SOL    HW157329   6.779   8.042   7.379
14951SOL    HW257330   6.709   8.022   7.525
14952SOL     OW57331   5.355   8.072   7.856
14952SOL    HW157332   5.392   8.143   7.796
14952SOL    HW257333   5.420   7.996   7.862
14953SOL     OW57334   1.561   7.633   8.402
14953SOL    HW157335   1.657   7.635   8.431
14953SOL    HW257336   1.545   7.706   8.335
14954SOL     OW57337   4.918   8.840   8.770
14954SOL    HW157338   4.996   8.778   8.762
14954SOL    HW257339   4.880   8.858   8.679
14955SOL     OW57340   4.604   7.848   8.356
14955SOL    HW157341   4.571   7.763   8.316
14955SOL    HW257342   4.667   7.892   8.292
14956SOL     OW57343   3.512   8.177   8.922
14956SOL    HW157344   3.415   8.193   8.902
14956SOL    HW257345   3.540   8.088   8.885
14957SOL     OW57346   3.875   7.446   8.007
14957SOL    HW157347   3.873   7.376   8.079
14957SOL    HW257348   3.869   7.536   8.049
14958SOL     OW57349   3.683   8.883   8.060
14958SOL    HW157350   3.637   8.836   7.985
14958SOL    HW257351   3.742   8.954   8.022
14959SOL     OW57352   5.118   8.370   7.803
14959SOL    HW157353   5.099   8.336   7.710
14959SOL    HW257354   5.117   8.470   7.802
14960SOL     OW57355   4.778   7.750   8.729
14960SOL    HW157356   4.726   7.833   8.749
14960SOL    HW257357   4.720   7.684   8.681
14961SOL     OW57358   3.726   8.329   9.047
14961SOL    HW157359   3.809   8.329   8.992
14961SOL    HW257360   3.651   8.289   8.993
14962SOL     OW57361   4.977   9.000   8.493
14962SOL    HW157362   5.040   8.924   8.476
14962SOL    HW257363   5.017   9.061   8.562
14963SOL     OW57364   1.980   8.219   8.148
14963SOL    HW157365   2.026   8.142   8.103
14963SOL    HW257366   2.034   8.302   8.136
14964SOL     OW57367   7.041   8.406   8.931
14964SOL    HW157368   7.051   8.484   8.869
14964SOL    HW257369   6.996   8.436   9.015
14965SOL     OW57370   0.584   8.750   8.198
14965SOL    HW157371   0.634   8.763   8.284
14965SOL    HW257372   0.552   8.839   8.165
14966SOL     OW57373   6.193   8.918   9.140
14966SOL    HW157374   6.167   9.009   9.109
14966SOL    HW257375   6.219   8.921   9.236
14967SOL     OW57376   6.468   7.651   8.545
14967SOL    HW157377   6.519   7.725   8.501
14967SOL    HW257378   6.454   7.577   8.480
14968SOL     OW57379   5.134   8.680   8.755
14968SOL    HW157380   5.210   8.676   8.820
14968SOL    HW257381   5.104   8.587   8.734
14969SOL     OW57382   1.147   9.057   8.353
14969SOL    HW157383   1.218   8.991   8.329
14969SOL    HW257384   1.152   9.135   8.291
14970SOL     OW57385   5.884   7.568   8.714
14970SOL    HW157386   5.939   7.601   8.791
14970SOL    HW257387   5.787   7.569   8.738
14971SOL     OW57388   0.677   8.524   7.536
14971SOL    HW157389   0.658   8.461   7.461
14971SOL    HW257390   0.745   8.484   7.597
14972SOL     OW57391   1.654   8.746   8.855
14972SOL    HW157392   1.736   8.733   8.911
14972SOL    HW257393   1.581   8.685   8.887
14973SOL     OW57394   5.393   8.421   8.080
14973SOL    HW157395   5.295   8.429   8.099
14973SOL    HW257396   5.412   8.453   7.987
14974SOL     OW57397   3.212   7.602   8.274
14974SOL    HW157398   3.243   7.662   8.201
14974SOL    HW257399   3.201   7.509   8.239
14975SOL     OW57400   5.959   7.376   8.265
14975SOL    HW157401   5.972   7.439   8.342
14975SOL    HW257402   5.935   7.286   8.300
14976SOL     OW57403   3.819   7.711   7.649
14976SOL    HW157404   3.864   7.667   7.572
14976SOL    HW257405   3.790   7.641   7.714
14977SOL     OW57406   3.720   7.832   7.960
14977SOL    HW157407   3.647   7.790   7.906
14977SOL    HW257408   3.707   7.931   7.960
14978SOL     OW57409   0.264   8.858   8.232
14978SOL    HW157410   0.355   8.884   8.201
14978SOL    HW257411   0.198   8.928   8.203
14979SOL     OW57412   3.325   7.377   8.761
14979SOL    HW157413   3.402   7.317   8.740
14979SOL    HW257414   3.290   7.416   8.676
14980SOL     OW57415   5.786   7.894   8.448
14980SOL    HW157416   5.818   7.906   8.354
14980SOL    HW257417   5.698   7.941   8.460
14981SOL     OW57418   4.931   8.168   8.121
14981SOL    HW157419   4.993   8.113   8.064
14981SOL    HW257420   4.984   8.235   8.172
14982SOL     OW57421   7.099   8.753   8.411
14982SOL    HW157422   7.061   8.829   8.359
14982SOL    HW257423   7.039   8.732   8.488
14983SOL     OW57424   6.927   8.762   8.629
14983SOL    HW157425   6.885   8.751   8.719
14983SOL    HW257426   6.932   8.859   8.605
14984SOL     OW57427   0.838   7.566   8.533
14984SOL    HW157428   0.845   7.467   8.545
14984SOL    HW257429   0.750   7.589   8.490
14985SOL     OW57430   1.773   7.991   7.590
14985SOL    HW157431   1.696   7.930   7.576
14985SOL    HW257432   1.803   8.028   7.501
14986SOL     OW57433   0.808   7.849   8.101
14986SOL    HW157434   0.862   7.765   8.112
14986SOL    HW257435   0.736   7.833   8.033
14987SOL     OW57436   6.295   8.162   7.490
14987SOL    HW157437   6.288   8.106   7.573
14987SOL    HW257438   6.206   8.167   7.445
14988SOL     OW57439   5.924   8.283   7.582
14988SOL    HW157440   5.987   8.262   7.657
14988SOL    HW257441   5.974   8.278   7.495
14989SOL     OW57442   3.474   7.482   7.951
14989SOL    HW157443   3.379   7.453   7.964
14989SOL    HW257444   3.535   7.403   7.959
14990SOL     OW57445   0.605   7.543   8.391
14990SOL    HW157446   0.641   7.636   8.386
14990SOL    HW257447   0.534   7.530   8.323
14991SOL     OW57448   0.772   8.267   9.019
14991SOL    HW157449   0.733   8.198   8.957
14991SOL    HW257450   0.865   8.290   8.989
14992SOL     OW57451   2.135   8.544   8.493
14992SOL    HW157452   2.126   8.474   8.423
14992SOL    HW257453   2.152   8.500   8.582
14993SOL     OW57454   4.553   7.692   7.499
14993SOL    HW157455   4.486   7.765   7.488
14993SOL    HW257456   4.506   7.604   7.510
14994SOL     OW57457   6.667   7.984   8.782
14994SOL    HW157458   6.728   7.951   8.709
14994SOL    HW257459   6.586   7.926   8.786
14995SOL     OW57460   5.438   8.023   8.610
14995SOL    HW157461   5.437   8.008   8.512
14995SOL    HW257462   5.348   8.054   8.640
14996SOL     OW57463   0.177   7.918   8.727
14996SOL    HW157464   0.115   7.924   8.649
14996SOL    HW257465   0.168   8.001   8.783
14997SOL     OW57466   0.651   7.821   8.394
14997SOL    HW157467   0.588   7.860   8.327
14997SOL    HW257468   0.707   7.894   8.435
14998SOL     OW57469   7.028   8.232   8.340
14998SOL    HW157470   7.117   8.226   8.294
14998SOL    HW257471   6.959   8.185   8.285
14999SOL     OW57472   0.916   8.002   8.769
14999SOL    HW157473   0.911   7.906   8.795
14999SOL    HW257474   0.825   8.043   8.772
15000SOL     OW57475   3.937   8.173   7.616
15000SOL    HW157476   3.983   8.180   7.528
15000SOL    HW257477   3.990   8.112   7.676
15001SOL     OW57478   3.385   7.407   7.679
15001SOL    HW157479   3.424   7.426   7.769
15001SOL    HW257480   3.434   7.459   7.610
15002SOL     OW57481   1.540   7.827   7.480
15002SOL    HW157482   1.483   7.760   7.526
15002SOL    HW257483   1.487   7.871   7.407
15003SOL     OW57484   3.869   7.691   8.142
15003SOL    HW157485   3.832   7.692   8.235
15003SOL    HW257486   3.816   7.753   8.084
15004SOL     OW57487   5.505   8.829   8.859
15004SOL    HW157488   5.546   8.795   8.774
15004SOL    HW257489   5.458   8.916   8.841
15005SOL     OW57490   6.497   7.404   7.616
15005SOL    HW157491   6.536   7.490   7.650
15005SOL    HW257492   6.510   7.399   7.517
15006SOL     OW57493   4.377   7.978   8.261
15006SOL    HW157494   4.362   7.892   8.310
15006SOL    HW257495   4.465   7.975   8.214
15007SOL     OW57496   2.736   7.731   7.552
15007SOL    HW157497   2.691   7.646   7.579
15007SOL    HW257498   2.834   7.723   7.568
15008SOL     OW57499   5.186   8.514   8.373
15008SOL    HW157500   5.157   8.466   8.291
15008SOL    HW257501   5.284   8.532   8.368
15009SOL     OW57502   6.876   7.723   7.657
15009SOL    HW157503   6.923   7.687   7.737
15009SOL    HW257504   6.913   7.813   7.634
15010SOL     OW57505   4.518   7.626   8.214
15010SOL    HW157506   4.455   7.555   8.244
15010SOL    HW257507   4.479   7.673   8.135
15011SOL     OW57508   6.043   7.808   8.484
15011SOL    HW157509   5.953   7.840   8.511
15011SOL    HW257510   6.041   7.708   8.471
15012SOL     OW57511   6.055   7.807   7.694
15012SOL    HW157512   5.963   7.769   7.684
15012SOL    HW257513   6.099   7.811   7.604
15013SOL     OW57514   2.782   8.522   7.505
15013SOL    HW157515   2.834   8.449   7.549
15013SOL    HW257516   2.845   8.585   7.459
15014SOL     OW57517   6.256   8.487   8.240
15014SOL    HW157518   6.343   8.502   8.288
15014SOL    HW257519   6.198   8.428   8.295
15015SOL     OW57520   5.743   8.952   8.253
15015SOL    HW157521   5.651   8.913   8.242
15015SOL    HW257522   5.800   8.924   8.176
15016SOL     OW57523   7.261   8.865   8.003
15016SOL    HW157524   7.177   8.893   7.957
15016SOL    HW257525   7.243   8.785   8.060
15017SOL     OW57526   2.819   8.563   8.906
15017SOL    HW157527   2.902   8.544   8.959
15017SOL    HW257528   2.832   8.645   8.851
15018SOL     OW57529   3.854   8.720   7.480
15018SOL    HW157530   3.776   8.779   7.499
15018SOL    HW257531   3.931   8.746   7.537
15019SOL     OW57532   3.122   8.697   7.961
15019SOL    HW157533   3.070   8.690   7.875
15019SOL    HW257534   3.080   8.639   8.030
15020SOL     OW57535   4.958   8.276   8.436
15020SOL    HW157536   4.882   8.331   8.400
15020SOL    HW257537   4.922   8.206   8.497
15021SOL     OW57538   4.814   7.667   8.004
15021SOL    HW157539   4.819   7.740   7.936
15021SOL    HW257540   4.851   7.699   8.091
15022SOL     OW57541   4.202   7.875   8.631
15022SOL    HW157542   4.229   7.812   8.558
15022SOL    HW257543   4.276   7.882   8.698
15023SOL     OW57544   6.984   8.936   8.242
15023SOL    HW157545   6.930   9.016   8.268
15023SOL    HW257546   6.938   8.888   8.167
15024SOL     OW57547   6.443   7.943   7.382
15024SOL    HW157548   6.390   8.022   7.411
15024SOL    HW257549   6.540   7.969   7.373
15025SOL     OW57550   2.347   7.712   8.582
15025SOL    HW157551   2.252   7.743   8.576
15025SOL    HW257552   2.375   7.713   8.678
15026SOL     OW57553   2.413   8.164   8.303
15026SOL    HW157554   2.395   8.188   8.398
15026SOL    HW257555   2.483   8.093   8.300
15027SOL     OW57556   4.223   8.233   8.342
15027SOL    HW157557   4.263   8.162   8.284
15027SOL    HW257558   4.137   8.199   8.380
15028SOL     OW57559   6.717   7.995   7.715
15028SOL    HW157560   6.630   7.973   7.670
15028SOL    HW257561   6.714   7.965   7.810
15029SOL     OW57562   2.216   7.366   8.763
15029SOL    HW157563   2.300   7.412   8.792
15029SOL    HW257564   2.215   7.360   8.664
15030SOL     OW57565   2.051   8.907   8.475
15030SOL    HW157566   1.978   8.870   8.532
15030SOL    HW257567   2.012   8.956   8.397
15031SOL     OW57568   3.410   7.991   7.915
15031SOL    HW157569   3.388   8.021   7.822
15031SOL    HW257570   3.465   8.060   7.960
15032SOL     OW57571   0.680   8.490   8.146
15032SOL    HW157572   0.648   8.583   8.163
15032SOL    HW257573   0.774   8.493   8.111
15033SOL     OW57574   5.746   8.744   8.037
15033SOL    HW157575   5.829   8.721   7.986
15033SOL    HW257576   5.719   8.666   8.093
15034SOL     OW57577   5.886   8.901   8.820
15034SOL    HW157578   5.854   8.920   8.727
15034SOL    HW257579   5.899   8.803   8.831
15035SOL     OW57580   3.674   7.456   8.730
15035SOL    HW157581   3.730   7.445   8.812
15035SOL    HW257582   3.686   7.376   8.670
15036SOL     OW57583   2.455   7.754   8.839
15036SOL    HW157584   2.386   7.783   8.906
15036SOL    HW257585   2.534   7.816   8.844
15037SOL     OW57586   0.969   7.668   9.032
15037SOL    HW157587   0.930   7.733   9.098
15037SOL    HW257588   0.942   7.694   8.939
15038SOL     OW57589   5.004   8.726   7.587
15038SOL    HW157590   4.971   8.789   7.517
15038SOL    HW257591   4.930   8.664   7.614
15039SOL     OW57592   5.708   8.244   8.306
15039SOL    HW157593   5.802   8.217   8.284
15039SOL    HW257594   5.701   8.263   8.404
15040SOL     OW57595   2.771   8.612   7.967
15040SOL    HW157596   2.834   8.594   8.043
15040SOL    HW257597   2.818   8.663   7.895
15041SOL     OW57598   4.010   8.042   8.464
15041SOL    HW157599   4.051   7.978   8.528
15041SOL    HW257600   4.017   8.005   8.371
15042SOL     OW57601   6.991   7.991   7.705
15042SOL    HW157602   7.001   7.972   7.802
15042SOL    HW257603   6.935   8.073   7.692
15043SOL     OW57604   6.345   8.420   7.826
15043SOL    HW157605   6.392   8.335   7.848
15043SOL    HW257606   6.413   8.491   7.805
15044SOL     OW57607   7.333   8.218   8.304
15044SOL    HW157608   7.286   8.217   8.392
15044SOL    HW257609   7.361   8.311   8.283
15045SOL     OW57610   0.567   8.663   7.751
15045SOL    HW157611   0.640   8.688   7.815
15045SOL    HW257612   0.605   8.608   7.677
15046SOL     OW57613   3.977   8.504   8.411
15046SOL    HW157614   3.885   8.515   8.373
15046SOL    HW257615   3.976   8.432   8.481
15047SOL     OW57616   1.068   8.334   9.008
15047SOL    HW157617   1.102   8.286   8.928
15047SOL    HW257618   1.135   8.403   9.036
15048SOL     OW57619   4.321   8.528   8.735
15048SOL    HW157620   4.274   8.451   8.778
15048SOL    HW257621   4.326   8.512   8.636
15049SOL     OW57622   3.596   7.381   8.204
15049SOL    HW157623   3.685   7.377   8.249
15049SOL    HW257624   3.584   7.470   8.160
15050SOL     OW57625   6.375   8.120   8.446
15050SOL    HW157626   6.298   8.065   8.412
15050SOL    HW257627   6.352   8.159   8.534
15051SOL     OW57628   3.088   7.526   7.481
15051SOL    HW157629   3.002   7.503   7.435
15051SOL    HW257630   3.136   7.441   7.504
15052SOL     OW57631   1.019   7.470   8.788
15052SOL    HW157632   0.976   7.379   8.784
15052SOL    HW257633   0.949   7.538   8.812
15053SOL     OW57634   0.337   8.513   8.542
15053SOL    HW157635   0.334   8.474   8.449
15053SOL    HW257636   0.244   8.527   8.576
15054SOL     OW57637   5.640   7.893   7.810
15054SOL    HW157638   5.658   7.948   7.892
15054SOL    HW257639   5.724   7.845   7.784
15055SOL     OW57640   4.482   8.561   7.886
15055SOL    HW157641   4.530   8.639   7.845
15055SOL    HW257642   4.439   8.590   7.972
15056SOL     OW57643   4.603   8.509   8.730
15056SOL    HW157644   4.512   8.482   8.759
15056SOL    HW257645   4.639   8.580   8.791
15057SOL     OW57646   3.562   8.201   7.526
15057SOL    HW157647   3.607   8.119   7.564
15057SOL    HW257648   3.618   8.282   7.547
15058SOL     OW57649   2.330   8.218   8.544
15058SOL    HW157650   2.408   8.207   8.605
15058SOL    HW257651   2.267   8.285   8.582
15059SOL     OW57652   0.055   7.365   9.150
15059SOL    HW157653   0.049   7.269   9.123
15059SOL    HW257654  -0.001   7.421   9.089
15060SOL     OW57655   5.867   8.664   8.915
15060SOL    HW157656   5.899   8.570   8.907
15060SOL    HW257657   5.804   8.671   8.992
15061SOL     OW57658   7.236   7.995   8.871
15061SOL    HW157659   7.289   7.950   8.943
15061SOL    HW257660   7.189   8.074   8.910
15062SOL     OW57661   5.661   8.644   7.767
15062SOL    HW157662   5.632   8.736   7.792
15062SOL    HW257663   5.747   8.622   7.813
15063SOL     OW57664   6.087   7.660   8.868
15063SOL    HW157665   6.157   7.619   8.926
15063SOL    HW257666   6.130   7.697   8.785
15064SOL     OW57667   4.751   7.483   8.897
15064SOL    HW157668   4.845   7.475   8.931
15064SOL    HW257669   4.752   7.525   8.806
15065SOL     OW57670   4.567   8.181   7.399
15065SOL    HW157671   4.637   8.243   7.435
15065SOL    HW257672   4.604   8.132   7.320
15066SOL     OW57673   1.613   8.743   7.963
15066SOL    HW157674   1.587   8.654   7.925
15066SOL    HW257675   1.681   8.729   8.035
15067SOL     OW57676   2.702   7.442   7.615
15067SOL    HW157677   2.678   7.445   7.712
15067SOL    HW257678   2.783   7.384   7.603
15068SOL     OW57679   1.318   8.147   8.513
15068SOL    HW157680   1.300   8.167   8.610
15068SOL    HW257681   1.342   8.051   8.504
15069SOL     OW57682   4.729   8.361   7.501
15069SOL    HW157683   4.754   8.433   7.437
15069SOL    HW257684   4.648   8.388   7.553
15070SOL     OW57685   1.505   7.414   7.718
15070SOL    HW157686   1.437   7.470   7.671
15070SOL    HW257687   1.577   7.472   7.757
15071SOL     OW57688   3.658   7.972   7.651
15071SOL    HW157689   3.733   7.906   7.657
15071SOL    HW257690   3.582   7.941   7.708
15072SOL     OW57691   2.780   7.707   8.772
15072SOL    HW157692   2.880   7.712   8.760
15072SOL    HW257693   2.760   7.670   8.862
15073SOL     OW57694   0.105   7.629   8.774
15073SOL    HW157695   0.110   7.728   8.759
15073SOL    HW257696   0.089   7.583   8.686
15074SOL     OW57697   4.400   7.381   8.651
15074SOL    HW157698   4.452   7.315   8.705
15074SOL    HW257699   4.338   7.432   8.711
15075SOL     OW57700   2.257   8.874   8.269
15075SOL    HW157701   2.286   8.835   8.356
15075SOL    HW257702   2.157   8.882   8.268
15076SOL     OW57703   1.781   7.987   8.281
15076SOL    HW157704   1.838   8.056   8.236
15076SOL    HW257705   1.720   8.031   8.347
15077SOL     OW57706   6.468   7.570   7.924
15077SOL    HW157707   6.384   7.582   7.977
15077SOL    HW257708   6.518   7.656   7.921
15078SOL     OW57709   1.095   8.727   7.935
15078SOL    HW157710   1.185   8.692   7.963
15078SOL    HW257711   1.101   8.764   7.842
15079SOL     OW57712   1.701   7.555   7.848
15079SOL    HW157713   1.765   7.632   7.849
15079SOL    HW257714   1.647   7.556   7.933
15080SOL     OW57715   1.901   7.542   7.513
15080SOL    HW157716   1.875   7.495   7.428
15080SOL    HW257717   1.969   7.613   7.493
15081SOL     OW57718   4.765   8.816   8.068
15081SOL    HW157719   4.674   8.853   8.052
15081SOL    HW257720   4.784   8.815   8.166
15082SOL     OW57721   6.096   8.212   7.785
15082SOL    HW157722   6.143   8.127   7.759
15082SOL    HW257723   6.161   8.287   7.788
15083SOL     OW57724   3.525   8.324   7.921
15083SOL    HW157725   3.516   8.347   7.824
15083SOL    HW257726   3.472   8.390   7.975
15084SOL     OW57727   5.266   7.903   7.594
15084SOL    HW157728   5.248   7.991   7.638
15084SOL    HW257729   5.363   7.897   7.570
15085SOL     OW57730   6.420   8.190   8.198
15085SOL    HW157731   6.385   8.141   8.278
15085SOL    HW257732   6.415   8.289   8.214
15086SOL     OW57733   3.242   7.475   8.520
15086SOL    HW157734   3.210   7.533   8.445
15086SOL    HW257735   3.206   7.383   8.509
15087SOL     OW57736   1.608   8.495   7.798
15087SOL    HW157737   1.674   8.424   7.821
15087SOL    HW257738   1.522   8.453   7.770
15088SOL     OW57739   6.385   8.684   8.810
15088SOL    HW157740   6.292   8.667   8.844
15088SOL    HW257741   6.403   8.783   8.814
15089SOL     OW57742   6.638   8.949   8.432
15089SOL    HW157743   6.688   9.033   8.455
15089SOL    HW257744   6.540   8.964   8.447
15090SOL     OW57745   1.817   9.388   7.666
15090SOL    HW157746   1.806   9.409   7.763
15090SOL    HW257747   1.824   9.289   7.654
15091SOL     OW57748   0.024   9.128   7.686
15091SOL    HW157749   0.016   9.038   7.643
15091SOL    HW257750   0.012   9.120   7.785
15092SOL     OW57751   1.496   8.963   8.071
15092SOL    HW157752   1.521   8.875   8.030
15092SOL    HW257753   1.565   9.032   8.045
15093SOL     OW57754   3.079   7.999   8.848
15093SOL    HW157755   3.007   8.030   8.910
15093SOL    HW257756   3.062   7.904   8.823
15094SOL     OW57757   4.138   8.506   8.183
15094SOL    HW157758   4.082   8.497   8.266
15094SOL    HW257759   4.204   8.580   8.195
15095SOL     OW57760   6.508   7.756   8.237
15095SOL    HW157761   6.537   7.829   8.299
15095SOL    HW257762   6.587   7.701   8.211
15096SOL     OW57763   1.393   7.645   8.935
15096SOL    HW157764   1.393   7.546   8.924
15096SOL    HW257765   1.370   7.688   8.848
15097SOL     OW57766   4.459   7.930   7.833
15097SOL    HW157767   4.551   7.952   7.867
15097SOL    HW257768   4.408   7.880   7.903
15098SOL     OW57769   2.583   8.596   8.389
15098SOL    HW157770   2.665   8.652   8.377
15098SOL    HW257771   2.508   8.652   8.422
15099SOL     OW57772   4.823   8.565   7.717
15099SOL    HW157773   4.761   8.642   7.727
15099SOL    HW257774   4.791   8.505   7.644
15100SOL     OW57775   4.510   8.910   8.026
15100SOL    HW157776   4.469   8.920   8.117
15100SOL    HW257777   4.438   8.899   7.958
15101SOL     OW57778   3.643   7.942   8.776
15101SOL    HW157779   3.691   7.854   8.776
15101SOL    HW257780   3.636   7.977   8.683
15102SOL     OW57781   4.596   8.060   8.504
15102SOL    HW157782   4.550   8.137   8.460
15102SOL    HW257783   4.584   7.978   8.448
15103SOL     OW57784   0.384   7.522   8.615
15103SOL    HW157785   0.445   7.469   8.556
15103SOL    HW257786   0.406   7.619   8.607
15104SOL     OW57787   0.025   8.798   7.666
15104SOL    HW157788  -0.019   8.732   7.726
15104SOL    HW257789   0.125   8.791   7.676
15105SOL     OW57790   1.987   7.823   7.662
15105SOL    HW157791   1.912   7.888   7.653
15105SOL    HW257792   1.961   7.751   7.726
15106SOL     OW57793   7.291   7.528   8.968
15106SOL    HW157794   7.356   7.589   8.923
15106SOL    HW257795   7.235   7.482   8.900
15107SOL     OW57796   3.388   8.446   8.521
15107SOL    HW157797   3.476   8.455   8.473
15107SOL    HW257798   3.382   8.517   8.591
15108SOL     OW57799   6.239   7.787   7.911
15108SOL    HW157800   6.199   7.783   8.002
15108SOL    HW257801   6.167   7.785   7.842
15109SOL     OW57802   3.172   7.680   7.853
15109SOL    HW157803   3.204   7.589   7.878
15109SOL    HW257804   3.194   7.745   7.926
15110SOL     OW57805   6.788   8.157   8.168
15110SOL    HW157806   6.756   8.200   8.084
15110SOL    HW257807   6.729   8.183   8.244
15111SOL     OW57808   1.520   8.068   7.876
15111SOL    HW157809   1.578   8.063   7.956
15111SOL    HW257810   1.567   8.117   7.803
15112SOL     OW57811   1.564   8.310   8.683
15112SOL    HW157812   1.607   8.381   8.738
15112SOL    HW257813   1.496   8.262   8.739
15113SOL     OW57814   0.322   8.365   7.673
15113SOL    HW157815   0.303   8.332   7.581
15113SOL    HW257816   0.421   8.374   7.686
15114SOL     OW57817   3.789   7.654   8.427
15114SOL    HW157818   3.788   7.696   8.518
15114SOL    HW257819   3.707   7.680   8.377
15115SOL     OW57820   2.854   8.249   8.781
15115SOL    HW157821   2.820   8.343   8.787
15115SOL    HW257822   2.931   8.246   8.717
15116SOL     OW57823   5.109   8.446   8.099
15116SOL    HW157824   5.119   8.420   8.003
15116SOL    HW257825   5.016   8.477   8.116
15117SOL     OW57826   7.110   7.412   8.369
15117SOL    HW157827   7.189   7.472   8.381
15117SOL    HW257828   7.080   7.415   8.274
15118SOL     OW57829   2.532   7.387   8.430
15118SOL    HW157830   2.593   7.393   8.351
15118SOL    HW257831   2.536   7.295   8.468
15119SOL     OW57832   5.648   8.708   8.612
15119SOL    HW157833   5.566   8.655   8.591
15119SOL    HW257834   5.727   8.647   8.613
15120SOL     OW57835   2.504   7.388   7.420
15120SOL    HW157836   2.580   7.395   7.484
15120SOL    HW257837   2.510   7.460   7.351
15121SOL     OW57838   5.404   7.684   8.518
15121SOL    HW157839   5.381   7.632   8.436
15121SOL    HW257840   5.429   7.777   8.493
15122SOL     OW57841   5.099   8.742   8.484
15122SOL    HW157842   5.113   8.653   8.442
15122SOL    HW257843   5.118   8.736   8.582
15123SOL     OW57844   4.812   8.770   8.333
15123SOL    HW157845   4.744   8.705   8.366
15123SOL    HW257846   4.875   8.793   8.407
15124SOL     OW57847   5.671   8.740   9.102
15124SOL    HW157848   5.604   8.753   9.175
15124SOL    HW257849   5.630   8.764   9.014
15125SOL     OW57850   2.600   7.951   8.265
15125SOL    HW157851   2.547   7.933   8.183
15125SOL    HW257852   2.620   7.864   8.311
15126SOL     OW57853   0.191   8.009   7.770
15126SOL    HW157854   0.251   7.975   7.843
15126SOL    HW257855   0.190   8.109   7.772
15127SOL     OW57856   3.596   8.661   7.895
15127SOL    HW157857   3.537   8.599   7.946
15127SOL    HW257858   3.540   8.718   7.835
15128SOL     OW57859   4.334   8.494   8.453
15128SOL    HW157860   4.428   8.499   8.419
15128SOL    HW257861   4.280   8.438   8.390
15129SOL     OW57862   0.092   7.463   8.545
15129SOL    HW157863   0.185   7.440   8.574
15129SOL    HW257864   0.095   7.525   8.467
15130SOL     OW57865   6.401   8.344   8.858
15130SOL    HW157866   6.496   8.375   8.862
15130SOL    HW257867   6.353   8.374   8.941
15131SOL     OW57868   1.738   7.765   8.157
15131SOL    HW157869   1.638   7.763   8.155
15131SOL    HW257870   1.769   7.847   8.206
15132SOL     OW57871   6.549   9.262   8.784
15132SOL    HW157872   6.496   9.315   8.718
15132SOL    HW257873   6.641   9.300   8.792
15133SOL     OW57874   4.406   7.444   7.505
15133SOL    HW157875   4.374   7.353   7.478
15133SOL    HW257876   4.327   7.501   7.529
15134SOL     OW57877   0.028   8.522   7.388
15134SOL    HW157878   0.037   8.528   7.288
15134SOL    HW257879   0.109   8.478   7.426
15135SOL     OW57880   1.314   9.075   8.746
15135SOL    HW157881   1.354   9.053   8.657
15135SOL    HW257882   1.220   9.043   8.750
15136SOL     OW57883   3.888   8.246   8.830
15136SOL    HW157884   3.898   8.259   8.731
15136SOL    HW257885   3.909   8.151   8.853
15137SOL     OW57886   0.362   7.505   8.221
15137SOL    HW157887   0.294   7.565   8.263
15137SOL    HW257888   0.331   7.411   8.225
15138SOL     OW57889   5.168   8.081   8.674
15138SOL    HW157890   5.200   8.165   8.630
15138SOL    HW257891   5.071   8.069   8.655
15139SOL     OW57892   1.533   9.268   7.797
15139SOL    HW157893   1.594   9.261   7.718
15139SOL    HW257894   1.543   9.359   7.838
15140SOL     OW57895   8.567   0.961   0.986
15140SOL    HW157896   8.605   0.899   1.055
15140SOL    HW257897   8.512   0.908   0.921
15141SOL     OW57898   8.082   0.256   5.189
15141SOL    HW157899   7.996   0.269   5.238
15141SOL    HW257900   8.073   0.290   5.095
15142SOL     OW57901   8.396   1.069   3.353
15142SOL    HW157902   8.442   1.027   3.431
15142SOL    HW257903   8.463   1.119   3.298
15143SOL     OW57904   7.964   0.670   5.847
15143SOL    HW157905   8.034   0.742   5.845
15143SOL    HW257906   7.886   0.701   5.901
15144SOL     OW57907   7.965   4.499   1.856
15144SOL    HW157908   7.963   4.434   1.933
15144SOL    HW257909   8.059   4.528   1.840
15145SOL     OW57910   7.666   7.132   5.701
15145SOL    HW157911   7.679   7.090   5.611
15145SOL    HW257912   7.734   7.204   5.715
15146SOL     OW57913   7.707   2.611   6.845
15146SOL    HW157914   7.782   2.657   6.795
15146SOL    HW257915   7.710   2.638   6.941
15147SOL     OW57916   8.423   3.543   3.726
15147SOL    HW157917   8.507   3.549   3.672
15147SOL    HW257918   8.387   3.635   3.741
15148SOL     OW57919   8.399   5.984   6.739
15148SOL    HW157920   8.316   6.025   6.701
15148SOL    HW257921   8.386   5.886   6.752
15149SOL     OW57922   8.519   7.272   2.888
15149SOL    HW157923   8.476   7.300   2.801
15149SOL    HW257924   8.468   7.312   2.964
15150SOL     OW57925   8.360   6.596   6.051
15150SOL    HW157926   8.384   6.668   5.986
15150SOL    HW257927   8.264   6.604   6.077
15151SOL     OW57928   7.813   4.253   1.400
15151SOL    HW157929   7.832   4.169   1.349
15151SOL    HW257930   7.880   4.263   1.474
15152SOL     OW57931   7.947   5.696   4.609
15152SOL    HW157932   7.877   5.699   4.680
15152SOL    HW257933   7.970   5.789   4.580
15153SOL     OW57934   7.787   2.143   7.250
15153SOL    HW157935   7.753   2.075   7.314
15153SOL    HW257936   7.818   2.224   7.300
15154SOL     OW57937   8.505   2.251   0.670
15154SOL    HW157938   8.573   2.179   0.682
15154SOL    HW257939   8.535   2.314   0.598
15155SOL     OW57940   7.800   2.596   0.567
15155SOL    HW157941   7.844   2.506   0.572
15155SOL    HW257942   7.840   2.648   0.491
15156SOL     OW57943   7.742   6.157   6.926
15156SOL    HW157944   7.663   6.177   6.983
15156SOL    HW257945   7.775   6.064   6.946
15157SOL     OW57946   8.376   5.932   0.532
15157SOL    HW157947   8.401   5.848   0.485
15157SOL    HW257948   8.309   5.982   0.477
15158SOL     OW57949   7.429   4.253   6.614
15158SOL    HW157950   7.401   4.323   6.549
15158SOL    HW257951   7.529   4.254   6.622
15159SOL     OW57952   8.453   3.582   2.934
15159SOL    HW157953   8.400   3.583   2.849
15159SOL    HW257954   8.550   3.573   2.913
15160SOL     OW57955   8.401   3.249   0.474
15160SOL    HW157956   8.357   3.229   0.561
15160SOL    HW257957   8.400   3.348   0.457
15161SOL     OW57958   7.467   4.422   2.380
15161SOL    HW157959   7.389   4.360   2.371
15161SOL    HW257960   7.498   4.422   2.475
15162SOL     OW57961   9.186   1.372   0.771
15162SOL    HW157962   9.192   1.354   0.870
15162SOL    HW257963   9.277   1.394   0.736
15163SOL     OW57964   7.367   1.948   3.371
15163SOL    HW157965   7.417   1.873   3.413
15163SOL    HW257966   7.273   1.949   3.405
15164SOL     OW57967   8.883   1.908   1.679
15164SOL    HW157968   8.896   1.826   1.622
15164SOL    HW257969   8.866   1.987   1.620
15165SOL     OW57970   7.374   0.569   1.142
15165SOL    HW157971   7.296   0.632   1.149
15165SOL    HW257972   7.357   0.504   1.068
15166SOL     OW57973   8.814   5.448   0.559
15166SOL    HW157974   8.806   5.547   0.553
15166SOL    HW257975   8.735   5.411   0.609
15167SOL     OW57976   7.784   6.309   6.695
15167SOL    HW157977   7.695   6.344   6.666
15167SOL    HW257978   7.774   6.258   6.781
15168SOL     OW57979   7.727   0.366   2.298
15168SOL    HW157980   7.806   0.421   2.270
15168SOL    HW257981   7.664   0.357   2.221
15169SOL     OW57982   8.325   0.156   0.898
15169SOL    HW157983   8.236   0.145   0.942
15169SOL    HW257984   8.343   0.077   0.839
15170SOL     OW57985   8.288   2.976   1.055
15170SOL    HW157986   8.270   3.028   1.139
15170SOL    HW257987   8.386   2.959   1.047
15171SOL     OW57988   8.421   2.542   5.962
15171SOL    HW157989   8.373   2.597   5.895
15171SOL    HW257990   8.468   2.603   6.027
15172SOL     OW57991   8.570   5.419   0.699
15172SOL    HW157992   8.510   5.428   0.620
15172SOL    HW257993   8.559   5.498   0.759
15173SOL     OW57994   8.935   0.358   6.420
15173SOL    HW157995   8.850   0.308   6.400
15173SOL    HW257996   8.920   0.418   6.499
15174SOL     OW57997   7.489   4.038   5.047
15174SOL    HW157998   7.409   4.069   4.995
15174SOL    HW257999   7.480   4.065   5.142
15175SOL     OW58000   8.776   6.105   6.436
15175SOL    HW158001   8.701   6.043   6.455
15175SOL    HW258002   8.761   6.150   6.348
15176SOL     OW58003   7.924   0.565   2.550
15176SOL    HW158004   7.897   0.660   2.539
15176SOL    HW258005   7.999   0.558   2.616
15177SOL     OW58006   8.855   2.107   3.546
15177SOL    HW158007   8.867   2.049   3.626
15177SOL    HW258008   8.940   2.112   3.495
15178SOL     OW58009   7.464   5.979   7.344
15178SOL    HW158010   7.473   6.046   7.417
15178SOL    HW258011   7.385   6.002   7.286
15179SOL     OW58012   8.870   0.891   2.195
15179SOL    HW158013   8.787   0.836   2.197
15179SOL    HW258014   8.917   0.877   2.107
15180SOL     OW58015   7.685   7.084   0.470
15180SOL    HW158016   7.758   7.136   0.425
15180SOL    HW258017   7.653   7.012   0.409
15181SOL     OW58018   8.419   3.902   5.452
15181SOL    HW158019   8.368   3.904   5.538
15181SOL    HW258020   8.377   3.835   5.390
15182SOL     OW58021   7.457   3.556   1.128
15182SOL    HW158022   7.387   3.592   1.189
15182SOL    HW258023   7.507   3.483   1.174
15183SOL     OW58024   7.515   1.027   5.542
15183SOL    HW158025   7.575   1.055   5.468
15183SOL    HW258026   7.563   0.964   5.603
15184SOL     OW58027   8.660   1.928   0.258
15184SOL    HW158028   8.694   1.930   0.163
15184SOL    HW258029   8.734   1.898   0.318
15185SOL     OW58030   8.112   4.697   2.132
15185SOL    HW158031   8.066   4.623   2.183
15185SOL    HW258032   8.050   4.731   2.061
15186SOL     OW58033   8.635   1.245   0.901
15186SOL    HW158034   8.651   1.148   0.918
15186SOL    HW258035   8.542   1.269   0.929
15187SOL     OW58036   8.485   2.475   3.389
15187SOL    HW158037   8.542   2.404   3.347
15187SOL    HW258038   8.419   2.432   3.451
15188SOL     OW58039   8.793   4.132   5.934
15188SOL    HW158040   8.732   4.079   5.875
15188SOL    HW258041   8.760   4.129   6.028
15189SOL     OW58042   8.219   5.388   2.109
15189SOL    HW158043   8.238   5.429   2.198
15189SOL    HW258044   8.165   5.305   2.121
15190SOL     OW58045   8.007   6.291   4.662
15190SOL    HW158046   7.919   6.294   4.615
15190SOL    HW258047   8.047   6.383   4.664
15191SOL     OW58048   9.100   5.489   4.916
15191SOL    HW158049   9.176   5.555   4.916
15191SOL    HW258050   9.094   5.445   4.826
15192SOL     OW58051   7.636   0.771   6.115
15192SOL    HW158052   7.603   0.683   6.081
15192SOL    HW258053   7.576   0.803   6.189
15193SOL     OW58054   7.874   4.913   1.061
15193SOL    HW158055   7.858   4.974   0.984
15193SOL    HW258056   7.907   4.966   1.139
15194SOL     OW58057   8.272   4.662   6.908
15194SOL    HW158058   8.249   4.594   6.978
15194SOL    HW258059   8.243   4.628   6.818
15195SOL     OW58060   8.877   3.105   5.834
15195SOL    HW158061   8.894   3.196   5.796
15195SOL    HW258062   8.844   3.113   5.928
15196SOL     OW58063   8.372   2.319   6.109
15196SOL    HW158064   8.455   2.289   6.156
15196SOL    HW258065   8.388   2.408   6.066
15197SOL     OW58066   7.443   5.437   0.439
15197SOL    HW158067   7.483   5.491   0.365
15197SOL    HW258068   7.438   5.492   0.522
15198SOL     OW58069   7.365   4.369   1.520
15198SOL    HW158070   7.320   4.297   1.573
15198SOL    HW258071   7.308   4.394   1.442
15199SOL     OW58072   7.442   4.718   5.577
15199SOL    HW158073   7.357   4.731   5.526
15199SOL    HW258074   7.518   4.704   5.512
15200SOL     OW58075   7.870   0.660   0.897
15200SOL    HW158076   7.904   0.754   0.895
15200SOL    HW258077   7.793   0.651   0.834
15201SOL     OW58078   7.936   6.470   4.409
15201SOL    HW158079   7.875   6.406   4.456
15201SOL    HW258080   7.901   6.487   4.317
15202SOL     OW58081   8.331   4.496   1.031
15202SOL    HW158082   8.343   4.439   1.112
15202SOL    HW258083   8.374   4.586   1.047
15203SOL     OW58084   8.501   2.961   1.357
15203SOL    HW158085   8.557   3.035   1.320
15203SOL    HW258086   8.464   2.988   1.446
15204SOL     OW58087   8.531   4.469   1.513
15204SOL    HW158088   8.456   4.534   1.509
15204SOL    HW258089   8.617   4.518   1.525
15205SOL     OW58090   8.020   5.996   0.099
15205SOL    HW158091   7.974   5.952   0.176
15205SOL    HW258092   7.956   6.058   0.053
15206SOL     OW58093   9.135   3.704   4.966
15206SOL    HW158094   9.235   3.706   4.958
15206SOL    HW258095   9.103   3.610   4.963
15207SOL     OW58096   8.326   2.235   1.165
15207SOL    HW158097   8.359   2.258   1.074
15207SOL    HW258098   8.244   2.288   1.186
15208SOL     OW58099   8.888   0.731   0.812
15208SOL    HW158100   8.808   0.748   0.755
15208SOL    HW258101   8.971   0.755   0.762
15209SOL     OW58102   8.671   4.112   4.497
15209SOL    HW158103   8.616   4.108   4.581
15209SOL    HW258104   8.743   4.043   4.501
15210SOL     OW58105   8.489   0.136   5.543
15210SOL    HW158106   8.419   0.166   5.479
15210SOL    HW258107   8.532   0.052   5.510
15211SOL     OW58108   8.112   0.249   5.900
15211SOL    HW158109   8.163   0.334   5.913
15211SOL    HW258110   8.016   0.264   5.925
15212SOL     OW58111   8.296   1.809   7.001
15212SOL    HW158112   8.220   1.834   6.942
15212SOL    HW258113   8.290   1.712   7.024
15213SOL     OW58114   8.619   2.295   1.636
15213SOL    HW158115   8.643   2.382   1.593
15213SOL    HW258116   8.588   2.230   1.566
15214SOL     OW58117   8.425   0.955   3.632
15214SOL    HW158118   8.423   0.997   3.722
15214SOL    HW258119   8.333   0.923   3.608
15215SOL     OW58120   8.560   5.090   3.098
15215SOL    HW158121   8.542   5.012   3.158
15215SOL    HW258122   8.485   5.099   3.032
15216SOL     OW58123   8.221   0.009   5.918
15216SOL    HW158124   8.176   0.096   5.900
15216SOL    HW258125   8.298  -0.002   5.855
15217SOL     OW58126   7.566   3.708   6.944
15217SOL    HW158127   7.645   3.650   6.966
15217SOL    HW258128   7.542   3.762   7.025
15218SOL     OW58129   7.756   1.220   3.462
15218SOL    HW158130   7.765   1.132   3.416
15218SOL    HW258131   7.665   1.258   3.444
15219SOL     OW58132   7.635   0.785   5.671
15219SOL    HW158133   7.701   0.734   5.618
15219SOL    HW258134   7.681   0.830   5.748
15220SOL     OW58135   7.419   2.741   7.191
15220SOL    HW158136   7.412   2.647   7.224
15220SOL    HW258137   7.404   2.743   7.092
15221SOL     OW58138   8.189   1.408   0.190
15221SOL    HW158139   8.150   1.481   0.246
15221SOL    HW258140   8.127   1.330   0.189
15222SOL     OW58141   8.250   4.466   7.101
15222SOL    HW158142   8.208   4.399   7.163
15222SOL    HW258143   8.313   4.419   7.039
15223SOL     OW58144   7.653   5.491   5.598
15223SOL    HW158145   7.569   5.537   5.570
15223SOL    HW258146   7.727   5.515   5.534
15224SOL     OW58147   8.479   2.230   3.685
15224SOL    HW158148   8.412   2.299   3.657
15224SOL    HW258149   8.520   2.190   3.603
15225SOL     OW58150   7.604   0.528   0.178
15225SOL    HW158151   7.528   0.464   0.168
15225SOL    HW258152   7.589   0.586   0.258
15226SOL     OW58153   7.567   3.187   5.990
15226SOL    HW158154   7.469   3.171   6.002
15226SOL    HW258155   7.584   3.226   5.899
15227SOL     OW58156   7.831   7.333   5.319
15227SOL    HW158157   7.862   7.347   5.413
15227SOL    HW258158   7.766   7.405   5.293
15228SOL     OW58159   8.188   0.968   6.113
15228SOL    HW158160   8.272   0.925   6.082
15228SOL    HW258161   8.209   1.038   6.181
15229SOL     OW58162   8.386   1.065   7.333
15229SOL    HW158163   8.360   1.161   7.319
15229SOL    HW258164   8.333   1.008   7.270
15230SOL     OW58165   8.330   2.887   0.129
15230SOL    HW158166   8.412   2.880   0.072
15230SOL    HW258167   8.250   2.902   0.071
15231SOL     OW58168   7.804   0.676   4.817
15231SOL    HW158169   7.715   0.635   4.795
15231SOL    HW258170   7.875   0.629   4.765
15232SOL     OW58171   8.499   3.258   6.642
15232SOL    HW158172   8.486   3.177   6.699
15232SOL    HW258173   8.537   3.229   6.554
15233SOL     OW58174   8.354   6.311   5.930
15233SOL    HW158175   8.348   6.290   5.833
15233SOL    HW258176   8.397   6.400   5.942
15234SOL     OW58177   7.536   2.217   3.538
15234SOL    HW158178   7.515   2.244   3.445
15234SOL    HW258179   7.609   2.148   3.536
15235SOL     OW58180   8.587   1.913   2.210
15235SOL    HW158181   8.500   1.951   2.241
15235SOL    HW258182   8.615   1.956   2.124
15236SOL     OW58183   7.670   3.844   7.331
15236SOL    HW158184   7.664   3.745   7.314
15236SOL    HW258185   7.689   3.892   7.246
15237SOL     OW58186   9.009   5.260   0.520
15237SOL    HW158187   9.079   5.255   0.449
15237SOL    HW258188   8.948   5.338   0.502
15238SOL     OW58189   7.382   5.911   3.424
15238SOL    HW158190   7.304   5.850   3.438
15238SOL    HW258191   7.359   5.979   3.355
15239SOL     OW58192   8.698   4.648   1.292
15239SOL    HW158193   8.662   4.692   1.374
15239SOL    HW258194   8.776   4.589   1.316
15240SOL     OW58195   9.297   0.408   0.619
15240SOL    HW158196   9.323   0.314   0.597
15240SOL    HW258197   9.242   0.408   0.703
15241SOL     OW58198   8.101   5.443   0.444
15241SOL    HW158199   8.143   5.465   0.532
15241SOL    HW258200   8.127   5.350   0.417
15242SOL     OW58201   9.043   5.509   6.665
15242SOL    HW158202   9.122   5.537   6.611
15242SOL    HW258203   9.060   5.418   6.704
15243SOL     OW58204   7.576   2.913   2.794
15243SOL    HW158205   7.618   2.966   2.720
15243SOL    HW258206   7.634   2.917   2.875
15244SOL     OW58207   8.566   6.443   7.318
15244SOL    HW158208   8.524   6.352   7.319
15244SOL    HW258209   8.653   6.439   7.269
15245SOL     OW58210   7.510   1.757   3.466
15245SOL    HW158211   7.466   1.709   3.542
15245SOL    HW258212   7.605   1.728   3.460
15246SOL     OW58213   8.616   2.424   0.353
15246SOL    HW158214   8.547   2.484   0.311
15246SOL    HW258215   8.630   2.344   0.295
15247SOL     OW58216   8.394   2.142   6.855
15247SOL    HW158217   8.356   2.103   6.939
15247SOL    HW258218   8.481   2.186   6.875
15248SOL     OW58219   8.474   2.930   3.676
15248SOL    HW158220   8.469   2.870   3.596
15248SOL    HW258221   8.413   2.896   3.747
15249SOL     OW58222   8.327   3.745   1.056
15249SOL    HW158223   8.306   3.783   0.966
15249SOL    HW258224   8.372   3.814   1.111
15250SOL     OW58225   8.143   1.015   2.785
15250SOL    HW158226   8.239   1.043   2.786
15250SOL    HW258227   8.129   0.948   2.712
15251SOL     OW58228   8.723   0.288   5.551
15251SOL    HW158229   8.769   0.256   5.634
15251SOL    HW258230   8.644   0.228   5.533
15252SOL     OW58231   8.086   4.484   0.482
15252SOL    HW158232   8.144   4.452   0.556
15252SOL    HW258233   8.135   4.552   0.428
15253SOL     OW58234   8.722   6.286   5.736
15253SOL    HW158235   8.746   6.230   5.657
15253SOL    HW258236   8.698   6.227   5.813
15254SOL     OW58237   7.905   4.643   1.057
15254SOL    HW158238   7.836   4.584   1.099
15254SOL    HW258239   7.888   4.738   1.083
15255SOL     OW58240   8.207   1.427   3.237
15255SOL    HW158241   8.221   1.396   3.331
15255SOL    HW258242   8.179   1.349   3.180
15256SOL     OW58243   7.387   0.920   1.274
15256SOL    HW158244   7.376   1.017   1.253
15256SOL    HW258245   7.311   0.869   1.235
15257SOL     OW58246   7.700   4.590   4.645
15257SOL    HW158247   7.749   4.504   4.634
15257SOL    HW258248   7.739   4.659   4.584
15258SOL     OW58249   8.747   2.983   7.030
15258SOL    HW158250   8.748   3.043   7.110
15258SOL    HW258251   8.718   2.892   7.057
15259SOL     OW58252   8.519   4.270   5.670
15259SOL    HW158253   8.514   4.298   5.574
15259SOL    HW258254   8.529   4.351   5.728
15260SOL     OW58255   7.960   4.772   1.843
15260SOL    HW158256   7.991   4.824   1.764
15260SOL    HW258257   7.950   4.676   1.817
15261SOL     OW58258   7.975   2.338   7.142
15261SOL    HW158259   8.013   2.320   7.233
15261SOL    HW258260   7.888   2.291   7.132
15262SOL     OW58261   7.561   2.179   1.414
15262SOL    HW158262   7.466   2.189   1.385
15262SOL    HW258263   7.600   2.097   1.371
15263SOL     OW58264   7.495   3.025   0.087
15263SOL    HW158265   7.459   2.933   0.097
15263SOL    HW258266   7.423   3.092   0.106
15264SOL     OW58267   8.536   2.066   2.614
15264SOL    HW158268   8.470   1.996   2.588
15264SOL    HW258269   8.602   2.027   2.679
15265SOL     OW58270   7.404   3.476   6.758
15265SOL    HW158271   7.435   3.419   6.682
15265SOL    HW258272   7.442   3.568   6.748
15266SOL     OW58273   9.004   3.742   2.615
15266SOL    HW158274   9.017   3.835   2.580
15266SOL    HW258275   9.093   3.697   2.622
15267SOL     OW58276   8.513   4.368   1.242
15267SOL    HW158277   8.586   4.310   1.204
15267SOL    HW258278   8.541   4.464   1.237
15268SOL     OW58279   8.488   0.466   2.275
15268SOL    HW158280   8.415   0.494   2.213
15268SOL    HW258281   8.558   0.417   2.224
15269SOL     OW58282   7.787   5.320   0.780
15269SOL    HW158283   7.751   5.408   0.751
15269SOL    HW258284   7.870   5.300   0.728
15270SOL     OW58285   8.512   4.208   7.178
15270SOL    HW158286   8.465   4.122   7.158
15270SOL    HW258287   8.557   4.202   7.267
15271SOL     OW58288   8.698   2.725   1.082
15271SOL    HW158289   8.718   2.749   0.987
15271SOL    HW258290   8.782   2.693   1.126
15272SOL     OW58291   7.365   2.969   3.774
15272SOL    HW158292   7.423   3.049   3.789
15272SOL    HW258293   7.391   2.925   3.688
15273SOL     OW58294   7.519   3.558   3.150
15273SOL    HW158295   7.468   3.535   3.233
15273SOL    HW258296   7.482   3.642   3.110
15274SOL     OW58297   7.943   2.309   4.586
15274SOL    HW158298   7.952   2.210   4.589
15274SOL    HW258299   7.980   2.343   4.500
15275SOL     OW58300   7.532   3.785   6.253
15275SOL    HW158301   7.472   3.750   6.325
15275SOL    HW258302   7.623   3.745   6.262
15276SOL     OW58303   8.191   5.552   1.623
15276SOL    HW158304   8.262   5.605   1.578
15276SOL    HW258305   8.107   5.605   1.628
15277SOL     OW58306   8.601   2.452   2.730
15277SOL    HW158307   8.535   2.479   2.800
15277SOL    HW258308   8.556   2.394   2.663
15278SOL     OW58309   7.873   0.923   2.037
15278SOL    HW158310   7.801   0.954   1.975
15278SOL    HW258311   7.951   0.986   2.032
15279SOL     OW58312   8.537   0.731   1.468
15279SOL    HW158313   8.469   0.687   1.411
15279SOL    HW258314   8.524   0.702   1.563
15280SOL     OW58315   7.547   0.210   6.344
15280SOL    HW158316   7.545   0.205   6.444
15280SOL    HW258317   7.502   0.295   6.315
15281SOL     OW58318   8.274   3.586   5.528
15281SOL    HW158319   8.244   3.681   5.520
15281SOL    HW258320   8.276   3.543   5.438
15282SOL     OW58321   8.205   0.358   1.405
15282SOL    HW158322   8.114   0.345   1.445
15282SOL    HW258323   8.210   0.309   1.318
15283SOL     OW58324   7.760   1.646   3.464
15283SOL    HW158325   7.836   1.637   3.401
15283SOL    HW258326   7.734   1.555   3.498
15284SOL     OW58327   7.803   1.600   0.475
15284SOL    HW158328   7.757   1.664   0.414
15284SOL    HW258329   7.771   1.507   0.456
15285SOL     OW58330   7.717   3.901   0.758
15285SOL    HW158331   7.690   3.985   0.805
15285SOL    HW258332   7.651   3.829   0.778
15286SOL     OW58333   8.027   6.404   7.220
15286SOL    HW158334   7.960   6.443   7.158
15286SOL    HW258335   8.060   6.476   7.282
15287SOL     OW58336   8.583   5.354   0.074
15287SOL    HW158337   8.620   5.441   0.043
15287SOL    HW258338   8.625   5.330   0.162
15288SOL     OW58339   7.924   6.480   6.332
15288SOL    HW158340   7.945   6.418   6.407
15288SOL    HW258341   7.826   6.481   6.315
15289SOL     OW58342   7.731   3.586   6.477
15289SOL    HW158343   7.726   3.683   6.501
15289SOL    HW258344   7.749   3.532   6.559
15290SOL     OW58345   8.267   5.560   4.189
15290SOL    HW158346   8.366   5.579   4.185
15290SOL    HW258347   8.235   5.571   4.282
15291SOL     OW58348   8.626   3.803   2.278
15291SOL    HW158349   8.674   3.778   2.362
15291SOL    HW258350   8.586   3.721   2.237
15292SOL     OW58351   8.427   6.339   6.947
15292SOL    HW158352   8.493   6.282   6.997
15292SOL    HW258353   8.476   6.406   6.891
15293SOL     OW58354   8.626   2.558   6.532
15293SOL    HW158355   8.639   2.465   6.566
15293SOL    HW258356   8.528   2.577   6.524
15294SOL     OW58357   8.509   1.440   2.913
15294SOL    HW158358   8.485   1.374   2.983
15294SOL    HW258359   8.447   1.519   2.917
15295SOL     OW58360   8.520   4.967   3.502
15295SOL    HW158361   8.609   5.006   3.527
15295SOL    HW258362   8.447   5.018   3.548
15296SOL     OW58363   7.605   4.339   2.121
15296SOL    HW158364   7.605   4.253   2.070
15296SOL    HW258365   7.546   4.330   2.201
15297SOL     OW58366   7.715   4.886   1.392
15297SOL    HW158367   7.654   4.942   1.448
15297SOL    HW258368   7.661   4.819   1.341
15298SOL     OW58369   7.594   5.457   4.674
15298SOL    HW158370   7.563   5.373   4.719
15298SOL    HW258371   7.670   5.436   4.613
15299SOL     OW58372   8.466   3.133   3.369
15299SOL    HW158373   8.488   3.230   3.367
15299SOL    HW258374   8.436   3.107   3.461
15300SOL     OW58375   7.435   2.112   5.261
15300SOL    HW158376   7.488   2.191   5.291
15300SOL    HW258377   7.462   2.032   5.316
15301SOL     OW58378   8.204   6.065   0.356
15301SOL    HW158379   8.262   6.130   0.308
15301SOL    HW258380   8.151   6.012   0.290
15302SOL     OW58381   8.170   0.065   1.690
15302SOL    HW158382   8.199  -0.018   1.737
15302SOL    HW258383   8.242   0.135   1.696
15303SOL     OW58384   7.941   0.281   1.468
15303SOL    HW158385   7.853   0.322   1.490
15303SOL    HW258386   7.927   0.189   1.431
15304SOL     OW58387   7.723   1.437   2.145
15304SOL    HW158388   7.806   1.393   2.112
15304SOL    HW258389   7.656   1.367   2.169
15305SOL     OW58390   7.569   4.120   6.177
15305SOL    HW158391   7.536   4.083   6.264
15305SOL    HW258392   7.634   4.055   6.136
15306SOL     OW58393   7.527   2.353   5.382
15306SOL    HW158394   7.541   2.338   5.479
15306SOL    HW258395   7.529   2.451   5.363
15307SOL     OW58396   8.466   2.274   6.467
15307SOL    HW158397   8.528   2.254   6.543
15307SOL    HW258398   8.481   2.208   6.393
15308SOL     OW58399   8.235   4.217   2.131
15308SOL    HW158400   8.237   4.271   2.215
15308SOL    HW258401   8.327   4.187   2.108
15309SOL     OW58402   8.150   5.572   4.451
15309SOL    HW158403   8.210   5.646   4.482
15309SOL    HW258404   8.058   5.587   4.487
15310SOL     OW58405   8.754   4.581   0.529
15310SOL    HW158406   8.750   4.617   0.436
15310SOL    HW258407   8.695   4.635   0.589
15311SOL     OW58408   7.422   2.966   3.470
15311SOL    HW158409   7.516   2.996   3.484
15311SOL    HW258410   7.381   3.018   3.395
15312SOL     OW58411   8.290   4.287   3.419
15312SOL    HW158412   8.366   4.250   3.364
15312SOL    HW258413   8.212   4.225   3.413
15313SOL     OW58414   7.366   1.153   0.911
15313SOL    HW158415   7.380   1.222   0.983
15313SOL    HW258416   7.304   1.189   0.842
15314SOL     OW58417   8.875   3.214   3.847
15314SOL    HW158418   8.785   3.172   3.835
15314SOL    HW258419   8.944   3.159   3.800
15315SOL     OW58420   8.540   1.816   3.402
15315SOL    HW158421   8.460   1.769   3.365
15315SOL    HW258422   8.591   1.753   3.462
15316SOL     OW58423   8.926   2.148   4.187
15316SOL    HW158424   8.837   2.103   4.191
15316SOL    HW258425   8.998   2.079   4.196
15317SOL     OW58426   8.582   5.928   6.481
15317SOL    HW158427   8.587   5.836   6.519
15317SOL    HW258428   8.506   5.978   6.522
15318SOL     OW58429   7.846   4.232   4.239
15318SOL    HW158430   7.762   4.222   4.291
15318SOL    HW258431   7.923   4.244   4.301
15319SOL     OW58432   7.808   3.236   6.110
15319SOL    HW158433   7.870   3.263   6.037
15319SOL    HW258434   7.721   3.208   6.072
15320SOL     OW58435   7.634   2.194   0.239
15320SOL    HW158436   7.711   2.161   0.294
15320SOL    HW258437   7.669   2.250   0.163
15321SOL     OW58438   8.873   0.829   0.014
15321SOL    HW158439   8.807   0.782   0.074
15321SOL    HW258440   8.907   0.911   0.060
15322SOL     OW58441   7.393   2.963   1.524
15322SOL    HW158442   7.321   2.943   1.591
15322SOL    HW258443   7.423   3.058   1.534
15323SOL     OW58444   8.366   3.971   1.372
15323SOL    HW158445   8.445   3.951   1.314
15323SOL    HW258446   8.369   4.066   1.401
15324SOL     OW58447   7.393   4.560   7.086
15324SOL    HW158448   7.488   4.588   7.103
15324SOL    HW258449   7.391   4.491   7.014
15325SOL     OW58450   7.646   0.115   0.211
15325SOL    HW158451   7.598   0.072   0.287
15325SOL    HW258452   7.579   0.160   0.151
15326SOL     OW58453   7.434   7.325   5.221
15326SOL    HW158454   7.481   7.237   5.228
15326SOL    HW258455   7.461   7.383   5.299
15327SOL     OW58456   7.700   2.813   6.652
15327SOL    HW158457   7.797   2.791   6.659
15327SOL    HW258458   7.646   2.738   6.691
15328SOL     OW58459   8.199   3.748   4.235
15328SOL    HW158460   8.281   3.706   4.195
15328SOL    HW258461   8.152   3.681   4.293
15329SOL     OW58462   7.692   4.576   2.050
15329SOL    HW158463   7.645   4.505   2.104
15329SOL    HW258464   7.694   4.549   1.954
15330SOL     OW58465   8.547   4.488   5.824
15330SOL    HW158466   8.487   4.462   5.899
15330SOL    HW258467   8.640   4.501   5.859
15331SOL     OW58468   8.080   6.350   6.015
15331SOL    HW158469   8.170   6.322   5.981
15331SOL    HW258470   8.092   6.423   6.083
15332SOL     OW58471   8.441   3.282   0.763
15332SOL    HW158472   8.465   3.185   0.774
15332SOL    HW258473   8.407   3.318   0.850
15333SOL     OW58474   7.864   7.258   0.289
15333SOL    HW158475   7.914   7.255   0.202
15333SOL    HW258476   7.807   7.340   0.292
15334SOL     OW58477   8.204   0.506   5.967
15334SOL    HW158478   8.147   0.565   5.910
15334SOL    HW258479   8.301   0.530   5.954
15335SOL     OW58480   8.741   0.559   5.498
15335SOL    HW158481   8.832   0.584   5.464
15335SOL    HW258482   8.736   0.459   5.508
15336SOL     OW58483   7.863   3.162   5.306
15336SOL    HW158484   7.871   3.094   5.379
15336SOL    HW258485   7.954   3.187   5.274
15337SOL     OW58486   7.516   5.472   2.338
15337SOL    HW158487   7.586   5.452   2.270
15337SOL    HW258488   7.433   5.503   2.291
15338SOL     OW58489   7.760   3.129   7.326
15338SOL    HW158490   7.750   3.229   7.327
15338SOL    HW258491   7.696   3.089   7.391
15339SOL     OW58492   7.887   4.025   0.184
15339SOL    HW158493   7.859   4.077   0.265
15339SOL    HW258494   7.929   3.939   0.212
15340SOL     OW58495   7.473   2.230   0.632
15340SOL    HW158496   7.428   2.312   0.665
15340SOL    HW258497   7.572   2.238   0.647
15341SOL     OW58498   8.717   1.503   0.405
15341SOL    HW158499   8.627   1.460   0.405
15341SOL    HW258500   8.783   1.442   0.449
15342SOL     OW58501   8.845   4.356   6.182
15342SOL    HW158502   8.831   4.384   6.087
15342SOL    HW258503   8.759   4.364   6.232
15343SOL     OW58504   8.279   4.909   1.997
15343SOL    HW158505   8.263   4.820   2.041
15343SOL    HW258506   8.205   4.929   1.933
15344SOL     OW58507   8.855   2.751   2.691
15344SOL    HW158508   8.816   2.827   2.639
15344SOL    HW258509   8.898   2.786   2.774
15345SOL     OW58510   7.936   1.553   3.283
15345SOL    HW158511   7.979   1.635   3.245
15345SOL    HW258512   8.006   1.485   3.303
15346SOL     OW58513   8.269   1.586   2.996
15346SOL    HW158514   8.239   1.681   3.007
15346SOL    HW258515   8.227   1.528   3.066
15347SOL     OW58516   8.444   5.135   6.582
15347SOL    HW158517   8.490   5.224   6.590
15347SOL    HW258518   8.503   5.063   6.618
15348SOL     OW58519   8.404   2.081   3.270
15348SOL    HW158520   8.413   1.997   3.324
15348SOL    HW258521   8.475   2.146   3.298
15349SOL     OW58522   8.013   7.286   1.008
15349SOL    HW158523   7.994   7.382   1.029
15349SOL    HW258524   7.965   7.228   1.074
15350SOL     OW58525   8.324   6.631   6.603
15350SOL    HW158526   8.368   6.694   6.667
15350SOL    HW258527   8.355   6.650   6.510
15351SOL     OW58528   8.646   2.918   6.200
15351SOL    HW158529   8.565   2.970   6.227
15351SOL    HW258530   8.712   2.978   6.156
15352SOL     OW58531   8.710   0.268   6.684
15352SOL    HW158532   8.786   0.212   6.653
15352SOL    HW258533   8.702   0.349   6.625
15353SOL     OW58534   8.840   3.607   5.598
15353SOL    HW158535   8.829   3.690   5.543
15353SOL    HW258536   8.927   3.612   5.648
15354SOL     OW58537   9.042   4.807   7.116
15354SOL    HW158538   8.956   4.848   7.146
15354SOL    HW258539   9.118   4.854   7.160
15355SOL     OW58540   8.702   3.157   5.419
15355SOL    HW158541   8.727   3.253   5.432
15355SOL    HW258542   8.612   3.151   5.377
15356SOL     OW58543   7.595   3.668   3.981
15356SOL    HW158544   7.597   3.568   3.974
15356SOL    HW258545   7.685   3.701   4.008
15357SOL     OW58546   7.477   4.575   3.828
15357SOL    HW158547   7.486   4.554   3.925
15357SOL    HW258548   7.475   4.490   3.775
15358SOL     OW58549   8.969   4.592   4.214
15358SOL    HW158550   9.043   4.567   4.152
15358SOL    HW258551   8.886   4.612   4.162
15359SOL     OW58552   8.468   4.579   7.348
15359SOL    HW158553   8.523   4.647   7.300
15359SOL    HW258554   8.412   4.529   7.282
15360SOL     OW58555   7.741   3.763   1.095
15360SOL    HW158556   7.678   3.704   1.045
15360SOL    HW258557   7.820   3.784   1.037
15361SOL     OW58558   8.064   1.100   2.024
15361SOL    HW158559   8.136   1.129   1.960
15361SOL    HW258560   8.019   1.180   2.063
15362SOL     OW58561   8.007   2.238   0.744
15362SOL    HW158562   7.991   2.306   0.673
15362SOL    HW258563   8.091   2.188   0.724
15363SOL     OW58564   7.886   3.669   7.158
15363SOL    HW158565   7.944   3.592   7.185
15363SOL    HW258566   7.791   3.649   7.183
15364SOL     OW58567   8.656   2.180   0.179
15364SOL    HW158568   8.590   2.189   0.105
15364SOL    HW258569   8.655   2.087   0.214
15365SOL     OW58570   8.562   3.554   0.027
15365SOL    HW158571   8.641   3.536  -0.032
15365SOL    HW258572   8.478   3.535  -0.024
15366SOL     OW58573   8.024   1.435   1.421
15366SOL    HW158574   7.959   1.442   1.346
15366SOL    HW258575   7.985   1.475   1.504
15367SOL     OW58576   8.568   5.931   0.889
15367SOL    HW158577   8.522   5.979   0.814
15367SOL    HW258578   8.659   5.970   0.902
15368SOL     OW58579   7.680   1.588   3.164
15368SOL    HW158580   7.763   1.575   3.217
15368SOL    HW258581   7.694   1.554   3.071
15369SOL     OW58582   7.930   5.037   1.316
15369SOL    HW158583   7.910   5.132   1.343
15369SOL    HW258584   7.855   4.978   1.344
15370SOL     OW58585   8.196   4.340   5.568
15370SOL    HW158586   8.135   4.412   5.536
15370SOL    HW258587   8.206   4.345   5.667
15371SOL     OW58588   7.814   1.410   1.225
15371SOL    HW158589   7.751   1.344   1.186
15371SOL    HW258590   7.892   1.422   1.164
15372SOL     OW58591   8.108   2.317   0.045
15372SOL    HW158592   8.193   2.274   0.077
15372SOL    HW258593   8.072   2.376   0.117
15373SOL     OW58594   7.868   7.023   6.997
15373SOL    HW158595   7.890   7.087   7.070
15373SOL    HW258596   7.769   7.008   6.995
15374SOL     OW58597   7.598   4.443   5.667
15374SOL    HW158598   7.506   4.447   5.629
15374SOL    HW258599   7.650   4.370   5.623
15375SOL     OW58600   7.939   5.215   0.586
15375SOL    HW158601   8.020   5.195   0.530
15375SOL    HW258602   7.860   5.227   0.527
15376SOL     OW58603   8.756   3.804   5.431
15376SOL    HW158604   8.717   3.886   5.471
15376SOL    HW258605   8.748   3.807   5.331
15377SOL     OW58606   7.735   4.558   1.724
15377SOL    HW158607   7.816   4.513   1.761
15377SOL    HW258608   7.685   4.493   1.666
15378SOL     OW58609   8.072   3.887   7.260
15378SOL    HW158610   8.001   3.820   7.240
15378SOL    HW258611   8.031   3.968   7.303
15379SOL     OW58612   7.922   1.759   3.654
15379SOL    HW158613   8.018   1.775   3.627
15379SOL    HW258614   7.868   1.738   3.573
15380SOL     OW58615   7.561   3.557   0.665
15380SOL    HW158616   7.522   3.640   0.704
15380SOL    HW258617   7.585   3.494   0.739
15381SOL     OW58618   7.720   2.397   0.016
15381SOL    HW158619   7.621   2.381   0.025
15381SOL    HW258620   7.736   2.489  -0.019
15382SOL     OW58621   7.874   7.276   7.138
15382SOL    HW158622   7.916   7.219   7.208
15382SOL    HW258623   7.943   7.303   7.071
15383SOL     OW58624   7.667   6.252   6.246
15383SOL    HW158625   7.739   6.253   6.177
15383SOL    HW258626   7.645   6.346   6.272
15384SOL     OW58627   8.578   6.025   5.154
15384SOL    HW158628   8.576   5.944   5.095
15384SOL    HW258629   8.494   6.078   5.140
15385SOL     OW58630   7.510   6.040   6.665
15385SOL    HW158631   7.519   6.084   6.754
15385SOL    HW258632   7.537   6.103   6.593
15386SOL     OW58633   8.871   2.169   1.558
15386SOL    HW158634   8.941   2.186   1.628
15386SOL    HW258635   8.795   2.232   1.572
15387SOL     OW58636   8.111   4.014   6.736
15387SOL    HW158637   8.184   4.003   6.802
15387SOL    HW258638   8.130   3.957   6.656
15388SOL     OW58639   8.290   1.669   3.319
15388SOL    HW158640   8.274   1.573   3.293
15388SOL    HW258641   8.220   1.727   3.277
15389SOL     OW58642   7.702   1.689   3.770
15389SOL    HW158643   7.687   1.596   3.737
15389SOL    HW258644   7.784   1.726   3.727
15390SOL     OW58645   7.979   0.352   3.318
15390SOL    HW158646   7.993   0.433   3.261
15390SOL    HW258647   8.045   0.352   3.393
15391SOL     OW58648   7.512   1.320   3.372
15391SOL    HW158649   7.496   1.328   3.274
15391SOL    HW258650   7.425   1.327   3.421
15392SOL     OW58651   8.870   2.664   5.145
15392SOL    HW158652   8.793   2.727   5.140
15392SOL    HW258653   8.938   2.700   5.210
15393SOL     OW58654   8.307   0.799   6.521
15393SOL    HW158655   8.234   0.759   6.576
15393SOL    HW258656   8.302   0.764   6.428
15394SOL     OW58657   8.149   0.015   7.005
15394SOL    HW158658   8.161   0.038   6.908
15394SOL    HW258659   8.171  -0.081   7.020
15395SOL     OW58660   7.925   0.160   0.697
15395SOL    HW158661   7.919   0.259   0.680
15395SOL    HW258662   7.849   0.133   0.756
15396SOL     OW58663   8.408   0.914   0.765
15396SOL    HW158664   8.377   1.008   0.756
15396SOL    HW258665   8.331   0.852   0.752
15397SOL     OW58666   8.307   3.668   2.163
15397SOL    HW158667   8.387   3.611   2.184
15397SOL    HW258668   8.296   3.736   2.236
15398SOL     OW58669   7.412   1.585   3.223
15398SOL    HW158670   7.394   1.653   3.295
15398SOL    HW258671   7.508   1.560   3.224
15399SOL     OW58672   8.175   1.842   2.979
15399SOL    HW158673   8.210   1.936   2.973
15399SOL    HW258674   8.116   1.823   2.900
15400SOL     OW58675   8.288   2.089   1.851
15400SOL    HW158676   8.371   2.043   1.822
15400SOL    HW258677   8.241   2.128   1.772
15401SOL     OW58678   8.409   2.320   2.595
15401SOL    HW158679   8.429   2.228   2.562
15401SOL    HW258680   8.336   2.360   2.539
15402SOL     OW58681   8.241   1.507   0.626
15402SOL    HW158682   8.214   1.487   0.720
15402SOL    HW258683   8.332   1.471   0.608
15403SOL     OW58684   8.669   2.156   2.368
15403SOL    HW158685   8.639   2.124   2.458
15403SOL    HW258686   8.644   2.088   2.299
15404SOL     OW58687   7.433   5.480   3.447
15404SOL    HW158688   7.343   5.473   3.404
15404SOL    HW258689   7.432   5.433   3.535
15405SOL     OW58690   8.850   5.200   5.538
15405SOL    HW158691   8.898   5.177   5.622
15405SOL    HW258692   8.917   5.213   5.464
15406SOL     OW58693   7.638   4.713   6.046
15406SOL    HW158694   7.554   4.718   6.099
15406SOL    HW258695   7.622   4.748   5.954
15407SOL     OW58696   7.911   5.081   4.318
15407SOL    HW158697   7.833   5.142   4.309
15407SOL    HW258698   7.902   5.005   4.254
15408SOL     OW58699   8.055   5.151   2.135
15408SOL    HW158700   7.974   5.102   2.167
15408SOL    HW258701   8.121   5.086   2.097
15409SOL     OW58702   8.334   6.244   5.663
15409SOL    HW158703   8.378   6.155   5.653
15409SOL    HW258704   8.362   6.303   5.587
15410SOL     OW58705   8.572   1.989   3.842
15410SOL    HW158706   8.520   2.049   3.781
15410SOL    HW258707   8.670   2.003   3.825
15411SOL     OW58708   8.095   3.856   0.492
15411SOL    HW158709   8.194   3.860   0.476
15411SOL    HW258710   8.063   3.943   0.528
15412SOL     OW58711   8.236   3.863   3.345
15412SOL    HW158712   8.312   3.850   3.409
15412SOL    HW258713   8.194   3.952   3.361
15413SOL     OW58714   7.663   5.652   6.981
15413SOL    HW158715   7.672   5.739   7.029
15413SOL    HW258716   7.650   5.669   6.884
15414SOL     OW58717   8.942   3.080   1.029
15414SOL    HW158718   8.878   3.133   0.974
15414SOL    HW258719   9.036   3.109   1.009
15415SOL     OW58720   8.146   1.959   3.992
15415SOL    HW158721   8.178   2.032   3.932
15415SOL    HW258722   8.051   1.975   4.018
15416SOL     OW58723   9.082   5.033   5.646
15416SOL    HW158724   9.034   5.072   5.725
15416SOL    HW258725   9.175   5.008   5.672
15417SOL     OW58726   8.638   1.707   2.572
15417SOL    HW158727   8.713   1.755   2.527
15417SOL    HW258728   8.655   1.702   2.670
15418SOL     OW58729   7.877   3.947   2.075
15418SOL    HW158730   7.918   3.920   1.988
15418SOL    HW258731   7.929   3.906   2.151
15419SOL     OW58732   8.917   2.053   1.312
15419SOL    HW158733   8.902   1.956   1.292
15419SOL    HW258734   8.912   2.067   1.410
15420SOL     OW58735   7.373   1.184   1.252
15420SOL    HW158736   7.400   1.270   1.210
15420SOL    HW258737   7.313   1.202   1.330
15421SOL     OW58738   7.598   3.387   3.905
15421SOL    HW158739   7.608   3.315   3.974
15421SOL    HW258740   7.607   3.347   3.814
15422SOL     OW58741   8.168   3.165   5.663
15422SOL    HW158742   8.146   3.096   5.593
15422SOL    HW258743   8.218   3.122   5.738
15423SOL     OW58744   8.001   1.360   3.481
15423SOL    HW158745   8.078   1.297   3.468
15423SOL    HW258746   7.916   1.307   3.491
15424SOL     OW58747   7.738   1.089   0.624
15424SOL    HW158748   7.731   1.187   0.604
15424SOL    HW258749   7.825   1.071   0.670
15425SOL     OW58750   8.430   2.680   1.353
15425SOL    HW158751   8.379   2.652   1.271
15425SOL    HW258752   8.441   2.780   1.353
15426SOL     OW58753   7.952   4.064   2.728
15426SOL    HW158754   8.039   4.112   2.727
15426SOL    HW258755   7.949   4.001   2.806
15427SOL     OW58756   7.362   6.865   5.040
15427SOL    HW158757   7.416   6.860   4.956
15427SOL    HW258758   7.265   6.862   5.018
15428SOL     OW58759   8.652   0.804   0.669
15428SOL    HW158760   8.671   0.818   0.572
15428SOL    HW258761   8.560   0.836   0.690
15429SOL     OW58762   8.865   7.311   7.339
15429SOL    HW158763   8.789   7.260   7.301
15429SOL    HW258764   8.893   7.270   7.426
15430SOL     OW58765   7.511   7.239   6.068
15430SOL    HW158766   7.508   7.213   6.165
15430SOL    HW258767   7.493   7.158   6.012
15431SOL     OW58768   8.754   5.220   4.895
15431SOL    HW158769   8.728   5.133   4.937
15431SOL    HW258770   8.770   5.206   4.797
15432SOL     OW58771   7.758   3.074   3.918
15432SOL    HW158772   7.848   3.049   3.953
15432SOL    HW258773   7.699   3.102   3.993
15433SOL     OW58774   8.538   0.986   6.897
15433SOL    HW158775   8.452   0.935   6.884
15433SOL    HW258776   8.539   1.027   6.988
15434SOL     OW58777   7.379   4.576   2.114
15434SOL    HW158778   7.476   4.555   2.127
15434SOL    HW258779   7.328   4.491   2.106
15435SOL     OW58780   8.669   1.165   0.641
15435SOL    HW158781   8.651   1.067   0.642
15435SOL    HW258782   8.683   1.197   0.734
15436SOL     OW58783   8.637   5.084   0.462
15436SOL    HW158784   8.721   5.052   0.506
15436SOL    HW258785   8.632   5.046   0.369
15437SOL     OW58786   8.950   4.057   5.580
15437SOL    HW158787   8.855   4.033   5.601
15437SOL    HW258788   8.959   4.074   5.482
15438SOL     OW58789   8.487   7.323   5.777
15438SOL    HW158790   8.560   7.261   5.749
15438SOL    HW258791   8.483   7.401   5.715
15439SOL     OW58792   8.999   4.474   0.056
15439SOL    HW158793   9.074   4.429   0.008
15439SOL    HW258794   8.945   4.405   0.105
15440SOL     OW58795   8.832   4.208   5.042
15440SOL    HW158796   8.833   4.305   5.020
15440SOL    HW258797   8.740   4.172   5.029
15441SOL     OW58798   8.734   3.713   2.535
15441SOL    HW158799   8.827   3.736   2.565
15441SOL    HW258800   8.668   3.740   2.605
15442SOL     OW58801   7.726   4.473   0.801
15442SOL    HW158802   7.775   4.513   0.877
15442SOL    HW258803   7.654   4.536   0.770
15443SOL     OW58804   8.898   4.432   2.853
15443SOL    HW158805   8.844   4.426   2.770
15443SOL    HW258806   8.949   4.519   2.853
15444SOL     OW58807   8.010   4.631   5.789
15444SOL    HW158808   7.918   4.631   5.749
15444SOL    HW258809   8.049   4.539   5.783
15445SOL     OW58810   8.006   3.575   0.484
15445SOL    HW158811   7.965   3.600   0.396
15445SOL    HW258812   8.033   3.658   0.533
15446SOL     OW58813   8.101   2.861   2.719
15446SOL    HW158814   8.066   2.871   2.626
15446SOL    HW258815   8.160   2.780   2.724
15447SOL     OW58816   8.221   4.008   4.343
15447SOL    HW158817   8.209   3.917   4.303
15447SOL    HW258818   8.215   4.077   4.271
15448SOL     OW58819   8.400   3.066   1.866
15448SOL    HW158820   8.306   3.102   1.870
15448SOL    HW258821   8.451   3.100   1.944
15449SOL     OW58822   7.992   2.790   0.439
15449SOL    HW158823   8.019   2.855   0.510
15449SOL    HW258824   8.056   2.713   0.439
15450SOL     OW58825   8.720   2.585   6.852
15450SOL    HW158826   8.758   2.675   6.828
15450SOL    HW258827   8.792   2.516   6.846
15451SOL     OW58828   8.465   4.184   5.966
15451SOL    HW158829   8.442   4.141   6.054
15451SOL    HW258830   8.433   4.279   5.966
15452SOL     OW58831   7.721   3.786   5.639
15452SOL    HW158832   7.764   3.874   5.660
15452SOL    HW258833   7.635   3.802   5.590
15453SOL     OW58834   7.663   2.424   2.559
15453SOL    HW158835   7.634   2.490   2.628
15453SOL    HW258836   7.597   2.348   2.555
15454SOL     OW58837   8.305   2.391   7.019
15454SOL    HW158838   8.275   2.317   6.960
15454SOL    HW258839   8.362   2.455   6.967
15455SOL     OW58840   7.421   5.034   6.008
15455SOL    HW158841   7.341   5.082   6.044
15455SOL    HW258842   7.470   5.094   5.944
15456SOL     OW58843   8.540   0.701   6.623
15456SOL    HW158844   8.572   0.651   6.543
15456SOL    HW258845   8.443   0.723   6.613
15457SOL     OW58846   8.180   5.207   1.556
15457SOL    HW158847   8.092   5.215   1.510
15457SOL    HW258848   8.199   5.291   1.608
15458SOL     OW58849   7.739   2.259   0.819
15458SOL    HW158850   7.839   2.260   0.824
15458SOL    HW258851   7.707   2.164   0.824
15459SOL     OW58852   8.519   3.208   4.446
15459SOL    HW158853   8.605   3.165   4.418
15459SOL    HW258854   8.488   3.269   4.373
15460SOL     OW58855   8.354   2.521   0.099
15460SOL    HW158856   8.325   2.434   0.140
15460SOL    HW258857   8.292   2.543   0.024
15461SOL     OW58858   8.626   7.294   5.435
15461SOL    HW158859   8.662   7.252   5.518
15461SOL    HW258860   8.676   7.259   5.355
15462SOL     OW58861   8.267   5.246   6.393
15462SOL    HW158862   8.319   5.168   6.429
15462SOL    HW258863   8.291   5.328   6.445
15463SOL     OW58864   8.084   5.272   5.110
15463SOL    HW158865   8.076   5.369   5.087
15463SOL    HW258866   7.994   5.238   5.140
15464SOL     OW58867   8.235   4.179   3.820
15464SOL    HW158868   8.161   4.170   3.886
15464SOL    HW258869   8.220   4.116   3.744
15465SOL     OW58870   8.074   2.497   4.735
15465SOL    HW158871   8.166   2.457   4.732
15465SOL    HW258872   8.009   2.435   4.691
15466SOL     OW58873   8.663   3.208   6.411
15466SOL    HW158874   8.761   3.189   6.401
15466SOL    HW258875   8.638   3.286   6.354
15467SOL     OW58876   7.938   4.176   6.602
15467SOL    HW158877   8.002   4.120   6.654
15467SOL    HW258878   7.988   4.243   6.548
15468SOL     OW58879   8.496   3.085   7.182
15468SOL    HW158880   8.401   3.115   7.183
15468SOL    HW258881   8.555   3.160   7.211
15469SOL     OW58882   7.544   5.750   5.474
15469SOL    HW158883   7.466   5.793   5.429
15469SOL    HW258884   7.607   5.821   5.506
15470SOL     OW58885   8.440   2.563   6.828
15470SOL    HW158886   8.396   2.639   6.778
15470SOL    HW258887   8.539   2.572   6.821
15471SOL     OW58888   8.575   0.763   2.267
15471SOL    HW158889   8.595   0.799   2.359
15471SOL    HW258890   8.533   0.673   2.275
15472SOL     OW58891   8.295   5.983   0.047
15472SOL    HW158892   8.195   5.984   0.050
15472SOL    HW258893   8.330   5.905   0.100
15473SOL     OW58894   8.963   2.004   1.925
15473SOL    HW158895   8.929   1.942   1.854
15473SOL    HW258896   8.994   2.089   1.882
15474SOL     OW58897   7.867   5.221   5.288
15474SOL    HW158898   7.911   5.282   5.355
15474SOL    HW258899   7.815   5.151   5.337
15475SOL     OW58900   8.686   4.740   7.238
15475SOL    HW158901   8.674   4.680   7.160
15475SOL    HW258902   8.723   4.828   7.207
15476SOL     OW58903   8.606   5.487   2.063
15476SOL    HW158904   8.685   5.531   2.020
15476SOL    HW258905   8.637   5.432   2.141
15477SOL     OW58906   8.768   2.967   5.622
15477SOL    HW158907   8.770   3.036   5.550
15477SOL    HW258908   8.778   3.011   5.711
15478SOL     OW58909   7.728   4.689   5.710
15478SOL    HW158910   7.684   4.600   5.699
15478SOL    HW258911   7.663   4.755   5.748
15479SOL     OW58912   7.667   4.470   6.839
15479SOL    HW158913   7.672   4.435   6.746
15479SOL    HW258914   7.571   4.480   6.866
15480SOL     OW58915   8.972   4.791   1.158
15480SOL    HW158916   8.879   4.816   1.185
15480SOL    HW258917   9.028   4.874   1.150
15481SOL     OW58918   8.122   1.468   3.698
15481SOL    HW158919   8.039   1.497   3.746
15481SOL    HW258920   8.097   1.424   3.612
15482SOL     OW58921   7.728   4.157   1.093
15482SOL    HW158922   7.744   4.254   1.113
15482SOL    HW258923   7.735   4.142   0.994
15483SOL     OW58924   8.862   6.966   1.112
15483SOL    HW158925   8.917   6.975   1.029
15483SOL    HW258926   8.904   6.898   1.173
15484SOL     OW58927   7.460   2.513   6.801
15484SOL    HW158928   7.448   2.418   6.829
15484SOL    HW258929   7.553   2.543   6.821
15485SOL     OW58930   8.469   4.337   5.413
15485SOL    HW158931   8.472   4.420   5.358
15485SOL    HW258932   8.374   4.309   5.426
15486SOL     OW58933   8.145   4.097   5.897
15486SOL    HW158934   8.221   4.062   5.842
15486SOL    HW258935   8.063   4.042   5.879
15487SOL     OW58936   7.830   6.734   1.312
15487SOL    HW158937   7.785   6.655   1.353
15487SOL    HW258938   7.891   6.777   1.379
15488SOL     OW58939   8.807   4.148   2.414
15488SOL    HW158940   8.768   4.057   2.398
15488SOL    HW258941   8.795   4.204   2.332
15489SOL     OW58942   7.417   5.527   6.333
15489SOL    HW158943   7.387   5.623   6.331
15489SOL    HW258944   7.371   5.476   6.260
15490SOL     OW58945   8.397   5.020   7.243
15490SOL    HW158946   8.410   4.971   7.329
15490SOL    HW258947   8.328   5.092   7.256
15491SOL     OW58948   8.937   0.055   6.399
15491SOL    HW158949   8.979   0.138   6.362
15491SOL    HW258950   8.840   0.054   6.375
15492SOL     OW58951   8.474   3.607   3.204
15492SOL    HW158952   8.481   3.601   3.104
15492SOL    HW258953   8.472   3.515   3.243
15493SOL     OW58954   8.748   0.048   1.064
15493SOL    HW158955   8.689   0.081   1.138
15493SOL    HW258956   8.819   0.116   1.045
15494SOL     OW58957   7.738   0.460   1.515
15494SOL    HW158958   7.722   0.491   1.609
15494SOL    HW258959   7.676   0.509   1.453
15495SOL     OW58960   8.859   3.515   3.888
15495SOL    HW158961   8.768   3.549   3.912
15495SOL    HW258962   8.853   3.463   3.802
15496SOL     OW58963   7.935   2.494   0.941
15496SOL    HW158964   7.848   2.455   0.973
15496SOL    HW258965   7.991   2.421   0.902
15497SOL     OW58966   8.680   5.694   6.989
15497SOL    HW158967   8.725   5.680   6.900
15497SOL    HW258968   8.685   5.610   7.043
15498SOL     OW58969   8.204   4.254   2.682
15498SOL    HW158970   8.165   4.341   2.714
15498SOL    HW258971   8.301   4.268   2.660
15499SOL     OW58972   8.034   4.229   6.924
15499SOL    HW158973   8.094   4.214   7.002
15499SOL    HW258974   8.024   4.144   6.873
15500SOL     OW58975   8.906   4.060   3.085
15500SOL    HW158976   8.972   4.135   3.079
15500SOL    HW258977   8.937   3.984   3.027
15501SOL     OW58978   8.162   1.386   2.291
15501SOL    HW158979   8.226   1.429   2.228
15501SOL    HW258980   8.209   1.364   2.377
15502SOL     OW58981   7.742   0.329   0.369
15502SOL    HW158982   7.699   0.401   0.314
15502SOL    HW258983   7.746   0.245   0.316
15503SOL     OW58984   7.520   5.805   5.119
15503SOL    HW158985   7.471   5.816   5.032
15503SOL    HW258986   7.618   5.802   5.102
15504SOL     OW58987   7.584   0.693   2.880
15504SOL    HW158988   7.516   0.658   2.817
15504SOL    HW258989   7.617   0.782   2.848
15505SOL     OW58990   8.628   3.713   4.285
15505SOL    HW158991   8.641   3.810   4.306
15505SOL    HW258992   8.696   3.659   4.334
15506SOL     OW58993   8.588   6.290   5.308
15506SOL    HW158994   8.649   6.243   5.372
15506SOL    HW258995   8.565   6.228   5.232
15507SOL     OW58996   8.608   2.010   3.079
15507SOL    HW158997   8.542   2.043   3.147
15507SOL    HW258998   8.698   1.998   3.122
15508SOL     OW58999   8.287   1.403   1.533
15508SOL    HW159000   8.216   1.406   1.462
15508SOL    HW259001   8.245   1.382   1.621
15509SOL     OW59002   8.166   5.858   6.014
15509SOL    HW159003   8.098   5.906   5.957
15509SOL    HW259004   8.210   5.923   6.075
15510SOL     OW59005   7.896   1.648   6.995
15510SOL    HW159006   7.838   1.729   7.003
15510SOL    HW259007   7.923   1.617   7.086
15511SOL     OW59008   7.484   2.391   3.761
15511SOL    HW159009   7.425   2.468   3.736
15511SOL    HW259010   7.478   2.321   3.690
15512SOL     OW59011   8.810   6.030   0.955
15512SOL    HW159012   8.826   6.106   1.018
15512SOL    HW259013   8.893   5.976   0.947
15513SOL     OW59014   7.831   0.788   1.279
15513SOL    HW159015   7.793   0.827   1.195
15513SOL    HW259016   7.758   0.780   1.347
15514SOL     OW59017   7.902   0.890   4.650
15514SOL    HW159018   7.871   0.842   4.732
15514SOL    HW259019   8.002   0.895   4.650
15515SOL     OW59020   8.267   6.178   3.961
15515SOL    HW159021   8.195   6.218   4.017
15515SOL    HW259022   8.281   6.235   3.880
15516SOL     OW59023   8.589   3.265   0.007
15516SOL    HW159024   8.540   3.328   0.067
15516SOL    HW259025   8.625   3.189   0.061
15517SOL     OW59026   7.665   0.956   0.036
15517SOL    HW159027   7.686   1.000  -0.052
15517SOL    HW259028   7.633   0.862   0.019
15518SOL     OW59029   8.830   7.257   3.466
15518SOL    HW159030   8.926   7.236   3.487
15518SOL    HW259031   8.797   7.326   3.530
15519SOL     OW59032   8.609   4.556   3.233
15519SOL    HW159033   8.617   4.489   3.158
15519SOL    HW259034   8.568   4.512   3.313
15520SOL     OW59035   8.253   5.365   1.820
15520SOL    HW159036   8.241   5.385   1.917
15520SOL    HW259037   8.235   5.447   1.766
15521SOL     OW59038   7.657   1.810   0.349
15521SOL    HW159039   7.557   1.804   0.339
15521SOL    HW259040   7.692   1.880   0.287
15522SOL     OW59041   9.254   5.002   2.283
15522SOL    HW159042   9.191   4.924   2.288
15522SOL    HW259043   9.202   5.085   2.262
15523SOL     OW59044   8.727   0.351   1.268
15523SOL    HW159045   8.650   0.305   1.223
15523SOL    HW259046   8.805   0.356   1.206
15524SOL     OW59047   8.390   3.481   1.025
15524SOL    HW159048   8.485   3.489   0.994
15524SOL    HW259049   8.345   3.570   1.016
15525SOL     OW59050   7.555   1.948   2.922
15525SOL    HW159051   7.617   1.901   2.859
15525SOL    HW259052   7.580   1.924   3.016
15526SOL     OW59053   8.527   7.205   6.932
15526SOL    HW159054   8.490   7.289   6.973
15526SOL    HW259055   8.617   7.223   6.892
15527SOL     OW59056   7.456   2.642   2.103
15527SOL    HW159057   7.524   2.705   2.065
15527SOL    HW259058   7.404   2.601   2.029
15528SOL     OW59059   8.736   2.992   1.929
15528SOL    HW159060   8.826   2.951   1.946
15528SOL    HW259061   8.667   2.943   1.982
15529SOL     OW59062   7.809   3.695   6.231
15529SOL    HW159063   7.828   3.633   6.156
15529SOL    HW259064   7.833   3.652   6.318
15530SOL     OW59065   8.129   1.063   6.706
15530SOL    HW159066   8.045   1.078   6.654
15530SOL    HW259067   8.165   1.151   6.738
15531SOL     OW59068   7.593   2.496   4.438
15531SOL    HW159069   7.599   2.476   4.340
15531SOL    HW259070   7.644   2.426   4.488
15532SOL     OW59071   7.654   3.573   7.240
15532SOL    HW159072   7.686   3.569   7.335
15532SOL    HW259073   7.580   3.508   7.227
15533SOL     OW59074   7.986   3.226   7.165
15533SOL    HW159075   7.965   3.221   7.067
15533SOL    HW259076   7.911   3.185   7.217
15534SOL     OW59077   8.136   4.757   7.204
15534SOL    HW159078   8.126   4.793   7.111
15534SOL    HW259079   8.126   4.658   7.203
15535SOL     OW59080   8.754   0.851   4.110
15535SOL    HW159081   8.712   0.804   4.187
15535SOL    HW259082   8.853   0.848   4.120
15536SOL     OW59083   8.624   0.455   2.507
15536SOL    HW159084   8.586   0.436   2.417
15536SOL    HW259085   8.628   0.370   2.560
15537SOL     OW59086   7.560   5.300   6.153
15537SOL    HW159087   7.653   5.264   6.142
15537SOL    HW259088   7.550   5.384   6.100
15538SOL     OW59089   8.702   1.519   0.930
15538SOL    HW159090   8.689   1.420   0.921
15538SOL    HW259091   8.766   1.551   0.861
15539SOL     OW59092   8.080   3.526   1.927
15539SOL    HW159093   8.084   3.602   1.992
15539SOL    HW259094   8.129   3.447   1.965
15540SOL     OW59095   8.989   5.038   3.430
15540SOL    HW159096   8.933   5.033   3.348
15540SOL    HW259097   9.058   5.110   3.420
15541SOL     OW59098   8.314   3.966   7.135
15541SOL    HW159099   8.230   3.919   7.162
15541SOL    HW259100   8.391   3.902   7.139
15542SOL     OW59101   7.922   0.912   0.871
15542SOL    HW159102   7.835   0.956   0.895
15542SOL    HW259103   7.981   0.978   0.824
15543SOL     OW59104   7.580   5.043   1.564
15543SOL    HW159105   7.589   4.964   1.623
15543SOL    HW259106   7.562   5.125   1.619
15544SOL     OW59107   8.564   4.056   0.889
15544SOL    HW159108   8.534   3.987   0.823
15544SOL    HW259109   8.497   4.129   0.894
15545SOL     OW59110   7.728   4.922   2.463
15545SOL    HW159111   7.712   4.948   2.559
15545SOL    HW259112   7.677   4.839   2.443
15546SOL     OW59113   7.884   0.435   0.599
15546SOL    HW159114   7.832   0.502   0.653
15546SOL    HW259115   7.828   0.403   0.523
15547SOL     OW59116   8.718   3.995   2.133
15547SOL    HW159117   8.638   4.048   2.103
15547SOL    HW259118   8.688   3.918   2.189
15548SOL     OW59119   8.605   3.966   7.355
15548SOL    HW159120   8.684   3.954   7.295
15548SOL    HW259121   8.616   4.049   7.409
15549SOL     OW59122   7.531   3.008   7.151
15549SOL    HW159123   7.572   3.068   7.219
15549SOL    HW259124   7.501   2.923   7.195
15550SOL     OW59125   7.846   0.267   5.359
15550SOL    HW159126   7.759   0.307   5.388
15550SOL    HW259127   7.880   0.206   5.430
15551SOL     OW59128   7.546   2.160   5.960
15551SOL    HW159129   7.450   2.131   5.965
15551SOL    HW259130   7.574   2.199   6.047
15552SOL     OW59131   8.282   3.498   5.275
15552SOL    HW159132   8.188   3.489   5.243
15552SOL    HW259133   8.319   3.586   5.245
15553SOL     OW59134   8.617   0.197   2.607
15553SOL    HW159135   8.535   0.142   2.621
15553SOL    HW259136   8.686   0.142   2.560
15554SOL     OW59137   7.940   1.086   1.663
15554SOL    HW159138   7.874   1.072   1.589
15554SOL    HW259139   8.016   1.022   1.653
15555SOL     OW59140   8.333   3.002   4.502
15555SOL    HW159141   8.411   3.064   4.495
15555SOL    HW259142   8.261   3.031   4.440
15556SOL     OW59143   8.478   0.750   4.041
15556SOL    HW159144   8.557   0.801   4.074
15556SOL    HW259145   8.396   0.806   4.051
15557SOL     OW59146   7.643   5.297   3.772
15557SOL    HW159147   7.551   5.272   3.744
15557SOL    HW259148   7.687   5.220   3.818
15558SOL     OW59149   7.362   3.827   7.109
15558SOL    HW159150   7.281   3.802   7.056
15558SOL    HW259151   7.334   3.864   7.197
15559SOL     OW59152   8.687   4.782   6.715
15559SOL    HW159153   8.634   4.730   6.782
15559SOL    HW259154   8.773   4.735   6.696
15560SOL     OW59155   8.889   6.306   0.291
15560SOL    HW159156   8.986   6.283   0.286
15560SOL    HW259157   8.878   6.389   0.346
15561SOL     OW59158   7.736   0.284   3.242
15561SOL    HW159159   7.701   0.376   3.226
15561SOL    HW259160   7.833   0.289   3.266
15562SOL     OW59161   8.827   6.635   6.622
15562SOL    HW159162   8.864   6.554   6.577
15562SOL    HW259163   8.785   6.695   6.553
15563SOL     OW59164   7.731   4.418   6.351
15563SOL    HW159165   7.661   4.432   6.281
15563SOL    HW259166   7.817   4.460   6.320
15564SOL     OW59167   7.865   3.035   4.431
15564SOL    HW159168   7.851   2.949   4.383
15564SOL    HW259169   7.778   3.066   4.469
15565SOL     OW59170   7.386   1.731   2.842
15565SOL    HW159171   7.425   1.684   2.763
15565SOL    HW259172   7.439   1.813   2.862
15566SOL     OW59173   7.556   1.969   1.808
15566SOL    HW159174   7.490   1.951   1.880
15566SOL    HW259175   7.587   1.882   1.768
15567SOL     OW59176   8.659   2.726   7.104
15567SOL    HW159177   8.701   2.675   7.179
15567SOL    HW259178   8.643   2.664   7.026
15568SOL     OW59179   8.595   3.517   0.295
15568SOL    HW159180   8.648   3.432   0.284
15568SOL    HW259181   8.580   3.559   0.205
15569SOL     OW59182   8.279   7.015   0.607
15569SOL    HW159183   8.284   7.055   0.516
15569SOL    HW259184   8.371   7.012   0.647
15570SOL     OW59185   8.239   5.341   2.884
15570SOL    HW159186   8.288   5.259   2.911
15570SOL    HW259187   8.286   5.422   2.919
15571SOL     OW59188   7.619   6.948   7.009
15571SOL    HW159189   7.584   6.920   7.099
15571SOL    HW259190   7.546   6.943   6.941
15572SOL     OW59191   7.635   0.429   5.487
15572SOL    HW159192   7.542   0.392   5.495
15572SOL    HW259193   7.630   0.522   5.451
15573SOL     OW59194   7.469   4.354   5.901
15573SOL    HW159195   7.515   4.404   5.975
15573SOL    HW259196   7.501   4.388   5.813
15574SOL     OW59197   8.603   5.371   6.582
15574SOL    HW159198   8.597   5.471   6.589
15574SOL    HW259199   8.633   5.346   6.490
15575SOL     OW59200   7.807   3.994   1.293
15575SOL    HW159201   7.846   3.915   1.246
15575SOL    HW259202   7.758   4.052   1.227
15576SOL     OW59203   8.198   0.468   1.868
15576SOL    HW159204   8.247   0.473   1.955
15576SOL    HW259205   8.137   0.546   1.860
15577SOL     OW59206   8.530   2.852   7.322
15577SOL    HW159207   8.564   2.775   7.268
15577SOL    HW259208   8.514   2.930   7.261
15578SOL     OW59209   7.361   6.593   2.898
15578SOL    HW159210   7.403   6.669   2.947
15578SOL    HW259211   7.396   6.507   2.936
15579SOL     OW59212   7.755   3.339   4.279
15579SOL    HW159213   7.718   3.398   4.351
15579SOL    HW259214   7.847   3.308   4.304
15580SOL     OW59215   7.928   4.582   6.293
15580SOL    HW159216   7.951   4.614   6.201
15580SOL    HW259217   7.948   4.654   6.359
15581SOL     OW59218   8.045   4.904   1.590
15581SOL    HW159219   7.952   4.936   1.577
15581SOL    HW259220   8.089   4.892   1.500
15582SOL     OW59221   8.686   3.838   0.984
15582SOL    HW159222   8.649   3.926   0.954
15582SOL    HW259223   8.785   3.836   0.969
15583SOL     OW59224   8.751   5.063   3.581
15583SOL    HW159225   8.737   5.061   3.680
15583SOL    HW259226   8.846   5.039   3.560
15584SOL     OW59227   7.710   4.832   1.748
15584SOL    HW159228   7.798   4.835   1.795
15584SOL    HW259229   7.683   4.737   1.734
15585SOL     OW59230   8.698   3.501   6.251
15585SOL    HW159231   8.787   3.463   6.223
15585SOL    HW259232   8.712   3.579   6.311
15586SOL     OW59233   7.928   3.747   0.906
15586SOL    HW159234   8.003   3.703   0.856
15586SOL    HW259235   7.890   3.821   0.851
15587SOL     OW59236   8.926   4.695   0.247
15587SOL    HW159237   9.003   4.698   0.312
15587SOL    HW259238   8.948   4.632   0.173
15588SOL     OW59239   7.982   5.659   1.339
15588SOL    HW159240   7.911   5.634   1.273
15588SOL    HW259241   8.062   5.692   1.289
15589SOL     OW59242   7.490   1.896   5.393
15589SOL    HW159243   7.489   1.797   5.378
15589SOL    HW259244   7.573   1.921   5.443
15590SOL     OW59245   8.578   2.059   3.495
15590SOL    HW159246   8.671   2.087   3.520
15590SOL    HW259247   8.576   1.961   3.478
15591SOL     OW59248   8.817   5.971   5.301
15591SOL    HW159249   8.890   5.926   5.249
15591SOL    HW259250   8.737   5.984   5.242
15592SOL     OW59251   8.278   1.983   1.283
15592SOL    HW159252   8.319   2.067   1.246
15592SOL    HW259253   8.214   1.945   1.216
15593SOL     OW59254   9.187   5.639   4.254
15593SOL    HW159255   9.284   5.648   4.276
15593SOL    HW259256   9.154   5.549   4.283
15594SOL     OW59257   7.507   3.172   0.800
15594SOL    HW159258   7.571   3.095   0.793
15594SOL    HW259259   7.426   3.154   0.744
15595SOL     OW59260   8.005   3.590   1.657
15595SOL    HW159261   8.017   3.670   1.598
15595SOL    HW259262   8.041   3.611   1.749
15596SOL     OW59263   8.580   2.602   5.629
15596SOL    HW159264   8.485   2.613   5.658
15596SOL    HW259265   8.599   2.664   5.553
15597SOL     OW59266   8.681   5.309   0.321
15597SOL    HW159267   8.669   5.235   0.388
15597SOL    HW259268   8.721   5.389   0.366
15598SOL     OW59269   8.327   5.968   3.816
15598SOL    HW159270   8.359   5.887   3.866
15598SOL    HW259271   8.299   6.038   3.882
15599SOL     OW59272   8.778   7.245   6.823
15599SOL    HW159273   8.812   7.325   6.773
15599SOL    HW259274   8.786   7.164   6.765
15600SOL     OW59275   8.813   0.765   1.873
15600SOL    HW159276   8.717   0.764   1.902
15600SOL    HW259277   8.842   0.673   1.850
15601SOL     OW59278   8.268   5.421   0.673
15601SOL    HW159279   8.263   5.486   0.748
15601SOL    HW259280   8.292   5.331   0.708
15602SOL     OW59281   8.638   7.145   7.216
15602SOL    HW159282   8.589   7.173   7.133
15602SOL    HW259283   8.610   7.053   7.241
15603SOL     OW59284   8.194   0.517   7.112
15603SOL    HW159285   8.261   0.475   7.051
15603SOL    HW259286   8.133   0.447   7.148
15604SOL     OW59287   7.628   0.520   3.109
15604SOL    HW159288   7.642   0.588   3.037
15604SOL    HW259289   7.586   0.564   3.189
15605SOL     OW59290   8.728   2.838   6.451
15605SOL    HW159291   8.690   2.865   6.362
15605SOL    HW259292   8.726   2.738   6.460
15606SOL     OW59293   7.591   5.897   1.353
15606SOL    HW159294   7.501   5.870   1.386
15606SOL    HW259295   7.597   5.883   1.254
15607SOL     OW59296   8.104   3.157   1.864
15607SOL    HW159297   8.079   3.178   1.958
15607SOL    HW259298   8.064   3.226   1.803
15608SOL     OW59299   8.243   6.940   7.136
15608SOL    HW159300   8.288   6.967   7.051
15608SOL    HW259301   8.294   6.865   7.179
15609SOL     OW59302   7.414   4.572   3.175
15609SOL    HW159303   7.495   4.521   3.147
15609SOL    HW259304   7.342   4.560   3.107
15610SOL     OW59305   7.628   1.710   1.745
15610SOL    HW159306   7.593   1.667   1.662
15610SOL    HW259307   7.727   1.698   1.749
15611SOL     OW59308   7.999   3.898   2.325
15611SOL    HW159309   7.918   3.936   2.369
15611SOL    HW259310   8.082   3.932   2.370
15612SOL     OW59311   9.309   3.963   2.916
15612SOL    HW159312   9.305   4.034   2.986
15612SOL    HW259313   9.289   3.874   2.957
15613SOL     OW59314   8.055   3.044   6.578
15613SOL    HW159315   8.039   3.092   6.492
15613SOL    HW259316   8.010   3.093   6.653
15614SOL     OW59317   8.784   0.712   6.258
15614SOL    HW159318   8.783   0.791   6.197
15614SOL    HW259319   8.806   0.630   6.206
15615SOL     OW59320   7.386   1.741   0.596
15615SOL    HW159321   7.330   1.658   0.598
15615SOL    HW259322   7.410   1.767   0.689
15616SOL     OW59323   7.870   5.565   5.442
15616SOL    HW159324   7.918   5.544   5.356
15616SOL    HW259325   7.929   5.619   5.501
15617SOL     OW59326   7.906   0.056   5.561
15617SOL    HW159327   7.868   0.073   5.652
15617SOL    HW259328   7.979  -0.011   5.568
15618SOL     OW59329   7.712   1.138   5.324
15618SOL    HW159330   7.643   1.184   5.269
15618SOL    HW259331   7.802   1.178   5.306
15619SOL     OW59332   7.721   0.068   5.778
15619SOL    HW159333   7.697   0.049   5.874
15619SOL    HW259334   7.731   0.166   5.766
15620SOL     OW59335   7.522   0.237   2.702
15620SOL    HW159336   7.521   0.262   2.799
15620SOL    HW259337   7.604   0.274   2.659
15621SOL     OW59338   8.217   1.337   6.764
15621SOL    HW159339   8.298   1.369   6.814
15621SOL    HW259340   8.137   1.343   6.824
15622SOL     OW59341   7.877   2.036   4.000
15622SOL    HW159342   7.837   2.126   3.981
15622SOL    HW259343   7.805   1.968   4.006
15623SOL     OW59344   7.939   5.983   5.932
15623SOL    HW159345   7.905   6.063   5.982
15623SOL    HW259346   7.867   5.913   5.928
15624SOL     OW59347   8.053   7.271   0.740
15624SOL    HW159348   8.025   7.362   0.710
15624SOL    HW259349   8.029   7.259   0.837
15625SOL     OW59350   7.704   3.010   3.575
15625SOL    HW159351   7.688   2.947   3.652
15625SOL    HW259352   7.776   3.075   3.599
15626SOL     OW59353   8.746   2.062   1.047
15626SOL    HW159354   8.729   1.979   1.100
15626SOL    HW259355   8.695   2.138   1.087
15627SOL     OW59356   7.674   4.067   2.271
15627SOL    HW159357   7.732   4.037   2.347
15627SOL    HW259358   7.722   4.053   2.185
15628SOL     OW59359   8.716   7.271   6.296
15628SOL    HW159360   8.732   7.209   6.373
15628SOL    HW259361   8.644   7.234   6.238
15629SOL     OW59362   8.728   3.815   6.351
15629SOL    HW159363   8.782   3.857   6.278
15629SOL    HW259364   8.788   3.790   6.427
15630SOL     OW59365   8.256   5.684   4.775
15630SOL    HW159366   8.225   5.602   4.727
15630SOL    HW259367   8.225   5.765   4.726
15631SOL     OW59368   7.405   3.977   4.361
15631SOL    HW159369   7.433   3.948   4.269
15631SOL    HW259370   7.353   3.904   4.405
15632SOL     OW59371   8.596   2.311   3.165
15632SOL    HW159372   8.564   2.282   3.075
15632SOL    HW259373   8.696   2.321   3.164
15633SOL     OW59374   8.161   1.739   1.919
15633SOL    HW159375   8.148   1.835   1.944
15633SOL    HW259376   8.250   1.729   1.874
15634SOL     OW59377   8.590   1.438   0.093
15634SOL    HW159378   8.626   1.531   0.094
15634SOL    HW259379   8.506   1.435   0.038
15635SOL     OW59380   8.803   4.099   7.032
15635SOL    HW159381   8.813   4.168   7.104
15635SOL    HW259382   8.827   4.009   7.069
15636SOL     OW59383   8.337   4.764   4.019
15636SOL    HW159384   8.294   4.780   3.931
15636SOL    HW259385   8.407   4.834   4.036
15637SOL     OW59386   8.284   2.430   6.368
15637SOL    HW159387   8.270   2.382   6.281
15637SOL    HW259388   8.348   2.378   6.425
15638SOL     OW59389   8.810   3.812   0.588
15638SOL    HW159390   8.793   3.910   0.597
15638SOL    HW259391   8.902   3.791   0.620
15639SOL     OW59392   7.841   4.810   2.080
15639SOL    HW159393   7.780   4.732   2.094
15639SOL    HW259394   7.872   4.812   1.985
15640SOL     OW59395   7.521   6.144   7.095
15640SOL    HW159396   7.544   6.210   7.167
15640SOL    HW259397   7.427   6.113   7.107
15641SOL     OW59398   8.473   3.802   0.195
15641SOL    HW159399   8.408   3.738   0.156
15641SOL    HW259400   8.507   3.863   0.123
15642SOL     OW59401   8.779   1.101   2.929
15642SOL    HW159402   8.875   1.077   2.942
15642SOL    HW259403   8.722   1.036   2.979
15643SOL     OW59404   8.560   3.074   6.851
15643SOL    HW159405   8.637   3.029   6.896
15643SOL    HW259406   8.496   3.108   6.921
15644SOL     OW59407   7.683   3.844   4.954
15644SOL    HW159408   7.756   3.871   5.016
15644SOL    HW259409   7.597   3.887   4.984
15645SOL     OW59410   8.803   4.342   4.504
15645SOL    HW159411   8.771   4.248   4.519
15645SOL    HW259412   8.754   4.382   4.427
15646SOL     OW59413   7.731   3.973   7.092
15646SOL    HW159414   7.673   4.051   7.067
15646SOL    HW259415   7.749   3.918   7.010
15647SOL     OW59416   8.125   3.682   3.161
15647SOL    HW159417   8.031   3.677   3.194
15647SOL    HW259418   8.185   3.709   3.237
15648SOL     OW59419   9.018   0.667   5.480
15648SOL    HW159420   9.047   0.633   5.390
15648SOL    HW259421   9.071   0.621   5.551
15649SOL     OW59422   9.112   3.395   2.323
15649SOL    HW159423   9.052   3.340   2.265
15649SOL    HW259424   9.137   3.479   2.275
15650SOL     OW59425   7.879   3.444   3.958
15650SOL    HW159426   7.792   3.424   3.912
15650SOL    HW259427   7.952   3.451   3.891
15651SOL     OW59428   8.544   1.642   2.241
15651SOL    HW159429   8.526   1.584   2.320
15651SOL    HW259430   8.585   1.728   2.271
15652SOL     OW59431   7.908   3.463   3.142
15652SOL    HW159432   7.856   3.388   3.101
15652SOL    HW259433   8.000   3.466   3.102
15653SOL     OW59434   8.836   1.050   1.892
15653SOL    HW159435   8.829   0.952   1.909
15653SOL    HW259436   8.758   1.080   1.837
15654SOL     OW59437   9.142   4.207   3.980
15654SOL    HW159438   9.055   4.222   4.028
15654SOL    HW259439   9.217   4.234   4.039
15655SOL     OW59440   8.044   5.277   4.566
15655SOL    HW159441   8.060   5.194   4.513
15655SOL    HW259442   7.966   5.327   4.526
15656SOL     OW59443   8.809   5.063   6.908
15656SOL    HW159444   8.710   5.047   6.915
15656SOL    HW259445   8.837   5.058   6.812
15657SOL     OW59446   8.782   2.448   1.452
15657SOL    HW159447   8.782   2.548   1.452
15657SOL    HW259448   8.827   2.414   1.370
15658SOL     OW59449   8.126   3.583   0.766
15658SOL    HW159450   8.153   3.533   0.684
15658SOL    HW259451   8.145   3.527   0.847
15659SOL     OW59452   8.077   4.163   4.048
15659SOL    HW159453   8.040   4.078   4.009
15659SOL    HW259454   8.005   4.210   4.099
15660SOL     OW59455   7.722   4.445   1.189
15660SOL    HW159456   7.634   4.470   1.230
15660SOL    HW259457   7.774   4.390   1.254
15661SOL     OW59458   7.862   6.526   4.146
15661SOL    HW159459   7.895   6.475   4.066
15661SOL    HW259460   7.765   6.509   4.160
15662SOL     OW59461   7.705   5.857   5.816
15662SOL    HW159462   7.787   5.809   5.785
15662SOL    HW259463   7.705   5.950   5.779
15663SOL     OW59464   7.967   1.569   1.911
15663SOL    HW159465   7.887   1.597   1.965
15663SOL    HW259466   8.044   1.629   1.932
15664SOL     OW59467   8.291   1.581   1.169
15664SOL    HW159468   8.309   1.579   1.267
15664SOL    HW259469   8.376   1.600   1.119
15665SOL     OW59470   7.922   5.498   6.185
15665SOL    HW159471   7.859   5.527   6.258
15665SOL    HW259472   7.897   5.407   6.153
15666SOL     OW59473   8.522   7.147   6.132
15666SOL    HW159474   8.583   7.069   6.121
15666SOL    HW259475   8.435   7.128   6.086
15667SOL     OW59476   8.509   0.069   4.058
15667SOL    HW159477   8.455   0.044   4.139
15667SOL    HW259478   8.597   0.106   4.088
15668SOL     OW59479   8.033   3.675   5.843
15668SOL    HW159480   8.049   3.581   5.812
15668SOL    HW259481   8.113   3.730   5.823
15669SOL     OW59482   7.360   7.351   6.333
15669SOL    HW159483   7.277   7.359   6.278
15669SOL    HW259484   7.425   7.422   6.306
15670SOL     OW59485   8.180   4.002   4.779
15670SOL    HW159486   8.214   4.087   4.820
15670SOL    HW259487   8.212   3.924   4.834
15671SOL     OW59488   8.304   7.192   3.794
15671SOL    HW159489   8.292   7.144   3.707
15671SOL    HW259490   8.232   7.166   3.857
15672SOL     OW59491   8.302   1.179   0.718
15672SOL    HW159492   8.317   1.233   0.801
15672SOL    HW259493   8.336   1.229   0.639
15673SOL     OW59494   7.762   0.900   5.885
15673SOL    HW159495   7.850   0.946   5.898
15673SOL    HW259496   7.727   0.871   5.974
15674SOL     OW59497   7.789   2.190   0.446
15674SOL    HW159498   7.874   2.203   0.498
15674SOL    HW259499   7.734   2.274   0.451
15675SOL     OW59500   8.802   0.762   6.721
15675SOL    HW159501   8.707   0.757   6.689
15675SOL    HW259502   8.806   0.816   6.805
15676SOL     OW59503   7.524   6.394   6.719
15676SOL    HW159504   7.445   6.453   6.704
15676SOL    HW259505   7.540   6.383   6.817
15677SOL     OW59506   7.690   2.678   0.003
15677SOL    HW159507   7.754   2.732   0.058
15677SOL    HW259508   7.601   2.678   0.047
15678SOL     OW59509   8.602   4.648   1.030
15678SOL    HW159510   8.629   4.678   1.122
15678SOL    HW259511   8.647   4.561   1.009
15679SOL     OW59512   7.586   5.708   3.581
15679SOL    HW159513   7.565   5.792   3.531
15679SOL    HW259514   7.532   5.632   3.544
15680SOL     OW59515   9.050   4.599   5.866
15680SOL    HW159516   9.143   4.588   5.899
15680SOL    HW259517   9.048   4.669   5.794
15681SOL     OW59518   7.427   3.002   5.582
15681SOL    HW159519   7.349   2.941   5.571
15681SOL    HW259520   7.414   3.083   5.524
15682SOL     OW59521   8.626   4.978   1.423
15682SOL    HW159522   8.696   5.029   1.474
15682SOL    HW259523   8.544   4.969   1.478
15683SOL     OW59524   7.396   5.011   0.568
15683SOL    HW159525   7.436   5.065   0.643
15683SOL    HW259526   7.370   5.072   0.494
15684SOL     OW59527   7.415   1.158   7.114
15684SOL    HW159528   7.476   1.108   7.052
15684SOL    HW259529   7.449   1.252   7.125
15685SOL     OW59530   8.585   1.200   3.247
15685SOL    HW159531   8.609   1.275   3.308
15685SOL    HW259532   8.663   1.139   3.235
15686SOL     OW59533   8.812   2.650   7.332
15686SOL    HW159534   8.872   2.579   7.370
15686SOL    HW259535   8.777   2.707   7.406
15687SOL     OW59536   7.756   4.835   3.484
15687SOL    HW159537   7.842   4.785   3.472
15687SOL    HW259538   7.704   4.834   3.399
15688SOL     OW59539   8.748   2.561   6.108
15688SOL    HW159540   8.673   2.618   6.143
15688SOL    HW259541   8.766   2.585   6.013
15689SOL     OW59542   7.643   4.663   5.408
15689SOL    HW159543   7.703   4.683   5.486
15689SOL    HW259544   7.687   4.692   5.323
15690SOL     OW59545   8.004   5.343   2.345
15690SOL    HW159546   8.063   5.423   2.360
15690SOL    HW259547   8.029   5.300   2.259
15691SOL     OW59548   8.773   5.342   6.870
15691SOL    HW159549   8.860   5.295   6.887
15691SOL    HW259550   8.698   5.276   6.872
15692SOL     OW59551   8.892   1.536   0.022
15692SOL    HW159552   8.940   1.454   0.051
15692SOL    HW259553   8.944   1.584  -0.048
15693SOL     OW59554   8.918   1.633   3.673
15693SOL    HW159555   8.990   1.579   3.629
15693SOL    HW259556   8.846   1.651   3.606
15694SOL     OW59557   7.736   1.703   2.832
15694SOL    HW159558   7.732   1.614   2.877
15694SOL    HW259559   7.712   1.694   2.736
15695SOL     OW59560   8.335   4.628   5.364
15695SOL    HW159561   8.259   4.613   5.427
15695SOL    HW259562   8.418   4.647   5.416
15696SOL     OW59563   7.528   1.454   7.070
15696SOL    HW159564   7.441   1.491   7.102
15696SOL    HW259565   7.554   1.499   6.984
15697SOL     OW59566   8.323   2.984   1.609
15697SOL    HW159567   8.230   3.018   1.599
15697SOL    HW259568   8.351   2.988   1.705
15698SOL     OW59569   7.504   2.224   6.308
15698SOL    HW159570   7.564   2.276   6.369
15698SOL    HW259571   7.413   2.267   6.306
15699SOL     OW59572   8.915   4.140   3.779
15699SOL    HW159573   8.967   4.152   3.864
15699SOL    HW259574   8.818   4.152   3.798
15700SOL     OW59575   7.565   0.327   1.003
15700SOL    HW159576   7.634   0.381   1.051
15700SOL    HW259577   7.493   0.387   0.969
15701SOL     OW59578   7.725   6.347   2.592
15701SOL    HW159579   7.797   6.311   2.651
15701SOL    HW259580   7.671   6.415   2.642
15702SOL     OW59581   8.323   4.541   2.006
15702SOL    HW159582   8.248   4.590   2.049
15702SOL    HW259583   8.291   4.496   1.923
15703SOL     OW59584   7.955   3.089   6.268
15703SOL    HW159585   8.015   3.170   6.275
15703SOL    HW259586   7.874   3.113   6.214
15704SOL     OW59587   8.396   4.834   0.740
15704SOL    HW159588   8.490   4.801   0.748
15704SOL    HW259589   8.345   4.773   0.679
15705SOL     OW59590   7.681   4.338   6.614
15705SOL    HW159591   7.756   4.272   6.624
15705SOL    HW259592   7.680   4.373   6.520
15706SOL     OW59593   8.098   1.561   0.403
15706SOL    HW159594   8.007   1.590   0.432
15706SOL    HW259595   8.158   1.556   0.483
15707SOL     OW59596   8.090   6.593   6.157
15707SOL    HW159597   8.040   6.670   6.118
15707SOL    HW259598   8.039   6.556   6.235
15708SOL     OW59599   8.097   3.293   2.883
15708SOL    HW159600   8.140   3.361   2.942
15708SOL    HW259601   8.151   3.209   2.885
15709SOL     OW59602   7.645   3.164   5.158
15709SOL    HW159603   7.670   3.134   5.066
15709SOL    HW259604   7.727   3.173   5.214
15710SOL     OW59605   8.256   5.533   0.952
15710SOL    HW159606   8.174   5.492   0.913
15710SOL    HW259607   8.230   5.604   1.018
15711SOL     OW59608   7.604   5.850   1.075
15711SOL    HW159609   7.689   5.797   1.086
15711SOL    HW259610   7.613   5.911   0.997
15712SOL     OW59611   8.432   1.949   4.108
15712SOL    HW159612   8.459   1.959   4.012
15712SOL    HW259613   8.333   1.947   4.115
15713SOL     OW59614   8.207   3.102   5.177
15713SOL    HW159615   8.153   3.186   5.174
15713SOL    HW259616   8.252   3.088   5.089
15714SOL     OW59617   8.521   4.295   0.577
15714SOL    HW159618   8.502   4.264   0.484
15714SOL    HW259619   8.582   4.375   0.574
15715SOL     OW59620   8.519   0.178   1.184
15715SOL    HW159621   8.463   0.187   1.102
15715SOL    HW259622   8.460   0.182   1.265
15716SOL     OW59623   8.943   5.813   0.316
15716SOL    HW159624   9.029   5.763   0.327
15716SOL    HW259625   8.960   5.911   0.330
15717SOL     OW59626   8.329   5.349   4.421
15717SOL    HW159627   8.251   5.411   4.411
15717SOL    HW259628   8.305   5.260   4.384
15718SOL     OW59629   8.670   4.733   1.561
15718SOL    HW159630   8.609   4.748   1.639
15718SOL    HW259631   8.693   4.821   1.520
15719SOL     OW59632   7.420   1.089   2.645
15719SOL    HW159633   7.509   1.050   2.624
15719SOL    HW259634   7.361   1.018   2.684
15720SOL     OW59635   7.547   4.861   5.819
15720SOL    HW159636   7.507   4.924   5.885
15720SOL    HW259637   7.491   4.860   5.736
15721SOL     OW59638   7.404   3.758   2.989
15721SOL    HW159639   7.347   3.742   2.908
15721SOL    HW259640   7.418   3.856   3.000
15722SOL     OW59641   7.561   2.458   7.138
15722SOL    HW159642   7.545   2.406   7.054
15722SOL    HW259643   7.655   2.493   7.138
15723SOL     OW59644   8.492   1.852   0.779
15723SOL    HW159645   8.400   1.829   0.745
15723SOL    HW259646   8.553   1.864   0.701
15724SOL     OW59647   8.493   1.522   3.667
15724SOL    HW159648   8.537   1.608   3.642
15724SOL    HW259649   8.476   1.520   3.765
15725SOL     OW59650   8.898   2.192   6.156
15725SOL    HW159651   8.827   2.233   6.213
15725SOL    HW259652   8.947   2.123   6.208
15726SOL     OW59653   8.683   1.826   0.594
15726SOL    HW159654   8.752   1.856   0.528
15726SOL    HW259655   8.716   1.745   0.642
15727SOL     OW59656   8.871   5.204   4.642
15727SOL    HW159657   8.875   5.164   4.550
15727SOL    HW259658   8.849   5.302   4.635
15728SOL     OW59659   8.930   2.352   0.194
15728SOL    HW159660   8.866   2.279   0.170
15728SOL    HW259661   8.999   2.361   0.121
15729SOL     OW59662   8.902   2.267   5.592
15729SOL    HW159663   8.812   2.309   5.579
15729SOL    HW259664   8.912   2.239   5.688
15730SOL     OW59665   7.525   5.575   2.018
15730SOL    HW159666   7.432   5.585   2.054
15730SOL    HW259667   7.587   5.632   2.071
15731SOL     OW59668   7.471   2.456   5.057
15731SOL    HW159669   7.563   2.445   5.095
15731SOL    HW259670   7.434   2.544   5.085
15732SOL     OW59671   8.501   0.024   3.794
15732SOL    HW159672   8.425  -0.037   3.774
15732SOL    HW259673   8.510   0.036   3.893
15733SOL     OW59674   7.770   1.036   1.463
15733SOL    HW159675   7.717   0.952   1.449
15733SOL    HW259676   7.786   1.080   1.374
15734SOL     OW59677   8.560   5.006   0.956
15734SOL    HW159678   8.500   4.947   0.902
15734SOL    HW259679   8.594   5.080   0.898
15735SOL     OW59680   7.545   4.178   0.233
15735SOL    HW159681   7.553   4.199   0.135
15735SOL    HW259682   7.523   4.081   0.244
15736SOL     OW59683   7.479   3.616   0.194
15736SOL    HW159684   7.489   3.715   0.181
15736SOL    HW259685   7.389   3.587   0.163
15737SOL     OW59686   8.784   4.280   2.167
15737SOL    HW159687   8.794   4.199   2.110
15737SOL    HW259688   8.823   4.359   2.119
15738SOL     OW59689   7.497   2.252   6.951
15738SOL    HW159690   7.435   2.197   7.007
15738SOL    HW259691   7.591   2.224   6.967
15739SOL     OW59692   8.406   5.714   0.377
15739SOL    HW159693   8.376   5.730   0.283
15739SOL    HW259694   8.398   5.616   0.398
15740SOL     OW59695   7.585   4.829   3.284
15740SOL    HW159696   7.541   4.749   3.243
15740SOL    HW259697   7.523   4.906   3.282
15741SOL     OW59698   7.848   5.741   1.059
15741SOL    HW159699   7.882   5.669   0.998
15741SOL    HW259700   7.911   5.819   1.058
15742SOL     OW59701   8.061   1.760   6.801
15742SOL    HW159702   7.989   1.700   6.838
15742SOL    HW259703   8.068   1.746   6.703
15743SOL     OW59704   7.590   6.350   7.263
15743SOL    HW159705   7.534   6.399   7.330
15743SOL    HW259706   7.605   6.408   7.183
15744SOL     OW59707   7.681   6.722   7.158
15744SOL    HW159708   7.664   6.721   7.257
15744SOL    HW259709   7.714   6.812   7.131
15745SOL     OW59710   8.132   5.502   0.151
15745SOL    HW159711   8.041   5.525   0.116
15745SOL    HW259712   8.126   5.485   0.250
15746SOL     OW59713   7.598   3.385   5.310
15746SOL    HW159714   7.542   3.405   5.391
15746SOL    HW259715   7.599   3.286   5.294
15747SOL     OW59716   8.721   0.393   7.225
15747SOL    HW159717   8.725   0.352   7.134
15747SOL    HW259718   8.666   0.335   7.286
15748SOL     OW59719   7.706   6.390   0.274
15748SOL    HW159720   7.764   6.309   0.280
15748SOL    HW259721   7.730   6.442   0.192
15749SOL     OW59722   8.271   1.767   6.295
15749SOL    HW159723   8.223   1.828   6.357
15749SOL    HW259724   8.247   1.790   6.201
15750SOL     OW59725   7.483   1.512   1.592
15750SOL    HW159726   7.537   1.481   1.514
15750SOL    HW259727   7.430   1.435   1.628
15751SOL     OW59728   7.556   0.670   5.407
15751SOL    HW159729   7.521   0.736   5.473
15751SOL    HW259730   7.624   0.714   5.349
15752SOL     OW59731   8.596   6.467   0.672
15752SOL    HW159732   8.524   6.440   0.607
15752SOL    HW259733   8.554   6.514   0.750
15753SOL     OW59734   8.673   2.421   2.291
15753SOL    HW159735   8.675   2.321   2.296
15753SOL    HW259736   8.734   2.460   2.359
15754SOL     OW59737   7.988   7.316   1.907
15754SOL    HW159738   8.038   7.344   1.989
15754SOL    HW259739   8.022   7.368   1.828
15755SOL     OW59740   7.783   6.635   4.962
15755SOL    HW159741   7.872   6.589   4.968
15755SOL    HW259742   7.752   6.660   5.053
15756SOL     OW59743   8.254   1.564   7.077
15756SOL    HW159744   8.193   1.485   7.087
15756SOL    HW259745   8.348   1.537   7.101
15757SOL     OW59746   8.158   4.305   0.706
15757SOL    HW159747   8.114   4.358   0.779
15757SOL    HW259748   8.245   4.268   0.739
15758SOL     OW59749   7.559   0.853   0.608
15758SOL    HW159750   7.621   0.932   0.609
15758SOL    HW259751   7.465   0.885   0.619
15759SOL     OW59752   8.799   2.041   7.042
15759SOL    HW159753   8.745   2.032   7.125
15759SOL    HW259754   8.848   1.955   7.024
15760SOL     OW59755   8.433   2.076   0.023
15760SOL    HW159756   8.441   2.144  -0.050
15760SOL    HW259757   8.484   1.994  -0.002
15761SOL     OW59758   8.294   3.810   0.798
15761SOL    HW159759   8.243   3.744   0.742
15761SOL    HW259760   8.382   3.829   0.755
15762SOL     OW59761   8.449   4.754   1.748
15762SOL    HW159762   8.497   4.832   1.789
15762SOL    HW259763   8.374   4.726   1.807
15763SOL     OW59764   7.944   2.237   6.652
15763SOL    HW159765   7.951   2.295   6.733
15763SOL    HW259766   8.020   2.171   6.652
15764SOL     OW59767   8.142   4.211   7.183
15764SOL    HW159768   8.185   4.123   7.161
15764SOL    HW259769   8.048   4.195   7.211
15765SOL     OW59770   7.460   4.112   5.314
15765SOL    HW159771   7.446   4.185   5.381
15765SOL    HW259772   7.550   4.071   5.327
15766SOL     OW59773   7.643   0.157   1.636
15766SOL    HW159774   7.639   0.063   1.602
15766SOL    HW259775   7.602   0.219   1.569
15767SOL     OW59776   7.562   5.233   5.847
15767SOL    HW159777   7.566   5.183   5.760
15767SOL    HW259778   7.598   5.325   5.834
15768SOL     OW59779   8.081   3.652   4.924
15768SOL    HW159780   8.010   3.699   4.870
15768SOL    HW259781   8.101   3.563   4.884
15769SOL     OW59782   8.194   1.884   1.042
15769SOL    HW159783   8.250   1.802   1.054
15769SOL    HW259784   8.237   1.944   0.974
15770SOL     OW59785   8.481   4.600   2.406
15770SOL    HW159786   8.460   4.524   2.345
15770SOL    HW259787   8.577   4.626   2.396
15771SOL     OW59788   7.687   1.419   2.845
15771SOL    HW159789   7.613   1.460   2.793
15771SOL    HW259790   7.758   1.386   2.782
15772SOL     OW59791   8.038   6.945   0.664
15772SOL    HW159792   7.991   7.001   0.733
15772SOL    HW259793   8.135   6.969   0.662
15773SOL     OW59794   7.530   7.204   2.730
15773SOL    HW159795   7.541   7.233   2.825
15773SOL    HW259796   7.502   7.108   2.727
15774SOL     OW59797   7.777   0.431   1.176
15774SOL    HW159798   7.858   0.471   1.134
15774SOL    HW259799   7.773   0.457   1.272
15775SOL     OW59800   9.008   3.638   4.604
15775SOL    HW159801   9.015   3.566   4.674
15775SOL    HW259802   9.095   3.685   4.595
15776SOL     OW59803   8.441   3.317   3.862
15776SOL    HW159804   8.496   3.319   3.945
15776SOL    HW259805   8.437   3.409   3.823
15777SOL     OW59806   8.671   4.192   1.083
15777SOL    HW159807   8.623   4.138   1.014
15777SOL    HW259808   8.746   4.138   1.121
15778SOL     OW59809   7.556   4.737   1.226
15778SOL    HW159810   7.571   4.716   1.129
15778SOL    HW259811   7.458   4.744   1.244
15779SOL     OW59812   8.641   4.222   0.056
15779SOL    HW159813   8.702   4.260  -0.014
15779SOL    HW259814   8.695   4.196   0.136
15780SOL     OW59815   8.453   5.778   7.235
15780SOL    HW159816   8.402   5.721   7.171
15780SOL    HW259817   8.491   5.857   7.186
15781SOL     OW59818   7.714   0.151   1.899
15781SOL    HW159819   7.691   0.164   1.802
15781SOL    HW259820   7.743   0.057   1.915
15782SOL     OW59821   7.803   4.405   7.292
15782SOL    HW159822   7.829   4.309   7.283
15782SOL    HW259823   7.854   4.447   7.367
15783SOL     OW59824   8.748   2.373   6.319
15783SOL    HW159825   8.757   2.451   6.257
15783SOL    HW259826   8.694   2.401   6.399
15784SOL     OW59827   8.293   5.292   4.819
15784SOL    HW159828   8.333   5.263   4.733
15784SOL    HW259829   8.307   5.222   4.889
15785SOL     OW59830   8.313   6.291   6.699
15785SOL    HW159831   8.356   6.360   6.641
15785SOL    HW259832   8.354   6.295   6.791
15786SOL     OW59833   8.326   5.397   7.351
15786SOL    HW159834   8.408   5.393   7.409
15786SOL    HW259835   8.252   5.443   7.400
15787SOL     OW59836   7.417   4.832   4.680
15787SOL    HW159837   7.396   4.806   4.586
15787SOL    HW259838   7.421   4.750   4.737
15788SOL     OW59839   8.741   0.621   2.681
15788SOL    HW159840   8.687   0.565   2.619
15788SOL    HW259841   8.755   0.573   2.767
15789SOL     OW59842   7.366   3.592   2.380
15789SOL    HW159843   7.288   3.561   2.434
15789SOL    HW259844   7.365   3.546   2.291
15790SOL     OW59845   8.308   1.309   6.497
15790SOL    HW159846   8.334   1.397   6.456
15790SOL    HW259847   8.285   1.323   6.594
15791SOL     OW59848   8.727   2.086   0.753
15791SOL    HW159849   8.731   2.080   0.853
15791SOL    HW259850   8.722   1.994   0.714
15792SOL     OW59851   8.120   6.530   6.863
15792SOL    HW159852   8.193   6.544   6.796
15792SOL    HW259853   8.100   6.616   6.910
15793SOL     OW59854   8.019   4.977   6.874
15793SOL    HW159855   7.989   4.892   6.918
15793SOL    HW259856   8.090   4.957   6.807
15794SOL     OW59857   8.677   6.947   6.739
15794SOL    HW159858   8.772   6.932   6.767
15794SOL    HW259859   8.618   6.884   6.790
15795SOL     OW59860   8.176   4.065   2.458
15795SOL    HW159861   8.223   4.104   2.538
15795SOL    HW259862   8.148   4.139   2.397
15796SOL     OW59863   8.929   2.827   6.626
15796SOL    HW159864   9.007   2.882   6.596
15796SOL    HW259865   8.852   2.842   6.564
15797SOL     OW59866   8.383   1.715   1.409
15797SOL    HW159867   8.350   1.679   1.496
15797SOL    HW259868   8.351   1.809   1.397
15798SOL     OW59869   8.098   2.860   6.310
15798SOL    HW159870   8.064   2.953   6.295
15798SOL    HW259871   8.072   2.829   6.401
15799SOL     OW59872   8.081   2.918   1.363
15799SOL    HW159873   8.062   2.997   1.421
15799SOL    HW259874   8.179   2.898   1.364
15800SOL     OW59875   8.235   2.852   6.621
15800SOL    HW159876   8.175   2.928   6.596
15800SOL    HW259877   8.330   2.884   6.622
15801SOL     OW59878   8.438   2.577   2.927
15801SOL    HW159879   8.502   2.605   2.998
15801SOL    HW259880   8.361   2.530   2.968
15802SOL     OW59881   7.585   5.136   5.581
15802SOL    HW159882   7.581   5.070   5.506
15802SOL    HW259883   7.680   5.164   5.595
15803SOL     OW59884   7.911   1.869   2.214
15803SOL    HW159885   7.944   1.881   2.308
15803SOL    HW259886   7.987   1.880   2.150
15804SOL     OW59887   8.515   3.353   5.251
15804SOL    HW159888   8.422   3.387   5.267
15804SOL    HW259889   8.523   3.319   5.158
15805SOL     OW59890   7.412   4.140   2.240
15805SOL    HW159891   7.339   4.077   2.266
15805SOL    HW259892   7.500   4.093   2.248
15806SOL     OW59893   8.440   5.702   1.603
15806SOL    HW159894   8.445   5.757   1.686
15806SOL    HW259895   8.519   5.642   1.598
15807SOL     OW59896   8.462   0.649   3.773
15807SOL    HW159897   8.374   0.673   3.732
15807SOL    HW259898   8.450   0.632   3.871
15808SOL     OW59899   8.719   2.914   5.199
15808SOL    HW159900   8.758   2.941   5.110
15808SOL    HW259901   8.621   2.934   5.200
15809SOL     OW59902   8.668   1.913   2.826
15809SOL    HW159903   8.719   1.831   2.853
15809SOL    HW259904   8.636   1.960   2.908
15810SOL     OW59905   8.185   1.721   3.568
15810SOL    HW159906   8.158   1.630   3.600
15810SOL    HW259907   8.212   1.717   3.472
15811SOL     OW59908   8.876   1.107   7.166
15811SOL    HW159909   8.920   1.057   7.241
15811SOL    HW259910   8.829   1.187   7.202
15812SOL     OW59911   8.150   1.431   2.727
15812SOL    HW159912   8.192   1.455   2.815
15812SOL    HW259913   8.130   1.514   2.675
15813SOL     OW59914   7.989   1.877   0.839
15813SOL    HW159915   8.040   1.884   0.925
15813SOL    HW259916   8.030   1.937   0.770
15814SOL     OW59917   8.373   0.408   6.926
15814SOL    HW159918   8.458   0.459   6.929
15814SOL    HW259919   8.387   0.321   6.878
15815SOL     OW59920   8.101   5.577   5.988
15815SOL    HW159921   8.034   5.544   6.055
15815SOL    HW259922   8.117   5.674   6.002
15816SOL     OW59923   8.687   0.812   5.599
15816SOL    HW159924   8.755   0.817   5.672
15816SOL    HW259925   8.704   0.732   5.541
15817SOL     OW59926   8.805   4.468   5.914
15817SOL    HW159927   8.874   4.536   5.891
15817SOL    HW259928   8.825   4.382   5.867
15818SOL     OW59929   8.898   6.513   6.956
15818SOL    HW159930   8.885   6.531   6.858
15818SOL    HW259931   8.954   6.431   6.968
15819SOL     OW59932   7.677   6.971   5.031
15819SOL    HW159933   7.753   6.958   4.966
15819SOL    HW259934   7.688   6.907   5.107
15820SOL     OW59935   8.565   4.643   6.961
15820SOL    HW159936   8.547   4.551   6.998
15820SOL    HW259937   8.478   4.686   6.939
15821SOL     OW59938   7.389   0.910   6.163
15821SOL    HW159939   7.299   0.874   6.189
15821SOL    HW259940   7.393   0.921   6.064
15822SOL     OW59941   8.433   5.953   1.151
15822SOL    HW159942   8.499   5.944   1.077
15822SOL    HW259943   8.451   6.037   1.201
15823SOL     OW59944   8.056   3.199   1.446
15823SOL    HW159945   8.014   3.266   1.384
15823SOL    HW259946   8.057   3.236   1.539
15824SOL     OW59947   7.743   6.085   5.673
15824SOL    HW159948   7.688   6.166   5.652
15824SOL    HW259949   7.839   6.111   5.679
15825SOL     OW59950   8.022   3.950   2.999
15825SOL    HW159951   8.053   3.870   3.050
15825SOL    HW259952   8.080   4.029   3.021
15826SOL     OW59953   8.949   1.505   1.265
15826SOL    HW159954   8.953   1.471   1.359
15826SOL    HW259955   8.866   1.471   1.221
15827SOL     OW59956   7.471   6.494   0.348
15827SOL    HW159957   7.558   6.446   0.340
15827SOL    HW259958   7.425   6.466   0.432
15828SOL     OW59959   8.845   2.344   2.719
15828SOL    HW159960   8.883   2.354   2.627
15828SOL    HW259961   8.746   2.355   2.716
15829SOL     OW59962   8.677   4.469   4.279
15829SOL    HW159963   8.583   4.434   4.277
15829SOL    HW259964   8.681   4.557   4.232
15830SOL     OW59965   8.744   4.967   1.185
15830SOL    HW159966   8.684   4.965   1.105
15830SOL    HW259967   8.688   4.976   1.268
15831SOL     OW59968   7.582   7.102   1.297
15831SOL    HW159969   7.489   7.138   1.310
15831SOL    HW259970   7.578   7.002   1.292
15832SOL     OW59971   7.877   2.905   7.164
15832SOL    HW159972   7.840   2.894   7.072
15832SOL    HW259973   7.840   2.988   7.206
15833SOL     OW59974   8.246   3.188   7.240
15833SOL    HW159975   8.152   3.216   7.218
15833SOL    HW259976   8.270   3.220   7.331
15834SOL     OW59977   7.858   1.346   2.618
15834SOL    HW159978   7.817   1.280   2.554
15834SOL    HW259979   7.894   1.424   2.567
15835SOL     OW59980   8.413   4.215   1.441
15835SOL    HW159981   8.452   4.273   1.369
15835SOL    HW259982   8.441   4.249   1.531
15836SOL     OW59983   8.546   1.366   1.587
15836SOL    HW159984   8.450   1.394   1.583
15836SOL    HW259985   8.602   1.444   1.613
15837SOL     OW59986   8.387   5.005   1.588
15837SOL    HW159987   8.415   5.004   1.684
15837SOL    HW259988   8.330   5.086   1.571
15838SOL     OW59989   8.485   2.480   5.245
15838SOL    HW159990   8.579   2.505   5.268
15838SOL    HW259991   8.428   2.562   5.243
15839SOL     OW59992   9.200   6.435   1.051
15839SOL    HW159993   9.271   6.504   1.038
15839SOL    HW259994   9.232   6.347   1.014
15840SOL     OW59995   8.061   3.553   4.342
15840SOL    HW159996   8.037   3.473   4.287
15840SOL    HW259997   7.983   3.616   4.343
15841SOL     OW59998   8.450   3.238   5.945
15841SOL    HW159999   8.369   3.288   5.976
15841SOL    HW260000   8.514   3.302   5.903
15842SOL     OW60001   7.928   5.486   0.964
15842SOL    HW160002   7.870   5.431   0.904
15842SOL    HW260003   7.995   5.426   1.009
15843SOL     OW60004   9.002   4.170   0.457
15843SOL    HW160005   8.965   4.238   0.394
15843SOL    HW260006   9.093   4.143   0.426
15844SOL     OW60007   8.274   0.893   6.875
15844SOL    HW160008   8.272   0.796   6.852
15844SOL    HW260009   8.233   0.946   6.801
15845SOL     OW60010   7.949   5.159   3.787
15845SOL    HW160011   7.935   5.184   3.883
15845SOL    HW260012   7.960   5.242   3.732
15846SOL     OW60013   7.369   0.368   7.176
15846SOL    HW160014   7.354   0.463   7.146
15846SOL    HW260015   7.314   0.307   7.120
15847SOL     OW60016   8.933   0.061   6.682
15847SOL    HW160017   9.001   0.130   6.709
15847SOL    HW260018   8.962   0.018   6.596
15848SOL     OW60019   8.616   4.697   3.615
15848SOL    HW160020   8.551   4.627   3.589
15848SOL    HW260021   8.649   4.745   3.534
15849SOL     OW60022   7.870   0.533   2.122
15849SOL    HW160023   7.926   0.587   2.059
15849SOL    HW260024   7.784   0.508   2.077
15850SOL     OW60025   8.909   1.643   1.551
15850SOL    HW160026   8.900   1.559   1.605
15850SOL    HW260027   8.868   1.630   1.461
15851SOL     OW60028   7.652   1.319   0.358
15851SOL    HW160029   7.752   1.330   0.359
15851SOL    HW260030   7.630   1.223   0.343
15852SOL     OW60031   8.347   6.605   7.038
15852SOL    HW160032   8.337   6.506   7.050
15852SOL    HW260033   8.332   6.651   7.126
15853SOL     OW60034   7.514   2.660   1.106
15853SOL    HW160035   7.524   2.576   1.052
15853SOL    HW260036   7.605   2.692   1.134
15854SOL     OW60037   8.492   5.666   0.884
15854SOL    HW160038   8.503   5.764   0.902
15854SOL    HW260039   8.398   5.639   0.900
15855SOL     OW60040   8.927   3.935   6.203
15855SOL    HW160041   8.991   3.953   6.128
15855SOL    HW260042   8.942   4.002   6.276
15856SOL     OW60043   8.861   7.109   7.063
15856SOL    HW160044   8.795   7.107   7.138
15856SOL    HW260045   8.834   7.178   6.997
15857SOL     OW60046   8.933   2.445   0.845
15857SOL    HW160047   8.956   2.352   0.873
15857SOL    HW260048   8.876   2.442   0.763
15858SOL     OW60049   8.309   2.086   0.861
15858SOL    HW160050   8.333   2.181   0.880
15858SOL    HW260051   8.393   2.033   0.844
15859SOL     OW60052   8.117   1.671   2.587
15859SOL    HW160053   8.199   1.655   2.532
15859SOL    HW260054   8.036   1.656   2.531
15860SOL     OW60055   7.589   5.733   6.036
15860SOL    HW160056   7.609   5.784   6.119
15860SOL    HW260057   7.624   5.782   5.957
15861SOL     OW60058   8.843   0.998   3.744
15861SOL    HW160059   8.858   0.919   3.684
15861SOL    HW260060   8.872   1.082   3.697
15862SOL     OW60061   8.176   3.206   3.966
15862SOL    HW160062   8.258   3.249   3.929
15862SOL    HW260063   8.142   3.137   3.902
15863SOL     OW60064   8.737   3.145   0.847
15863SOL    HW160065   8.735   3.228   0.792
15863SOL    HW260066   8.653   3.093   0.831
15864SOL     OW60067   8.795   3.231   3.331
15864SOL    HW160068   8.841   3.155   3.285
15864SOL    HW260069   8.819   3.231   3.428
15865SOL     OW60070   8.286   2.838   6.098
15865SOL    HW160071   8.352   2.766   6.120
15865SOL    HW260072   8.229   2.856   6.178
15866SOL     OW60073   7.712   1.645   1.992
15866SOL    HW160074   7.639   1.655   1.925
15866SOL    HW260075   7.694   1.566   2.050
15867SOL     OW60076   7.980   5.714   1.590
15867SOL    HW160077   7.904   5.776   1.612
15867SOL    HW260078   7.974   5.686   1.494
15868SOL     OW60079   8.342   3.349   0.165
15868SOL    HW160080   8.324   3.447   0.174
15868SOL    HW260081   8.391   3.316   0.246
15869SOL     OW60082   8.235   3.638   6.424
15869SOL    HW160083   8.329   3.645   6.456
15869SOL    HW260084   8.195   3.552   6.454
15870SOL     OW60085   8.446   0.798   5.750
15870SOL    HW160086   8.520   0.811   5.684
15870SOL    HW260087   8.364   0.766   5.702
15871SOL     OW60088   7.623   0.085   2.302
15871SOL    HW160089   7.676   0.170   2.307
15871SOL    HW260090   7.592   0.060   2.394
15872SOL     OW60091   7.734   6.509   1.431
15872SOL    HW160092   7.710   6.415   1.410
15872SOL    HW260093   7.728   6.524   1.530
15873SOL     OW60094   8.044   7.109   7.238
15873SOL    HW160095   8.129   7.058   7.221
15873SOL    HW260096   8.053   7.161   7.323
15874SOL     OW60097   7.974   7.341   1.506
15874SOL    HW160098   8.026   7.392   1.575
15874SOL    HW260099   8.035   7.313   1.432
15875SOL     OW60100   8.063   6.684   7.275
15875SOL    HW160101   8.144   6.708   7.330
15875SOL    HW260102   8.079   6.713   7.180
15876SOL     OW60103   8.494   4.576   3.917
15876SOL    HW160104   8.416   4.615   3.965
15876SOL    HW260105   8.518   4.634   3.839
15877SOL     OW60106   7.517   3.090   6.376
15877SOL    HW160107   7.533   3.105   6.279
15877SOL    HW260108   7.605   3.078   6.422
15878SOL     OW60109   8.714   4.835   0.139
15878SOL    HW160110   8.704   4.801   0.046
15878SOL    HW260111   8.791   4.789   0.184
15879SOL     OW60112   8.622   6.130   6.010
15879SOL    HW160113   8.563   6.201   5.972
15879SOL    HW260114   8.568   6.068   6.067
15880SOL     OW60115   8.362   0.056   2.609
15880SOL    HW160116   8.329   0.151   2.612
15880SOL    HW260117   8.303   0.003   2.548
15881SOL     OW60118   8.479   2.195   2.890
15881SOL    HW160119   8.549   2.123   2.900
15881SOL    HW260120   8.459   2.207   2.793
15882SOL     OW60121   8.803   0.963   6.962
15882SOL    HW160122   8.710   0.974   6.926
15882SOL    HW260123   8.812   1.015   7.047
15883SOL     OW60124   8.162   7.127   5.266
15883SOL    HW160125   8.142   7.216   5.224
15883SOL    HW260126   8.094   7.060   5.236
15884SOL     OW60127   8.363   2.829   4.709
15884SOL    HW160128   8.349   2.894   4.634
15884SOL    HW260129   8.443   2.772   4.689
15885SOL     OW60130   7.644   6.734   5.581
15885SOL    HW160131   7.616   6.695   5.493
15885SOL    HW260132   7.735   6.775   5.571
15886SOL     OW60133   7.976   5.097   2.500
15886SOL    HW160134   7.960   5.188   2.462
15886SOL    HW260135   7.905   5.034   2.468
15887SOL     OW60136   7.724   5.682   4.791
15887SOL    HW160137   7.638   5.729   4.811
15887SOL    HW260138   7.705   5.593   4.750
15888SOL     OW60139   7.458   3.802   5.551
15888SOL    HW160140   7.385   3.744   5.589
15888SOL    HW260141   7.468   3.784   5.454
15889SOL     OW60142   8.704   2.951   2.594
15889SOL    HW160143   8.656   2.868   2.621
15889SOL    HW260144   8.672   3.027   2.650
15890SOL     OW60145   9.150   3.701   4.330
15890SOL    HW160146   9.236   3.660   4.301
15890SOL    HW260147   9.074   3.643   4.300
15891SOL     OW60148   8.052   6.801   7.000
15891SOL    HW160149   8.106   6.879   7.030
15891SOL    HW260150   7.961   6.831   6.972
15892SOL     OW60151   7.659   0.113   6.063
15892SOL    HW160152   7.607   0.029   6.048
15892SOL    HW260153   7.613   0.169   6.131
15893SOL     OW60154   8.651   2.086   6.037
15893SOL    HW160155   8.743   2.124   6.034
15893SOL    HW260156   8.599   2.120   5.959
15894SOL     OW60157   8.395   6.741   7.293
15894SOL    HW160158   8.489   6.738   7.325
15894SOL    HW260159   8.335   6.772   7.366
15895SOL     OW60160   8.572   0.037   2.321
15895SOL    HW160161   8.666   0.071   2.319
15895SOL    HW260162   8.565  -0.040   2.383
15896SOL     OW60163   7.444   6.839   5.716
15896SOL    HW160164   7.498   6.799   5.641
15896SOL    HW260165   7.387   6.913   5.680
15897SOL     OW60166   8.272   2.371   3.596
15897SOL    HW160167   8.207   2.330   3.532
15897SOL    HW260168   8.255   2.470   3.602
15898SOL     OW60169   8.881   4.887   0.835
15898SOL    HW160170   8.855   4.971   0.787
15898SOL    HW260171   8.890   4.907   0.933
15899SOL     OW60172   7.442   3.965   4.682
15899SOL    HW160173   7.404   4.051   4.716
15899SOL    HW260174   7.386   3.889   4.715
15900SOL     OW60175   8.694   1.603   3.093
15900SOL    HW160176   8.624   1.531   3.098
15900SOL    HW260177   8.726   1.612   2.999
15901SOL     OW60178   8.621   4.891   5.257
15901SOL    HW160179   8.689   4.891   5.330
15901SOL    HW260180   8.663   4.921   5.171
15902SOL     OW60181   7.451   1.390   1.062
15902SOL    HW160182   7.376   1.456   1.052
15902SOL    HW260183   7.525   1.414   1.000
15903SOL     OW60184   7.515   1.172   1.610
15903SOL    HW160185   7.515   1.094   1.548
15903SOL    HW260186   7.583   1.238   1.581
15904SOL     OW60187   8.488   4.206   6.346
15904SOL    HW160188   8.545   4.288   6.356
15904SOL    HW260189   8.542   4.134   6.302
15905SOL     OW60190   9.059   0.873   7.135
15905SOL    HW160191   9.074   0.774   7.139
15905SOL    HW260192   8.964   0.891   7.109
15906SOL     OW60193   8.328   3.542   7.219
15906SOL    HW160194   8.257   3.526   7.151
15906SOL    HW260195   8.290   3.597   7.294
15907SOL     OW60196   7.402   3.169   4.610
15907SOL    HW160197   7.388   3.255   4.561
15907SOL    HW260198   7.392   3.092   4.547
15908SOL     OW60199   8.705   6.906   5.767
15908SOL    HW160200   8.694   6.953   5.855
15908SOL    HW260201   8.621   6.855   5.746
15909SOL     OW60202   8.200   6.877   5.670
15909SOL    HW160203   8.236   6.970   5.680
15909SOL    HW260204   8.177   6.860   5.575
15910SOL     OW60205   7.485   3.332   6.545
15910SOL    HW160206   7.585   3.339   6.547
15910SOL    HW260207   7.457   3.272   6.470
15911SOL     OW60208   9.285   2.599   6.253
15911SOL    HW160209   9.352   2.537   6.212
15911SOL    HW260210   9.205   2.547   6.283
15912SOL     OW60211   7.762   1.193   2.415
15912SOL    HW160212   7.688   1.245   2.373
15912SOL    HW260213   7.812   1.144   2.343
15913SOL     OW60214   8.467   2.683   0.271
15913SOL    HW160215   8.430   2.616   0.207
15913SOL    HW260216   8.440   2.775   0.242
15914SOL     OW60217   8.746   5.408   7.143
15914SOL    HW160218   8.779   5.369   7.057
15914SOL    HW260219   8.691   5.340   7.191
15915SOL     OW60220   8.344   4.823   4.881
15915SOL    HW160221   8.436   4.839   4.844
15915SOL    HW260222   8.349   4.818   4.981
15916SOL     OW60223   7.869   2.185   6.205
15916SOL    HW160224   7.957   2.137   6.198
15916SOL    HW260225   7.876   2.274   6.161
15917SOL     OW60226   8.689   2.246   4.839
15917SOL    HW160227   8.709   2.339   4.807
15917SOL    HW260228   8.602   2.215   4.800
15918SOL     OW60229   7.363   2.476   4.587
15918SOL    HW160230   7.397   2.501   4.678
15918SOL    HW260231   7.440   2.460   4.526
15919SOL     OW60232   8.724   3.212   6.084
15919SOL    HW160233   8.640   3.229   6.033
15919SOL    HW260234   8.789   3.287   6.066
15920SOL     OW60235   7.521   7.328   0.423
15920SOL    HW160236   7.425   7.302   0.415
15920SOL    HW260237   7.574   7.252   0.461
15921SOL     OW60238   8.690   0.304   6.078
15921SOL    HW160239   8.632   0.372   6.034
15921SOL    HW260240   8.667   0.213   6.042
15922SOL     OW60241   8.262   1.802   0.605
15922SOL    HW160242   8.282   1.807   0.507
15922SOL    HW260243   8.216   1.716   0.625
15923SOL     OW60244   7.838   3.243   3.708
15923SOL    HW160245   7.773   3.207   3.775
15923SOL    HW260246   7.928   3.203   3.724
15924SOL     OW60247   8.853   1.058   3.262
15924SOL    HW160248   8.944   1.040   3.225
15924SOL    HW260249   8.789   0.989   3.227
15925SOL     OW60250   8.282   0.927   4.054
15925SOL    HW160251   8.198   0.980   4.067
15925SOL    HW260252   8.341   0.974   3.989
15926SOL     OW60253   8.796   3.602   1.313
15926SOL    HW160254   8.699   3.623   1.320
15926SOL    HW260255   8.832   3.581   1.404
15927SOL     OW60256   8.066   0.430   2.349
15927SOL    HW160257   8.017   0.465   2.269
15927SOL    HW260258   8.036   0.479   2.431
15928SOL     OW60259   8.357   0.910   2.552
15928SOL    HW160260   8.438   0.859   2.524
15928SOL    HW260261   8.383   0.982   2.617
15929SOL     OW60262   8.343   3.941   6.077
15929SOL    HW160263   8.254   3.977   6.104
15929SOL    HW260264   8.350   3.846   6.107
15930SOL     OW60265   9.003   4.048   1.531
15930SOL    HW160266   8.983   3.951   1.542
15930SOL    HW260267   9.094   4.059   1.491
15931SOL     OW60268   8.067   1.379   1.113
15931SOL    HW160269   8.087   1.284   1.136
15931SOL    HW260270   8.121   1.440   1.172
15932SOL     OW60271   7.870   5.624   0.021
15932SOL    HW160272   7.819   5.559  -0.036
15932SOL    HW260273   7.883   5.710  -0.029
15933SOL     OW60274   8.327   2.705   5.254
15933SOL    HW160275   8.360   2.797   5.235
15933SOL    HW260276   8.249   2.684   5.194
15934SOL     OW60277   8.338   5.073   5.930
15934SOL    HW160278   8.298   5.105   6.015
15934SOL    HW260279   8.281   5.000   5.892
15935SOL     OW60280   8.347   7.277   0.765
15935SOL    HW160281   8.248   7.284   0.753
15935SOL    HW260282   8.382   7.201   0.711
15936SOL     OW60283   7.559   3.943   0.422
15936SOL    HW160284   7.612   3.861   0.442
15936SOL    HW260285   7.530   3.941   0.326
15937SOL     OW60286   7.374   3.724   6.485
15937SOL    HW160287   7.382   3.723   6.585
15937SOL    HW260288   7.342   3.635   6.453
15938SOL     OW60289   8.704   2.453   0.638
15938SOL    HW160290   8.651   2.459   0.554
15938SOL    HW260291   8.668   2.518   0.705
15939SOL     OW60292   8.940   0.810   2.662
15939SOL    HW160293   8.964   0.861   2.580
15939SOL    HW260294   8.867   0.745   2.641
15940SOL     OW60295   7.835   1.015   3.324
15940SOL    HW160296   7.813   1.041   3.230
15940SOL    HW260297   7.932   0.994   3.331
15941SOL     OW60298   8.875   2.238   5.857
15941SOL    HW160299   8.933   2.206   5.931
15941SOL    HW260300   8.813   2.308   5.891
15942SOL     OW60301   7.633   2.913   0.837
15942SOL    HW160302   7.700   2.843   0.864
15942SOL    HW260303   7.547   2.868   0.812
15943SOL     OW60304   8.903   3.243   2.104
15943SOL    HW160305   8.886   3.189   2.021
15943SOL    HW260306   8.838   3.216   2.175
15944SOL     OW60307   8.027   3.779   1.446
15944SOL    HW160308   8.036   3.734   1.357
15944SOL    HW260309   7.992   3.872   1.433
15945SOL     OW60310   7.784   5.849   5.367
15945SOL    HW160311   7.776   5.853   5.267
15945SOL    HW260312   7.766   5.756   5.398
15946SOL     OW60313   7.596   1.608   6.845
15946SOL    HW160314   7.695   1.613   6.859
15946SOL    HW260315   7.563   1.696   6.811
15947SOL     OW60316   8.182   0.753   0.778
15947SOL    HW160317   8.178   0.654   0.773
15947SOL    HW260318   8.092   0.789   0.801
15948SOL     OW60319   8.581   0.043   3.364
15948SOL    HW160320   8.668  -0.004   3.379
15948SOL    HW260321   8.564   0.106   3.440
15949SOL     OW60322   8.652   5.484   4.938
15949SOL    HW160323   8.672   5.387   4.951
15949SOL    HW260324   8.567   5.507   4.986
15950SOL     OW60325   8.548   3.534   2.191
15950SOL    HW160326   8.573   3.524   2.094
15950SOL    HW260327   8.616   3.486   2.247
15951SOL     OW60328   7.679   1.715   2.315
15951SOL    HW160329   7.761   1.763   2.284
15951SOL    HW260330   7.619   1.696   2.237
15952SOL     OW60331   7.867   4.202   1.752
15952SOL    HW160332   7.909   4.292   1.738
15952SOL    HW260333   7.935   4.139   1.789
15953SOL     OW60334   8.925   0.051   7.096
15953SOL    HW160335   8.912   0.009   7.186
15953SOL    HW260336   8.984  -0.008   7.040
15954SOL     OW60337   7.394   2.093   3.125
15954SOL    HW160338   7.374   2.031   3.201
15954SOL    HW260339   7.458   2.048   3.062
15955SOL     OW60340   7.439   3.393   5.551
15955SOL    HW160341   7.376   3.352   5.619
15955SOL    HW260342   7.429   3.492   5.553
15956SOL     OW60343   8.197   4.751   3.759
15956SOL    HW160344   8.222   4.773   3.665
15956SOL    HW260345   8.105   4.710   3.760
15957SOL     OW60346   8.496   4.076   4.717
15957SOL    HW160347   8.484   3.978   4.730
15957SOL    HW260348   8.471   4.124   4.801
15958SOL     OW60349   8.357   2.986   0.385
15958SOL    HW160350   8.336   2.975   0.288
15958SOL    HW260351   8.354   3.082   0.410
15959SOL     OW60352   8.837   3.505   2.091
15959SOL    HW160353   8.913   3.565   2.117
15959SOL    HW260354   8.864   3.410   2.105
15960SOL     OW60355   8.300   6.086   6.472
15960SOL    HW160356   8.303   6.124   6.380
15960SOL    HW260357   8.288   6.160   6.538
15961SOL     OW60358   8.097   6.530   4.604
15961SOL    HW160359   8.033   6.512   4.529
15961SOL    HW260360   8.190   6.510   4.574
15962SOL     OW60361   7.730   3.559   0.135
15962SOL    HW160362   7.643   3.538   0.179
15962SOL    HW260363   7.767   3.643   0.175
15963SOL     OW60364   7.994   0.785   5.365
15963SOL    HW160365   7.983   0.761   5.461
15963SOL    HW260366   8.088   0.813   5.348
15964SOL     OW60367   8.376   5.001   5.630
15964SOL    HW160368   8.300   4.936   5.638
15964SOL    HW260369   8.453   4.969   5.686
15965SOL     OW60370   7.664   3.180   4.553
15965SOL    HW160371   7.681   3.248   4.624
15965SOL    HW260372   7.568   3.182   4.527
15966SOL     OW60373   8.012   6.187   1.893
15966SOL    HW160374   8.099   6.169   1.939
15966SOL    HW260375   7.945   6.220   1.960
15967SOL     OW60376   8.749   3.418   1.090
15967SOL    HW160377   8.754   3.483   1.165
15967SOL    HW260378   8.717   3.465   1.007
15968SOL     OW60379   8.497   5.249   4.611
15968SOL    HW160380   8.443   5.287   4.537
15968SOL    HW260381   8.586   5.295   4.615
15969SOL     OW60382   8.472   2.106   5.751
15969SOL    HW160383   8.539   2.179   5.737
15969SOL    HW260384   8.504   2.022   5.706
15970SOL     OW60385   7.936   1.598   2.416
15970SOL    HW160386   7.989   1.541   2.353
15970SOL    HW260387   7.845   1.614   2.377
15971SOL     OW60388   8.975   4.129   6.800
15971SOL    HW160389   9.054   4.072   6.821
15971SOL    HW260390   8.900   4.106   6.863
15972SOL     OW60391   7.496   5.157   4.007
15972SOL    HW160392   7.419   5.212   4.037
15972SOL    HW260393   7.462   5.071   3.967
15973SOL     OW60394   8.302   3.759   5.849
15973SOL    HW160395   8.353   3.725   5.928
15973SOL    HW260396   8.338   3.849   5.823
15974SOL     OW60397   8.159   3.324   1.016
15974SOL    HW160398   8.190   3.259   1.085
15974SOL    HW260399   8.235   3.383   0.989
15975SOL     OW60400   8.122   1.023   3.319
15975SOL    HW160401   8.102   0.992   3.413
15975SOL    HW260402   8.220   1.036   3.309
15976SOL     OW60403   8.275   7.128   5.700
15976SOL    HW160404   8.333   7.209   5.699
15976SOL    HW260405   8.258   7.100   5.794
15977SOL     OW60406   8.274   1.049   6.368
15977SOL    HW160407   8.244   1.126   6.423
15977SOL    HW260408   8.276   0.966   6.424
15978SOL     OW60409   7.938   5.714   5.809
15978SOL    HW160410   7.944   5.615   5.818
15978SOL    HW260411   8.003   5.745   5.739
15979SOL     OW60412   8.317   2.250   0.238
15979SOL    HW160413   8.345   2.167   0.190
15979SOL    HW260414   8.312   2.232   0.336
15980SOL     OW60415   7.825   3.996   1.575
15980SOL    HW160416   7.809   4.011   1.477
15980SOL    HW260417   7.815   4.082   1.624
15981SOL     OW60418   8.118   1.981   2.048
15981SOL    HW160419   8.033   2.033   2.057
15981SOL    HW260420   8.181   2.030   1.987
15982SOL     OW60421   8.459   4.123   3.221
15982SOL    HW160422   8.479   4.167   3.134
15982SOL    HW260423   8.528   4.053   3.240
15983SOL     OW60424   8.436   1.443   0.321
15983SOL    HW160425   8.343   1.413   0.299
15983SOL    HW260426   8.489   1.450   0.236
15984SOL     OW60427   8.049   1.783   3.213
15984SOL    HW160428   8.105   1.828   3.142
15984SOL    HW260429   7.978   1.846   3.244
15985SOL     OW60430   8.783   1.748   1.130
15985SOL    HW160431   8.762   1.686   1.054
15985SOL    HW260432   8.882   1.753   1.142
15986SOL     OW60433   8.749   3.681   3.225
15986SOL    HW160434   8.656   3.647   3.239
15986SOL    HW260435   8.755   3.775   3.257
15987SOL     OW60436   8.448   0.150   6.815
15987SOL    HW160437   8.510   0.165   6.738
15987SOL    HW260438   8.498   0.107   6.890
15988SOL     OW60439   7.360   3.478   3.666
15988SOL    HW160440   7.306   3.558   3.690
15988SOL    HW260441   7.456   3.495   3.689
15989SOL     OW60442   9.287   3.773   2.077
15989SOL    HW160443   9.358   3.726   2.025
15989SOL    HW260444   9.329   3.838   2.140
15990SOL     OW60445   8.825   5.621   6.779
15990SOL    HW160446   8.782   5.531   6.781
15990SOL    HW260447   8.919   5.611   6.746
15991SOL     OW60448   8.488   0.560   5.948
15991SOL    HW160449   8.560   0.561   5.878
15991SOL    HW260450   8.490   0.647   5.998
15992SOL     OW60451   7.897   6.570   0.099
15992SOL    HW160452   7.955   6.489   0.105
15992SOL    HW260453   7.935   6.633   0.032
15993SOL     OW60454   8.118   5.334   4.093
15993SOL    HW160455   8.186   5.403   4.119
15993SOL    HW260456   8.031   5.378   4.073
15994SOL     OW60457   8.583   5.691   6.621
15994SOL    HW160458   8.518   5.683   6.697
15994SOL    HW260459   8.676   5.698   6.658
15995SOL     OW60460   8.401   1.539   6.364
15995SOL    HW160461   8.475   1.540   6.297
15995SOL    HW260462   8.326   1.597   6.331
15996SOL     OW60463   7.466   3.859   4.113
15996SOL    HW160464   7.391   3.894   4.057
15996SOL    HW260465   7.502   3.775   4.074
15997SOL     OW60466   7.869   5.860   0.277
15997SOL    HW160467   7.842   5.833   0.369
15997SOL    HW260468   7.823   5.801   0.210
15998SOL     OW60469   8.000   0.978   7.336
15998SOL    HW160470   8.022   0.882   7.316
15998SOL    HW260471   7.903   0.994   7.319
15999SOL     OW60472   9.167   5.688   0.351
15999SOL    HW160473   9.171   5.701   0.450
15999SOL    HW260474   9.256   5.655   0.318
16000SOL     OW60475   9.114   1.006   1.896
16000SOL    HW160476   9.089   1.029   1.990
16000SOL    HW260477   9.041   1.033   1.834
16001SOL     OW60478   8.664   2.820   5.437
16001SOL    HW160479   8.691   2.860   5.349
16001SOL    HW260480   8.695   2.880   5.511
16002SOL     OW60481   8.485   5.885   4.555
16002SOL    HW160482   8.515   5.831   4.633
16002SOL    HW260483   8.552   5.877   4.481
16003SOL     OW60484   8.707   5.443   4.635
16003SOL    HW160485   8.671   5.446   4.729
16003SOL    HW260486   8.691   5.531   4.591
16004SOL     OW60487   7.495   6.141   0.192
16004SOL    HW160488   7.589   6.164   0.219
16004SOL    HW260489   7.432   6.166   0.265
16005SOL     OW60490   7.591   3.218   4.108
16005SOL    HW160491   7.499   3.193   4.138
16005SOL    HW260492   7.643   3.254   4.185
16006SOL     OW60493   7.804   3.055   2.597
16006SOL    HW160494   7.883   3.083   2.543
16006SOL    HW260495   7.835   3.014   2.683
16007SOL     OW60496   7.438   2.460   2.330
16007SOL    HW160497   7.406   2.514   2.252
16007SOL    HW260498   7.534   2.481   2.348
16008SOL     OW60499   8.323   2.999   5.882
16008SOL    HW160500   8.377   3.080   5.906
16008SOL    HW260501   8.304   2.946   5.964
16009SOL     OW60502   8.508   6.508   5.704
16009SOL    HW160503   8.470   6.495   5.613
16009SOL    HW260504   8.593   6.456   5.713
16010SOL     OW60505   7.560   4.250   7.278
16010SOL    HW160506   7.542   4.231   7.182
16010SOL    HW260507   7.652   4.288   7.288
16011SOL     OW60508   8.720   0.491   5.818
16011SOL    HW160509   8.808   0.534   5.838
16011SOL    HW260510   8.714   0.472   5.720
16012SOL     OW60511   8.626   0.839   2.523
16012SOL    HW160512   8.676   0.766   2.569
16012SOL    HW260513   8.671   0.927   2.541
16013SOL     OW60514   7.658   3.386   3.580
16013SOL    HW160515   7.731   3.318   3.590
16013SOL    HW260516   7.613   3.374   3.492
16014SOL     OW60517   8.390   1.692   1.810
16014SOL    HW160518   8.462   1.627   1.784
16014SOL    HW260519   8.426   1.785   1.804
16015SOL     OW60520   8.371   1.527   2.064
16015SOL    HW160521   8.434   1.567   2.130
16015SOL    HW260522   8.351   1.594   1.992
16016SOL     OW60523   8.755   7.025   6.078
16016SOL    HW160524   8.802   7.106   6.042
16016SOL    HW260525   8.822   6.965   6.121
16017SOL     OW60526   8.131   4.376   5.847
16017SOL    HW160527   8.177   4.402   5.932
16017SOL    HW260528   8.123   4.277   5.842
16018SOL     OW60529   8.474   5.997   6.209
16018SOL    HW160530   8.400   6.064   6.204
16018SOL    HW260531   8.498   5.982   6.305
16019SOL     OW60532   7.369   3.381   0.567
16019SOL    HW160533   7.421   3.310   0.521
16019SOL    HW260534   7.432   3.444   0.613
16020SOL     OW60535   8.692   4.682   4.106
16020SOL    HW160536   8.638   4.766   4.106
16020SOL    HW260537   8.697   4.647   4.012
16021SOL     OW60538   8.944   2.800   0.428
16021SOL    HW160539   8.879   2.737   0.386
16021SOL    HW260540   8.902   2.843   0.507
16022SOL     OW60541   7.815   5.027   2.237
16022SOL    HW160542   7.768   4.982   2.313
16022SOL    HW260543   7.813   4.968   2.157
16023SOL     OW60544   8.559   3.228   2.581
16023SOL    HW160545   8.462   3.235   2.605
16023SOL    HW260546   8.608   3.308   2.614
16024SOL     OW60547   7.761   5.174   4.013
16024SOL    HW160548   7.808   5.086   4.026
16024SOL    HW260549   7.664   5.161   4.031
16025SOL     OW60550   7.443   6.971   6.815
16025SOL    HW160551   7.468   7.063   6.787
16025SOL    HW260552   7.417   6.918   6.734
16026SOL     OW60553   8.489   4.935   0.219
16026SOL    HW160554   8.399   4.891   0.215
16026SOL    HW260555   8.561   4.867   0.205
16027SOL     OW60556   7.760   2.055   5.795
16027SOL    HW160557   7.696   2.100   5.857
16027SOL    HW260558   7.834   2.118   5.771
16028SOL     OW60559   7.419   7.336   2.133
16028SOL    HW160560   7.452   7.290   2.050
16028SOL    HW260561   7.497   7.375   2.182
16029SOL     OW60562   7.594   6.815   0.365
16029SOL    HW160563   7.507   6.807   0.414
16029SOL    HW260564   7.633   6.725   0.350
16030SOL     OW60565   7.657   3.860   4.526
16030SOL    HW160566   7.651   3.891   4.431
16030SOL    HW260567   7.573   3.883   4.574
16031SOL     OW60568   7.525   3.326   6.965
16031SOL    HW160569   7.489   3.389   6.896
16031SOL    HW260570   7.456   3.256   6.984
16032SOL     OW60571   8.323   4.269   6.758
16032SOL    HW160572   8.254   4.341   6.750
16032SOL    HW260573   8.323   4.214   6.674
16033SOL     OW60574   8.003   6.937   5.149
16033SOL    HW160575   8.029   6.847   5.183
16033SOL    HW260576   7.937   6.926   5.074
16034SOL     OW60577   8.624   5.125   5.848
16034SOL    HW160578   8.597   5.221   5.863
16034SOL    HW260579   8.542   5.071   5.829
16035SOL     OW60580   8.742   2.773   0.811
16035SOL    HW160581   8.650   2.751   0.779
16035SOL    HW260582   8.793   2.818   0.737
16036SOL     OW60583   8.390   1.852   0.343
16036SOL    HW160584   8.467   1.913   0.324
16036SOL    HW260585   8.417   1.757   0.330
16037SOL     OW60586   8.364   3.949   1.957
16037SOL    HW160587   8.312   3.915   2.035
16037SOL    HW260588   8.379   3.874   1.892
16038SOL     OW60589   8.662   5.879   0.285
16038SOL    HW160590   8.607   5.807   0.329
16038SOL    HW260591   8.759   5.860   0.300
16039SOL     OW60592   8.614   5.164   7.222
16039SOL    HW160593   8.542   5.096   7.206
16039SOL    HW260594   8.594   5.215   7.306
16040SOL     OW60595   7.872   6.179   0.347
16040SOL    HW160596   7.883   6.085   0.315
16040SOL    HW260597   7.928   6.194   0.428
16041SOL     OW60598   7.833   1.516   1.658
16041SOL    HW160599   7.840   1.489   1.754
16041SOL    HW260600   7.879   1.604   1.645
16042SOL     OW60601   7.435   4.569   6.245
16042SOL    HW160602   7.353   4.528   6.285
16042SOL    HW260603   7.421   4.667   6.234
16043SOL     OW60604   8.700   4.352   3.067
16043SOL    HW160605   8.766   4.362   2.993
16043SOL    HW260606   8.747   4.324   3.151
16044SOL     OW60607   8.498   2.108   6.263
16044SOL    HW160608   8.515   2.024   6.313
16044SOL    HW260609   8.553   2.110   6.180
16045SOL     OW60610   8.252   2.122   3.033
16045SOL    HW160611   8.300   2.088   3.113
16045SOL    HW260612   8.318   2.144   2.961
16046SOL     OW60613   8.406   5.059   0.585
16046SOL    HW160614   8.409   5.004   0.668
16046SOL    HW260615   8.497   5.058   0.542
16047SOL     OW60616   8.161   6.377   4.241
16047SOL    HW160617   8.233   6.332   4.294
16047SOL    HW260618   8.103   6.430   4.303
16048SOL     OW60619   7.412   2.297   3.305
16048SOL    HW160620   7.330   2.351   3.286
16048SOL    HW260621   7.419   2.223   3.238
16049SOL     OW60622   8.498   3.580   1.289
16049SOL    HW160623   8.430   3.618   1.352
16049SOL    HW260624   8.450   3.542   1.209
16050SOL     OW60625   7.577   4.422   0.370
16050SOL    HW160626   7.493   4.433   0.422
16050SOL    HW260627   7.578   4.331   0.328
16051SOL     OW60628   7.691   6.744   0.091
16051SOL    HW160629   7.762   6.674   0.100
16051SOL    HW260630   7.683   6.795   0.177
16052SOL     OW60631   8.644   4.734   0.776
16052SOL    HW160632   8.732   4.777   0.795
16052SOL    HW260633   8.596   4.716   0.862
16053SOL     OW60634   7.534   0.234   0.529
16053SOL    HW160635   7.610   0.277   0.479
16053SOL    HW260636   7.530   0.137   0.506
16054SOL     OW60637   7.996   3.622   6.857
16054SOL    HW160638   7.974   3.592   6.950
16054SOL    HW260639   7.935   3.696   6.831
16055SOL     OW60640   7.382   5.781   6.341
16055SOL    HW160641   7.327   5.830   6.408
16055SOL    HW260642   7.474   5.820   6.339
16056SOL     OW60643   7.549   1.241   5.135
16056SOL    HW160644   7.495   1.322   5.110
16056SOL    HW260645   7.628   1.234   5.075
16057SOL     OW60646   8.624   3.571   0.897
16057SOL    HW160647   8.591   3.660   0.926
16057SOL    HW260648   8.692   3.582   0.825
16058SOL     OW60649   8.268   4.866   3.074
16058SOL    HW160650   8.186   4.827   3.115
16058SOL    HW260651   8.343   4.865   3.140
16059SOL     OW60652   8.963   4.920   3.732
16059SOL    HW160653   8.894   4.863   3.777
16059SOL    HW260654   8.972   4.891   3.637
16060SOL     OW60655   7.836   5.497   0.382
16060SOL    HW160656   7.935   5.504   0.399
16060SOL    HW260657   7.799   5.420   0.434
16061SOL     OW60658   8.613   3.032   1.678
16061SOL    HW160659   8.684   3.029   1.748
16061SOL    HW260660   8.524   3.044   1.721
16062SOL     OW60661   8.692   3.558   3.619
16062SOL    HW160662   8.737   3.636   3.663
16062SOL    HW260663   8.762   3.493   3.590
16063SOL     OW60664   8.027   1.126   7.021
16063SOL    HW160665   8.082   1.077   7.089
16063SOL    HW260666   8.033   1.079   6.933
16064SOL     OW60667   7.706   7.265   1.488
16064SOL    HW160668   7.800   7.298   1.495
16064SOL    HW260669   7.696   7.210   1.404
16065SOL     OW60670   8.451   6.735   5.809
16065SOL    HW160671   8.472   6.642   5.779
16065SOL    HW260672   8.377   6.772   5.753
16066SOL     OW60673   8.368   4.039   5.752
16066SOL    HW160674   8.402   4.092   5.674
16066SOL    HW260675   8.408   4.075   5.836
16067SOL     OW60676   8.223   1.577   0.900
16067SOL    HW160677   8.314   1.619   0.901
16067SOL    HW260678   8.189   1.568   0.994
16068SOL     OW60679   7.751   5.352   2.196
16068SOL    HW160680   7.752   5.253   2.212
16068SOL    HW260681   7.823   5.395   2.250
16069SOL     OW60682   8.764   4.613   2.353
16069SOL    HW160683   8.781   4.518   2.377
16069SOL    HW260684   8.841   4.670   2.384
16070SOL     OW60685   8.135   2.374   3.111
16070SOL    HW160686   8.189   2.331   3.039
16070SOL    HW260687   8.138   2.317   3.193
16071SOL     OW60688   7.793   3.982   2.502
16071SOL    HW160689   7.709   3.943   2.540
16071SOL    HW260690   7.846   4.025   2.575
16072SOL     OW60691   7.497   2.198   1.691
16072SOL    HW160692   7.533   2.192   1.598
16072SOL    HW260693   7.523   2.116   1.742
16073SOL     OW60694   8.055   0.724   7.212
16073SOL    HW160695   8.121   0.652   7.192
16073SOL    HW260696   7.995   0.737   7.133
16074SOL     OW60697   7.855   1.919   0.531
16074SOL    HW160698   7.824   2.012   0.507
16074SOL    HW260699   7.783   1.854   0.507
16075SOL     OW60700   7.927   5.619   4.951
16075SOL    HW160701   7.839   5.630   4.904
16075SOL    HW260702   8.001   5.638   4.887
16076SOL     OW60703   8.532   5.930   6.983
16076SOL    HW160704   8.576   5.841   6.978
16076SOL    HW260705   8.483   5.949   6.898
16077SOL     OW60706   8.246   4.045   0.964
16077SOL    HW160707   8.288   4.132   0.938
16077SOL    HW260708   8.254   3.981   0.888
16078SOL     OW60709   8.462   5.318   3.922
16078SOL    HW160710   8.464   5.413   3.953
16078SOL    HW260711   8.400   5.265   3.980
16079SOL     OW60712   8.203   5.094   4.322
16079SOL    HW160713   8.243   5.054   4.240
16079SOL    HW260714   8.104   5.101   4.310
16080SOL     OW60715   7.759   3.035   6.478
16080SOL    HW160716   7.739   2.952   6.529
16080SOL    HW260717   7.848   3.025   6.432
16081SOL     OW60718   8.668   0.325   6.357
16081SOL    HW160719   8.641   0.278   6.273
16081SOL    HW260720   8.635   0.419   6.355
16082SOL     OW60721   7.408   6.555   6.200
16082SOL    HW160722   7.364   6.511   6.278
16082SOL    HW260723   7.346   6.556   6.122
16083SOL     OW60724   8.441   3.768   1.744
16083SOL    HW160725   8.467   3.677   1.777
16083SOL    HW260726   8.389   3.760   1.660
16084SOL     OW60727   8.056   6.086   5.670
16084SOL    HW160728   8.129   6.154   5.678
16084SOL    HW260729   8.028   6.057   5.762
16085SOL     OW60730   8.336   4.987   6.974
16085SOL    HW160731   8.341   4.982   7.074
16085SOL    HW260732   8.248   5.027   6.947
16086SOL     OW60733   7.618   0.382   2.027
16086SOL    HW160734   7.654   0.299   1.984
16086SOL    HW260735   7.518   0.374   2.035
16087SOL     OW60736   7.496   5.237   4.832
16087SOL    HW160737   7.441   5.155   4.846
16087SOL    HW260738   7.481   5.301   4.907
16088SOL     OW60739   8.573   3.493   1.921
16088SOL    HW160740   8.664   3.533   1.913
16088SOL    HW260741   8.580   3.394   1.927
16089SOL     OW60742   8.282   5.400   2.613
16089SOL    HW160743   8.380   5.379   2.608
16089SOL    HW260744   8.256   5.413   2.709
16090SOL     OW60745   8.607   6.016   4.849
16090SOL    HW160746   8.599   5.917   4.838
16090SOL    HW260747   8.695   6.047   4.814
16091SOL     OW60748   8.621   2.969   0.421
16091SOL    HW160749   8.623   2.976   0.521
16091SOL    HW260750   8.527   2.976   0.389
16092SOL     OW60751   8.722   3.966   3.247
16092SOL    HW160752   8.791   3.988   3.178
16092SOL    HW260753   8.731   4.028   3.325
16093SOL     OW60754   8.218   5.504   2.358
16093SOL    HW160755   8.245   5.456   2.441
16093SOL    HW260756   8.225   5.603   2.372
16094SOL     OW60757   7.607   2.908   5.963
16094SOL    HW160758   7.572   3.000   5.983
16094SOL    HW260759   7.660   2.876   6.042
16095SOL     OW60760   8.514   2.564   4.962
16095SOL    HW160761   8.590   2.517   4.917
16095SOL    HW260762   8.501   2.524   5.053
16096SOL     OW60763   8.566   0.571   6.872
16096SOL    HW160764   8.554   0.607   6.780
16096SOL    HW260765   8.659   0.591   6.905
16097SOL     OW60766   7.580   6.814   0.838
16097SOL    HW160767   7.637   6.804   0.756
16097SOL    HW260768   7.639   6.826   0.918
16098SOL     OW60769   7.922   5.793   6.683
16098SOL    HW160770   7.954   5.883   6.654
16098SOL    HW260771   7.848   5.763   6.622
16099SOL     OW60772   8.220   3.612   0.275
16099SOL    HW160773   8.239   3.663   0.359
16099SOL    HW260774   8.155   3.538   0.296
16100SOL     OW60775   8.701   3.174   2.282
16100SOL    HW160776   8.713   3.076   2.263
16100SOL    HW260777   8.660   3.186   2.372
16101SOL     OW60778   8.176   0.048   6.720
16101SOL    HW160779   8.274   0.056   6.733
16101SOL    HW260780   8.153   0.072   6.625
16102SOL     OW60781   7.912   3.351   1.755
16102SOL    HW160782   7.814   3.360   1.740
16102SOL    HW260783   7.958   3.436   1.729
16103SOL     OW60784   7.431   3.394   4.421
16103SOL    HW160785   7.353   3.449   4.451
16103SOL    HW260786   7.516   3.446   4.435
16104SOL     OW60787   8.455   5.342   5.903
16104SOL    HW160788   8.401   5.415   5.862
16104SOL    HW260789   8.412   5.254   5.885
16105SOL     OW60790   8.031   0.724   1.489
16105SOL    HW160791   7.992   0.682   1.572
16105SOL    HW260792   7.960   0.730   1.419
16106SOL     OW60793   8.392   3.909   0.419
16106SOL    HW160794   8.393   4.006   0.396
16106SOL    HW260795   8.417   3.855   0.339
16107SOL     OW60796   8.555   1.885   7.127
16107SOL    HW160797   8.635   1.837   7.091
16107SOL    HW260798   8.478   1.873   7.064
16108SOL     OW60799   7.985   2.393   0.531
16108SOL    HW160800   8.066   2.451   0.532
16108SOL    HW260801   7.953   2.383   0.437
16109SOL     OW60802   8.248   6.410   6.360
16109SOL    HW160803   8.295   6.494   6.333
16109SOL    HW260804   8.155   6.431   6.388
16110SOL     OW60805   7.652   3.537   5.887
16110SOL    HW160806   7.620   3.468   5.822
16110SOL    HW260807   7.733   3.503   5.934
16111SOL     OW60808   7.966   2.677   1.336
16111SOL    HW160809   8.006   2.767   1.317
16111SOL    HW260810   7.953   2.666   1.434
16112SOL     OW60811   8.619   6.519   0.230
16112SOL    HW160812   8.714   6.527   0.258
16112SOL    HW260813   8.613   6.511   0.131
16113SOL     OW60814   7.678   5.208   4.406
16113SOL    HW160815   7.700   5.277   4.474
16113SOL    HW260816   7.635   5.129   4.451
16114SOL     OW60817   7.825   0.321   5.984
16114SOL    HW160818   7.756   0.393   5.989
16114SOL    HW260819   7.787   0.236   6.021
16115SOL     OW60820   8.961   3.479   2.753
16115SOL    HW160821   9.019   3.489   2.834
16115SOL    HW260822   8.967   3.562   2.697
16116SOL     OW60823   8.717   4.414   1.875
16116SOL    HW160824   8.656   4.351   1.827
16116SOL    HW260825   8.662   4.479   1.928
16117SOL     OW60826   7.668   0.969   0.927
16117SOL    HW160827   7.594   1.013   0.875
16117SOL    HW260828   7.651   0.871   0.934
16118SOL     OW60829   7.951   2.734   6.641
16118SOL    HW160830   8.034   2.789   6.650
16118SOL    HW260831   7.964   2.663   6.573
16119SOL     OW60832   8.764   6.407   7.154
16119SOL    HW160833   8.814   6.461   7.087
16119SOL    HW260834   8.736   6.320   7.113
16120SOL     OW60835   8.940   5.261   1.106
16120SOL    HW160836   8.915   5.277   1.010
16120SOL    HW260837   8.867   5.211   1.152
16121SOL     OW60838   7.753   6.780   5.207
16121SOL    HW160839   7.825   6.801   5.274
16121SOL    HW260840   7.682   6.725   5.251
16122SOL     OW60841   7.471   5.786   3.192
16122SOL    HW160842   7.510   5.711   3.138
16122SOL    HW260843   7.434   5.749   3.277
16123SOL     OW60844   8.573   1.941   1.534
16123SOL    HW160845   8.559   2.004   1.459
16123SOL    HW260846   8.621   1.859   1.501
16124SOL     OW60847   7.676   2.923   5.697
16124SOL    HW160848   7.666   2.914   5.796
16124SOL    HW260849   7.607   2.986   5.662
16125SOL     OW60850   8.762   5.876   0.009
16125SOL    HW160851   8.722   5.862   0.100
16125SOL    HW260852   8.743   5.796  -0.048
16126SOL     OW60853   7.442   4.362   5.088
16126SOL    HW160854   7.484   4.387   5.175
16126SOL    HW260855   7.443   4.441   5.027
16127SOL     OW60856   8.326   5.736   0.136
16127SOL    HW160857   8.380   5.763   0.055
16127SOL    HW260858   8.269   5.657   0.113
16128SOL     OW60859   8.899   2.147   0.551
16128SOL    HW160860   8.838   2.144   0.630
16128SOL    HW260861   8.907   2.242   0.519
16129SOL     OW60862   7.587   0.025   5.524
16129SOL    HW160863   7.636   0.034   5.611
16129SOL    HW260864   7.496   0.063   5.534
16130SOL     OW60865   9.015   3.443   0.846
16130SOL    HW160866   8.990   3.509   0.917
16130SOL    HW260867   9.089   3.384   0.880
16131SOL     OW60868   8.038   0.985   5.893
16131SOL    HW160869   8.099   0.970   5.971
16131SOL    HW260870   8.080   1.048   5.829
16132SOL     OW60871   8.097   7.240   5.505
16132SOL    HW160872   8.156   7.192   5.571
16132SOL    HW260873   8.109   7.199   5.415
16133SOL     OW60874   8.648   3.616   6.021
16133SOL    HW160875   8.673   3.580   6.111
16133SOL    HW260876   8.662   3.545   5.952
16134SOL     OW60877   7.760   0.322   5.712
16134SOL    HW160878   7.776   0.381   5.791
16134SOL    HW260879   7.705   0.371   5.644
16135SOL     OW60880   8.047   5.975   1.019
16135SOL    HW160881   7.960   5.988   1.068
16135SOL    HW260882   8.088   6.064   1.001
16136SOL     OW60883   8.862   0.862   5.802
16136SOL    HW160884   8.882   0.773   5.842
16136SOL    HW260885   8.940   0.893   5.748
16137SOL     OW60886   7.383   3.630   1.419
16137SOL    HW160887   7.475   3.667   1.408
16137SOL    HW260888   7.388   3.537   1.455
16138SOL     OW60889   7.934   5.879   6.266
16138SOL    HW160890   8.013   5.834   6.224
16138SOL    HW260891   7.957   5.907   6.359
16139SOL     OW60892   8.538   0.286   1.872
16139SOL    HW160893   8.509   0.274   1.967
16139SOL    HW260894   8.459   0.277   1.812
16140SOL     OW60895   8.600   1.421   3.389
16140SOL    HW160896   8.547   1.506   3.396
16140SOL    HW260897   8.697   1.442   3.399
16141SOL     OW60898   8.302   6.216   6.189
16141SOL    HW160899   8.272   6.290   6.248
16141SOL    HW260900   8.306   6.248   6.094
16142SOL     OW60901   7.822   2.864   6.121
16142SOL    HW160902   7.911   2.908   6.113
16142SOL    HW260903   7.819   2.811   6.206
16143SOL     OW60904   8.207   5.754   1.114
16143SOL    HW160905   8.142   5.821   1.080
16143SOL    HW260906   8.294   5.799   1.134
16144SOL     OW60907   8.728   3.164   1.180
16144SOL    HW160908   8.723   3.255   1.139
16144SOL    HW260909   8.804   3.113   1.138
16145SOL     OW60910   7.716   5.461   6.397
16145SOL    HW160911   7.632   5.482   6.347
16145SOL    HW260912   7.711   5.369   6.434
16146SOL     OW60913   8.619   3.930   6.920
16146SOL    HW160914   8.694   3.985   6.957
16146SOL    HW260915   8.584   3.870   6.991
16147SOL     OW60916   7.707   6.506   1.717
16147SOL    HW160917   7.634   6.559   1.760
16147SOL    HW260918   7.734   6.431   1.778
16148SOL     OW60919   7.997   2.506   6.454
16148SOL    HW160920   8.000   2.414   6.491
16148SOL    HW260921   8.066   2.516   6.382
16149SOL     OW60922   8.833   4.278   3.295
16149SOL    HW160923   8.879   4.189   3.295
16149SOL    HW260924   8.867   4.333   3.370
16150SOL     OW60925   7.903   3.865   1.792
16150SOL    HW160926   7.920   3.904   1.701
16150SOL    HW260927   7.805   3.858   1.808
16151SOL     OW60928   8.286   1.313   2.512
16151SOL    HW160929   8.366   1.263   2.544
16151SOL    HW260930   8.236   1.349   2.591
16152SOL     OW60931   8.051   5.544   5.208
16152SOL    HW160932   8.012   5.565   5.118
16152SOL    HW260933   8.150   5.560   5.207
16153SOL     OW60934   8.620   7.096   3.453
16153SOL    HW160935   8.703   7.152   3.442
16153SOL    HW260936   8.623   7.050   3.541
16154SOL     OW60937   8.695   1.730   3.992
16154SOL    HW160938   8.699   1.829   4.007
16154SOL    HW260939   8.686   1.683   4.080
16155SOL     OW60940   8.560   5.436   1.600
16155SOL    HW160941   8.584   5.373   1.674
16155SOL    HW260942   8.507   5.387   1.531
16156SOL     OW60943   8.218   5.217   6.138
16156SOL    HW160944   8.228   5.222   6.238
16156SOL    HW260945   8.237   5.306   6.098
16157SOL     OW60946   7.422   7.094   6.308
16157SOL    HW160947   7.365   7.016   6.335
16157SOL    HW260948   7.374   7.179   6.330
16158SOL     OW60949   7.512   1.533   2.673
16158SOL    HW160950   7.416   1.507   2.660
16158SOL    HW260951   7.534   1.608   2.611
16159SOL     OW60952   8.241   2.656   4.958
16159SOL    HW160953   8.334   2.620   4.960
16159SOL    HW260954   8.219   2.688   4.866
16160SOL     OW60955   7.934   5.310   1.460
16160SOL    HW160956   7.996   5.389   1.457
16160SOL    HW260957   7.847   5.334   1.417
16161SOL     OW60958   8.600   2.265   1.914
16161SOL    HW160959   8.614   2.350   1.965
16161SOL    HW260960   8.609   2.283   1.816
16162SOL     OW60961   7.706   4.123   4.674
16162SOL    HW160962   7.780   4.081   4.621
16162SOL    HW260963   7.621   4.072   4.657
16163SOL     OW60964   7.916   4.693   6.033
16163SOL    HW160965   7.818   4.692   6.053
16163SOL    HW260966   7.929   4.688   5.934
16164SOL     OW60967   8.669   2.015   4.221
16164SOL    HW160968   8.661   2.015   4.321
16164SOL    HW260969   8.578   2.013   4.181
16165SOL     OW60970   8.896   2.069   4.925
16165SOL    HW160971   8.969   2.135   4.941
16165SOL    HW260972   8.836   2.102   4.852
16166SOL     OW60973   7.875   4.044   6.329
16166SOL    HW160974   7.892   4.110   6.402
16166SOL    HW260975   7.865   4.092   6.242
16167SOL     OW60976   7.560   0.506   6.020
16167SOL    HW160977   7.509   0.428   6.057
16167SOL    HW260978   7.543   0.514   5.922
16168SOL     OW60979   8.196   4.907   1.360
16168SOL    HW160980   8.126   4.964   1.317
16168SOL    HW260981   8.257   4.965   1.415
16169SOL     OW60982   7.912   3.373   0.710
16169SOL    HW160983   7.935   3.445   0.645
16169SOL    HW260984   7.835   3.402   0.766
16170SOL     OW60985   8.353   1.320   0.943
16170SOL    HW160986   8.300   1.398   0.976
16170SOL    HW260987   8.316   1.235   0.981
16171SOL     OW60988   8.585   4.682   5.497
16171SOL    HW160989   8.600   4.780   5.510
16171SOL    HW260990   8.664   4.632   5.533
16172SOL     OW60991   8.027   5.739   2.570
16172SOL    HW160992   8.090   5.727   2.493
16172SOL    HW260993   7.964   5.661   2.574
16173SOL     OW60994   8.688   1.286   3.636
16173SOL    HW160995   8.709   1.335   3.721
16173SOL    HW260996   8.593   1.304   3.610
16174SOL     OW60997   7.927   3.410   1.254
16174SOL    HW160998   7.867   3.382   1.178
16174SOL    HW260999   8.018   3.429   1.218
16175SOL     OW61000   8.547   3.298   4.991
16175SOL    HW161001   8.622   3.342   5.041
16175SOL    HW261002   8.579   3.273   4.900
16176SOL     OW61003   7.767   7.179   1.118
16176SOL    HW161004   7.691   7.154   1.178
16176SOL    HW261005   7.731   7.214   1.031
16177SOL     OW61006   7.949   6.546   5.878
16177SOL    HW161007   7.950   6.475   5.947
16177SOL    HW261008   8.039   6.554   5.836
16178SOL     OW61009   7.924   2.518   5.350
16178SOL    HW161010   8.012   2.489   5.388
16178SOL    HW261011   7.894   2.602   5.395
16179SOL     OW61012   8.124   4.875   4.730
16179SOL    HW161013   8.099   4.970   4.749
16179SOL    HW261014   8.203   4.850   4.786
16180SOL     OW61015   7.686   1.379   1.457
16180SOL    HW161016   7.751   1.421   1.520
16180SOL    HW261017   7.714   1.398   1.362
16181SOL     OW61018   7.653   0.611   0.692
16181SOL    HW161019   7.628   0.707   0.685
16181SOL    HW261020   7.573   0.557   0.717
16182SOL     OW61021   8.607   0.068   1.619
16182SOL    HW161022   8.555   0.090   1.537
16182SOL    HW261023   8.614   0.149   1.678
16183SOL     OW61024   8.021   1.715   1.661
16183SOL    HW161025   8.036   1.809   1.630
16183SOL    HW261026   8.064   1.703   1.750
16184SOL     OW61027   8.353   7.123   3.499
16184SOL    HW161028   8.451   7.120   3.477
16184SOL    HW261029   8.303   7.162   3.422
16185SOL     OW61030   8.726   0.886   6.035
16185SOL    HW161031   8.741   0.968   6.090
16185SOL    HW261032   8.768   0.897   5.946
16186SOL     OW61033   7.758   6.293   4.554
16186SOL    HW161034   7.672   6.330   4.518
16186SOL    HW261035   7.750   6.193   4.561
16187SOL     OW61036   7.850   3.329   5.614
16187SOL    HW161037   7.884   3.258   5.552
16187SOL    HW261038   7.880   3.419   5.581
16188SOL     OW61039   8.523   3.826   3.379
16188SOL    HW161040   8.608   3.867   3.346
16188SOL    HW261041   8.488   3.761   3.312
16189SOL     OW61042   8.232   5.475   5.786
16189SOL    HW161043   8.213   5.509   5.694
16189SOL    HW261044   8.175   5.523   5.852
16190SOL     OW61045   8.547   5.160   6.954
16190SOL    HW161046   8.478   5.089   6.942
16190SOL    HW261047   8.553   5.185   7.051
16191SOL     OW61048   7.365   3.247   1.394
16191SOL    HW161049   7.377   3.187   1.315
16191SOL    HW261050   7.276   3.228   1.437
16192SOL     OW61051   7.545   0.700   0.938
16192SOL    HW161052   7.462   0.755   0.927
16192SOL    HW261053   7.540   0.649   1.023
16193SOL     OW61054   8.339   3.779   3.856
16193SOL    HW161055   8.400   3.858   3.850
16193SOL    HW261056   8.255   3.806   3.903
16194SOL     OW61057   8.184   6.014   6.910
16194SOL    HW161058   8.283   6.011   6.904
16194SOL    HW261059   8.155   6.095   6.961
16195SOL     OW61060   7.663   3.551   4.497
16195SOL    HW161061   7.687   3.648   4.507
16195SOL    HW261062   7.694   3.501   4.579
16196SOL     OW61063   8.663   5.590   7.345
16196SOL    HW161064   8.717   5.549   7.271
16196SOL    HW261065   8.577   5.624   7.308
16197SOL     OW61066   7.937   4.748   6.981
16197SOL    HW161067   8.003   4.675   6.965
16197SOL    HW261068   7.848   4.709   7.006
16198SOL     OW61069   7.594   1.748   2.572
16198SOL    HW161070   7.561   1.842   2.583
16198SOL    HW261071   7.636   1.739   2.481
16199SOL     OW61072   7.376   0.562   1.782
16199SOL    HW161073   7.397   0.466   1.799
16199SOL    HW261074   7.335   0.602   1.864
16200SOL     OW61075   8.747   3.922   1.419
16200SOL    HW161076   8.684   3.934   1.342
16200SOL    HW261077   8.700   3.943   1.505
16201SOL     OW61078   8.891   0.483   6.645
16201SOL    HW161079   8.871   0.581   6.640
16201SOL    HW261080   8.919   0.460   6.738
16202SOL     OW61081   8.560   0.580   6.359
16202SOL    HW161082   8.468   0.601   6.327
16202SOL    HW261083   8.624   0.647   6.323
16203SOL     OW61084   8.444   0.208   2.140
16203SOL    HW161085   8.345   0.220   2.149
16203SOL    HW261086   8.475   0.141   2.208
16204SOL     OW61087   8.460   2.980   5.222
16204SOL    HW161088   8.444   3.041   5.145
16204SOL    HW261089   8.418   3.017   5.304
16205SOL     OW61090   8.028   0.259   2.006
16205SOL    HW161091   7.940   0.228   1.969
16205SOL    HW261092   8.062   0.336   1.952
16206SOL     OW61093   7.834   6.141   1.693
16206SOL    HW161094   7.896   6.128   1.616
16206SOL    HW261095   7.886   6.163   1.775
16207SOL     OW61096   8.664   2.320   5.499
16207SOL    HW161097   8.711   2.263   5.431
16207SOL    HW261098   8.655   2.413   5.464
16208SOL     OW61099   7.648   6.307   2.337
16208SOL    HW161100   7.570   6.358   2.302
16208SOL    HW261101   7.671   6.341   2.429
16209SOL     OW61102   7.412   2.194   0.376
16209SOL    HW161103   7.438   2.219   0.469
16209SOL    HW261104   7.493   2.197   0.317
16210SOL     OW61105   7.962   5.885   6.978
16210SOL    HW161106   8.050   5.931   6.968
16210SOL    HW261107   7.952   5.815   6.908
16211SOL     OW61108   8.196   5.167   0.430
16211SOL    HW161109   8.281   5.129   0.468
16211SOL    HW261110   8.171   5.116   0.348
16212SOL     OW61111   8.429   7.318   3.141
16212SOL    HW161112   8.490   7.327   3.219
16212SOL    HW261113   8.334   7.327   3.171
16213SOL     OW61114   8.364   6.425   4.581
16213SOL    HW161115   8.356   6.327   4.562
16213SOL    HW261116   8.459   6.454   4.566
16214SOL     OW61117   8.219   2.645   0.481
16214SOL    HW161118   8.291   2.696   0.433
16214SOL    HW261119   8.258   2.602   0.563
16215SOL     OW61120   8.147   5.044   1.795
16215SOL    HW161121   8.128   4.997   1.709
16215SOL    HW261122   8.162   5.141   1.777
16216SOL     OW61123   7.572   0.720   7.322
16216SOL    HW161124   7.589   0.641   7.381
16216SOL    HW261125   7.532   0.689   7.235
16217SOL     OW61126   7.461   5.784   4.823
16217SOL    HW161127   7.412   5.869   4.805
16217SOL    HW261128   7.398   5.707   4.821
16218SOL     OW61129   7.698   1.827   4.014
16218SOL    HW161130   7.688   1.784   3.925
16218SOL    HW261131   7.689   1.757   4.086
16219SOL     OW61132   8.803   4.697   3.813
16219SOL    HW161133   8.745   4.678   3.734
16219SOL    HW261134   8.859   4.616   3.834
16220SOL     OW61135   7.615   3.346   3.327
16220SOL    HW161136   7.622   3.414   3.255
16220SOL    HW261137   7.633   3.255   3.290
16221SOL     OW61138   7.487   2.544   0.251
16221SOL    HW161139   7.413   2.487   0.217
16221SOL    HW261140   7.468   2.640   0.228
16222SOL     OW61141   8.423   6.435   5.447
16222SOL    HW161142   8.350   6.419   5.381
16222SOL    HW261143   8.506   6.386   5.419
16223SOL     OW61144   8.386   3.739   5.245
16223SOL    HW161145   8.483   3.740   5.220
16223SOL    HW261146   8.335   3.795   5.180
16224SOL     OW61147   7.371   4.137   3.513
16224SOL    HW161148   7.277   4.128   3.547
16224SOL    HW261149   7.384   4.077   3.434
16225SOL     OW61150   8.628   4.233   3.656
16225SOL    HW161151   8.586   4.271   3.738
16225SOL    HW261152   8.570   4.161   3.618
16226SOL     OW61153   7.432   6.639   5.911
16226SOL    HW161154   7.411   6.705   5.839
16226SOL    HW261155   7.527   6.609   5.902
16227SOL     OW61156   8.425   4.323   4.288
16227SOL    HW161157   8.384   4.409   4.258
16227SOL    HW261158   8.405   4.309   4.385
16228SOL     OW61159   7.370   1.257   2.453
16228SOL    HW161160   7.326   1.339   2.490
16228SOL    HW261161   7.391   1.195   2.529
16229SOL     OW61162   7.486   3.755   0.831
16229SOL    HW161163   7.435   3.837   0.808
16229SOL    HW261164   7.433   3.699   0.894
16230SOL     OW61165   8.589   4.613   2.033
16230SOL    HW161166   8.492   4.590   2.036
16230SOL    HW261167   8.624   4.626   2.127
16231SOL     OW61168   8.689   0.797   3.607
16231SOL    HW161169   8.631   0.873   3.636
16231SOL    HW261170   8.646   0.710   3.633
16232SOL     OW61171   8.017   5.980   6.503
16232SOL    HW161172   8.111   6.012   6.491
16232SOL    HW261173   7.955   6.058   6.501
16233SOL     OW61174   8.189   5.580   5.506
16233SOL    HW161175   8.225   5.557   5.416
16233SOL    HW261176   8.154   5.673   5.505
16234SOL     OW61177   8.728   0.904   1.535
16234SOL    HW161178   8.676   0.830   1.493
16234SOL    HW261179   8.769   0.872   1.621
16235SOL     OW61180   8.147   6.057   4.646
16235SOL    HW161181   8.214   6.057   4.720
16235SOL    HW261182   8.083   6.133   4.660
16236SOL     OW61183   8.337   2.448   1.473
16236SOL    HW161184   8.361   2.544   1.456
16236SOL    HW261185   8.406   2.406   1.531
16237SOL     OW61186   7.372   5.494   2.627
16237SOL    HW161187   7.317   5.572   2.597
16237SOL    HW261188   7.448   5.480   2.563
16238SOL     OW61189   7.544   3.779   5.874
16238SOL    HW161190   7.583   3.687   5.881
16238SOL    HW261191   7.568   3.819   5.786
16239SOL     OW61192   7.373   3.795   5.253
16239SOL    HW161193   7.293   3.855   5.262
16239SOL    HW261194   7.449   3.848   5.216
16240SOL     OW61195   8.839   5.029   3.190
16240SOL    HW161196   8.899   5.039   3.110
16240SOL    HW261197   8.747   5.059   3.166
16241SOL     OW61198   7.943   1.391   0.839
16241SOL    HW161199   7.993   1.404   0.925
16241SOL    HW261200   7.911   1.480   0.806
16242SOL     OW61201   7.629   7.267   0.895
16242SOL    HW161202   7.532   7.246   0.906
16242SOL    HW261203   7.668   7.210   0.823
16243SOL     OW61204   7.904   2.773   0.174
16243SOL    HW161205   7.942   2.756   0.264
16243SOL    HW261206   7.957   2.845   0.128
16244SOL     OW61207   8.674   2.296   6.670
16244SOL    HW161208   8.711   2.203   6.664
16244SOL    HW261209   8.634   2.310   6.760
16245SOL     OW61210   8.824   6.603   0.698
16245SOL    HW161211   8.748   6.547   0.667
16245SOL    HW261212   8.859   6.568   0.786
16246SOL     OW61213   8.506   1.698   0.994
16246SOL    HW161214   8.577   1.632   0.970
16246SOL    HW261215   8.511   1.776   0.932
16247SOL     OW61216   7.806   6.274   2.089
16247SOL    HW161217   7.747   6.245   2.164
16247SOL    HW261218   7.753   6.273   2.004
16248SOL     OW61219   8.539   3.579   5.633
16248SOL    HW161220   8.442   3.592   5.614
16248SOL    HW261221   8.591   3.656   5.596
16249SOL     OW61222   8.838   5.131   6.643
16249SOL    HW161223   8.813   5.227   6.629
16249SOL    HW261224   8.798   5.075   6.570
16250SOL     OW61225   7.561   5.528   0.222
16250SOL    HW161226   7.557   5.613   0.170
16250SOL    HW261227   7.657   5.502   0.237
16251SOL     OW61228   7.689   6.629   5.835
16251SOL    HW161229   7.665   6.668   5.746
16251SOL    HW261230   7.788   6.632   5.848
16252SOL     OW61231   8.631   1.750   3.688
16252SOL    HW161232   8.565   1.816   3.725
16252SOL    HW261233   8.672   1.699   3.763
16253SOL     OW61234   7.551   2.443   0.911
16253SOL    HW161235   7.469   2.437   0.855
16253SOL    HW261236   7.618   2.376   0.880
16254SOL     OW61237   8.647   3.406   5.831
16254SOL    HW161238   8.737   3.399   5.789
16254SOL    HW261239   8.583   3.448   5.767
16255SOL     OW61240   8.036   1.165   0.177
16255SOL    HW161241   8.017   1.102   0.102
16255SOL    HW261242   8.104   1.125   0.238
16256SOL     OW61243   8.394   6.349   0.239
16256SOL    HW161244   8.469   6.416   0.244
16256SOL    HW261245   8.425   6.270   0.185
16257SOL     OW61246   8.423   0.919   4.332
16257SOL    HW161247   8.509   0.874   4.354
16257SOL    HW261248   8.404   0.912   4.234
16258SOL     OW61249   8.604   1.196   6.701
16258SOL    HW161250   8.551   1.185   6.616
16258SOL    HW261251   8.589   1.117   6.759
16259SOL     OW61252   7.843   5.428   4.034
16259SOL    HW161253   7.794   5.471   3.959
16259SOL    HW261254   7.809   5.335   4.048
16260SOL     OW61255   8.836   1.329   6.807
16260SOL    HW161256   8.892   1.254   6.841
16260SOL    HW261257   8.760   1.292   6.754
16261SOL     OW61258   8.217   0.999   2.341
16261SOL    HW161259   8.267   0.953   2.413
16261SOL    HW261260   8.238   1.097   2.341
16262SOL     OW61261   8.931   1.146   1.625
16262SOL    HW161262   8.978   1.186   1.704
16262SOL    HW261263   8.918   1.048   1.639
16263SOL     OW61264   8.007   0.399   4.965
16263SOL    HW161265   8.012   0.499   4.964
16263SOL    HW261266   7.916   0.370   4.936
16264SOL     OW61267   8.480   2.350   7.240
16264SOL    HW161268   8.467   2.423   7.308
16264SOL    HW261269   8.425   2.370   7.159
16265SOL     OW61270   7.730   3.921   6.066
16265SOL    HW161271   7.657   3.882   6.011
16265SOL    HW261272   7.758   3.856   6.137
16266SOL     OW61273   7.576   6.806   1.390
16266SOL    HW161274   7.660   6.778   1.344
16266SOL    HW261275   7.563   6.753   1.474
16267SOL     OW61276   8.077   5.595   6.923
16267SOL    HW161277   8.057   5.624   6.830
16267SOL    HW261278   8.149   5.653   6.962
16268SOL     OW61279   8.054   3.466   7.254
16268SOL    HW161280   8.036   3.375   7.217
16268SOL    HW261281   8.065   3.460   7.353
16269SOL     OW61282   8.511   4.302   2.308
16269SOL    HW161283   8.610   4.297   2.293
16269SOL    HW261284   8.463   4.285   2.221
16270SOL     OW61285   7.623   1.499   0.873
16270SOL    HW161286   7.714   1.525   0.842
16270SOL    HW261287   7.557   1.569   0.844
16271SOL     OW61288   7.620   5.768   0.112
16271SOL    HW161289   7.693   5.742   0.049
16271SOL    HW261290   7.566   5.842   0.073
16272SOL     OW61291   8.913   6.497   0.947
16272SOL    HW161292   8.878   6.419   1.000
16272SOL    HW261293   9.012   6.490   0.939
16273SOL     OW61294   8.512   1.924   1.782
16273SOL    HW161295   8.549   1.908   1.690
16273SOL    HW261296   8.571   1.989   1.830
16274SOL     OW61297   8.775   5.058   1.710
16274SOL    HW161298   8.843   5.009   1.763
16274SOL    HW261299   8.689   5.062   1.761
16275SOL     OW61300   8.311   2.730   5.793
16275SOL    HW161301   8.305   2.824   5.826
16275SOL    HW261302   8.264   2.723   5.705
16276SOL     OW61303   8.285   0.378   3.209
16276SOL    HW161304   8.216   0.437   3.169
16276SOL    HW261305   8.241   0.299   3.252
16277SOL     OW61306   7.469   1.995   2.642
16277SOL    HW161307   7.450   2.088   2.610
16277SOL    HW261308   7.468   1.994   2.742
16278SOL     OW61309   8.420   6.803   3.933
16278SOL    HW161310   8.456   6.896   3.937
16278SOL    HW261311   8.496   6.737   3.937
16279SOL     OW61312   8.870   2.600   3.180
16279SOL    HW161313   8.887   2.502   3.185
16279SOL    HW261314   8.772   2.616   3.171
16280SOL     OW61315   8.125   4.065   6.173
16280SOL    HW161316   8.113   4.056   6.074
16280SOL    HW261317   8.044   4.031   6.220
16281SOL     OW61318   8.805   6.199   5.478
16281SOL    HW161319   8.859   6.274   5.439
16281SOL    HW261320   8.834   6.113   5.437
16282SOL     OW61321   8.918   3.011   3.215
16282SOL    HW161322   8.916   2.924   3.264
16282SOL    HW261323   8.999   3.015   3.158
16283SOL     OW61324   7.387   2.921   5.244
16283SOL    HW161325   7.452   2.935   5.318
16283SOL    HW261326   7.361   3.010   5.205
16284SOL     OW61327   7.648   6.489   7.021
16284SOL    HW161328   7.658   6.570   7.079
16284SOL    HW261329   7.738   6.459   6.991
16285SOL     OW61330   8.597   5.785   5.388
16285SOL    HW161331   8.636   5.702   5.347
16285SOL    HW261332   8.662   5.860   5.378
16286SOL     OW61333   8.340   5.572   5.267
16286SOL    HW161334   8.426   5.594   5.312
16286SOL    HW261335   8.354   5.568   5.168
16287SOL     OW61336   8.197   0.207   1.174
16287SOL    HW161337   8.204   0.108   1.186
16287SOL    HW261338   8.109   0.230   1.131
16288SOL     OW61339   7.883   6.879   4.872
16288SOL    HW161340   7.966   6.872   4.817
16288SOL    HW261341   7.845   6.788   4.888
16289SOL     OW61342   8.086   4.480   0.918
16289SOL    HW161343   8.177   4.496   0.957
16289SOL    HW261344   8.016   4.510   0.982
16290SOL     OW61345   8.339   1.015   1.923
16290SOL    HW161346   8.314   0.983   1.832
16290SOL    HW261347   8.350   1.114   1.921
16291SOL     OW61348   8.000   4.603   3.393
16291SOL    HW161349   8.092   4.585   3.427
16291SOL    HW261350   8.005   4.661   3.312
16292SOL     OW61351   8.167   0.490   0.742
16292SOL    HW161352   8.221   0.406   0.753
16292SOL    HW261353   8.095   0.474   0.674
16293SOL     OW61354   7.662   0.088   3.080
16293SOL    HW161355   7.690   0.165   3.137
16293SOL    HW261356   7.601   0.028   3.132
16294SOL     OW61357   7.405   0.468   2.293
16294SOL    HW161358   7.414   0.378   2.250
16294SOL    HW261359   7.327   0.468   2.355
16295SOL     OW61360   8.122   6.381   0.159
16295SOL    HW161361   8.218   6.389   0.187
16295SOL    HW261362   8.085   6.294   0.192
16296SOL     OW61363   7.964   0.184   1.032
16296SOL    HW161364   8.000   0.277   1.027
16296SOL    HW261365   7.893   0.171   0.964
16297SOL     OW61366   8.131   0.908   1.660
16297SOL    HW161367   8.092   0.839   1.598
16297SOL    HW261368   8.224   0.931   1.630
16298SOL     OW61369   7.567   2.501   6.501
16298SOL    HW161370   7.517   2.501   6.588
16298SOL    HW261371   7.628   2.422   6.498
16299SOL     OW61372   9.026   0.040   3.721
16299SOL    HW161373   8.940   0.091   3.723
16299SOL    HW261374   9.067   0.041   3.812
16300SOL     OW61375   8.154   5.658   6.653
16300SOL    HW161376   8.085   5.717   6.610
16300SOL    HW261377   8.165   5.574   6.599
16301SOL     OW61378   8.553   3.844   1.218
16301SOL    HW161379   8.532   3.748   1.237
16301SOL    HW261380   8.620   3.849   1.144
16302SOL     OW61381   9.263   2.065   3.148
16302SOL    HW161382   9.340   2.055   3.210
16302SOL    HW261383   9.290   2.035   3.056
16303SOL     OW61384   7.577   3.447   6.247
16303SOL    HW161385   7.634   3.394   6.186
16303SOL    HW261386   7.631   3.480   6.324
16304SOL     OW61387   8.886   4.087   1.211
16304SOL    HW161388   8.897   4.048   1.302
16304SOL    HW261389   8.964   4.063   1.154
16305SOL     OW61390   7.536   0.559   1.368
16305SOL    HW161391   7.474   0.565   1.290
16305SOL    HW261392   7.527   0.642   1.424
16306SOL     OW61393   8.010   0.462   1.035
16306SOL    HW161394   7.947   0.501   0.968
16306SOL    HW261395   8.066   0.535   1.076
16307SOL     OW61396   8.321   3.730   1.480
16307SOL    HW161397   8.340   3.826   1.457
16307SOL    HW261398   8.222   3.717   1.489
16308SOL     OW61399   7.502   6.239   6.481
16308SOL    HW161400   7.543   6.236   6.390
16308SOL    HW261401   7.510   6.331   6.519
16309SOL     OW61402   7.556   4.815   0.514
16309SOL    HW161403   7.506   4.900   0.527
16309SOL    HW261404   7.588   4.808   0.420
16310SOL     OW61405   8.198   2.635   7.279
16310SOL    HW161406   8.108   2.624   7.236
16310SOL    HW261407   8.233   2.727   7.261
16311SOL     OW61408   7.441   4.371   1.798
16311SOL    HW161409   7.419   4.392   1.703
16311SOL    HW261410   7.508   4.296   1.801
16312SOL     OW61411   8.894   7.330   6.079
16312SOL    HW161412   8.835   7.309   6.157
16312SOL    HW261413   8.922   7.426   6.084
16313SOL     OW61414   8.275   0.643   1.410
16313SOL    HW161415   8.270   0.547   1.436
16313SOL    HW261416   8.184   0.684   1.413
16314SOL     OW61417   7.551   2.517   3.385
16314SOL    HW161418   7.601   2.515   3.471
16314SOL    HW261419   7.499   2.432   3.375
16315SOL     OW61420   8.738   0.240   6.999
16315SOL    HW161421   8.808   0.181   7.040
16315SOL    HW261422   8.761   0.256   6.903
16316SOL     OW61423   8.230   5.832   4.497
16316SOL    HW161424   8.326   5.858   4.499
16316SOL    HW261425   8.174   5.909   4.527
16317SOL     OW61426   7.752   2.277   6.451
16317SOL    HW161427   7.795   2.232   6.373
16317SOL    HW261428   7.814   2.274   6.529
16318SOL     OW61429   8.963   7.343   4.174
16318SOL    HW161430   8.999   7.426   4.216
16318SOL    HW261431   9.023   7.315   4.099
16319SOL     OW61432   8.049   2.926   0.721
16319SOL    HW161433   7.974   2.882   0.769
16319SOL    HW261434   8.056   3.022   0.750
16320SOL     OW61435   8.841   3.054   3.582
16320SOL    HW161436   8.745   3.071   3.603
16320SOL    HW261437   8.851   2.961   3.547
16321SOL     OW61438   7.868   6.190   7.330
16321SOL    HW161439   7.927   6.246   7.272
16321SOL    HW261440   7.772   6.211   7.310
16322SOL     OW61441   7.670   5.946   6.191
16322SOL    HW161442   7.761   5.933   6.230
16322SOL    HW261443   7.655   6.043   6.172
16323SOL     OW61444   7.362   2.748   3.315
16323SOL    HW161445   7.388   2.819   3.380
16323SOL    HW261446   7.442   2.692   3.293
16324SOL     OW61447   7.860   0.667   5.588
16324SOL    HW161448   7.891   0.590   5.531
16324SOL    HW261449   7.902   0.660   5.679
16325SOL     OW61450   8.899   0.468   0.121
16325SOL    HW161451   8.842   0.401   0.167
16325SOL    HW261452   8.846   0.512   0.048
16326SOL     OW61453   7.469   7.041   5.887
16326SOL    HW161454   7.527   7.089   5.820
16326SOL    HW261455   7.456   6.947   5.857
16327SOL     OW61456   7.699   2.556   3.611
16327SOL    HW161457   7.675   2.489   3.681
16327SOL    HW261458   7.671   2.647   3.642
16328SOL     OW61459   8.516   4.468   3.517
16328SOL    HW161460   8.440   4.403   3.516
16328SOL    HW261461   8.595   4.427   3.563
16329SOL     OW61462   8.682   4.019   5.586
16329SOL    HW161463   8.668   4.059   5.496
16329SOL    HW261464   8.615   4.057   5.650
16330SOL     OW61465   8.698   2.992   0.151
16330SOL    HW161466   8.672   2.938   0.071
16330SOL    HW261467   8.659   2.951   0.234
16331SOL     OW61468   7.489   4.664   3.523
16331SOL    HW161469   7.548   4.744   3.531
16331SOL    HW261470   7.500   4.607   3.605
16332SOL     OW61471   7.761   4.190   0.795
16332SOL    HW161472   7.794   4.169   0.703
16332SOL    HW261473   7.752   4.289   0.806
16333SOL     OW61474   9.061   1.791   1.221
16333SOL    HW161475   9.075   1.760   1.127
16333SOL    HW261476   9.079   1.716   1.285
16334SOL     OW61477   7.420   5.637   7.080
16334SOL    HW161478   7.508   5.636   7.032
16334SOL    HW261479   7.422   5.707   7.151
16335SOL     OW61480   8.898   0.813   2.966
16335SOL    HW161481   8.978   0.768   3.005
16335SOL    HW261482   8.887   0.785   2.871
16336SOL     OW61483   8.737   1.325   7.240
16336SOL    HW161484   8.696   1.367   7.321
16336SOL    HW261485   8.792   1.393   7.192
16337SOL     OW61486   7.467   0.600   5.783
16337SOL    HW161487   7.374   0.639   5.786
16337SOL    HW261488   7.529   0.667   5.741
16338SOL     OW61489   7.646   5.482   5.880
16338SOL    HW161490   7.659   5.521   5.789
16338SOL    HW261491   7.647   5.555   5.948
16339SOL     OW61492   8.505   3.031   0.818
16339SOL    HW161493   8.445   2.960   0.781
16339SOL    HW261494   8.522   3.014   0.915
16340SOL     OW61495   7.656   6.263   1.852
16340SOL    HW161496   7.715   6.237   1.776
16340SOL    HW261497   7.571   6.209   1.849
16341SOL     OW61498   8.507   4.148   2.049
16341SOL    HW161499   8.455   4.069   2.017
16341SOL    HW261500   8.530   4.206   1.971
16342SOL     OW61501   7.524   4.857   3.837
16342SOL    HW161502   7.517   4.758   3.825
16342SOL    HW261503   7.613   4.889   3.805
16343SOL     OW61504   8.379   3.913   6.767
16343SOL    HW161505   8.386   3.959   6.678
16343SOL    HW261506   8.468   3.915   6.812
16344SOL     OW61507   8.535   2.531   0.978
16344SOL    HW161508   8.466   2.555   1.047
16344SOL    HW261509   8.622   2.572   1.002
16345SOL     OW61510   8.086   4.118   3.405
16345SOL    HW161511   8.055   4.095   3.497
16345SOL    HW261512   8.014   4.098   3.338
16346SOL     OW61513   7.609   7.262   7.098
16346SOL    HW161514   7.708   7.271   7.105
16346SOL    HW261515   7.583   7.166   7.113
16347SOL     OW61516   8.157   4.489   6.690
16347SOL    HW161517   8.120   4.480   6.597
16347SOL    HW261518   8.082   4.488   6.756
16348SOL     OW61519   7.859   3.962   5.134
16348SOL    HW161520   7.941   3.904   5.136
16348SOL    HW261521   7.886   4.056   5.116
16349SOL     OW61522   8.550   3.395   3.351
16349SOL    HW161523   8.559   3.461   3.425
16349SOL    HW261524   8.632   3.338   3.346
16350SOL     OW61525   8.578   4.102   5.354
16350SOL    HW161526   8.522   4.019   5.361
16350SOL    HW261527   8.525   4.181   5.385
16351SOL     OW61528   8.433   5.411   0.434
16351SOL    HW161529   8.491   5.363   0.369
16351SOL    HW261530   8.358   5.352   0.462
16352SOL     OW61531   8.672   1.062   3.958
16352SOL    HW161532   8.715   1.017   3.880
16352SOL    HW261533   8.699   1.016   4.043
16353SOL     OW61534   7.388   6.474   0.069
16353SOL    HW161535   7.418   6.466   0.164
16353SOL    HW261536   7.371   6.570   0.047
16354SOL     OW61537   8.289   1.356   3.493
16354SOL    HW161538   8.335   1.417   3.557
16354SOL    HW261539   8.329   1.265   3.498
16355SOL     OW61540   7.371   3.532   5.216
16355SOL    HW161541   7.379   3.630   5.234
16355SOL    HW261542   7.463   3.494   5.202
16356SOL     OW61543   7.463   2.397   1.877
16356SOL    HW161544   7.469   2.354   1.788
16356SOL    HW261545   7.458   2.327   1.948
16357SOL     OW61546   8.623   3.388   4.082
16357SOL    HW161547   8.710   3.346   4.057
16357SOL    HW261548   8.593   3.351   4.170
16358SOL     OW61549   8.293   2.201   0.520
16358SOL    HW161550   8.368   2.210   0.585
16358SOL    HW261551   8.238   2.121   0.542
16359SOL     OW61552   7.648   4.810   0.930
16359SOL    HW161553   7.699   4.852   1.005
16359SOL    HW261554   7.658   4.866   0.848
16360SOL     OW61555   8.298   3.252   2.641
16360SOL    HW161556   8.213   3.289   2.679
16360SOL    HW261557   8.307   3.156   2.669
16361SOL     OW61558   8.310   5.086   2.912
16361SOL    HW161559   8.274   5.009   2.965
16361SOL    HW261560   8.274   5.083   2.819
16362SOL     OW61561   8.824   3.784   5.893
16362SOL    HW161562   8.801   3.776   5.796
16362SOL    HW261563   8.764   3.725   5.947
16363SOL     OW61564   7.576   4.680   2.346
16363SOL    HW161565   7.539   4.589   2.363
16363SOL    HW261566   7.509   4.735   2.296
16364SOL     OW61567   7.451   2.730   4.435
16364SOL    HW161568   7.361   2.698   4.407
16364SOL    HW261569   7.508   2.651   4.458
16365SOL     OW61570   8.381   3.500   0.609
16365SOL    HW161571   8.454   3.567   0.609
16365SOL    HW261572   8.403   3.427   0.674
16366SOL     OW61573   7.404   4.938   6.979
16366SOL    HW161574   7.440   4.852   6.945
16366SOL    HW261575   7.478   4.990   7.023
16367SOL     OW61576   7.655   6.522   6.313
16367SOL    HW161577   7.649   6.583   6.392
16367SOL    HW261578   7.586   6.547   6.246
16368SOL     OW61579   7.488   2.683   3.928
16368SOL    HW161580   7.395   2.697   3.896
16368SOL    HW261581   7.511   2.586   3.923
16369SOL     OW61582   9.162   3.951   1.105
16369SOL    HW161583   9.159   3.915   1.198
16369SOL    HW261584   9.257   3.972   1.081
16370SOL     OW61585   8.793   1.458   3.828
16370SOL    HW161586   8.776   1.519   3.905
16370SOL    HW261587   8.845   1.506   3.758
16371SOL     OW61588   8.630   4.460   0.232
16371SOL    HW161589   8.591   4.545   0.197
16371SOL    HW261590   8.614   4.386   0.167
16372SOL     OW61591   8.470   6.222   1.247
16372SOL    HW161592   8.474   6.293   1.317
16372SOL    HW261593   8.454   6.265   1.157
16373SOL     OW61594   7.372   2.743   6.922
16373SOL    HW161595   7.377   2.659   6.867
16373SOL    HW261596   7.349   2.820   6.862
16374SOL     OW61597   8.859   4.679   2.008
16374SOL    HW161598   8.858   4.756   1.944
16374SOL    HW261599   8.772   4.630   2.003
16375SOL     OW61600   8.226   4.698   0.379
16375SOL    HW161601   8.270   4.725   0.293
16375SOL    HW261602   8.193   4.780   0.426
16376SOL     OW61603   8.336   4.072   6.543
16376SOL    HW161604   8.370   4.146   6.484
16376SOL    HW261605   8.266   4.020   6.494
16377SOL     OW61606   8.381   2.663   6.472
16377SOL    HW161607   8.332   2.589   6.425
16377SOL    HW261608   8.318   2.712   6.532
16378SOL     OW61609   8.794   4.739   4.839
16378SOL    HW161610   8.805   4.643   4.815
16378SOL    HW261611   8.703   4.770   4.810
16379SOL     OW61612   7.435   5.676   0.912
16379SOL    HW161613   7.381   5.602   0.951
16379SOL    HW261614   7.469   5.735   0.986
16380SOL     OW61615   8.406   6.721   5.437
16380SOL    HW161616   8.410   6.625   5.409
16380SOL    HW261617   8.498   6.759   5.439
16381SOL     OW61618   7.736   2.816   3.072
16381SOL    HW161619   7.713   2.851   3.162
16381SOL    HW261620   7.715   2.718   3.067
16382SOL     OW61621   7.640   2.406   0.462
16382SOL    HW161622   7.595   2.441   0.380
16382SOL    HW261623   7.666   2.482   0.521
16383SOL     OW61624   7.802   3.462   1.487
16383SOL    HW161625   7.867   3.519   1.538
16383SOL    HW261626   7.845   3.430   1.403
16384SOL     OW61627   8.274   0.817   2.144
16384SOL    HW161628   8.308   0.864   2.063
16384SOL    HW261629   8.247   0.883   2.213
16385SOL     OW61630   7.370   3.164   5.088
16385SOL    HW161631   7.465   3.163   5.122
16385SOL    HW261632   7.314   3.218   5.150
16386SOL     OW61633   7.968   3.408   0.135
16386SOL    HW161634   7.897   3.479   0.131
16386SOL    HW261635   7.928   3.323   0.168
16387SOL     OW61636   8.032   2.058   6.916
16387SOL    HW161637   8.084   2.077   6.999
16387SOL    HW261638   8.018   1.960   6.907
16388SOL     OW61639   8.719   4.093   0.284
16388SOL    HW161640   8.647   4.027   0.306
16388SOL    HW261641   8.807   4.057   0.314
16389SOL     OW61642   9.079   4.734   0.749
16389SOL    HW161643   9.010   4.805   0.760
16389SOL    HW261644   9.076   4.672   0.828
16390SOL     OW61645   9.014   6.973   0.878
16390SOL    HW161646   9.008   6.873   0.874
16390SOL    HW261647   9.041   7.008   0.789
16391SOL     OW61648   8.637   3.126   3.760
16391SOL    HW161649   8.586   3.205   3.795
16391SOL    HW261650   8.574   3.056   3.729
16392SOL     OW61651   7.823   5.453   4.514
16392SOL    HW161652   7.847   5.523   4.581
16392SOL    HW261653   7.813   5.496   4.424
16393SOL     OW61654   8.210   2.526   0.745
16393SOL    HW161655   8.244   2.442   0.787
16393SOL    HW261656   8.183   2.590   0.817
16394SOL     OW61657   8.720   3.679   2.940
16394SOL    HW161658   8.729   3.681   3.039
16394SOL    HW261659   8.807   3.704   2.898
16395SOL     OW61660   8.690   0.079   3.617
16395SOL    HW161661   8.712   0.170   3.652
16395SOL    HW261662   8.612   0.041   3.667
16396SOL     OW61663   7.712   4.235   5.540
16396SOL    HW161664   7.632   4.188   5.577
16396SOL    HW261665   7.794   4.180   5.557
16397SOL     OW61666   8.782   3.341   0.679
16397SOL    HW161667   8.738   3.417   0.632
16397SOL    HW261668   8.870   3.371   0.717
16398SOL     OW61669   7.787   5.813   5.106
16398SOL    HW161670   7.818   5.899   5.065
16398SOL    HW261671   7.847   5.739   5.078
16399SOL     OW61672   8.425   1.222   3.025
16399SOL    HW161673   8.327   1.218   3.041
16399SOL    HW261674   8.473   1.204   3.111
16400SOL     OW61675   7.842   3.190   6.704
16400SOL    HW161676   7.803   3.178   6.796
16400SOL    HW261677   7.796   3.129   6.640
16401SOL     OW61678   8.198   5.049   3.808
16401SOL    HW161679   8.180   4.951   3.809
16401SOL    HW261680   8.112   5.099   3.799
16402SOL     OW61681   8.141   3.897   6.463
16402SOL    HW161682   8.064   3.927   6.408
16402SOL    HW261683   8.174   3.809   6.430
16403SOL     OW61684   8.595   4.004   6.194
16403SOL    HW161685   8.515   3.993   6.135
16403SOL    HW261686   8.596   3.931   6.263
16404SOL     OW61687   8.681   3.257   0.328
16404SOL    HW161688   8.641   3.237   0.417
16404SOL    HW261689   8.709   3.171   0.284
16405SOL     OW61690   8.327   3.901   2.297
16405SOL    HW161691   8.421   3.882   2.324
16405SOL    HW261692   8.287   3.966   2.362
16406SOL     OW61693   8.034   2.573   7.047
16406SOL    HW161694   8.127   2.563   7.011
16406SOL    HW261695   8.008   2.490   7.096
16407SOL     OW61696   8.664   2.015   1.967
16407SOL    HW161697   8.626   2.108   1.966
16407SOL    HW261698   8.763   2.020   1.977
16408SOL     OW61699   9.032   3.483   4.228
16408SOL    HW161700   8.983   3.406   4.188
16408SOL    HW261701   9.098   3.518   4.161
16409SOL     OW61702   7.512   1.957   2.091
16409SOL    HW161703   7.508   1.857   2.094
16409SOL    HW261704   7.608   1.986   2.091
16410SOL     OW61705   8.047   3.325   5.178
16410SOL    HW161706   8.070   3.355   5.085
16410SOL    HW261707   7.969   3.376   5.211
16411SOL     OW61708   7.517   2.950   1.148
16411SOL    HW161709   7.549   2.947   1.242
16411SOL    HW261710   7.525   2.859   1.107
16412SOL     OW61711   8.785   2.210   5.273
16412SOL    HW161712   8.826   2.120   5.261
16412SOL    HW261713   8.822   2.273   5.204
16413SOL     OW61714   7.505   6.357   4.486
16413SOL    HW161715   7.483   6.373   4.390
16413SOL    HW261716   7.433   6.397   4.544
16414SOL     OW61717   7.616   4.974   4.565
16414SOL    HW161718   7.550   4.910   4.605
16414SOL    HW261719   7.670   5.016   4.638
16415SOL     OW61720   7.749   3.175   6.980
16415SOL    HW161721   7.673   3.240   6.990
16415SOL    HW261722   7.724   3.089   7.025
16416SOL     OW61723   8.347   4.176   4.931
16416SOL    HW161724   8.318   4.127   5.013
16416SOL    HW261725   8.367   4.271   4.953
16417SOL     OW61726   8.429   1.091   3.885
16417SOL    HW161727   8.395   1.184   3.898
16417SOL    HW261728   8.525   1.087   3.911
16418SOL     OW61729   8.540   2.730   2.649
16418SOL    HW161730   8.604   2.656   2.671
16418SOL    HW261731   8.447   2.701   2.671
16419SOL     OW61732   8.964   2.197   0.957
16419SOL    HW161733   8.883   2.144   0.981
16419SOL    HW261734   9.026   2.199   1.036
16420SOL     OW61735   8.039   1.131   0.787
16420SOL    HW161736   8.007   1.224   0.804
16420SOL    HW261737   8.133   1.134   0.752
16421SOL     OW61738   7.754   5.079   4.771
16421SOL    HW161739   7.693   5.110   4.843
16421SOL    HW261740   7.848   5.081   4.804
16422SOL     OW61741   8.871   4.328   4.096
16422SOL    HW161742   8.799   4.271   4.057
16422SOL    HW261743   8.835   4.380   4.174
16423SOL     OW61744   7.438   1.980   6.200
16423SOL    HW161745   7.523   1.939   6.166
16423SOL    HW261746   7.460   2.054   6.263
16424SOL     OW61747   7.942   2.816   5.388
16424SOL    HW161748   8.018   2.871   5.423
16424SOL    HW261749   7.957   2.796   5.292
16425SOL     OW61750   8.143   2.915   7.266
16425SOL    HW161751   8.044   2.901   7.261
16425SOL    HW261752   8.166   3.007   7.234
16426SOL     OW61753   7.956   0.619   1.730
16426SOL    HW161754   7.862   0.586   1.726
16426SOL    HW261755   7.974   0.658   1.820
16427SOL     OW61756   8.361   6.165   4.509
16427SOL    HW161757   8.425   6.101   4.466
16427SOL    HW261758   8.288   6.115   4.553
16428SOL     OW61759   7.423   4.322   3.712
16428SOL    HW161760   7.329   4.289   3.721
16428SOL    HW261761   7.471   4.268   3.643
16429SOL     OW61762   8.755   2.736   1.451
16429SOL    HW161763   8.795   2.825   1.430
16429SOL    HW261764   8.657   2.739   1.436
16430SOL     OW61765   8.953   2.233   6.471
16430SOL    HW161766   8.901   2.166   6.525
16430SOL    HW261767   8.895   2.312   6.452
16431SOL     OW61768   7.453   2.613   5.356
16431SOL    HW161769   7.370   2.652   5.317
16431SOL    HW261770   7.513   2.686   5.388
16432SOL     OW61771   8.695   7.164   5.667
16432SOL    HW161772   8.764   7.188   5.735
16432SOL    HW261773   8.684   7.064   5.664
16433SOL     OW61774   8.266   2.615   1.143
16433SOL    HW161775   8.222   2.651   1.061
16433SOL    HW261776   8.209   2.543   1.183
16434SOL     OW61777   8.663   0.760   4.357
16434SOL    HW161778   8.674   0.817   4.439
16434SOL    HW261779   8.653   0.664   4.384
16435SOL     OW61780   9.111   3.024   3.029
16435SOL    HW161781   9.159   2.939   3.053
16435SOL    HW261782   9.098   3.028   2.930
16436SOL     OW61783   9.013   6.922   6.507
16436SOL    HW161784   9.023   7.021   6.500
16436SOL    HW261785   9.022   6.895   6.603
16437SOL     OW61786   8.519   3.772   7.137
16437SOL    HW161787   8.576   3.801   7.214
16437SOL    HW261788   8.464   3.692   7.164
16438SOL     OW61789   8.111   3.122   4.345
16438SOL    HW161790   8.083   3.185   4.273
16438SOL    HW261791   8.030   3.080   4.386
16439SOL     OW61792   7.696   3.960   5.367
16439SOL    HW161793   7.755   4.009   5.431
16439SOL    HW261794   7.750   3.931   5.288
16440SOL     OW61795   8.608   3.488   2.659
16440SOL    HW161796   8.520   3.530   2.684
16440SOL    HW261797   8.660   3.552   2.602
16441SOL     OW61798   8.369   6.382   0.553
16441SOL    HW161799   8.378   6.345   0.461
16441SOL    HW261800   8.275   6.413   0.568
16442SOL     OW61801   8.798   3.058   1.479
16442SOL    HW161802   8.721   3.060   1.543
16442SOL    HW261803   8.764   3.069   1.386
16443SOL     OW61804   7.840   6.225   6.025
16443SOL    HW161805   7.793   6.262   5.944
16443SOL    HW261806   7.935   6.255   6.025
16444SOL     OW61807   8.378   5.543   7.111
16444SOL    HW161808   8.382   5.478   7.035
16444SOL    HW261809   8.368   5.492   7.197
16445SOL     OW61810   8.328   0.309   1.673
16445SOL    HW161811   8.289   0.374   1.739
16445SOL    HW261812   8.301   0.335   1.580
16446SOL     OW61813   7.782   3.391   2.110
16446SOL    HW161814   7.753   3.472   2.161
16446SOL    HW261815   7.782   3.412   2.012
16447SOL     OW61816   7.519   4.066   5.626
16447SOL    HW161817   7.455   4.077   5.702
16447SOL    HW261818   7.512   3.974   5.589
16448SOL     OW61819   7.535   0.845   1.711
16448SOL    HW161820   7.443   0.873   1.739
16448SOL    HW261821   7.593   0.837   1.793
16449SOL     OW61822   7.861   3.509   5.283
16449SOL    HW161823   7.783   3.453   5.253
16449SOL    HW261824   7.851   3.530   5.380
16450SOL     OW61825   8.291   3.824   4.975
16450SOL    HW161826   8.362   3.808   4.906
16450SOL    HW261827   8.208   3.774   4.949
16451SOL     OW61828   8.273   4.444   5.192
16451SOL    HW161829   8.279   4.510   5.267
16451SOL    HW261830   8.332   4.473   5.117
16452SOL     OW61831   8.787   2.599   5.846
16452SOL    HW161832   8.857   2.605   5.775
16452SOL    HW261833   8.697   2.609   5.804
16453SOL     OW61834   7.517   3.724   3.697
16453SOL    HW161835   7.548   3.724   3.792
16453SOL    HW261836   7.592   3.697   3.637
16454SOL     OW61837   8.083   5.444   6.467
16454SOL    HW161838   8.119   5.353   6.448
16454SOL    HW261839   7.999   5.459   6.414
16455SOL     OW61840   8.220   3.478   3.019
16455SOL    HW161841   8.315   3.485   2.988
16455SOL    HW261842   8.197   3.556   3.077
16456SOL     OW61843   8.803   3.110   4.419
16456SOL    HW161844   8.826   3.153   4.332
16456SOL    HW261845   8.881   3.057   4.451
16457SOL     OW61846   8.137   1.976   6.431
16457SOL    HW161847   8.180   2.039   6.366
16457SOL    HW261848   8.161   2.003   6.524
16458SOL     OW61849   8.323   5.397   6.891
16458SOL    HW161850   8.229   5.418   6.919
16458SOL    HW261851   8.326   5.304   6.854
16459SOL     OW61852   8.220   4.840   5.787
16459SOL    HW161853   8.307   4.792   5.788
16459SOL    HW261854   8.145   4.774   5.790
16460SOL     OW61855   8.915   2.189   4.477
16460SOL    HW161856   8.847   2.118   4.490
16460SOL    HW261857   8.929   2.205   4.379
16461SOL     OW61858   7.360   6.810   6.286
16461SOL    HW161859   7.419   6.877   6.242
16461SOL    HW261860   7.385   6.718   6.256
16462SOL     OW61861   8.376   5.716   6.803
16462SOL    HW161862   8.297   5.691   6.747
16462SOL    HW261863   8.393   5.645   6.871
16463SOL     OW61864   8.468   4.375   6.979
16463SOL    HW161865   8.504   4.306   7.041
16463SOL    HW261866   8.415   4.331   6.907
16464SOL     OW61867   8.859   4.265   7.245
16464SOL    HW161868   8.843   4.349   7.194
16464SOL    HW261869   8.957   4.255   7.262
16465SOL     OW61870   7.422   2.784   0.745
16465SOL    HW161871   7.368   2.743   0.818
16465SOL    HW261872   7.368   2.857   0.702
16466SOL     OW61873   7.926   1.304   0.392
16466SOL    HW161874   7.999   1.329   0.456
16466SOL    HW261875   7.964   1.249   0.318
16467SOL     OW61876   8.791   0.183   5.827
16467SOL    HW161877   8.735   0.116   5.875
16467SOL    HW261878   8.764   0.275   5.856
16468SOL     OW61879   7.606   4.200   7.007
16468SOL    HW161880   7.521   4.190   6.955
16468SOL    HW261881   7.656   4.279   6.973
16469SOL     OW61882   8.268   3.396   6.558
16469SOL    HW161883   8.325   3.322   6.596
16469SOL    HW261884   8.248   3.463   6.630
16470SOL     OW61885   7.995   1.822   2.787
16470SOL    HW161886   7.898   1.799   2.799
16470SOL    HW261887   8.033   1.764   2.715
16471SOL     OW61888   7.513   3.295   2.996
16471SOL    HW161889   7.521   3.380   3.047
16471SOL    HW261890   7.604   3.253   2.987
16472SOL     OW61891   8.355   0.115   7.317
16472SOL    HW161892   8.257   0.102   7.303
16472SOL    HW261893   8.370   0.168   7.401
16473SOL     OW61894   8.427   0.975   1.649
16473SOL    HW161895   8.461   0.927   1.569
16473SOL    HW261896   8.494   1.044   1.677
16474SOL     OW61897   7.995   2.551   2.928
16474SOL    HW161898   7.901   2.521   2.946
16474SOL    HW261899   8.053   2.525   3.006
16475SOL     OW61900   7.881   3.737   4.377
16475SOL    HW161901   7.887   3.744   4.476
16475SOL    HW261902   7.819   3.808   4.342
16476SOL     OW61903   7.644   1.425   3.643
16476SOL    HW161904   7.714   1.356   3.661
16476SOL    HW261905   7.583   1.392   3.571
16477SOL     OW61906   8.442   3.991   3.592
16477SOL    HW161907   8.489   3.922   3.536
16477SOL    HW261908   8.344   3.973   3.593
16478SOL     OW61909   7.795   6.843   0.615
16478SOL    HW161910   7.887   6.881   0.629
16478SOL    HW261911   7.751   6.890   0.539
16479SOL     OW61912   8.404   1.593   2.518
16479SOL    HW161913   8.399   1.493   2.510
16479SOL    HW261914   8.490   1.618   2.562
16480SOL     OW61915   8.491   2.669   0.713
16480SOL    HW161916   8.443   2.742   0.664
16480SOL    HW261917   8.438   2.644   0.794
16481SOL     OW61918   7.676   2.828   3.780
16481SOL    HW161919   7.681   2.899   3.851
16481SOL    HW261920   7.660   2.739   3.823
16482SOL     OW61921   7.913   3.150   2.092
16482SOL    HW161922   7.871   3.241   2.094
16482SOL    HW261923   7.865   3.089   2.154
16483SOL     OW61924   8.145   4.365   2.364
16483SOL    HW161925   8.077   4.395   2.297
16483SOL    HW261926   8.146   4.430   2.441
16484SOL     OW61927   8.356   7.000   6.876
16484SOL    HW161928   8.424   7.070   6.897
16484SOL    HW261929   8.274   7.043   6.840
16485SOL     OW61930   7.405   4.472   6.837
16485SOL    HW161931   7.364   4.556   6.799
16485SOL    HW261932   7.365   4.393   6.792
16486SOL     OW61933   7.793   4.579   0.368
16486SOL    HW161934   7.704   4.537   0.379
16486SOL    HW261935   7.862   4.526   0.417
16487SOL     OW61936   8.680   5.346   2.292
16487SOL    HW161937   8.661   5.381   2.384
16487SOL    HW261938   8.682   5.246   2.295
16488SOL     OW61939   7.918   0.851   2.580
16488SOL    HW161940   7.853   0.894   2.642
16488SOL    HW261941   7.904   0.887   2.487
16489SOL     OW61942   8.056   3.687   1.179
16489SOL    HW161943   8.143   3.713   1.138
16489SOL    HW261944   7.985   3.685   1.108
16490SOL     OW61945   8.780   3.424   5.418
16490SOL    HW161946   8.792   3.507   5.472
16490SOL    HW261947   8.690   3.424   5.376
16491SOL     OW61948   8.449   2.168   1.415
16491SOL    HW161949   8.413   2.225   1.341
16491SOL    HW261950   8.387   2.093   1.432
16492SOL     OW61951   8.240   3.723   0.009
16492SOL    HW161952   8.216   3.705   0.105
16492SOL    HW261953   8.168   3.778  -0.033
16493SOL     OW61954   7.793   2.727   1.104
16493SOL    HW161955   7.861   2.713   1.176
16493SOL    HW261956   7.839   2.750   1.018
16494SOL     OW61957   7.944   4.500   0.134
16494SOL    HW161958   7.893   4.531   0.214
16494SOL    HW261959   8.037   4.476   0.161
16495SOL     OW61960   7.367   2.480   0.669
16495SOL    HW161961   7.408   2.571   0.679
16495SOL    HW261962   7.313   2.477   0.586
16496SOL     OW61963   8.433   1.610   3.961
16496SOL    HW161964   8.528   1.640   3.974
16496SOL    HW261965   8.379   1.686   3.925
16497SOL     OW61966   8.378   0.111   1.429
16497SOL    HW161967   8.335   0.020   1.425
16497SOL    HW261968   8.308   0.179   1.453
16498SOL     OW61969   8.102   2.002   0.599
16498SOL    HW161970   8.015   1.954   0.584
16498SOL    HW261971   8.177   1.936   0.595
16499SOL     OW61972   8.352   1.090   4.541
16499SOL    HW161973   8.346   1.190   4.529
16499SOL    HW261974   8.360   1.047   4.452
16500SOL     OW61975   8.303   1.276   1.960
16500SOL    HW161976   8.230   1.297   1.895
16500SOL    HW261977   8.331   1.360   2.007
16501SOL     OW61978   8.555   1.860   6.329
16501SOL    HW161979   8.621   1.795   6.293
16501SOL    HW261980   8.464   1.818   6.331
16502SOL     OW61981   7.554   3.388   1.548
16502SOL    HW161982   7.634   3.407   1.492
16502SOL    HW261983   7.491   3.328   1.498
16503SOL     OW61984   7.689   1.986   3.596
16503SOL    HW161985   7.757   1.941   3.655
16503SOL    HW261986   7.605   1.931   3.594
16504SOL     OW61987   8.029   5.133   4.793
16504SOL    HW161988   8.121   5.157   4.824
16504SOL    HW261989   8.005   5.190   4.714
16505SOL     OW61990   8.143   1.212   3.083
16505SOL    HW161991   8.076   1.208   3.009
16505SOL    HW261992   8.124   1.140   3.150
16506SOL     OW61993   8.160   6.251   7.022
16506SOL    HW161994   8.136   6.302   7.105
16506SOL    HW261995   8.219   6.308   6.965
16507SOL     OW61996   8.221   3.216   6.267
16507SOL    HW161997   8.210   3.229   6.169
16507SOL    HW261998   8.284   3.285   6.302
16508SOL     OW61999   7.489   4.454   5.338
16508SOL    HW162000   7.396   4.459   5.302
16508SOL    HW262001   7.525   4.547   5.351
16509SOL     OW62002   7.706   4.194   4.953
16509SOL    HW162003   7.715   4.161   4.859
16509SOL    HW262004   7.619   4.163   4.991
16510SOL     OW62005   8.959   0.474   6.935
16510SOL    HW162006   8.889   0.477   7.006
16510SOL    HW262007   9.044   0.514   6.970
16511SOL     OW62008   7.541   1.245   2.216
16511SOL    HW162009   7.488   1.258   2.299
16511SOL    HW262010   7.485   1.198   2.148
16512SOL     OW62011   8.156   5.047   0.191
16512SOL    HW162012   8.141   5.120   0.124
16512SOL    HW262013   8.169   4.960   0.144
16513SOL     OW62014   8.795   3.759   0.134
16513SOL    HW162015   8.705   3.769   0.176
16513SOL    HW262016   8.832   3.669   0.154
16514SOL     OW62017   8.940   7.184   0.211
16514SOL    HW162018   8.919   7.259   0.275
16514SOL    HW262019   8.960   7.101   0.263
16515SOL     OW62020   8.051   3.358   4.163
16515SOL    HW162021   8.114   3.310   4.102
16515SOL    HW262022   7.965   3.376   4.114
16516SOL     OW62023   8.493   5.010   1.847
16516SOL    HW162024   8.504   5.106   1.872
16516SOL    HW262025   8.426   4.967   1.909
16517SOL     OW62026   7.841   3.459   6.710
16517SOL    HW162027   7.832   3.360   6.711
16517SOL    HW262028   7.909   3.488   6.777
16518SOL     OW62029   8.424   6.614   6.336
16518SOL    HW162030   8.409   6.592   6.239
16518SOL    HW262031   8.501   6.560   6.370
16519SOL     OW62032   8.978   4.350   1.243
16519SOL    HW162033   8.922   4.267   1.249
16519SOL    HW262034   8.927   4.427   1.281
16520SOL     OW62035   7.536   5.736   6.695
16520SOL    HW162036   7.599   5.714   6.620
16520SOL    HW262037   7.520   5.835   6.696
16521SOL     OW62038   8.516   6.156   7.341
16521SOL    HW162039   8.429   6.108   7.351
16521SOL    HW262040   8.573   6.140   7.421
16522SOL     OW62041   7.442   2.560   4.816
16522SOL    HW162042   7.460   2.511   4.902
16522SOL    HW262043   7.384   2.639   4.835
16523SOL     OW62044   8.086   6.842   4.685
16523SOL    HW162045   8.051   6.749   4.688
16523SOL    HW262046   8.103   6.869   4.590
16524SOL     OW62047   8.489   0.661   1.753
16524SOL    HW162048   8.566   0.619   1.800
16524SOL    HW262049   8.448   0.732   1.810
16525SOL     OW62050   7.745   3.750   0.505
16525SOL    HW162051   7.786   3.810   0.573
16525SOL    HW262052   7.696   3.676   0.551
16526SOL     OW62053   8.388   2.324   5.457
16526SOL    HW162054   8.467   2.321   5.519
16526SOL    HW262055   8.410   2.381   5.378
16527SOL     OW62056   7.561   3.942   3.136
16527SOL    HW162057   7.497   3.942   3.213
16527SOL    HW262058   7.579   3.847   3.108
16528SOL     OW62059   8.475   4.278   2.610
16528SOL    HW162060   8.490   4.261   2.513
16528SOL    HW262061   8.483   4.376   2.629
16529SOL     OW62062   7.728   0.843   5.284
16529SOL    HW162063   7.721   0.943   5.286
16529SOL    HW262064   7.824   0.816   5.290
16530SOL     OW62065   8.248   2.215   5.890
16530SOL    HW162066   8.261   2.257   5.980
16530SOL    HW262067   8.337   2.206   5.845
16531SOL     OW62068   9.009   2.846   1.372
16531SOL    HW162069   9.009   2.797   1.285
16531SOL    HW262070   8.949   2.926   1.365
16532SOL     OW62071   8.563   4.078   4.213
16532SOL    HW162072   8.600   4.067   4.305
16532SOL    HW262073   8.508   4.162   4.209
16533SOL     OW62074   7.733   5.906   1.591
16533SOL    HW162075   7.688   5.892   1.503
16533SOL    HW262076   7.730   6.003   1.615
16534SOL     OW62077   7.485   4.027   6.412
16534SOL    HW162078   7.499   3.928   6.415
16534SOL    HW262079   7.387   4.047   6.412
16535SOL     OW62080   7.696   1.154   1.183
16535SOL    HW162081   7.693   1.115   1.090
16535SOL    HW262082   7.603   1.168   1.217
16536SOL     OW62083   7.583   1.848   3.195
16536SOL    HW162084   7.514   1.869   3.264
16536SOL    HW262085   7.608   1.752   3.200
16537SOL     OW62086   8.341   5.512   4.991
16537SOL    HW162087   8.310   5.592   4.939
16537SOL    HW262088   8.335   5.431   4.933
16538SOL     OW62089   8.538   7.053   0.739
16538SOL    HW162090   8.580   7.095   0.819
16538SOL    HW262091   8.608   7.038   0.669
16539SOL     OW62092   7.955   4.227   2.101
16539SOL    HW162093   8.051   4.201   2.116
16539SOL    HW262094   7.901   4.145   2.080
16540SOL     OW62095   7.471   0.991   6.445
16540SOL    HW162096   7.416   0.932   6.504
16540SOL    HW262097   7.452   0.969   6.350
16541SOL     OW62098   8.769   1.697   7.126
16541SOL    HW162099   8.844   1.747   7.082
16541SOL    HW262100   8.789   1.599   7.125
16542SOL     OW62101   9.117   3.652   6.132
16542SOL    HW162102   9.112   3.700   6.045
16542SOL    HW262103   9.211   3.651   6.165
16543SOL     OW62104   8.928   1.184   3.536
16543SOL    HW162105   8.861   1.251   3.567
16543SOL    HW262106   8.893   1.135   3.457
16544SOL     OW62107   8.149   2.999   5.430
16544SOL    HW162108   8.164   3.039   5.339
16544SOL    HW262109   8.237   2.976   5.471
16545SOL     OW62110   9.118   5.024   1.095
16545SOL    HW162111   9.086   5.108   1.138
16545SOL    HW262112   9.217   5.016   1.105
16546SOL     OW62113   7.878   3.583   5.535
16546SOL    HW162114   7.967   3.628   5.533
16546SOL    HW262115   7.817   3.631   5.597
16547SOL     OW62116   8.666   2.266   1.189
16547SOL    HW162117   8.697   2.360   1.170
16547SOL    HW262118   8.667   2.250   1.287
16548SOL     OW62119   8.245   0.535   2.153
16548SOL    HW162120   8.251   0.631   2.180
16548SOL    HW262121   8.192   0.484   2.221
16549SOL     OW62122   8.443   3.040   6.306
16549SOL    HW162123   8.500   3.102   6.360
16549SOL    HW262124   8.357   3.085   6.283
16550SOL     OW62125   8.441   6.749   6.825
16550SOL    HW162126   8.408   6.843   6.834
16550SOL    HW262127   8.401   6.693   6.896
16551SOL     OW62128   7.456   3.345   7.240
16551SOL    HW162129   7.367   3.389   7.232
16551SOL    HW262130   7.495   3.332   7.148
16552SOL     OW62131   7.462   5.402   7.195
16552SOL    HW162132   7.416   5.321   7.158
16552SOL    HW262133   7.433   5.483   7.146
16553SOL     OW62134   7.685   5.272   0.428
16553SOL    HW162135   7.648   5.179   0.420
16553SOL    HW262136   7.611   5.338   0.420
16554SOL     OW62137   7.770   5.060   0.835
16554SOL    HW162138   7.825   5.039   0.754
16554SOL    HW262139   7.742   5.156   0.833
16555SOL     OW62140   8.963   2.314   7.060
16555SOL    HW162141   8.942   2.359   6.974
16555SOL    HW262142   8.904   2.234   7.071
16556SOL     OW62143   7.414   0.006   1.791
16556SOL    HW162144   7.408  -0.090   1.764
16556SOL    HW262145   7.358   0.062   1.730
16557SOL     OW62146   8.095   7.069   6.792
16557SOL    HW162147   8.013   7.041   6.843
16557SOL    HW262148   8.069   7.131   6.719
16558SOL     OW62149   7.695   0.933   2.828
16558SOL    HW162150   7.750   0.975   2.900
16558SOL    HW262151   7.602   0.970   2.831
16559SOL     OW62152   7.712   1.906   5.549
16559SOL    HW162153   7.752   1.816   5.562
16559SOL    HW262154   7.728   1.962   5.630
16560SOL     OW62155   8.415   6.332   0.993
16560SOL    HW162156   8.404   6.252   0.934
16560SOL    HW262157   8.350   6.403   0.966
16561SOL     OW62158   8.651   1.147   1.717
16561SOL    HW162159   8.688   1.089   1.644
16561SOL    HW262160   8.611   1.230   1.678
16562SOL     OW62161   8.436   2.979   5.509
16562SOL    HW162162   8.490   2.922   5.447
16562SOL    HW262163   8.444   2.943   5.602
16563SOL     OW62164   7.760   1.125   3.088
16563SOL    HW162165   7.663   1.136   3.067
16563SOL    HW262166   7.815   1.145   3.006
16564SOL     OW62167   8.285   5.106   5.001
16564SOL    HW162168   8.221   5.143   5.068
16564SOL    HW262169   8.314   5.014   5.031
16565SOL     OW62170   8.279   2.645   2.704
16565SOL    HW162171   8.287   2.575   2.633
16565SOL    HW262172   8.330   2.616   2.785
16566SOL     OW62173   8.179   6.891   5.396
16566SOL    HW162174   8.268   6.845   5.395
16566SOL    HW262175   8.184   6.974   5.340
16567SOL     OW62176   8.388   5.650   2.025
16567SOL    HW162177   8.463   5.591   2.056
16567SOL    HW262178   8.300   5.609   2.052
16568SOL     OW62179   8.313   3.377   2.034
16568SOL    HW162180   8.324   3.449   2.102
16568SOL    HW262181   8.398   3.367   1.982
16569SOL     OW62182   8.186   5.755   2.328
16569SOL    HW162183   8.240   5.839   2.319
16569SOL    HW262184   8.117   5.753   2.256
16570SOL     OW62185   8.895   4.551   4.644
16570SOL    HW162186   8.972   4.564   4.582
16570SOL    HW262187   8.847   4.467   4.620
16571SOL     OW62188   8.263   2.672   5.521
16571SOL    HW162189   8.206   2.591   5.512
16571SOL    HW262190   8.277   2.714   5.431
16572SOL     OW62191   8.264   4.278   6.231
16572SOL    HW162192   8.343   4.240   6.279
16572SOL    HW262193   8.197   4.206   6.215
16573SOL     OW62194   8.118   4.032   1.801
16573SOL    HW162195   8.055   3.955   1.810
16573SOL    HW262196   8.206   4.009   1.840
16574SOL     OW62197   8.844   3.604   4.396
16574SOL    HW162198   8.899   3.552   4.331
16574SOL    HW262199   8.894   3.612   4.482
16575SOL     OW62200   7.437   6.351   2.080
16575SOL    HW162201   7.354   6.370   2.027
16575SOL    HW262202   7.515   6.343   2.017
16576SOL     OW62203   8.625   1.375   2.676
16576SOL    HW162204   8.570   1.392   2.757
16576SOL    HW262205   8.709   1.428   2.681
16577SOL     OW62206   8.268   3.653   6.753
16577SOL    HW162207   8.174   3.644   6.787
16577SOL    HW262208   8.290   3.749   6.740
16578SOL     OW62209   8.346   4.674   1.509
16578SOL    HW162210   8.305   4.753   1.463
16578SOL    HW262211   8.403   4.706   1.585
16579SOL     OW62212   7.714   2.991   3.310
16579SOL    HW162213   7.812   2.989   3.289
16579SOL    HW262214   7.700   2.982   3.408
16580SOL     OW62215   8.101   3.864   4.004
16580SOL    HW162216   8.136   3.853   4.097
16580SOL    HW262217   8.018   3.810   3.993
16581SOL     OW62218   8.247   4.962   6.725
16581SOL    HW162219   8.297   5.034   6.677
16581SOL    HW262220   8.311   4.910   6.783
16582SOL     OW62221   8.279   6.676   3.697
16582SOL    HW162222   8.258   6.751   3.634
16582SOL    HW262223   8.314   6.713   3.783
16583SOL     OW62224   7.713   1.047   1.843
16583SOL    HW162225   7.776   1.068   1.769
16583SOL    HW262226   7.619   1.066   1.815
16584SOL     OW62227   8.703   5.186   0.805
16584SOL    HW162228   8.798   5.216   0.810
16584SOL    HW262229   8.645   5.264   0.778
16585SOL     OW62230   9.077   4.039   5.980
16585SOL    HW162231   9.105   3.949   5.947
16585SOL    HW262232   8.978   4.049   5.969
16586SOL     OW62233   8.121   2.437   1.298
16586SOL    HW162234   8.069   2.520   1.319
16586SOL    HW262235   8.196   2.428   1.363
16587SOL     OW62236   9.009   0.750   3.598
16587SOL    HW162237   9.048   0.674   3.650
16587SOL    HW262238   8.915   0.727   3.572
16588SOL     OW62239   8.410   3.637   4.119
16588SOL    HW162240   8.498   3.651   4.165
16588SOL    HW262241   8.416   3.675   4.026
16589SOL     OW62242   7.373   2.680   2.505
16589SOL    HW162243   7.378   2.608   2.437
16589SOL    HW262244   7.343   2.765   2.461
16590SOL     OW62245   7.936   4.479   6.865
16590SOL    HW162246   7.839   4.483   6.841
16590SOL    HW262247   7.960   4.385   6.890
16591SOL     OW62248   8.700   6.730   5.450
16591SOL    HW162249   8.771   6.735   5.379
16591SOL    HW262250   8.737   6.684   5.530
16592SOL     OW62251   8.328   6.102   4.835
16592SOL    HW162252   8.424   6.109   4.809
16592SOL    HW262253   8.321   6.100   4.935
16593SOL     OW62254   8.314   0.669   6.260
16593SOL    HW162255   8.335   0.740   6.193
16593SOL    HW262256   8.223   0.631   6.241
16594SOL     OW62257   7.701   5.588   3.820
16594SOL    HW162258   7.654   5.653   3.761
16594SOL    HW262259   7.667   5.496   3.801
16595SOL     OW62260   8.093   0.120   7.262
16595SOL    HW162261   8.138   0.080   7.182
16595SOL    HW262262   8.036   0.197   7.234
16596SOL     OW62263   8.504   0.058   7.082
16596SOL    HW162264   8.575   0.129   7.082
16596SOL    HW262265   8.466   0.050   7.175
16597SOL     OW62266   8.372   3.396   4.288
16597SOL    HW162267   8.273   3.386   4.303
16597SOL    HW262268   8.388   3.464   4.217
16598SOL     OW62269   8.222   2.048   7.105
16598SOL    HW162270   8.260   1.956   7.092
16598SOL    HW262271   8.246   2.081   7.197
16599SOL     OW62272   8.391   4.270   0.862
16599SOL    HW162273   8.369   4.339   0.930
16599SOL    HW262274   8.412   4.314   0.775
16600SOL     OW62275   8.666   1.100   2.653
16600SOL    HW162276   8.664   1.198   2.635
16600SOL    HW262277   8.732   1.080   2.726
16601SOL     OW62278   7.771   2.622   7.107
16601SOL    HW162279   7.870   2.629   7.099
16601SOL    HW262280   7.741   2.663   7.193
16602SOL     OW62281   7.465   5.189   0.750
16602SOL    HW162282   7.523   5.270   0.760
16602SOL    HW262283   7.442   5.154   0.841
16603SOL     OW62284   8.439   2.766   3.465
16603SOL    HW162285   8.433   2.666   3.458
16603SOL    HW262286   8.483   2.802   3.383
16604SOL     OW62287   8.547   4.843   3.240
16604SOL    HW162288   8.587   4.753   3.229
16604SOL    HW262289   8.558   4.874   3.334
16605SOL     OW62290   8.972   1.384   0.604
16605SOL    HW162291   8.946   1.295   0.566
16605SOL    HW262292   9.040   1.370   0.676
16606SOL     OW62293   8.778   4.072   0.582
16606SOL    HW162294   8.746   4.159   0.621
16606SOL    HW262295   8.864   4.088   0.533
16607SOL     OW62296   7.636   3.695   1.362
16607SOL    HW162297   7.672   3.737   1.279
16607SOL    HW262298   7.710   3.649   1.411
16608SOL     OW62299   8.677   0.788   1.154
16608SOL    HW162300   8.659   0.808   1.251
16608SOL    HW262301   8.701   0.692   1.145
16609SOL     OW62302   8.864   0.055   0.359
16609SOL    HW162303   8.796   0.111   0.312
16609SOL    HW262304   8.936   0.113   0.398
16610SOL     OW62305   8.811   4.527   5.065
16610SOL    HW162306   8.724   4.534   5.114
16610SOL    HW262307   8.869   4.604   5.088
16611SOL     OW62308   7.519   2.652   2.722
16611SOL    HW162309   7.470   2.665   2.636
16611SOL    HW262310   7.565   2.737   2.748
16612SOL     OW62311   7.934   3.940   5.883
16612SOL    HW162312   7.949   3.842   5.889
16612SOL    HW262313   7.847   3.964   5.927
16613SOL     OW62314   8.577   4.910   3.791
16613SOL    HW162315   8.606   4.838   3.729
16613SOL    HW262316   8.512   4.970   3.744
16614SOL     OW62317   7.903   3.725   0.284
16614SOL    HW162318   7.974   3.782   0.326
16614SOL    HW262319   7.822   3.725   0.342
16615SOL     OW62320   8.912   3.013   2.436
16615SOL    HW162321   8.934   3.105   2.469
16615SOL    HW262322   8.837   2.975   2.491
16616SOL     OW62323   8.207   6.898   3.561
16616SOL    HW162324   8.287   6.956   3.547
16616SOL    HW262325   8.126   6.955   3.573
16617SOL     OW62326   7.781   2.168   6.984
16617SOL    HW162327   7.873   2.174   6.946
16617SOL    HW262328   7.786   2.159   7.083
16618SOL     OW62329   8.388   0.057   4.328
16618SOL    HW162330   8.320   0.131   4.331
16618SOL    HW262331   8.461   0.078   4.393
16619SOL     OW62332   7.644   3.393   0.865
16619SOL    HW162333   7.670   3.403   0.961
16619SOL    HW262334   7.583   3.315   0.855
16620SOL     OW62335   8.273   7.108   6.014
16620SOL    HW162336   8.255   7.200   5.978
16620SOL    HW262337   8.207   7.088   6.087
16621SOL     OW62338   7.968   5.409   7.081
16621SOL    HW162339   8.006   5.485   7.027
16621SOL    HW262340   7.881   5.438   7.123
16622SOL     OW62341   8.311   1.360   3.855
16622SOL    HW162342   8.343   1.442   3.901
16622SOL    HW262343   8.247   1.384   3.783
16623SOL     OW62344   7.967   3.293   5.905
16623SOL    HW162345   7.917   3.283   5.819
16623SOL    HW262346   8.053   3.242   5.898
16624SOL     OW62347   8.302   6.347   3.729
16624SOL    HW162348   8.263   6.301   3.649
16624SOL    HW262349   8.265   6.440   3.734
16625SOL     OW62350   8.779   4.928   5.042
16625SOL    HW162351   8.775   4.864   4.966
16625SOL    HW262352   8.874   4.933   5.076
16626SOL     OW62353   8.045   1.407   6.967
16626SOL    HW162354   7.975   1.478   6.961
16626SOL    HW262355   8.005   1.325   7.009
16627SOL     OW62356   8.835   1.872   3.161
16627SOL    HW162357   8.912   1.812   3.180
16627SOL    HW262358   8.751   1.818   3.153
16628SOL     OW62359   7.464   0.270   1.415
16628SOL    HW162360   7.469   0.369   1.400
16628SOL    HW262361   7.448   0.224   1.327
16629SOL     OW62362   8.182   0.219   2.221
16629SOL    HW162363   8.145   0.272   2.297
16629SOL    HW262364   8.118   0.219   2.145
16630SOL     OW62365   7.360   5.420   1.841
16630SOL    HW162366   7.416   5.367   1.776
16630SOL    HW262367   7.419   5.481   1.894
16631SOL     OW62368   8.015   2.291   5.738
16631SOL    HW162369   8.108   2.262   5.761
16631SOL    HW262370   7.967   2.319   5.821
16632SOL     OW62371   7.756   3.858   6.539
16632SOL    HW162372   7.799   3.907   6.463
16632SOL    HW262373   7.666   3.897   6.558
16633SOL     OW62374   7.892   3.806   4.755
16633SOL    HW162375   7.896   3.894   4.707
16633SOL    HW262376   7.807   3.801   4.807
16634SOL     OW62377   8.493   2.681   6.208
16634SOL    HW162378   8.459   2.656   6.299
16634SOL    HW262379   8.540   2.769   6.213
16635SOL     OW62380   7.609   3.307   5.747
16635SOL    HW162381   7.547   3.318   5.670
16635SOL    HW262382   7.704   3.315   5.716
16636SOL     OW62383   8.369   1.877   2.533
16636SOL    HW162384   8.420   1.792   2.521
16636SOL    HW262385   8.271   1.859   2.532
16637SOL     OW62386   7.997   2.718   5.141
16637SOL    HW162387   7.957   2.630   5.166
16637SOL    HW262388   8.069   2.703   5.073
16638SOL     OW62389   8.454   1.368   0.576
16638SOL    HW162390   8.544   1.333   0.604
16638SOL    HW262391   8.460   1.405   0.483
16639SOL     OW62392   7.599   2.882   1.390
16639SOL    HW162393   7.639   2.801   1.433
16639SOL    HW262394   7.527   2.919   1.449
16640SOL     OW62395   8.384   6.130   0.720
16640SOL    HW162396   8.406   6.212   0.667
16640SOL    HW262397   8.384   6.050   0.660
16641SOL     OW62398   8.485   1.344   6.923
16641SOL    HW162399   8.496   1.277   6.996
16641SOL    HW262400   8.510   1.302   6.835
16642SOL     OW62401   7.908   3.518   6.010
16642SOL    HW162402   7.957   3.438   5.976
16642SOL    HW262403   7.949   3.601   5.970
16643SOL     OW62404   8.187   2.086   6.679
16643SOL    HW162405   8.131   2.052   6.754
16643SOL    HW262406   8.270   2.129   6.715
16644SOL     OW62407   8.298   5.142   4.048
16644SOL    HW162408   8.225   5.207   4.069
16644SOL    HW262409   8.279   5.098   3.960
16645SOL     OW62410   8.391   2.333   0.893
16645SOL    HW162411   8.451   2.399   0.937
16645SOL    HW262412   8.421   2.317   0.799
16646SOL     OW62413   7.757   1.045   7.138
16646SOL    HW162414   7.852   1.067   7.117
16646SOL    HW262415   7.707   1.022   7.055
16647SOL     OW62416   8.923   2.396   5.100
16647SOL    HW162417   8.921   2.365   5.005
16647SOL    HW262418   8.900   2.494   5.104
16648SOL     OW62419   8.626   0.042   5.998
16648SOL    HW162420   8.553   0.018   5.934
16648SOL    HW262421   8.636  -0.030   6.066
16649SOL     OW62422   8.896   2.145   3.927
16649SOL    HW162423   8.885   2.143   4.026
16649SOL    HW262424   8.860   2.231   3.892
16650SOL     OW62425   8.597   2.354   5.829
16650SOL    HW162426   8.616   2.394   5.740
16650SOL    HW262427   8.569   2.426   5.893
16651SOL     OW62428   8.312   4.580   4.248
16651SOL    HW162429   8.222   4.569   4.290
16651SOL    HW262430   8.310   4.657   4.185
16652SOL     OW62431   8.752   2.655   0.246
16652SOL    HW162432   8.657   2.674   0.273
16652SOL    HW262433   8.765   2.556   0.240
16653SOL     OW62434   9.180   3.961   6.820
16653SOL    HW162435   9.176   3.907   6.904
16653SOL    HW262436   9.246   4.036   6.831
16654SOL     OW62437   8.675   4.968   6.483
16654SOL    HW162438   8.665   4.900   6.556
16654SOL    HW262439   8.700   4.922   6.397
16655SOL     OW62440   7.719   7.095   5.416
16655SOL    HW162441   7.654   7.069   5.345
16655SOL    HW262442   7.762   7.182   5.391
16656SOL     OW62443   7.413   4.628   2.747
16656SOL    HW162444   7.438   4.724   2.738
16656SOL    HW262445   7.485   4.570   2.710
16657SOL     OW62446   9.106   6.579   1.260
16657SOL    HW162447   9.080   6.514   1.332
16657SOL    HW262448   9.136   6.529   1.179
16658SOL     OW62449   7.668   4.596   7.090
16658SOL    HW162450   7.707   4.531   7.155
16658SOL    HW262451   7.684   4.564   6.997
16659SOL     OW62452   9.346   4.887   6.860
16659SOL    HW162453   9.346   4.924   6.767
16659SOL    HW262454   9.251   4.873   6.889
16660SOL     OW62455   7.550   6.617   5.298
16660SOL    HW162456   7.458   6.652   5.281
16660SOL    HW262457   7.545   6.521   5.327
16661SOL     OW62458   8.307   6.122   2.017
16661SOL    HW162459   8.305   6.049   2.086
16661SOL    HW262460   8.398   6.125   1.975
16662SOL     OW62461   8.574   4.934   4.055
16662SOL    HW162462   8.565   5.030   4.081
16662SOL    HW262463   8.593   4.928   3.957
16663SOL     OW62464   8.091   3.176   0.785
16663SOL    HW162465   8.129   3.226   0.864
16663SOL    HW262466   8.010   3.225   0.751
16664SOL     OW62467   7.975   4.077   0.590
16664SOL    HW162468   8.040   4.146   0.621
16664SOL    HW262469   7.908   4.120   0.530
16665SOL     OW62470   8.690   4.884   5.690
16665SOL    HW162471   8.743   4.897   5.606
16665SOL    HW262472   8.706   4.961   5.752
16666SOL     OW62473   9.061   6.734   6.953
16666SOL    HW162474   9.149   6.692   6.974
16666SOL    HW262475   8.992   6.663   6.942
16667SOL     OW62476   8.544   0.847   1.994
16667SOL    HW162477   8.517   0.820   2.087
16667SOL    HW262478   8.495   0.930   1.968
16668SOL     OW62479   7.737   3.941   4.261
16668SOL    HW162480   7.660   3.935   4.197
16668SOL    HW262481   7.782   4.029   4.250
16669SOL     OW62482   8.597   2.641   3.147
16669SOL    HW162483   8.571   2.567   3.209
16669SOL    HW262484   8.544   2.723   3.169
16670SOL     OW62485   8.967   1.136   0.439
16670SOL    HW162486   9.033   1.065   0.462
16670SOL    HW262487   8.881   1.094   0.411
16671SOL     OW62488   8.618   6.541   6.790
16671SOL    HW162489   8.558   6.616   6.818
16671SOL    HW262490   8.678   6.572   6.717
16672SOL     OW62491   9.087   5.389   4.367
16672SOL    HW162492   9.151   5.319   4.397
16672SOL    HW262493   9.036   5.424   4.445
16673SOL     OW62494   8.265   3.053   2.871
16673SOL    HW162495   8.349   3.002   2.891
16673SOL    HW262496   8.204   2.995   2.816
16674SOL     OW62497   8.508   1.533   7.146
16674SOL    HW162498   8.548   1.622   7.125
16674SOL    HW262499   8.521   1.472   7.068
16675SOL     OW62500   8.362   3.025   4.941
16675SOL    HW162501   8.436   3.086   4.915
16675SOL    HW262502   8.343   2.961   4.866
16676SOL     OW62503   8.288   4.748   0.106
16676SOL    HW162504   8.367   4.693   0.079
16676SOL    HW262505   8.227   4.759   0.028
16677SOL     OW62506   8.715   2.524   2.042
16677SOL    HW162507   8.703   2.484   2.133
16677SOL    HW262508   8.625   2.545   2.003
16678SOL     OW62509   8.484   2.938   6.614
16678SOL    HW162510   8.560   2.940   6.550
16678SOL    HW262511   8.517   2.956   6.707
16679SOL     OW62512   8.581   3.940   3.832
16679SOL    HW162513   8.535   3.989   3.759
16679SOL    HW262514   8.661   3.992   3.862
16680SOL     OW62515   7.629   4.167   4.402
16680SOL    HW162516   7.653   4.140   4.496
16680SOL    HW262517   7.532   4.151   4.387
16681SOL     OW62518   7.943   2.523   2.660
16681SOL    HW162519   7.869   2.456   2.659
16681SOL    HW262520   7.956   2.557   2.754
16682SOL     OW62521   7.526   1.177   2.900
16682SOL    HW162522   7.471   1.150   2.821
16682SOL    HW262523   7.566   1.267   2.884
16683SOL     OW62524   8.749   7.114   6.510
16683SOL    HW162525   8.848   7.104   6.502
16683SOL    HW262526   8.713   7.042   6.569
16684SOL     OW62527   7.383   1.769   0.327
16684SOL    HW162528   7.375   1.679   0.284
16684SOL    HW262529   7.371   1.761   0.426
16685SOL     OW62530   7.861   3.703   4.084
16685SOL    HW162531   7.849   3.608   4.057
16685SOL    HW262532   7.880   3.707   4.182
16686SOL     OW62533   8.233   0.167   5.376
16686SOL    HW162534   8.207   0.225   5.299
16686SOL    HW262535   8.199   0.075   5.362
16687SOL     OW62536   7.440   7.283   1.495
16687SOL    HW162537   7.414   7.371   1.535
16687SOL    HW262538   7.537   7.266   1.513
16688SOL     OW62539   8.923   3.413   0.380
16688SOL    HW162540   8.922   3.439   0.284
16688SOL    HW262541   8.838   3.365   0.403
16689SOL     OW62542   8.234   0.936   7.148
16689SOL    HW162543   8.243   0.917   7.050
16689SOL    HW262544   8.170   0.871   7.189
16690SOL     OW62545   9.033   4.297   3.053
16690SOL    HW162546   9.126   4.270   3.026
16690SOL    HW262547   8.988   4.342   2.976
16691SOL     OW62548   8.952   6.416   6.522
16691SOL    HW162549   9.032   6.441   6.467
16691SOL    HW262550   8.894   6.353   6.471
16692SOL     OW62551   8.806   5.749   0.633
16692SOL    HW162552   8.829   5.839   0.599
16692SOL    HW262553   8.744   5.758   0.711
16693SOL     OW62554   7.830   3.883   3.195
16693SOL    HW162555   7.734   3.900   3.170
16693SOL    HW262556   7.890   3.914   3.122
16694SOL     OW62557   7.889   2.418   0.245
16694SOL    HW162558   7.838   2.373   0.171
16694SOL    HW262559   7.889   2.517   0.231
16695SOL     OW62560   8.571   1.132   7.129
16695SOL    HW162561   8.625   1.209   7.163
16695SOL    HW262562   8.506   1.103   7.199
16696SOL     OW62563   8.128   4.028   1.238
16696SOL    HW162564   8.153   4.037   1.141
16696SOL    HW262565   8.204   3.988   1.289
16697SOL     OW62566   9.270   5.988   3.444
16697SOL    HW162567   9.184   5.939   3.428
16697SOL    HW262568   9.312   6.012   3.356
16698SOL     OW62569   8.330   1.980   2.252
16698SOL    HW162570   8.313   1.985   2.350
16698SOL    HW262571   8.245   1.998   2.202
16699SOL     OW62572   8.826   4.553   5.556
16699SOL    HW162573   8.882   4.494   5.614
16699SOL    HW262574   8.841   4.529   5.460
16700SOL     OW62575   7.361   6.789   0.493
16700SOL    HW162576   7.378   6.693   0.473
16700SOL    HW262577   7.267   6.812   0.469
16701SOL     OW62578   8.622   3.963   1.679
16701SOL    HW162579   8.680   3.974   1.760
16701SOL    HW262580   8.555   3.890   1.697
16702SOL     OW62581   7.494   0.565   2.661
16702SOL    HW162582   7.574   0.506   2.648
16702SOL    HW262583   7.465   0.602   2.573
16703SOL     OW62584   9.070   5.835   4.090
16703SOL    HW162585   9.106   5.769   4.155
16703SOL    HW262586   9.042   5.918   4.138
16704SOL     OW62587   8.858   4.314   0.274
16704SOL    HW162588   8.811   4.402   0.279
16704SOL    HW262589   8.792   4.240   0.281
16705SOL     OW62590   7.839   1.614   0.743
16705SOL    HW162591   7.879   1.701   0.774
16705SOL    HW262592   7.819   1.620   0.645
16706SOL     OW62593   8.268   3.188   1.230
16706SOL    HW162594   8.191   3.170   1.291
16706SOL    HW262595   8.346   3.221   1.284
16707SOL     OW62596   8.267   2.166   3.853
16707SOL    HW162597   8.228   2.257   3.861
16707SOL    HW262598   8.345   2.168   3.790
16708SOL     OW62599   7.550   7.146   6.594
16708SOL    HW162600   7.649   7.150   6.607
16708SOL    HW262601   7.530   7.122   6.499
16709SOL     OW62602   8.765   2.050   6.672
16709SOL    HW162603   8.853   2.004   6.688
16709SOL    HW262604   8.690   1.986   6.689
16710SOL     OW62605   8.431   5.134   3.711
16710SOL    HW162606   8.457   5.211   3.769
16710SOL    HW262607   8.342   5.099   3.741
16711SOL     OW62608   8.933   2.424   1.231
16711SOL    HW162609   8.946   2.478   1.148
16711SOL    HW262610   8.982   2.337   1.224
16712SOL     OW62611   8.776   3.827   3.671
16712SOL    HW162612   8.774   3.897   3.599
16712SOL    HW262613   8.696   3.839   3.731
16713SOL     OW62614   8.870   0.613   7.168
16713SOL    HW162615   8.803   0.540   7.185
16713SOL    HW262616   8.845   0.694   7.222
16714SOL     OW62617   7.797   3.666   2.291
16714SOL    HW162618   7.802   3.631   2.385
16714SOL    HW262619   7.827   3.761   2.289
16715SOL     OW62620   8.752   0.286   1.576
16715SOL    HW162621   8.752   0.187   1.565
16715SOL    HW262622   8.729   0.329   1.489
16716SOL     OW62623   9.054   4.628   1.604
16716SOL    HW162624   9.130   4.646   1.666
16716SOL    HW262625   9.088   4.615   1.511
16717SOL     OW62626   7.523   6.929   2.717
16717SOL    HW162627   7.618   6.899   2.719
16717SOL    HW262628   7.465   6.855   2.683
16718SOL     OW62629   7.870   3.865   6.781
16718SOL    HW162630   7.805   3.854   6.706
16718SOL    HW262631   7.943   3.928   6.753
16719SOL     OW62632   8.639   1.579   1.730
16719SOL    HW162633   8.644   1.611   1.825
16719SOL    HW262634   8.675   1.650   1.669
16720SOL     OW62635   7.594   2.398   4.187
16720SOL    HW162636   7.604   2.311   4.139
16720SOL    HW262637   7.497   2.417   4.201
16721SOL     OW62638   7.361   7.345   6.739
16721SOL    HW162639   7.428   7.286   6.694
16721SOL    HW262640   7.371   7.338   6.838
16722SOL     OW62641   7.512   7.052   5.224
16722SOL    HW162642   7.570   7.044   5.143
16722SOL    HW262643   7.432   6.993   5.215
16723SOL     OW62644   8.841   1.952   3.767
16723SOL    HW162645   8.821   1.862   3.805
16723SOL    HW262646   8.876   2.011   3.839
16724SOL     OW62647   8.567   2.959   1.062
16724SOL    HW162648   8.601   3.034   1.118
16724SOL    HW262649   8.613   2.874   1.088
16725SOL     OW62650   8.715   7.146   0.950
16725SOL    HW162651   8.721   7.245   0.961
16725SOL    HW262652   8.742   7.101   1.036
16726SOL     OW62653   8.831   5.556   0.211
16726SOL    HW162654   8.787   5.590   0.128
16726SOL    HW262655   8.855   5.634   0.269
16727SOL     OW62656   7.825   6.035   1.168
16727SOL    HW162657   7.752   6.071   1.111
16727SOL    HW262658   7.803   6.049   1.264
16728SOL     OW62659   8.179   5.184   7.264
16728SOL    HW162660   8.146   5.199   7.171
16728SOL    HW262661   8.228   5.265   7.296
16729SOL     OW62662   7.897   5.852   7.252
16729SOL    HW162663   7.959   5.896   7.317
16729SOL    HW262664   7.927   5.874   7.159
16730SOL     OW62665   8.452   0.821   6.040
16730SOL    HW162666   8.548   0.851   6.048
16730SOL    HW262667   8.425   0.820   5.944
16731SOL     OW62668   8.064   1.955   1.486
16731SOL    HW162669   8.136   1.965   1.417
16731SOL    HW262670   8.058   2.039   1.539
16732SOL     OW62671   8.012   6.344   4.009
16732SOL    HW162672   8.003   6.417   3.942
16732SOL    HW262673   8.088   6.363   4.071
16733SOL     OW62674   8.889   7.213   5.845
16733SOL    HW162675   8.893   7.265   5.930
16733SOL    HW262676   8.969   7.153   5.839
16734SOL     OW62677   8.038   7.326   5.152
16734SOL    HW162678   8.065   7.422   5.140
16734SOL    HW262679   7.958   7.321   5.212
16735SOL     OW62680   8.147   4.209   5.211
16735SOL    HW162681   8.198   4.294   5.195
16735SOL    HW262682   8.054   4.219   5.176
16736SOL     OW62683   7.712   0.380   2.578
16736SOL    HW162684   7.723   0.369   2.479
16736SOL    HW262685   7.795   0.423   2.616
16737SOL     OW62686   7.373   3.936   3.324
16737SOL    HW162687   7.307   3.878   3.371
16737SOL    HW262688   7.332   3.976   3.242
16738SOL     OW62689   7.489   3.913   0.145
16738SOL    HW162690   7.407   3.954   0.104
16738SOL    HW262691   7.565   3.919   0.079
16739SOL     OW62692   8.555   3.415   7.019
16739SOL    HW162693   8.474   3.402   7.076
16739SOL    HW262694   8.535   3.480   6.946
16740SOL     OW62695   8.932   5.156   2.940
16740SOL    HW162696   9.003   5.143   3.009
16740SOL    HW262697   8.941   5.247   2.900
16741SOL     OW62698   7.929   0.953   2.305
16741SOL    HW162699   8.026   0.978   2.314
16741SOL    HW262700   7.909   0.934   2.209
16742SOL     OW62701   7.386   4.830   6.211
16742SOL    HW162702   7.420   4.890   6.138
16742SOL    HW262703   7.376   4.883   6.296
16743SOL     OW62704   8.323   2.875   0.667
16743SOL    HW162705   8.227   2.878   0.697
16743SOL    HW262706   8.333   2.924   0.581
16744SOL     OW62707   7.960   1.181   2.876
16744SOL    HW162708   8.018   1.102   2.857
16744SOL    HW262709   7.962   1.243   2.798
16745SOL     OW62710   9.050   0.591   6.305
16745SOL    HW162711   9.082   0.520   6.367
16745SOL    HW262712   8.953   0.609   6.322
16746SOL     OW62713   7.743   0.163   1.256
16746SOL    HW162714   7.804   0.110   1.197
16746SOL    HW262715   7.765   0.260   1.248
16747SOL     OW62716   7.869   6.856   5.445
16747SOL    HW162717   7.966   6.856   5.421
16747SOL    HW262718   7.831   6.947   5.431
16748SOL     OW62719   8.822   4.977   7.176
16748SOL    HW162720   8.764   5.044   7.222
16748SOL    HW262721   8.835   5.003   7.081
16749SOL     OW62722   7.525   0.308   2.968
16749SOL    HW162723   7.540   0.234   3.034
16749SOL    HW262724   7.553   0.395   3.008
16750SOL     OW62725   8.193   0.926   4.687
16750SOL    HW162726   8.252   0.854   4.648
16750SOL    HW262727   8.230   1.016   4.662
16751SOL     OW62728   7.616   6.503   2.775
16751SOL    HW162729   7.567   6.441   2.837
16751SOL    HW262730   7.601   6.598   2.805
16752SOL     OW62731   7.384   1.439   0.307
16752SOL    HW162732   7.340   1.373   0.367
16752SOL    HW262733   7.484   1.432   0.317
16753SOL     OW62734   7.902   6.414   6.964
16753SOL    HW162735   7.909   6.314   6.960
16753SOL    HW262736   7.990   6.455   6.941
16754SOL     OW62737   7.498   0.032   2.532
16754SOL    HW162738   7.499   0.120   2.580
16754SOL    HW262739   7.473  -0.041   2.595
16755SOL     OW62740   7.884   2.724   0.837
16755SOL    HW162741   7.896   2.642   0.892
16755SOL    HW262742   7.849   2.699   0.747
16756SOL     OW62743   7.540   3.795   2.394
16756SOL    HW162744   7.610   3.783   2.324
16756SOL    HW262745   7.483   3.713   2.398
16757SOL     OW62746   8.949   6.783   1.318
16757SOL    HW162747   8.892   6.724   1.376
16757SOL    HW262748   9.011   6.726   1.264
16758SOL     OW62749   7.659   0.529   1.771
16758SOL    HW162750   7.575   0.580   1.757
16758SOL    HW262751   7.655   0.480   1.858
16759SOL     OW62752   8.463   4.288   2.936
16759SOL    HW162753   8.465   4.320   2.841
16759SOL    HW262754   8.554   4.297   2.976
16760SOL     OW62755   8.796   1.637   2.812
16760SOL    HW162756   8.887   1.671   2.787
16760SOL    HW262757   8.805   1.544   2.848
16761SOL     OW62758   8.599   3.216   2.007
16761SOL    HW162759   8.625   3.244   2.099
16761SOL    HW262760   8.661   3.143   1.976
16762SOL     OW62761   8.943   0.231   6.165
16762SOL    HW162762   8.852   0.250   6.129
16762SOL    HW262763   8.967   0.301   6.233
16763SOL     OW62764   8.713   0.495   1.820
16763SOL    HW162765   8.638   0.438   1.854
16763SOL    HW262766   8.739   0.465   1.728
16764SOL     OW62767   7.705   5.604   0.747
16764SOL    HW162768   7.745   5.668   0.681
16764SOL    HW262769   7.606   5.616   0.750
16765SOL     OW62770   8.219   4.160   3.086
16765SOL    HW162771   8.263   4.204   3.007
16765SOL    HW262772   8.289   4.132   3.152
16766SOL     OW62773   7.844   4.345   0.551
16766SOL    HW162774   7.798   4.404   0.618
16766SOL    HW262775   7.936   4.378   0.534
16767SOL     OW62776   8.736   2.523   4.773
16767SOL    HW162777   8.694   2.594   4.716
16767SOL    HW262778   8.828   2.553   4.799
16768SOL     OW62779   8.922   3.419   6.144
16768SOL    HW162780   8.963   3.501   6.103
16768SOL    HW262781   8.993   3.368   6.194
16769SOL     OW62782   8.546   5.740   4.843
16769SOL    HW162783   8.600   5.658   4.864
16769SOL    HW262784   8.450   5.715   4.833
16770SOL     OW62785   7.749   6.872   1.081
16770SOL    HW162786   7.787   6.964   1.086
16770SOL    HW262787   7.785   6.817   1.155
16771SOL     OW62788   8.480   4.301   3.884
16771SOL    HW162789   8.384   4.271   3.886
16771SOL    HW262790   8.484   4.398   3.910
16772SOL     OW62791   7.681   1.006   0.314
16772SOL    HW162792   7.662   0.973   0.222
16772SOL    HW262793   7.780   1.015   0.327
16773SOL     OW62794   8.200   2.123   6.204
16773SOL    HW162795   8.281   2.178   6.226
16773SOL    HW262796   8.228   2.032   6.176
16774SOL     OW62797   8.172   3.956   3.646
16774SOL    HW162798   8.073   3.968   3.657
16774SOL    HW262799   8.200   3.870   3.690
16775SOL     OW62800   8.039   0.704   1.987
16775SOL    HW162801   8.128   0.708   2.033
16775SOL    HW262802   7.982   0.779   2.019
16776SOL     OW62803   7.782   2.680   6.350
16776SOL    HW162804   7.715   2.682   6.424
16776SOL    HW262805   7.847   2.606   6.366
16777SOL     OW62806   8.374   4.859   5.161
16777SOL    HW162807   8.332   4.788   5.218
16777SOL    HW262808   8.463   4.883   5.198
16778SOL     OW62809   8.042   6.371   6.554
16778SOL    HW162810   8.120   6.377   6.616
16778SOL    HW262811   7.958   6.354   6.607
16779SOL     OW62812   8.174   6.604   5.745
16779SOL    HW162813   8.175   6.704   5.744
16779SOL    HW262814   8.246   6.569   5.685
16780SOL     OW62815   8.209   2.500   2.497
16780SOL    HW162816   8.123   2.529   2.541
16780SOL    HW262817   8.214   2.538   2.405
16781SOL     OW62818   8.122   5.219   6.976
16781SOL    HW162819   8.064   5.292   7.012
16781SOL    HW262820   8.067   5.157   6.920
16782SOL     OW62821   7.835   3.242   2.938
16782SOL    HW162822   7.921   3.287   2.914
16782SOL    HW262823   7.834   3.149   2.902
16783SOL     OW62824   7.725   2.416   5.155
16783SOL    HW162825   7.748   2.321   5.132
16783SOL    HW262826   7.782   2.447   5.231
16784SOL     OW62827   7.711   1.995   0.866
16784SOL    HW162828   7.645   1.921   0.862
16784SOL    HW262829   7.804   1.958   0.866
16785SOL     OW62830   7.738   4.960   3.720
16785SOL    HW162831   7.818   5.018   3.737
16785SOL    HW262832   7.746   4.918   3.630
16786SOL     OW62833   8.144   2.731   0.944
16786SOL    HW162834   8.172   2.823   0.972
16786SOL    HW262835   8.050   2.734   0.910
16787SOL     OW62836   7.560   2.198   3.974
16787SOL    HW162837   7.486   2.140   4.007
16787SOL    HW262838   7.529   2.250   3.895
16788SOL     OW62839   7.455   2.252   2.536
16788SOL    HW162840   7.393   2.302   2.596
16788SOL    HW262841   7.453   2.293   2.445
16789SOL     OW62842   8.495   5.269   1.914
16789SOL    HW162843   8.410   5.282   1.862
16789SOL    HW262844   8.508   5.347   1.976
16790SOL     OW62845   8.041   3.717   5.183
16790SOL    HW162846   8.081   3.695   5.094
16790SOL    HW262847   7.978   3.644   5.210
16791SOL     OW62848   7.636   4.367   1.557
16791SOL    HW162849   7.545   4.367   1.516
16791SOL    HW262850   7.696   4.306   1.506
16792SOL     OW62851   7.744   5.708   6.491
16792SOL    HW162852   7.750   5.612   6.464
16792SOL    HW262853   7.772   5.766   6.414
16793SOL     OW62854   8.885   5.618   5.031
16793SOL    HW162855   8.813   5.557   4.998
16793SOL    HW262856   8.974   5.585   5.000
16794SOL     OW62857   7.417   5.596   0.649
16794SOL    HW162858   7.380   5.669   0.592
16794SOL    HW262859   7.420   5.627   0.744
16795SOL     OW62860   7.397   3.773   6.750
16795SOL    HW162861   7.353   3.863   6.755
16795SOL    HW262862   7.462   3.763   6.825
16796SOL     OW62863   8.082   4.374   6.434
16796SOL    HW162864   8.048   4.457   6.391
16796SOL    HW262865   8.165   4.343   6.387
16797SOL     OW62866   8.208   4.548   1.745
16797SOL    HW162867   8.241   4.453   1.748
16797SOL    HW262868   8.247   4.594   1.665
16798SOL     OW62869   8.077   1.320   1.780
16798SOL    HW162870   8.029   1.275   1.705
16798SOL    HW262871   8.033   1.407   1.801
16799SOL     OW62872   8.094   3.497   3.762
16799SOL    HW162873   8.080   3.590   3.730
16799SOL    HW262874   8.190   3.471   3.749
16800SOL     OW62875   8.621   2.246   6.951
16800SOL    HW162876   8.679   2.165   6.956
16800SOL    HW262877   8.639   2.306   7.029
16801SOL     OW62878   8.607   6.185   7.090
16801SOL    HW162879   8.577   6.179   7.185
16801SOL    HW262880   8.594   6.097   7.045
16802SOL     OW62881   8.582   4.603   5.166
16802SOL    HW162882   8.508   4.605   5.098
16802SOL    HW262883   8.588   4.692   5.211
16803SOL     OW62884   8.883   1.392   2.894
16803SOL    HW162885   8.972   1.354   2.921
16803SOL    HW262886   8.816   1.318   2.886
16804SOL     OW62887   8.949   6.091   0.064
16804SOL    HW162888   8.898   6.162   0.111
16804SOL    HW262889   8.887   6.038   0.006
16805SOL     OW62890   7.755   3.659   3.602
16805SOL    HW162891   7.745   3.564   3.634
16805SOL    HW262892   7.790   3.658   3.508
16806SOL     OW62893   8.356   4.478   6.048
16806SOL    HW162894   8.307   4.410   6.102
16806SOL    HW262895   8.303   4.564   6.047
16807SOL     OW62896   7.928   4.480   2.183
16807SOL    HW162897   7.907   4.382   2.173
16807SOL    HW262898   7.850   4.534   2.151
16808SOL     OW62899   7.550   0.650   0.411
16808SOL    HW162900   7.610   0.616   0.484
16808SOL    HW262901   7.549   0.750   0.413
16809SOL     OW62902   7.804   6.154   6.488
16809SOL    HW162903   7.733   6.178   6.421
16809SOL    HW262904   7.787   6.203   6.573
16810SOL     OW62905   8.906   3.458   3.194
16810SOL    HW162906   8.844   3.385   3.222
16810SOL    HW262907   8.861   3.547   3.207
16811SOL     OW62908   7.802   7.149   0.722
16811SOL    HW162909   7.879   7.211   0.708
16811SOL    HW262910   7.762   7.125   0.633
16812SOL     OW62911   8.127   2.429   5.505
16812SOL    HW162912   8.075   2.377   5.573
16812SOL    HW262913   8.214   2.382   5.486
16813SOL     OW62914   7.598   0.831   1.452
16813SOL    HW162915   7.572   0.839   1.548
16813SOL    HW262916   7.537   0.886   1.396
16814SOL     OW62917   7.451   0.104   1.186
16814SOL    HW162918   7.544   0.081   1.215
16814SOL    HW262919   7.454   0.166   1.108
16815SOL     OW62920   8.658   6.152   0.218
16815SOL    HW162921   8.722   6.221   0.253
16815SOL    HW262922   8.675   6.065   0.263
16816SOL     OW62923   8.530   4.240   1.773
16816SOL    HW162924   8.526   4.143   1.750
16816SOL    HW262925   8.452   4.287   1.732
16817SOL     OW62926   8.660   1.712   1.960
16817SOL    HW162927   8.681   1.810   1.957
16817SOL    HW262928   8.642   1.685   2.054
16818SOL     OW62929   8.837   6.527   5.590
16818SOL    HW162930   8.910   6.496   5.529
16818SOL    HW262931   8.789   6.448   5.627
16819SOL     OW62932   7.494   6.778   4.816
16819SOL    HW162933   7.574   6.753   4.870
16819SOL    HW262934   7.523   6.816   4.728
16820SOL     OW62935   8.689   3.560   0.556
16820SOL    HW162936   8.650   3.554   0.464
16820SOL    HW262937   8.745   3.643   0.562
16821SOL     OW62938   8.520   2.910   3.216
16821SOL    HW162939   8.585   2.940   3.146
16821SOL    HW262940   8.501   2.986   3.279
16822SOL     OW62941   7.430   4.561   4.759
16822SOL    HW162942   7.400   4.468   4.739
16822SOL    HW262943   7.519   4.577   4.717
16823SOL     OW62944   9.249   0.536   6.553
16823SOL    HW162945   9.256   0.477   6.633
16823SOL    HW262946   9.186   0.612   6.572
16824SOL     OW62947   8.247   4.285   1.712
16824SOL    HW162948   8.204   4.304   1.623
16824SOL    HW262949   8.205   4.205   1.753
16825SOL     OW62950   8.009   5.853   5.547
16825SOL    HW162951   7.944   5.882   5.477
16825SOL    HW262952   8.037   5.932   5.602
16826SOL     OW62953   8.602   6.477   6.480
16826SOL    HW162954   8.594   6.452   6.576
16826SOL    HW262955   8.661   6.412   6.433
16827SOL     OW62956   7.767   1.899   6.925
16827SOL    HW162957   7.792   1.890   6.829
16827SOL    HW262958   7.779   1.994   6.954
16828SOL     OW62959   7.699   6.345   5.833
16828SOL    HW162960   7.600   6.350   5.839
16828SOL    HW262961   7.738   6.437   5.840
16829SOL     OW62962   7.780   4.142   0.395
16829SOL    HW162963   7.783   4.236   0.428
16829SOL    HW262964   7.685   4.114   0.382
16830SOL     OW62965   7.633   4.183   1.892
16830SOL    HW162966   7.716   4.189   1.835
16830SOL    HW262967   7.594   4.091   1.884
16831SOL     OW62968   8.209   4.703   6.091
16831SOL    HW162969   8.236   4.795   6.064
16831SOL    HW262970   8.109   4.695   6.089
16832SOL     OW62971   8.019   3.722   3.620
16832SOL    HW162972   8.039   3.753   3.527
16832SOL    HW262973   7.926   3.686   3.624
16833SOL     OW62974   7.849   5.589   4.254
16833SOL    HW162975   7.874   5.540   4.170
16833SOL    HW262976   7.892   5.679   4.255
16834SOL     OW62977   7.733   5.479   7.197
16834SOL    HW162978   7.644   5.455   7.234
16834SOL    HW262979   7.721   5.514   7.104
16835SOL     OW62980   8.892   1.351   1.809
16835SOL    HW162981   8.873   1.350   1.908
16835SOL    HW262982   8.811   1.319   1.760
16836SOL     OW62983   7.886   3.647   3.343
16836SOL    HW162984   7.886   3.577   3.271
16836SOL    HW262985   7.853   3.733   3.306
16837SOL     OW62986   8.308   1.805   3.833
16837SOL    HW162987   8.246   1.866   3.882
16837SOL    HW262988   8.264   1.774   3.749
16838SOL     OW62989   7.387   1.163   0.029
16838SOL    HW162990   7.396   1.169  -0.071
16838SOL    HW262991   7.468   1.119   0.067
16839SOL     OW62992   8.673   1.716   1.387
16839SOL    HW162993   8.713   1.694   1.298
16839SOL    HW262994   8.579   1.684   1.391
16840SOL     OW62995   7.647   5.880   7.118
16840SOL    HW162996   7.588   5.960   7.119
16840SOL    HW262997   7.713   5.886   7.193
16841SOL     OW62998   8.395   1.089   2.763
16841SOL    HW162999   8.494   1.076   2.756
16841SOL    HW263000   8.376   1.172   2.817
16842SOL     OW63001   8.898   5.141   5.813
16842SOL    HW163002   8.935   5.224   5.854
16842SOL    HW263003   8.800   5.136   5.830
16843SOL     OW63004   7.644   2.798   5.454
16843SOL    HW163005   7.647   2.844   5.543
16843SOL    HW263006   7.731   2.813   5.406
16844SOL     OW63007   8.285   4.640   3.445
16844SOL    HW163008   8.368   4.584   3.440
16844SOL    HW263009   8.301   4.728   3.400
16845SOL     OW63010   7.875   4.122   7.281
16845SOL    HW163011   7.824   4.076   7.209
16845SOL    HW263012   7.842   4.091   7.370
16846SOL     OW63013   8.489   4.758   5.790
16846SOL    HW163014   8.498   4.659   5.774
16846SOL    HW263015   8.573   4.804   5.763
16847SOL     OW63016   7.868   2.943   2.873
16847SOL    HW163017   7.940   2.885   2.836
16847SOL    HW263018   7.837   2.907   2.961
16848SOL     OW63019   9.014   4.143   1.797
16848SOL    HW163020   8.981   4.237   1.808
16848SOL    HW263021   9.028   4.124   1.699
16849SOL     OW63022   7.721   0.146   0.862
16849SOL    HW163023   7.653   0.206   0.904
16849SOL    HW263024   7.690   0.052   0.866
16850SOL     OW63025   8.071   7.286   0.105
16850SOL    HW163026   8.137   7.276   0.179
16850SOL    HW263027   8.097   7.363   0.047
16851SOL     OW63028   8.689   4.158   3.974
16851SOL    HW163029   8.620   4.214   3.927
16851SOL    HW263030   8.649   4.118   4.056
16852SOL     OW63031   8.220   5.086   2.650
16852SOL    HW163032   8.239   5.183   2.634
16852SOL    HW263033   8.133   5.062   2.608
16853SOL     OW63034   7.813   4.253   8.759
16853SOL    HW163035   7.832   4.169   8.708
16853SOL    HW263036   7.880   4.263   8.833
16854SOL     OW63037   8.505   2.251   8.029
16854SOL    HW163038   8.573   2.179   8.041
16854SOL    HW263039   8.535   2.314   7.957
16855SOL     OW63040   7.800   2.596   7.926
16855SOL    HW163041   7.844   2.506   7.931
16855SOL    HW263042   7.840   2.648   7.850
16856SOL     OW63043   8.376   5.932   7.891
16856SOL    HW163044   8.401   5.848   7.844
16856SOL    HW263045   8.309   5.982   7.836
16857SOL     OW63046   8.401   3.249   7.833
16857SOL    HW163047   8.357   3.229   7.920
16857SOL    HW263048   8.400   3.348   7.816
16858SOL     OW63049   9.186   1.372   8.130
16858SOL    HW163050   9.192   1.354   8.229
16858SOL    HW263051   9.277   1.394   8.095
16859SOL     OW63052   8.883   1.908   9.038
16859SOL    HW163053   8.896   1.826   8.981
16859SOL    HW263054   8.866   1.987   8.979
16860SOL     OW63055   7.374   0.569   8.501
16860SOL    HW163056   7.296   0.632   8.508
16860SOL    HW263057   7.357   0.504   8.427
16861SOL     OW63058   8.814   5.448   7.918
16861SOL    HW163059   8.806   5.547   7.912
16861SOL    HW263060   8.735   5.411   7.968
16862SOL     OW63061   8.325   0.156   8.257
16862SOL    HW163062   8.236   0.145   8.301
16862SOL    HW263063   8.343   0.077   8.198
16863SOL     OW63064   8.288   2.976   8.414
16863SOL    HW163065   8.270   3.028   8.498
16863SOL    HW263066   8.386   2.959   8.406
16864SOL     OW63067   8.570   5.419   8.058
16864SOL    HW163068   8.510   5.428   7.979
16864SOL    HW263069   8.559   5.498   8.118
16865SOL     OW63070   7.685   7.084   7.829
16865SOL    HW163071   7.758   7.136   7.784
16865SOL    HW263072   7.653   7.012   7.768
16866SOL     OW63073   7.457   3.556   8.487
16866SOL    HW163074   7.387   3.592   8.548
16866SOL    HW263075   7.507   3.483   8.533
16867SOL     OW63076   8.660   1.928   7.617
16867SOL    HW163077   8.694   1.930   7.522
16867SOL    HW263078   8.734   1.898   7.677
16868SOL     OW63079   8.635   1.245   8.260
16868SOL    HW163080   8.651   1.148   8.277
16868SOL    HW263081   8.542   1.269   8.288
16869SOL     OW63082   7.874   4.913   8.420
16869SOL    HW163083   7.858   4.974   8.343
16869SOL    HW263084   7.907   4.966   8.498
16870SOL     OW63085   7.443   5.437   7.798
16870SOL    HW163086   7.483   5.491   7.724
16870SOL    HW263087   7.438   5.492   7.881
16871SOL     OW63088   7.870   0.660   8.256
16871SOL    HW163089   7.904   0.754   8.254
16871SOL    HW263090   7.793   0.651   8.193
16872SOL     OW63091   8.331   4.496   8.390
16872SOL    HW163092   8.343   4.439   8.471
16872SOL    HW263093   8.374   4.586   8.406
16873SOL     OW63094   8.501   2.961   8.716
16873SOL    HW163095   8.557   3.035   8.679
16873SOL    HW263096   8.464   2.988   8.805
16874SOL     OW63097   8.531   4.469   8.872
16874SOL    HW163098   8.456   4.534   8.868
16874SOL    HW263099   8.617   4.518   8.884
16875SOL     OW63100   8.020   5.996   7.458
16875SOL    HW163101   7.974   5.952   7.535
16875SOL    HW263102   7.956   6.058   7.412
16876SOL     OW63103   8.326   2.235   8.524
16876SOL    HW163104   8.359   2.258   8.433
16876SOL    HW263105   8.244   2.288   8.545
16877SOL     OW63106   8.888   0.731   8.171
16877SOL    HW163107   8.808   0.748   8.114
16877SOL    HW263108   8.971   0.755   8.121
16878SOL     OW63109   8.619   2.295   8.995
16878SOL    HW163110   8.643   2.382   8.952
16878SOL    HW263111   8.588   2.230   8.925
16879SOL     OW63112   8.189   1.408   7.549
16879SOL    HW163113   8.150   1.481   7.605
16879SOL    HW263114   8.127   1.330   7.548
16880SOL     OW63115   7.604   0.528   7.537
16880SOL    HW163116   7.528   0.464   7.527
16880SOL    HW263117   7.589   0.586   7.617
16881SOL     OW63118   8.330   2.887   7.488
16881SOL    HW163119   8.412   2.880   7.431
16881SOL    HW263120   8.250   2.902   7.430
16882SOL     OW63121   9.009   5.260   7.879
16882SOL    HW163122   9.079   5.255   7.808
16882SOL    HW263123   8.948   5.338   7.861
16883SOL     OW63124   8.698   4.648   8.651
16883SOL    HW163125   8.662   4.692   8.733
16883SOL    HW263126   8.776   4.589   8.675
16884SOL     OW63127   9.297   0.408   7.978
16884SOL    HW163128   9.323   0.314   7.956
16884SOL    HW263129   9.242   0.408   8.062
16885SOL     OW63130   8.101   5.443   7.803
16885SOL    HW163131   8.143   5.465   7.891
16885SOL    HW263132   8.127   5.350   7.776
16886SOL     OW63133   8.616   2.424   7.712
16886SOL    HW163134   8.547   2.484   7.670
16886SOL    HW263135   8.630   2.344   7.654
16887SOL     OW63136   8.327   3.745   8.415
16887SOL    HW163137   8.306   3.783   8.325
16887SOL    HW263138   8.372   3.814   8.470
16888SOL     OW63139   8.086   4.484   7.841
16888SOL    HW163140   8.144   4.452   7.915
16888SOL    HW263141   8.135   4.552   7.787
16889SOL     OW63142   7.905   4.643   8.416
16889SOL    HW163143   7.836   4.584   8.458
16889SOL    HW263144   7.888   4.738   8.442
16890SOL     OW63145   7.387   0.920   8.633
16890SOL    HW163146   7.376   1.017   8.612
16890SOL    HW263147   7.311   0.869   8.594
16891SOL     OW63148   7.561   2.179   8.773
16891SOL    HW163149   7.466   2.189   8.744
16891SOL    HW263150   7.600   2.097   8.730
16892SOL     OW63151   7.495   3.025   7.446
16892SOL    HW163152   7.459   2.933   7.456
16892SOL    HW263153   7.423   3.092   7.465
16893SOL     OW63154   8.513   4.368   8.601
16893SOL    HW163155   8.586   4.310   8.563
16893SOL    HW263156   8.541   4.464   8.596
16894SOL     OW63157   7.787   5.320   8.139
16894SOL    HW163158   7.751   5.408   8.110
16894SOL    HW263159   7.870   5.300   8.087
16895SOL     OW63160   8.698   2.725   8.441
16895SOL    HW163161   8.718   2.749   8.346
16895SOL    HW263162   8.782   2.693   8.485
16896SOL     OW63163   8.191   5.552   8.982
16896SOL    HW163164   8.262   5.605   8.937
16896SOL    HW263165   8.107   5.605   8.987
16897SOL     OW63166   8.205   0.358   8.764
16897SOL    HW163167   8.114   0.345   8.804
16897SOL    HW263168   8.210   0.309   8.677
16898SOL     OW63169   7.803   1.600   7.834
16898SOL    HW163170   7.757   1.664   7.773
16898SOL    HW263171   7.771   1.507   7.815
16899SOL     OW63172   7.717   3.901   8.117
16899SOL    HW163173   7.690   3.985   8.164
16899SOL    HW263174   7.651   3.829   8.137
16900SOL     OW63175   8.583   5.354   7.433
16900SOL    HW163176   8.620   5.441   7.402
16900SOL    HW263177   8.625   5.330   7.521
16901SOL     OW63178   7.715   4.886   8.751
16901SOL    HW163179   7.654   4.942   8.807
16901SOL    HW263180   7.661   4.819   8.700
16902SOL     OW63181   8.204   6.065   7.715
16902SOL    HW163182   8.262   6.130   7.667
16902SOL    HW263183   8.151   6.012   7.649
16903SOL     OW63184   8.170   0.065   9.049
16903SOL    HW163185   8.199  -0.018   9.096
16903SOL    HW263186   8.242   0.135   9.055
16904SOL     OW63187   8.754   4.581   7.888
16904SOL    HW163188   8.750   4.617   7.795
16904SOL    HW263189   8.695   4.635   7.948
16905SOL     OW63190   7.366   1.153   8.270
16905SOL    HW163191   7.380   1.222   8.342
16905SOL    HW263192   7.304   1.189   8.201
16906SOL     OW63193   7.634   2.194   7.598
16906SOL    HW163194   7.711   2.161   7.653
16906SOL    HW263195   7.669   2.250   7.522
16907SOL     OW63196   8.873   0.829   7.373
16907SOL    HW163197   8.807   0.782   7.433
16907SOL    HW263198   8.907   0.911   7.419
16908SOL     OW63199   7.393   2.963   8.883
16908SOL    HW163200   7.321   2.943   8.950
16908SOL    HW263201   7.423   3.058   8.893
16909SOL     OW63202   8.366   3.971   8.731
16909SOL    HW163203   8.445   3.951   8.673
16909SOL    HW263204   8.369   4.066   8.760
16910SOL     OW63205   7.646   0.115   7.570
16910SOL    HW163206   7.598   0.072   7.646
16910SOL    HW263207   7.579   0.160   7.510
16911SOL     OW63208   8.441   3.282   8.122
16911SOL    HW163209   8.465   3.185   8.133
16911SOL    HW263210   8.407   3.318   8.209
16912SOL     OW63211   7.864   7.258   7.648
16912SOL    HW163212   7.914   7.255   7.561
16912SOL    HW263213   7.807   7.340   7.651
16913SOL     OW63214   7.887   4.025   7.543
16913SOL    HW163215   7.859   4.077   7.624
16913SOL    HW263216   7.929   3.939   7.571
16914SOL     OW63217   7.473   2.230   7.991
16914SOL    HW163218   7.428   2.312   8.024
16914SOL    HW263219   7.572   2.238   8.006
16915SOL     OW63220   8.717   1.503   7.764
16915SOL    HW163221   8.627   1.460   7.764
16915SOL    HW263222   8.783   1.442   7.808
16916SOL     OW63223   8.013   7.286   8.367
16916SOL    HW163224   7.994   7.382   8.388
16916SOL    HW263225   7.965   7.228   8.433
16917SOL     OW63226   7.741   3.763   8.454
16917SOL    HW163227   7.678   3.704   8.404
16917SOL    HW263228   7.820   3.784   8.396
16918SOL     OW63229   8.007   2.238   8.103
16918SOL    HW163230   7.991   2.306   8.032
16918SOL    HW263231   8.091   2.188   8.083
16919SOL     OW63232   8.656   2.180   7.538
16919SOL    HW163233   8.590   2.189   7.464
16919SOL    HW263234   8.655   2.087   7.573
16920SOL     OW63235   8.562   3.554   7.386
16920SOL    HW163236   8.641   3.536   7.327
16920SOL    HW263237   8.478   3.535   7.335
16921SOL     OW63238   8.024   1.435   8.780
16921SOL    HW163239   7.959   1.442   8.705
16921SOL    HW263240   7.985   1.475   8.863
16922SOL     OW63241   8.568   5.931   8.248
16922SOL    HW163242   8.522   5.979   8.173
16922SOL    HW263243   8.659   5.970   8.261
16923SOL     OW63244   7.930   5.037   8.675
16923SOL    HW163245   7.910   5.132   8.702
16923SOL    HW263246   7.855   4.978   8.703
16924SOL     OW63247   7.814   1.410   8.584
16924SOL    HW163248   7.751   1.344   8.545
16924SOL    HW263249   7.892   1.422   8.523
16925SOL     OW63250   8.108   2.317   7.404
16925SOL    HW163251   8.193   2.274   7.436
16925SOL    HW263252   8.072   2.376   7.476
16926SOL     OW63253   7.939   5.215   7.945
16926SOL    HW163254   8.020   5.195   7.889
16926SOL    HW263255   7.860   5.227   7.886
16927SOL     OW63256   7.561   3.557   8.024
16927SOL    HW163257   7.522   3.640   8.063
16927SOL    HW263258   7.585   3.494   8.098
16928SOL     OW63259   7.720   2.397   7.375
16928SOL    HW163260   7.621   2.381   7.384
16928SOL    HW263261   7.736   2.489   7.340
16929SOL     OW63262   8.871   2.169   8.917
16929SOL    HW163263   8.941   2.186   8.987
16929SOL    HW263264   8.795   2.232   8.931
16930SOL     OW63265   7.925   0.160   8.056
16930SOL    HW163266   7.919   0.259   8.039
16930SOL    HW263267   7.849   0.133   8.115
16931SOL     OW63268   8.408   0.914   8.124
16931SOL    HW163269   8.377   1.008   8.115
16931SOL    HW263270   8.331   0.852   8.111
16932SOL     OW63271   8.241   1.507   7.985
16932SOL    HW163272   8.214   1.487   8.079
16932SOL    HW263273   8.332   1.471   7.967
16933SOL     OW63274   8.095   3.856   7.851
16933SOL    HW163275   8.194   3.860   7.835
16933SOL    HW263276   8.063   3.943   7.887
16934SOL     OW63277   8.942   3.080   8.388
16934SOL    HW163278   8.878   3.133   8.333
16934SOL    HW263279   9.036   3.109   8.368
16935SOL     OW63280   8.917   2.053   8.671
16935SOL    HW163281   8.902   1.956   8.651
16935SOL    HW263282   8.912   2.067   8.769
16936SOL     OW63283   7.373   1.184   8.611
16936SOL    HW163284   7.400   1.270   8.569
16936SOL    HW263285   7.313   1.202   8.689
16937SOL     OW63286   7.738   1.089   7.983
16937SOL    HW163287   7.731   1.187   7.963
16937SOL    HW263288   7.825   1.071   8.029
16938SOL     OW63289   8.430   2.680   8.712
16938SOL    HW163290   8.379   2.652   8.630
16938SOL    HW263291   8.441   2.780   8.712
16939SOL     OW63292   8.652   0.804   8.028
16939SOL    HW163293   8.671   0.818   7.931
16939SOL    HW263294   8.560   0.836   8.049
16940SOL     OW63295   8.669   1.165   8.000
16940SOL    HW163296   8.651   1.067   8.001
16940SOL    HW263297   8.683   1.197   8.093
16941SOL     OW63298   8.637   5.084   7.821
16941SOL    HW163299   8.721   5.052   7.865
16941SOL    HW263300   8.632   5.046   7.728
16942SOL     OW63301   8.999   4.474   7.415
16942SOL    HW163302   9.074   4.429   7.367
16942SOL    HW263303   8.945   4.405   7.464
16943SOL     OW63304   7.726   4.473   8.160
16943SOL    HW163305   7.775   4.513   8.236
16943SOL    HW263306   7.654   4.536   8.129
16944SOL     OW63307   8.006   3.575   7.843
16944SOL    HW163308   7.965   3.600   7.755
16944SOL    HW263309   8.033   3.658   7.892
16945SOL     OW63310   7.992   2.790   7.798
16945SOL    HW163311   8.019   2.855   7.869
16945SOL    HW263312   8.056   2.713   7.798
16946SOL     OW63313   8.180   5.207   8.915
16946SOL    HW163314   8.092   5.215   8.869
16946SOL    HW263315   8.199   5.291   8.967
16947SOL     OW63316   7.739   2.259   8.178
16947SOL    HW163317   7.839   2.260   8.183
16947SOL    HW263318   7.707   2.164   8.183
16948SOL     OW63319   8.354   2.521   7.458
16948SOL    HW163320   8.325   2.434   7.499
16948SOL    HW263321   8.292   2.543   7.383
16949SOL     OW63322   8.295   5.983   7.406
16949SOL    HW163323   8.195   5.984   7.409
16949SOL    HW263324   8.330   5.905   7.459
16950SOL     OW63325   8.963   2.004   9.284
16950SOL    HW163326   8.929   1.942   9.213
16950SOL    HW263327   8.994   2.089   9.241
16951SOL     OW63328   8.972   4.791   8.517
16951SOL    HW163329   8.879   4.816   8.544
16951SOL    HW263330   9.028   4.874   8.509
16952SOL     OW63331   7.728   4.157   8.452
16952SOL    HW163332   7.744   4.254   8.472
16952SOL    HW263333   7.735   4.142   8.353
16953SOL     OW63334   8.862   6.966   8.471
16953SOL    HW163335   8.917   6.975   8.388
16953SOL    HW263336   8.904   6.898   8.532
16954SOL     OW63337   7.830   6.734   8.671
16954SOL    HW163338   7.785   6.655   8.712
16954SOL    HW263339   7.891   6.777   8.738
16955SOL     OW63340   8.748   0.048   8.423
16955SOL    HW163341   8.689   0.081   8.497
16955SOL    HW263342   8.819   0.116   8.404
16956SOL     OW63343   7.935   2.494   8.300
16956SOL    HW163344   7.848   2.455   8.332
16956SOL    HW263345   7.991   2.421   8.261
16957SOL     OW63346   7.742   0.329   7.728
16957SOL    HW163347   7.699   0.401   7.673
16957SOL    HW263348   7.746   0.245   7.675
16958SOL     OW63349   8.287   1.403   8.892
16958SOL    HW163350   8.216   1.406   8.821
16958SOL    HW263351   8.245   1.382   8.980
16959SOL     OW63352   8.810   6.030   8.314
16959SOL    HW163353   8.826   6.106   8.377
16959SOL    HW263354   8.893   5.976   8.306
16960SOL     OW63355   7.831   0.788   8.638
16960SOL    HW163356   7.793   0.827   8.554
16960SOL    HW263357   7.758   0.780   8.706
16961SOL     OW63358   8.589   3.265   7.366
16961SOL    HW163359   8.540   3.328   7.426
16961SOL    HW263360   8.625   3.189   7.420
16962SOL     OW63361   7.665   0.956   7.395
16962SOL    HW163362   7.686   1.000   7.307
16962SOL    HW263363   7.633   0.862   7.378
16963SOL     OW63364   7.657   1.810   7.708
16963SOL    HW163365   7.557   1.804   7.698
16963SOL    HW263366   7.692   1.880   7.646
16964SOL     OW63367   8.727   0.351   8.627
16964SOL    HW163368   8.650   0.305   8.582
16964SOL    HW263369   8.805   0.356   8.565
16965SOL     OW63370   8.390   3.481   8.384
16965SOL    HW163371   8.485   3.489   8.353
16965SOL    HW263372   8.345   3.570   8.375
16966SOL     OW63373   8.702   1.519   8.289
16966SOL    HW163374   8.689   1.420   8.280
16966SOL    HW263375   8.766   1.551   8.220
16967SOL     OW63376   7.922   0.912   8.230
16967SOL    HW163377   7.835   0.956   8.254
16967SOL    HW263378   7.981   0.978   8.183
16968SOL     OW63379   7.580   5.043   8.923
16968SOL    HW163380   7.589   4.964   8.982
16968SOL    HW263381   7.562   5.125   8.978
16969SOL     OW63382   8.564   4.056   8.248
16969SOL    HW163383   8.534   3.987   8.182
16969SOL    HW263384   8.497   4.129   8.253
16970SOL     OW63385   7.884   0.435   7.958
16970SOL    HW163386   7.832   0.502   8.012
16970SOL    HW263387   7.828   0.403   7.882
16971SOL     OW63388   8.889   6.306   7.650
16971SOL    HW163389   8.986   6.283   7.645
16971SOL    HW263390   8.878   6.389   7.705
16972SOL     OW63391   7.556   1.969   9.167
16972SOL    HW163392   7.490   1.951   9.239
16972SOL    HW263393   7.587   1.882   9.127
16973SOL     OW63394   8.595   3.517   7.654
16973SOL    HW163395   8.648   3.432   7.643
16973SOL    HW263396   8.580   3.559   7.564
16974SOL     OW63397   8.279   7.015   7.966
16974SOL    HW163398   8.284   7.055   7.875
16974SOL    HW263399   8.371   7.012   8.006
16975SOL     OW63400   7.807   3.994   8.652
16975SOL    HW163401   7.846   3.915   8.605
16975SOL    HW263402   7.758   4.052   8.586
16976SOL     OW63403   8.045   4.904   8.949
16976SOL    HW163404   7.952   4.936   8.936
16976SOL    HW263405   8.089   4.892   8.859
16977SOL     OW63406   8.686   3.838   8.343
16977SOL    HW163407   8.649   3.926   8.313
16977SOL    HW263408   8.785   3.836   8.328
16978SOL     OW63409   7.928   3.747   8.265
16978SOL    HW163410   8.003   3.703   8.215
16978SOL    HW263411   7.890   3.821   8.210
16979SOL     OW63412   8.926   4.695   7.606
16979SOL    HW163413   9.003   4.698   7.671
16979SOL    HW263414   8.948   4.632   7.532
16980SOL     OW63415   7.982   5.659   8.698
16980SOL    HW163416   7.911   5.634   8.632
16980SOL    HW263417   8.062   5.692   8.648
16981SOL     OW63418   8.278   1.983   8.642
16981SOL    HW163419   8.319   2.067   8.605
16981SOL    HW263420   8.214   1.945   8.575
16982SOL     OW63421   7.507   3.172   8.159
16982SOL    HW163422   7.571   3.095   8.152
16982SOL    HW263423   7.426   3.154   8.103
16983SOL     OW63424   8.005   3.590   9.016
16983SOL    HW163425   8.017   3.670   8.957
16983SOL    HW263426   8.041   3.611   9.108
16984SOL     OW63427   8.681   5.309   7.680
16984SOL    HW163428   8.669   5.235   7.747
16984SOL    HW263429   8.721   5.389   7.725
16985SOL     OW63430   8.268   5.421   8.032
16985SOL    HW163431   8.263   5.486   8.107
16985SOL    HW263432   8.292   5.331   8.067
16986SOL     OW63433   7.591   5.897   8.712
16986SOL    HW163434   7.501   5.870   8.745
16986SOL    HW263435   7.597   5.883   8.613
16987SOL     OW63436   8.104   3.157   9.223
16987SOL    HW163437   8.079   3.178   9.317
16987SOL    HW263438   8.064   3.226   9.162
16988SOL     OW63439   7.628   1.710   9.104
16988SOL    HW163440   7.593   1.667   9.021
16988SOL    HW263441   7.727   1.698   9.108
16989SOL     OW63442   7.386   1.741   7.955
16989SOL    HW163443   7.330   1.658   7.957
16989SOL    HW263444   7.410   1.767   8.048
16990SOL     OW63445   8.053   7.271   8.099
16990SOL    HW163446   8.025   7.362   8.069
16990SOL    HW263447   8.029   7.259   8.196
16991SOL     OW63448   8.746   2.062   8.406
16991SOL    HW163449   8.729   1.979   8.459
16991SOL    HW263450   8.695   2.138   8.446
16992SOL     OW63451   8.161   1.739   9.278
16992SOL    HW163452   8.148   1.835   9.303
16992SOL    HW263453   8.250   1.729   9.233
16993SOL     OW63454   8.590   1.438   7.452
16993SOL    HW163455   8.626   1.531   7.453
16993SOL    HW263456   8.506   1.435   7.397
16994SOL     OW63457   8.810   3.812   7.947
16994SOL    HW163458   8.793   3.910   7.956
16994SOL    HW263459   8.902   3.791   7.979
16995SOL     OW63460   8.473   3.802   7.554
16995SOL    HW163461   8.408   3.738   7.515
16995SOL    HW263462   8.507   3.863   7.482
16996SOL     OW63463   8.782   2.448   8.811
16996SOL    HW163464   8.782   2.548   8.811
16996SOL    HW263465   8.827   2.414   8.729
16997SOL     OW63466   8.126   3.583   8.125
16997SOL    HW163467   8.153   3.533   8.043
16997SOL    HW263468   8.145   3.527   8.206
16998SOL     OW63469   7.722   4.445   8.548
16998SOL    HW163470   7.634   4.470   8.589
16998SOL    HW263471   7.774   4.390   8.613
16999SOL     OW63472   8.291   1.581   8.528
16999SOL    HW163473   8.309   1.579   8.626
16999SOL    HW263474   8.376   1.600   8.478
17000SOL     OW63475   8.302   1.179   8.077
17000SOL    HW163476   8.317   1.233   8.160
17000SOL    HW263477   8.336   1.229   7.998
17001SOL     OW63478   7.789   2.190   7.805
17001SOL    HW163479   7.874   2.203   7.857
17001SOL    HW263480   7.734   2.274   7.810
17002SOL     OW63481   7.690   2.678   7.362
17002SOL    HW163482   7.754   2.732   7.417
17002SOL    HW263483   7.601   2.678   7.406
17003SOL     OW63484   8.602   4.648   8.389
17003SOL    HW163485   8.629   4.678   8.481
17003SOL    HW263486   8.647   4.561   8.368
17004SOL     OW63487   8.626   4.978   8.782
17004SOL    HW163488   8.696   5.029   8.833
17004SOL    HW263489   8.544   4.969   8.837
17005SOL     OW63490   7.396   5.011   7.927
17005SOL    HW163491   7.436   5.065   8.002
17005SOL    HW263492   7.370   5.072   7.853
17006SOL     OW63493   8.892   1.536   7.381
17006SOL    HW163494   8.940   1.454   7.410
17006SOL    HW263495   8.944   1.584   7.311
17007SOL     OW63496   7.565   0.327   8.362
17007SOL    HW163497   7.634   0.381   8.410
17007SOL    HW263498   7.493   0.387   8.328
17008SOL     OW63499   8.396   4.834   8.099
17008SOL    HW163500   8.490   4.801   8.107
17008SOL    HW263501   8.345   4.773   8.038
17009SOL     OW63502   8.098   1.561   7.762
17009SOL    HW163503   8.007   1.590   7.791
17009SOL    HW263504   8.158   1.556   7.842
17010SOL     OW63505   8.256   5.533   8.311
17010SOL    HW163506   8.174   5.492   8.272
17010SOL    HW263507   8.230   5.604   8.377
17011SOL     OW63508   7.604   5.850   8.434
17011SOL    HW163509   7.689   5.797   8.445
17011SOL    HW263510   7.613   5.911   8.356
17012SOL     OW63511   8.521   4.295   7.936
17012SOL    HW163512   8.502   4.264   7.843
17012SOL    HW263513   8.582   4.375   7.933
17013SOL     OW63514   8.519   0.178   8.543
17013SOL    HW163515   8.463   0.187   8.461
17013SOL    HW263516   8.460   0.182   8.624
17014SOL     OW63517   8.943   5.813   7.675
17014SOL    HW163518   9.029   5.763   7.686
17014SOL    HW263519   8.960   5.911   7.689
17015SOL     OW63520   8.492   1.852   8.138
17015SOL    HW163521   8.400   1.829   8.104
17015SOL    HW263522   8.553   1.864   8.060
17016SOL     OW63523   8.683   1.826   7.953
17016SOL    HW163524   8.752   1.856   7.887
17016SOL    HW263525   8.716   1.745   8.001
17017SOL     OW63526   8.930   2.352   7.553
17017SOL    HW163527   8.866   2.279   7.529
17017SOL    HW263528   8.999   2.361   7.480
17018SOL     OW63529   7.770   1.036   8.822
17018SOL    HW163530   7.717   0.952   8.808
17018SOL    HW263531   7.786   1.080   8.733
17019SOL     OW63532   8.560   5.006   8.315
17019SOL    HW163533   8.500   4.947   8.261
17019SOL    HW263534   8.594   5.080   8.257
17020SOL     OW63535   7.545   4.178   7.592
17020SOL    HW163536   7.553   4.199   7.494
17020SOL    HW263537   7.523   4.081   7.603
17021SOL     OW63538   7.479   3.616   7.553
17021SOL    HW163539   7.489   3.715   7.540
17021SOL    HW263540   7.389   3.587   7.522
17022SOL     OW63541   8.406   5.714   7.736
17022SOL    HW163542   8.376   5.730   7.642
17022SOL    HW263543   8.398   5.616   7.757
17023SOL     OW63544   7.848   5.741   8.418
17023SOL    HW163545   7.882   5.669   8.357
17023SOL    HW263546   7.911   5.819   8.417
17024SOL     OW63547   8.132   5.502   7.510
17024SOL    HW163548   8.041   5.525   7.475
17024SOL    HW263549   8.126   5.485   7.609
17025SOL     OW63550   7.706   6.390   7.633
17025SOL    HW163551   7.764   6.309   7.639
17025SOL    HW263552   7.730   6.442   7.551
17026SOL     OW63553   7.483   1.512   8.951
17026SOL    HW163554   7.537   1.481   8.873
17026SOL    HW263555   7.430   1.435   8.987
17027SOL     OW63556   8.596   6.467   8.031
17027SOL    HW163557   8.524   6.440   7.966
17027SOL    HW263558   8.554   6.514   8.109
17028SOL     OW63559   8.158   4.305   8.065
17028SOL    HW163560   8.114   4.358   8.138
17028SOL    HW263561   8.245   4.268   8.098
17029SOL     OW63562   7.559   0.853   7.967
17029SOL    HW163563   7.621   0.932   7.968
17029SOL    HW263564   7.465   0.885   7.978
17030SOL     OW63565   8.433   2.076   7.382
17030SOL    HW163566   8.441   2.144   7.309
17030SOL    HW263567   8.484   1.994   7.357
17031SOL     OW63568   8.294   3.810   8.157
17031SOL    HW163569   8.243   3.744   8.101
17031SOL    HW263570   8.382   3.829   8.114
17032SOL     OW63571   8.194   1.884   8.401
17032SOL    HW163572   8.250   1.802   8.413
17032SOL    HW263573   8.237   1.944   8.333
17033SOL     OW63574   8.038   6.945   8.023
17033SOL    HW163575   7.991   7.001   8.092
17033SOL    HW263576   8.135   6.969   8.021
17034SOL     OW63577   8.671   4.192   8.442
17034SOL    HW163578   8.623   4.138   8.373
17034SOL    HW263579   8.746   4.138   8.480
17035SOL     OW63580   7.556   4.737   8.585
17035SOL    HW163581   7.571   4.716   8.488
17035SOL    HW263582   7.458   4.744   8.603
17036SOL     OW63583   8.641   4.222   7.415
17036SOL    HW163584   8.702   4.260   7.345
17036SOL    HW263585   8.695   4.196   7.495
17037SOL     OW63586   8.727   2.086   8.112
17037SOL    HW163587   8.731   2.080   8.212
17037SOL    HW263588   8.722   1.994   8.073
17038SOL     OW63589   8.383   1.715   8.768
17038SOL    HW163590   8.350   1.679   8.855
17038SOL    HW263591   8.351   1.809   8.756
17039SOL     OW63592   8.081   2.918   8.722
17039SOL    HW163593   8.062   2.997   8.780
17039SOL    HW263594   8.179   2.898   8.723
17040SOL     OW63595   7.989   1.877   8.198
17040SOL    HW163596   8.040   1.884   8.284
17040SOL    HW263597   8.030   1.937   8.129
17041SOL     OW63598   8.433   5.953   8.510
17041SOL    HW163599   8.499   5.944   8.436
17041SOL    HW263600   8.451   6.037   8.560
17042SOL     OW63601   8.056   3.199   8.805
17042SOL    HW163602   8.014   3.266   8.743
17042SOL    HW263603   8.057   3.236   8.898
17043SOL     OW63604   8.949   1.505   8.624
17043SOL    HW163605   8.953   1.471   8.718
17043SOL    HW263606   8.866   1.471   8.580
17044SOL     OW63607   7.471   6.494   7.707
17044SOL    HW163608   7.558   6.446   7.699
17044SOL    HW263609   7.425   6.466   7.791
17045SOL     OW63610   8.744   4.967   8.544
17045SOL    HW163611   8.684   4.965   8.464
17045SOL    HW263612   8.688   4.976   8.627
17046SOL     OW63613   7.582   7.102   8.656
17046SOL    HW163614   7.489   7.138   8.669
17046SOL    HW263615   7.578   7.002   8.651
17047SOL     OW63616   8.413   4.215   8.800
17047SOL    HW163617   8.452   4.273   8.728
17047SOL    HW263618   8.441   4.249   8.890
17048SOL     OW63619   8.387   5.005   8.947
17048SOL    HW163620   8.415   5.004   9.043
17048SOL    HW263621   8.330   5.086   8.930
17049SOL     OW63622   9.200   6.435   8.410
17049SOL    HW163623   9.271   6.504   8.397
17049SOL    HW263624   9.232   6.347   8.373
17050SOL     OW63625   7.928   5.486   8.323
17050SOL    HW163626   7.870   5.431   8.263
17050SOL    HW263627   7.995   5.426   8.368
17051SOL     OW63628   9.002   4.170   7.816
17051SOL    HW163629   8.965   4.238   7.753
17051SOL    HW263630   9.093   4.143   7.785
17052SOL     OW63631   7.652   1.319   7.717
17052SOL    HW163632   7.752   1.330   7.718
17052SOL    HW263633   7.630   1.223   7.702
17053SOL     OW63634   7.514   2.660   8.465
17053SOL    HW163635   7.524   2.576   8.411
17053SOL    HW263636   7.605   2.692   8.493
17054SOL     OW63637   8.492   5.666   8.243
17054SOL    HW163638   8.503   5.764   8.261
17054SOL    HW263639   8.398   5.639   8.259
17055SOL     OW63640   8.933   2.445   8.204
17055SOL    HW163641   8.956   2.352   8.232
17055SOL    HW263642   8.876   2.442   8.122
17056SOL     OW63643   8.309   2.086   8.220
17056SOL    HW163644   8.333   2.181   8.239
17056SOL    HW263645   8.393   2.033   8.203
17057SOL     OW63646   8.737   3.145   8.206
17057SOL    HW163647   8.735   3.228   8.151
17057SOL    HW263648   8.653   3.093   8.190
17058SOL     OW63649   8.342   3.349   7.524
17058SOL    HW163650   8.324   3.447   7.533
17058SOL    HW263651   8.391   3.316   7.605
17059SOL     OW63652   7.734   6.509   8.790
17059SOL    HW163653   7.710   6.415   8.769
17059SOL    HW263654   7.728   6.524   8.889
17060SOL     OW63655   8.714   4.835   7.498
17060SOL    HW163656   8.704   4.801   7.405
17060SOL    HW263657   8.791   4.789   7.543
17061SOL     OW63658   9.049   2.577   8.846
17061SOL    HW163659   9.010   2.493   8.809
17061SOL    HW263660   9.001   2.656   8.809
17062SOL     OW63661   8.881   4.887   8.194
17062SOL    HW163662   8.855   4.971   8.146
17062SOL    HW263663   8.890   4.907   8.292
17063SOL     OW63664   7.451   1.390   8.421
17063SOL    HW163665   7.376   1.456   8.411
17063SOL    HW263666   7.525   1.414   8.359
17064SOL     OW63667   8.467   2.683   7.630
17064SOL    HW163668   8.430   2.616   7.566
17064SOL    HW263669   8.440   2.775   7.601
17065SOL     OW63670   7.521   7.328   7.782
17065SOL    HW163671   7.425   7.302   7.774
17065SOL    HW263672   7.574   7.252   7.820
17066SOL     OW63673   8.262   1.802   7.964
17066SOL    HW163674   8.282   1.807   7.866
17066SOL    HW263675   8.216   1.716   7.984
17067SOL     OW63676   8.796   3.602   8.672
17067SOL    HW163677   8.699   3.623   8.679
17067SOL    HW263678   8.832   3.581   8.763
17068SOL     OW63679   9.003   4.048   8.890
17068SOL    HW163680   8.983   3.951   8.901
17068SOL    HW263681   9.094   4.059   8.850
17069SOL     OW63682   8.067   1.379   8.472
17069SOL    HW163683   8.087   1.284   8.495
17069SOL    HW263684   8.121   1.440   8.531
17070SOL     OW63685   7.870   5.624   7.380
17070SOL    HW163686   7.819   5.559   7.323
17070SOL    HW263687   7.883   5.710   7.330
17071SOL     OW63688   8.347   7.277   8.124
17071SOL    HW163689   8.248   7.284   8.112
17071SOL    HW263690   8.382   7.201   8.070
17072SOL     OW63691   7.559   3.943   7.781
17072SOL    HW163692   7.612   3.861   7.801
17072SOL    HW263693   7.530   3.941   7.685
17073SOL     OW63694   8.704   2.453   7.997
17073SOL    HW163695   8.651   2.459   7.913
17073SOL    HW263696   8.668   2.518   8.064
17074SOL     OW63697   7.633   2.913   8.196
17074SOL    HW163698   7.700   2.843   8.223
17074SOL    HW263699   7.547   2.868   8.171
17075SOL     OW63700   8.027   3.779   8.805
17075SOL    HW163701   8.036   3.734   8.716
17075SOL    HW263702   7.992   3.872   8.792
17076SOL     OW63703   7.455   0.312   7.439
17076SOL    HW163704   7.379   0.257   7.472
17076SOL    HW263705   7.440   0.336   7.343
17077SOL     OW63706   8.182   0.753   8.137
17077SOL    HW163707   8.178   0.654   8.132
17077SOL    HW263708   8.092   0.789   8.160
17078SOL     OW63709   8.357   2.986   7.744
17078SOL    HW163710   8.336   2.975   7.647
17078SOL    HW263711   8.354   3.082   7.769
17079SOL     OW63712   7.730   3.559   7.494
17079SOL    HW163713   7.643   3.538   7.538
17079SOL    HW263714   7.767   3.643   7.534
17080SOL     OW63715   8.749   3.418   8.449
17080SOL    HW163716   8.754   3.483   8.524
17080SOL    HW263717   8.717   3.465   8.366
17081SOL     OW63718   8.159   3.324   8.375
17081SOL    HW163719   8.190   3.259   8.444
17081SOL    HW263720   8.235   3.383   8.348
17082SOL     OW63721   8.317   2.250   7.597
17082SOL    HW163722   8.345   2.167   7.549
17082SOL    HW263723   8.312   2.232   7.695
17083SOL     OW63724   7.825   3.996   8.934
17083SOL    HW163725   7.809   4.011   8.836
17083SOL    HW263726   7.815   4.082   8.983
17084SOL     OW63727   8.436   1.443   7.680
17084SOL    HW163728   8.343   1.413   7.658
17084SOL    HW263729   8.489   1.450   7.595
17085SOL     OW63730   8.783   1.748   8.489
17085SOL    HW163731   8.762   1.686   8.413
17085SOL    HW263732   8.882   1.753   8.501
17086SOL     OW63733   7.897   6.570   7.458
17086SOL    HW163734   7.955   6.489   7.464
17086SOL    HW263735   7.935   6.633   7.391
17087SOL     OW63736   7.869   5.860   7.636
17087SOL    HW163737   7.842   5.833   7.728
17087SOL    HW263738   7.823   5.801   7.569
17088SOL     OW63739   9.167   5.688   7.710
17088SOL    HW163740   9.171   5.701   7.809
17088SOL    HW263741   9.256   5.655   7.677
17089SOL     OW63742   7.495   6.141   7.551
17089SOL    HW163743   7.589   6.164   7.578
17089SOL    HW263744   7.432   6.166   7.624
17090SOL     OW63745   8.390   1.692   9.169
17090SOL    HW163746   8.462   1.627   9.143
17090SOL    HW263747   8.426   1.785   9.163
17091SOL     OW63748   7.369   3.381   7.926
17091SOL    HW163749   7.421   3.310   7.880
17091SOL    HW263750   7.432   3.444   7.972
17092SOL     OW63751   8.944   2.800   7.787
17092SOL    HW163752   8.879   2.737   7.745
17092SOL    HW263753   8.902   2.843   7.866
17093SOL     OW63754   8.848   0.467   8.210
17093SOL    HW163755   8.768   0.445   8.266
17093SOL    HW263756   8.862   0.566   8.207
17094SOL     OW63757   8.489   4.935   7.578
17094SOL    HW163758   8.399   4.891   7.574
17094SOL    HW263759   8.561   4.867   7.564
17095SOL     OW63760   7.594   6.815   7.724
17095SOL    HW163761   7.507   6.807   7.773
17095SOL    HW263762   7.633   6.725   7.709
17096SOL     OW63763   8.742   2.773   8.170
17096SOL    HW163764   8.650   2.751   8.138
17096SOL    HW263765   8.793   2.818   8.096
17097SOL     OW63766   8.390   1.852   7.702
17097SOL    HW163767   8.467   1.913   7.683
17097SOL    HW263768   8.417   1.757   7.689
17098SOL     OW63769   8.662   5.879   7.644
17098SOL    HW163770   8.607   5.807   7.688
17098SOL    HW263771   8.759   5.860   7.659
17099SOL     OW63772   7.872   6.179   7.706
17099SOL    HW163773   7.883   6.085   7.674
17099SOL    HW263774   7.928   6.194   7.787
17100SOL     OW63775   7.833   1.516   9.017
17100SOL    HW163776   7.840   1.489   9.113
17100SOL    HW263777   7.879   1.604   9.004
17101SOL     OW63778   8.406   5.059   7.944
17101SOL    HW163779   8.409   5.004   8.027
17101SOL    HW263780   8.497   5.058   7.901
17102SOL     OW63781   8.498   3.580   8.648
17102SOL    HW163782   8.430   3.618   8.711
17102SOL    HW263783   8.450   3.542   8.568
17103SOL     OW63784   7.577   4.422   7.729
17103SOL    HW163785   7.493   4.433   7.781
17103SOL    HW263786   7.578   4.331   7.687
17104SOL     OW63787   7.691   6.744   7.450
17104SOL    HW163788   7.762   6.674   7.459
17104SOL    HW263789   7.683   6.795   7.536
17105SOL     OW63790   8.644   4.734   8.135
17105SOL    HW163791   8.732   4.777   8.154
17105SOL    HW263792   8.596   4.716   8.221
17106SOL     OW63793   7.534   0.234   7.888
17106SOL    HW163794   7.610   0.277   7.838
17106SOL    HW263795   7.530   0.137   7.865
17107SOL     OW63796   8.624   3.571   8.256
17107SOL    HW163797   8.591   3.660   8.285
17107SOL    HW263798   8.692   3.582   8.184
17108SOL     OW63799   7.836   5.497   7.741
17108SOL    HW163800   7.935   5.504   7.758
17108SOL    HW263801   7.799   5.420   7.793
17109SOL     OW63802   7.706   7.265   8.847
17109SOL    HW163803   7.800   7.298   8.854
17109SOL    HW263804   7.696   7.210   8.763
17110SOL     OW63805   8.223   1.577   8.259
17110SOL    HW163806   8.314   1.619   8.260
17110SOL    HW263807   8.189   1.568   8.353
17111SOL     OW63808   7.497   2.198   9.050
17111SOL    HW163809   7.533   2.192   8.957
17111SOL    HW263810   7.523   2.116   9.101
17112SOL     OW63811   7.855   1.919   7.890
17112SOL    HW163812   7.824   2.012   7.866
17112SOL    HW263813   7.783   1.854   7.866
17113SOL     OW63814   8.246   4.045   8.323
17113SOL    HW163815   8.288   4.132   8.297
17113SOL    HW263816   8.254   3.981   8.247
17114SOL     OW63817   8.621   2.969   7.780
17114SOL    HW163818   8.623   2.976   7.880
17114SOL    HW263819   8.527   2.976   7.748
17115SOL     OW63820   7.580   6.814   8.197
17115SOL    HW163821   7.637   6.804   8.115
17115SOL    HW263822   7.639   6.826   8.277
17116SOL     OW63823   8.220   3.612   7.634
17116SOL    HW163824   8.239   3.663   7.718
17116SOL    HW263825   8.155   3.538   7.655
17117SOL     OW63826   8.392   3.909   7.778
17117SOL    HW163827   8.393   4.006   7.755
17117SOL    HW263828   8.417   3.855   7.698
17118SOL     OW63829   7.985   2.393   7.890
17118SOL    HW163830   8.066   2.451   7.891
17118SOL    HW263831   7.953   2.383   7.796
17119SOL     OW63832   7.966   2.677   8.695
17119SOL    HW163833   8.006   2.767   8.676
17119SOL    HW263834   7.953   2.666   8.793
17120SOL     OW63835   8.619   6.519   7.589
17120SOL    HW163836   8.714   6.527   7.617
17120SOL    HW263837   8.613   6.511   7.490
17121SOL     OW63838   7.668   0.969   8.286
17121SOL    HW163839   7.594   1.013   8.234
17121SOL    HW263840   7.651   0.871   8.293
17122SOL     OW63841   8.940   5.261   8.465
17122SOL    HW163842   8.915   5.277   8.369
17122SOL    HW263843   8.867   5.211   8.511
17123SOL     OW63844   8.762   5.876   7.368
17123SOL    HW163845   8.722   5.862   7.459
17123SOL    HW263846   8.743   5.796   7.311
17124SOL     OW63847   8.326   5.736   7.495
17124SOL    HW163848   8.380   5.763   7.414
17124SOL    HW263849   8.269   5.657   7.472
17125SOL     OW63850   8.899   2.147   7.910
17125SOL    HW163851   8.838   2.144   7.989
17125SOL    HW263852   8.907   2.242   7.878
17126SOL     OW63853   9.015   3.443   8.205
17126SOL    HW163854   8.990   3.509   8.276
17126SOL    HW263855   9.089   3.384   8.239
17127SOL     OW63856   8.047   5.975   8.378
17127SOL    HW163857   7.960   5.988   8.427
17127SOL    HW263858   8.088   6.064   8.360
17128SOL     OW63859   7.383   3.630   8.778
17128SOL    HW163860   7.475   3.667   8.767
17128SOL    HW263861   7.388   3.537   8.814
17129SOL     OW63862   8.207   5.754   8.473
17129SOL    HW163863   8.142   5.821   8.439
17129SOL    HW263864   8.294   5.799   8.493
17130SOL     OW63865   8.728   3.164   8.539
17130SOL    HW163866   8.723   3.255   8.498
17130SOL    HW263867   8.804   3.113   8.497
17131SOL     OW63868   7.934   5.310   8.819
17131SOL    HW163869   7.996   5.389   8.816
17131SOL    HW263870   7.847   5.334   8.776
17132SOL     OW63871   8.196   4.907   8.719
17132SOL    HW163872   8.126   4.964   8.676
17132SOL    HW263873   8.257   4.965   8.774
17133SOL     OW63874   7.912   3.373   8.069
17133SOL    HW163875   7.935   3.445   8.004
17133SOL    HW263876   7.835   3.402   8.125
17134SOL     OW63877   8.353   1.320   8.302
17134SOL    HW163878   8.300   1.398   8.335
17134SOL    HW263879   8.316   1.235   8.340
17135SOL     OW63880   7.927   3.410   8.613
17135SOL    HW163881   7.867   3.382   8.537
17135SOL    HW263882   8.018   3.429   8.577
17136SOL     OW63883   7.767   7.179   8.477
17136SOL    HW163884   7.691   7.154   8.537
17136SOL    HW263885   7.731   7.214   8.390
17137SOL     OW63886   7.686   1.379   8.816
17137SOL    HW163887   7.751   1.421   8.879
17137SOL    HW263888   7.714   1.398   8.721
17138SOL     OW63889   7.653   0.611   8.051
17138SOL    HW163890   7.628   0.707   8.044
17138SOL    HW263891   7.573   0.557   8.076
17139SOL     OW63892   8.607   0.068   8.978
17139SOL    HW163893   8.555   0.090   8.896
17139SOL    HW263894   8.614   0.149   9.037
17140SOL     OW63895   7.365   3.247   8.753
17140SOL    HW163896   7.377   3.187   8.674
17140SOL    HW263897   7.276   3.228   8.796
17141SOL     OW63898   7.545   0.700   8.297
17141SOL    HW163899   7.462   0.755   8.286
17141SOL    HW263900   7.540   0.649   8.382
17142SOL     OW63901   8.920   0.274   8.402
17142SOL    HW163902   9.016   0.276   8.431
17142SOL    HW263903   8.904   0.347   8.335
17143SOL     OW63904   8.747   3.922   8.778
17143SOL    HW163905   8.684   3.934   8.701
17143SOL    HW263906   8.700   3.943   8.864
17144SOL     OW63907   7.412   2.194   7.735
17144SOL    HW163908   7.438   2.219   7.828
17144SOL    HW263909   7.493   2.197   7.676
17145SOL     OW63910   8.196   5.167   7.789
17145SOL    HW163911   8.281   5.129   7.827
17145SOL    HW263912   8.171   5.116   7.707
17146SOL     OW63913   8.219   2.645   7.840
17146SOL    HW163914   8.291   2.696   7.792
17146SOL    HW263915   8.258   2.602   7.922
17147SOL     OW63916   7.487   2.544   7.610
17147SOL    HW163917   7.413   2.487   7.576
17147SOL    HW263918   7.468   2.640   7.587
17148SOL     OW63919   7.486   3.755   8.190
17148SOL    HW163920   7.435   3.837   8.167
17148SOL    HW263921   7.433   3.699   8.253
17149SOL     OW63922   8.337   2.448   8.832
17149SOL    HW163923   8.361   2.544   8.815
17149SOL    HW263924   8.406   2.406   8.890
17150SOL     OW63925   7.943   1.391   8.198
17150SOL    HW163926   7.993   1.404   8.284
17150SOL    HW263927   7.911   1.480   8.165
17151SOL     OW63928   7.629   7.267   8.254
17151SOL    HW163929   7.532   7.246   8.265
17151SOL    HW263930   7.668   7.210   8.182
17152SOL     OW63931   7.904   2.773   7.533
17152SOL    HW163932   7.942   2.756   7.623
17152SOL    HW263933   7.957   2.845   7.487
17153SOL     OW63934   8.824   6.603   8.057
17153SOL    HW163935   8.748   6.547   8.026
17153SOL    HW263936   8.859   6.568   8.145
17154SOL     OW63937   8.506   1.698   8.353
17154SOL    HW163938   8.577   1.632   8.329
17154SOL    HW263939   8.511   1.776   8.291
17155SOL     OW63940   7.561   5.528   7.581
17155SOL    HW163941   7.557   5.613   7.529
17155SOL    HW263942   7.657   5.502   7.596
17156SOL     OW63943   7.551   2.443   8.270
17156SOL    HW163944   7.469   2.437   8.214
17156SOL    HW263945   7.618   2.376   8.239
17157SOL     OW63946   8.036   1.165   7.536
17157SOL    HW163947   8.017   1.102   7.461
17157SOL    HW263948   8.104   1.125   7.597
17158SOL     OW63949   8.394   6.349   7.598
17158SOL    HW163950   8.469   6.416   7.603
17158SOL    HW263951   8.425   6.270   7.544
17159SOL     OW63952   7.576   6.806   8.749
17159SOL    HW163953   7.660   6.778   8.703
17159SOL    HW263954   7.563   6.753   8.833
17160SOL     OW63955   7.623   1.499   8.232
17160SOL    HW163956   7.714   1.525   8.201
17160SOL    HW263957   7.557   1.569   8.203
17161SOL     OW63958   7.620   5.768   7.471
17161SOL    HW163959   7.693   5.742   7.408
17161SOL    HW263960   7.566   5.842   7.432
17162SOL     OW63961   8.913   6.497   8.306
17162SOL    HW163962   8.878   6.419   8.359
17162SOL    HW263963   9.012   6.490   8.298
17163SOL     OW63964   8.775   5.058   9.069
17163SOL    HW163965   8.843   5.009   9.122
17163SOL    HW263966   8.689   5.062   9.120
17164SOL     OW63967   8.197   0.207   8.533
17164SOL    HW163968   8.204   0.108   8.545
17164SOL    HW263969   8.109   0.230   8.490
17165SOL     OW63970   8.086   4.480   8.277
17165SOL    HW163971   8.177   4.496   8.316
17165SOL    HW263972   8.016   4.510   8.341
17166SOL     OW63973   8.167   0.490   8.101
17166SOL    HW163974   8.221   0.406   8.112
17166SOL    HW263975   8.095   0.474   8.033
17167SOL     OW63976   8.122   6.381   7.518
17167SOL    HW163977   8.218   6.389   7.546
17167SOL    HW263978   8.085   6.294   7.551
17168SOL     OW63979   7.964   0.184   8.391
17168SOL    HW163980   8.000   0.277   8.386
17168SOL    HW263981   7.893   0.171   8.323
17169SOL     OW63982   8.131   0.908   9.019
17169SOL    HW163983   8.092   0.839   8.957
17169SOL    HW263984   8.224   0.931   8.989
17170SOL     OW63985   8.553   3.844   8.577
17170SOL    HW163986   8.532   3.748   8.596
17170SOL    HW263987   8.620   3.849   8.503
17171SOL     OW63988   8.886   4.087   8.570
17171SOL    HW163989   8.897   4.048   8.661
17171SOL    HW263990   8.964   4.063   8.513
17172SOL     OW63991   7.536   0.559   8.727
17172SOL    HW163992   7.474   0.565   8.649
17172SOL    HW263993   7.527   0.642   8.783
17173SOL     OW63994   8.010   0.462   8.394
17173SOL    HW163995   7.947   0.501   8.327
17173SOL    HW263996   8.066   0.535   8.435
17174SOL     OW63997   8.321   3.730   8.839
17174SOL    HW163998   8.340   3.826   8.816
17174SOL    HW263999   8.222   3.717   8.848
17175SOL     OW64000   7.556   4.815   7.873
17175SOL    HW164001   7.506   4.900   7.886
17175SOL    HW264002   7.588   4.808   7.779
17176SOL     OW64003   8.049   2.926   8.080
17176SOL    HW164004   7.974   2.882   8.128
17176SOL    HW264005   8.056   3.022   8.109
17177SOL     OW64006   8.899   0.468   7.480
17177SOL    HW164007   8.842   0.401   7.526
17177SOL    HW264008   8.846   0.512   7.407
17178SOL     OW64009   8.698   2.992   7.510
17178SOL    HW164010   8.672   2.938   7.430
17178SOL    HW264011   8.659   2.951   7.593
17179SOL     OW64012   7.761   4.190   8.154
17179SOL    HW164013   7.794   4.169   8.062
17179SOL    HW264014   7.752   4.289   8.165
17180SOL     OW64015   9.061   1.791   8.580
17180SOL    HW164016   9.075   1.760   8.486
17180SOL    HW264017   9.079   1.716   8.644
17181SOL     OW64018   8.505   3.031   8.177
17181SOL    HW164019   8.445   2.960   8.140
17181SOL    HW264020   8.522   3.014   8.274
17182SOL     OW64021   8.535   2.531   8.337
17182SOL    HW164022   8.466   2.555   8.406
17182SOL    HW264023   8.622   2.572   8.361
17183SOL     OW64024   8.433   5.411   7.793
17183SOL    HW164025   8.491   5.363   7.728
17183SOL    HW264026   8.358   5.352   7.821
17184SOL     OW64027   7.388   6.474   7.428
17184SOL    HW164028   7.418   6.466   7.523
17184SOL    HW264029   7.371   6.570   7.406
17185SOL     OW64030   8.293   2.201   7.879
17185SOL    HW164031   8.368   2.210   7.944
17185SOL    HW264032   8.238   2.121   7.901
17186SOL     OW64033   7.648   4.810   8.289
17186SOL    HW164034   7.699   4.852   8.364
17186SOL    HW264035   7.658   4.866   8.207
17187SOL     OW64036   8.381   3.500   7.968
17187SOL    HW164037   8.454   3.567   7.968
17187SOL    HW264038   8.403   3.427   8.033
17188SOL     OW64039   9.162   3.951   8.464
17188SOL    HW164040   9.159   3.915   8.557
17188SOL    HW264041   9.257   3.972   8.440
17189SOL     OW64042   8.630   4.460   7.591
17189SOL    HW164043   8.591   4.545   7.556
17189SOL    HW264044   8.614   4.386   7.526
17190SOL     OW64045   8.470   6.222   8.606
17190SOL    HW164046   8.474   6.293   8.676
17190SOL    HW264047   8.454   6.265   8.516
17191SOL     OW64048   8.226   4.698   7.738
17191SOL    HW164049   8.270   4.725   7.652
17191SOL    HW264050   8.193   4.780   7.785
17192SOL     OW64051   7.435   5.676   8.271
17192SOL    HW164052   7.381   5.602   8.310
17192SOL    HW264053   7.469   5.735   8.345
17193SOL     OW64054   7.640   2.406   7.821
17193SOL    HW164055   7.595   2.441   7.739
17193SOL    HW264056   7.666   2.482   7.880
17194SOL     OW64057   7.802   3.462   8.846
17194SOL    HW164058   7.867   3.519   8.897
17194SOL    HW264059   7.845   3.430   8.762
17195SOL     OW64060   7.968   3.408   7.494
17195SOL    HW164061   7.897   3.479   7.490
17195SOL    HW264062   7.928   3.323   7.527
17196SOL     OW64063   8.719   4.093   7.643
17196SOL    HW164064   8.647   4.027   7.665
17196SOL    HW264065   8.807   4.057   7.673
17197SOL     OW64066   9.079   4.734   8.108
17197SOL    HW164067   9.010   4.805   8.119
17197SOL    HW264068   9.076   4.672   8.187
17198SOL     OW64069   9.014   6.973   8.237
17198SOL    HW164070   9.008   6.873   8.233
17198SOL    HW264071   9.041   7.008   8.148
17199SOL     OW64072   8.210   2.526   8.104
17199SOL    HW164073   8.244   2.442   8.146
17199SOL    HW264074   8.183   2.590   8.176
17200SOL     OW64075   8.782   3.341   8.038
17200SOL    HW164076   8.738   3.417   7.991
17200SOL    HW264077   8.870   3.371   8.076
17201SOL     OW64078   8.681   3.257   7.687
17201SOL    HW164079   8.641   3.237   7.776
17201SOL    HW264080   8.709   3.171   7.643
17202SOL     OW64081   7.517   2.950   8.507
17202SOL    HW164082   7.549   2.947   8.601
17202SOL    HW264083   7.525   2.859   8.466
17203SOL     OW64084   8.964   2.197   8.316
17203SOL    HW164085   8.883   2.144   8.340
17203SOL    HW264086   9.026   2.199   8.395
17204SOL     OW64087   8.039   1.131   8.146
17204SOL    HW164088   8.007   1.224   8.163
17204SOL    HW264089   8.133   1.134   8.111
17205SOL     OW64090   8.755   2.736   8.810
17205SOL    HW164091   8.795   2.825   8.789
17205SOL    HW264092   8.657   2.739   8.795
17206SOL     OW64093   8.266   2.615   8.502
17206SOL    HW164094   8.222   2.651   8.420
17206SOL    HW264095   8.209   2.543   8.542
17207SOL     OW64096   8.369   6.382   7.912
17207SOL    HW164097   8.378   6.345   7.820
17207SOL    HW264098   8.275   6.413   7.927
17208SOL     OW64099   8.798   3.058   8.838
17208SOL    HW164100   8.721   3.060   8.902
17208SOL    HW264101   8.764   3.069   8.745
17209SOL     OW64102   8.328   0.309   9.032
17209SOL    HW164103   8.289   0.374   9.098
17209SOL    HW264104   8.301   0.335   8.939
17210SOL     OW64105   7.422   2.784   8.104
17210SOL    HW164106   7.368   2.743   8.177
17210SOL    HW264107   7.368   2.857   8.061
17211SOL     OW64108   7.926   1.304   7.751
17211SOL    HW164109   7.999   1.329   7.815
17211SOL    HW264110   7.964   1.249   7.677
17212SOL     OW64111   7.795   6.843   7.974
17212SOL    HW164112   7.887   6.881   7.988
17212SOL    HW264113   7.751   6.890   7.898
17213SOL     OW64114   8.491   2.669   8.072
17213SOL    HW164115   8.443   2.742   8.023
17213SOL    HW264116   8.438   2.644   8.153
17214SOL     OW64117   7.793   4.579   7.727
17214SOL    HW164118   7.704   4.537   7.738
17214SOL    HW264119   7.862   4.526   7.776
17215SOL     OW64120   8.056   3.687   8.538
17215SOL    HW164121   8.143   3.713   8.497
17215SOL    HW264122   7.985   3.685   8.467
17216SOL     OW64123   8.449   2.168   8.774
17216SOL    HW164124   8.413   2.225   8.700
17216SOL    HW264125   8.387   2.093   8.791
17217SOL     OW64126   7.793   2.727   8.463
17217SOL    HW164127   7.861   2.713   8.535
17217SOL    HW264128   7.839   2.750   8.377
17218SOL     OW64129   7.944   4.500   7.493
17218SOL    HW164130   7.893   4.531   7.573
17218SOL    HW264131   8.037   4.476   7.520
17219SOL     OW64132   7.367   2.480   8.028
17219SOL    HW164133   7.408   2.571   8.038
17219SOL    HW264134   7.313   2.477   7.945
17220SOL     OW64135   8.378   0.111   8.788
17220SOL    HW164136   8.335   0.020   8.784
17220SOL    HW264137   8.308   0.179   8.812
17221SOL     OW64138   8.102   2.002   7.958
17221SOL    HW164139   8.015   1.954   7.943
17221SOL    HW264140   8.177   1.936   7.954
17222SOL     OW64141   7.554   3.388   8.907
17222SOL    HW164142   7.634   3.407   8.851
17222SOL    HW264143   7.491   3.328   8.857
17223SOL     OW64144   8.156   5.047   7.550
17223SOL    HW164145   8.141   5.120   7.483
17223SOL    HW264146   8.169   4.960   7.503
17224SOL     OW64147   8.795   3.759   7.493
17224SOL    HW164148   8.705   3.769   7.535
17224SOL    HW264149   8.832   3.669   7.513
17225SOL     OW64150   8.940   7.184   7.570
17225SOL    HW164151   8.919   7.259   7.634
17225SOL    HW264152   8.960   7.101   7.622
17226SOL     OW64153   8.978   4.350   8.602
17226SOL    HW164154   8.922   4.267   8.608
17226SOL    HW264155   8.927   4.427   8.640
17227SOL     OW64156   7.745   3.750   7.864
17227SOL    HW164157   7.786   3.810   7.932
17227SOL    HW264158   7.696   3.676   7.910
17228SOL     OW64159   9.009   2.846   8.731
17228SOL    HW164160   9.009   2.797   8.644
17228SOL    HW264161   8.949   2.926   8.724
17229SOL     OW64162   7.733   5.906   8.950
17229SOL    HW164163   7.688   5.892   8.862
17229SOL    HW264164   7.730   6.003   8.974
17230SOL     OW64165   7.696   1.154   8.542
17230SOL    HW164166   7.693   1.115   8.449
17230SOL    HW264167   7.603   1.168   8.576
17231SOL     OW64168   8.538   7.053   8.098
17231SOL    HW164169   8.580   7.095   8.178
17231SOL    HW264170   8.608   7.038   8.028
17232SOL     OW64171   9.118   5.024   8.454
17232SOL    HW164172   9.086   5.108   8.497
17232SOL    HW264173   9.217   5.016   8.464
17233SOL     OW64174   8.666   2.266   8.548
17233SOL    HW164175   8.697   2.360   8.529
17233SOL    HW264176   8.667   2.250   8.646
17234SOL     OW64177   7.685   5.272   7.787
17234SOL    HW164178   7.648   5.179   7.779
17234SOL    HW264179   7.611   5.338   7.779
17235SOL     OW64180   7.770   5.060   8.194
17235SOL    HW164181   7.825   5.039   8.113
17235SOL    HW264182   7.742   5.156   8.192
17236SOL     OW64183   8.415   6.332   8.352
17236SOL    HW164184   8.404   6.252   8.293
17236SOL    HW264185   8.350   6.403   8.325
17237SOL     OW64186   8.346   4.674   8.868
17237SOL    HW164187   8.305   4.753   8.822
17237SOL    HW264188   8.403   4.706   8.944
17238SOL     OW64189   8.703   5.186   8.164
17238SOL    HW164190   8.798   5.216   8.169
17238SOL    HW264191   8.645   5.264   8.137
17239SOL     OW64192   8.121   2.437   8.657
17239SOL    HW164193   8.069   2.520   8.678
17239SOL    HW264194   8.196   2.428   8.722
17240SOL     OW64195   8.391   4.270   8.221
17240SOL    HW164196   8.369   4.339   8.289
17240SOL    HW264197   8.412   4.314   8.134
17241SOL     OW64198   7.465   5.189   8.109
17241SOL    HW164199   7.523   5.270   8.119
17241SOL    HW264200   7.442   5.154   8.200
17242SOL     OW64201   8.972   1.384   7.963
17242SOL    HW164202   8.946   1.295   7.925
17242SOL    HW264203   9.040   1.370   8.035
17243SOL     OW64204   8.778   4.072   7.941
17243SOL    HW164205   8.746   4.159   7.980
17243SOL    HW264206   8.864   4.088   7.892
17244SOL     OW64207   7.636   3.695   8.721
17244SOL    HW164208   7.672   3.737   8.638
17244SOL    HW264209   7.710   3.649   8.770
17245SOL     OW64210   8.973   4.880   9.178
17245SOL    HW164211   9.063   4.872   9.220
17245SOL    HW264212   8.981   4.871   9.078
17246SOL     OW64213   7.903   3.725   7.643
17246SOL    HW164214   7.974   3.782   7.685
17246SOL    HW264215   7.822   3.725   7.701
17247SOL     OW64216   7.644   3.393   8.224
17247SOL    HW164217   7.670   3.403   8.320
17247SOL    HW264218   7.583   3.315   8.214
17248SOL     OW64219   8.454   1.368   7.935
17248SOL    HW164220   8.544   1.333   7.963
17248SOL    HW264221   8.460   1.405   7.842
17249SOL     OW64222   7.599   2.882   8.749
17249SOL    HW164223   7.639   2.801   8.792
17249SOL    HW264224   7.527   2.919   8.808
17250SOL     OW64225   8.384   6.130   8.079
17250SOL    HW164226   8.406   6.212   8.026
17250SOL    HW264227   8.384   6.050   8.019
17251SOL     OW64228   8.391   2.333   8.252
17251SOL    HW164229   8.451   2.399   8.296
17251SOL    HW264230   8.421   2.317   8.158
17252SOL     OW64231   8.752   2.655   7.605
17252SOL    HW164232   8.657   2.674   7.632
17252SOL    HW264233   8.765   2.556   7.599
17253SOL     OW64234   9.106   6.579   8.619
17253SOL    HW164235   9.080   6.514   8.691
17253SOL    HW264236   9.136   6.529   8.538
17254SOL     OW64237   8.091   3.176   8.144
17254SOL    HW164238   8.129   3.226   8.223
17254SOL    HW264239   8.010   3.225   8.110
17255SOL     OW64240   7.975   4.077   7.949
17255SOL    HW164241   8.040   4.146   7.980
17255SOL    HW264242   7.908   4.120   7.889
17256SOL     OW64243   8.967   1.136   7.798
17256SOL    HW164244   9.033   1.065   7.821
17256SOL    HW264245   8.881   1.094   7.770
17257SOL     OW64246   8.288   4.748   7.465
17257SOL    HW164247   8.367   4.693   7.438
17257SOL    HW264248   8.227   4.759   7.387
17258SOL     OW64249   7.383   1.769   7.686
17258SOL    HW164250   7.375   1.679   7.643
17258SOL    HW264251   7.371   1.761   7.785
17259SOL     OW64252   7.440   7.283   8.854
17259SOL    HW164253   7.414   7.371   8.894
17259SOL    HW264254   7.537   7.266   8.872
17260SOL     OW64255   8.923   3.413   7.739
17260SOL    HW164256   8.922   3.439   7.643
17260SOL    HW264257   8.838   3.365   7.762
17261SOL     OW64258   8.806   5.749   7.992
17261SOL    HW164259   8.829   5.839   7.958
17261SOL    HW264260   8.744   5.758   8.070
17262SOL     OW64261   7.889   2.418   7.604
17262SOL    HW164262   7.838   2.373   7.530
17262SOL    HW264263   7.889   2.517   7.590
17263SOL     OW64264   8.128   4.028   8.597
17263SOL    HW164265   8.153   4.037   8.500
17263SOL    HW264266   8.204   3.988   8.648
17264SOL     OW64267   7.361   6.789   7.852
17264SOL    HW164268   7.378   6.693   7.832
17264SOL    HW264269   7.267   6.812   7.828
17265SOL     OW64270   8.858   4.314   7.633
17265SOL    HW164271   8.811   4.402   7.638
17265SOL    HW264272   8.792   4.240   7.640
17266SOL     OW64273   7.839   1.614   8.102
17266SOL    HW164274   7.879   1.701   8.133
17266SOL    HW264275   7.819   1.620   8.004
17267SOL     OW64276   8.268   3.188   8.589
17267SOL    HW164277   8.191   3.170   8.650
17267SOL    HW264278   8.346   3.221   8.643
17268SOL     OW64279   8.933   2.424   8.590
17268SOL    HW164280   8.946   2.478   8.507
17268SOL    HW264281   8.982   2.337   8.583
17269SOL     OW64282   8.752   0.286   8.935
17269SOL    HW164283   8.752   0.187   8.924
17269SOL    HW264284   8.729   0.329   8.848
17270SOL     OW64285   8.567   2.959   8.421
17270SOL    HW164286   8.601   3.034   8.477
17270SOL    HW264287   8.613   2.874   8.447
17271SOL     OW64288   8.715   7.146   8.309
17271SOL    HW164289   8.721   7.245   8.320
17271SOL    HW264290   8.742   7.101   8.395
17272SOL     OW64291   8.831   5.556   7.570
17272SOL    HW164292   8.787   5.590   7.487
17272SOL    HW264293   8.855   5.634   7.628
17273SOL     OW64294   7.825   6.035   8.527
17273SOL    HW164295   7.752   6.071   8.470
17273SOL    HW264296   7.803   6.049   8.623
17274SOL     OW64297   8.064   1.955   8.845
17274SOL    HW164298   8.136   1.965   8.776
17274SOL    HW264299   8.058   2.039   8.898
17275SOL     OW64300   7.489   3.913   7.504
17275SOL    HW164301   7.407   3.954   7.463
17275SOL    HW264302   7.565   3.919   7.438
17276SOL     OW64303   8.323   2.875   8.026
17276SOL    HW164304   8.227   2.878   8.056
17276SOL    HW264305   8.333   2.924   7.940
17277SOL     OW64306   7.384   1.439   7.666
17277SOL    HW164307   7.340   1.373   7.726
17277SOL    HW264308   7.484   1.432   7.676
17278SOL     OW64309   7.884   2.724   8.196
17278SOL    HW164310   7.896   2.642   8.251
17278SOL    HW264311   7.849   2.699   8.106
17279SOL     OW64312   8.949   6.783   8.677
17279SOL    HW164313   8.892   6.724   8.735
17279SOL    HW264314   9.011   6.726   8.623
17280SOL     OW64315   7.705   5.604   8.106
17280SOL    HW164316   7.745   5.668   8.040
17280SOL    HW264317   7.606   5.616   8.109
17281SOL     OW64318   7.844   4.345   7.910
17281SOL    HW164319   7.798   4.404   7.977
17281SOL    HW264320   7.936   4.378   7.893
17282SOL     OW64321   8.879   0.709   7.876
17282SOL    HW164322   8.937   0.704   7.956
17282SOL    HW264323   8.926   0.758   7.803
17283SOL     OW64324   7.749   6.872   8.440
17283SOL    HW164325   7.787   6.964   8.445
17283SOL    HW264326   7.785   6.817   8.514
17284SOL     OW64327   7.681   1.006   7.673
17284SOL    HW164328   7.662   0.973   7.581
17284SOL    HW264329   7.780   1.015   7.686
17285SOL     OW64330   7.711   1.995   8.225
17285SOL    HW164331   7.645   1.921   8.221
17285SOL    HW264332   7.804   1.958   8.225
17286SOL     OW64333   8.144   2.731   8.303
17286SOL    HW164334   8.172   2.823   8.331
17286SOL    HW264335   8.050   2.734   8.269
17287SOL     OW64336   7.636   4.367   8.916
17287SOL    HW164337   7.545   4.367   8.875
17287SOL    HW264338   7.696   4.306   8.865
17288SOL     OW64339   7.417   5.596   8.008
17288SOL    HW164340   7.380   5.669   7.951
17288SOL    HW264341   7.420   5.627   8.103
17289SOL     OW64342   8.949   6.091   7.423
17289SOL    HW164343   8.898   6.162   7.470
17289SOL    HW264344   8.887   6.038   7.365
17290SOL     OW64345   7.550   0.650   7.770
17290SOL    HW164346   7.610   0.616   7.843
17290SOL    HW264347   7.549   0.750   7.772
17291SOL     OW64348   7.802   7.149   8.081
17291SOL    HW164349   7.879   7.211   8.067
17291SOL    HW264350   7.762   7.125   7.992
17292SOL     OW64351   7.451   0.104   8.545
17292SOL    HW164352   7.544   0.081   8.574
17292SOL    HW264353   7.454   0.166   8.467
17293SOL     OW64354   8.658   6.152   7.577
17293SOL    HW164355   8.722   6.221   7.612
17293SOL    HW264356   8.675   6.065   7.622
17294SOL     OW64357   9.097   0.406   8.157
17294SOL    HW164358   8.997   0.404   8.155
17294SOL    HW264359   9.128   0.488   8.206
17295SOL     OW64360   8.689   3.560   7.915
17295SOL    HW164361   8.650   3.554   7.823
17295SOL    HW264362   8.745   3.643   7.921
17296SOL     OW64363   7.780   4.142   7.754
17296SOL    HW164364   7.783   4.236   7.787
17296SOL    HW264365   7.685   4.114   7.741
17297SOL     OW64366   8.892   1.351   9.168
17297SOL    HW164367   8.873   1.350   9.267
17297SOL    HW264368   8.811   1.319   9.119
17298SOL     OW64369   7.387   1.163   7.388
17298SOL    HW164370   7.396   1.169   7.288
17298SOL    HW264371   7.468   1.119   7.426
17299SOL     OW64372   8.673   1.716   8.746
17299SOL    HW164373   8.713   1.694   8.657
17299SOL    HW264374   8.579   1.684   8.750
17300SOL     OW64375   9.014   4.143   9.156
17300SOL    HW164376   8.981   4.237   9.167
17300SOL    HW264377   9.028   4.124   9.058
17301SOL     OW64378   7.721   0.146   8.221
17301SOL    HW164379   7.653   0.206   8.263
17301SOL    HW264380   7.690   0.052   8.225
17302SOL     OW64381   8.071   7.286   7.464
17302SOL    HW164382   8.137   7.276   7.538
17302SOL    HW264383   8.097   7.363   7.406
17303SOL     OW64384   8.567   8.320   0.986
17303SOL    HW164385   8.605   8.258   1.055
17303SOL    HW264386   8.512   8.267   0.921
17304SOL     OW64387   8.082   7.615   5.189
17304SOL    HW164388   7.996   7.628   5.238
17304SOL    HW264389   8.073   7.649   5.095
17305SOL     OW64390   8.396   8.428   3.353
17305SOL    HW164391   8.442   8.386   3.431
17305SOL    HW264392   8.463   8.478   3.298
17306SOL     OW64393   7.964   8.029   5.847
17306SOL    HW164394   8.034   8.101   5.845
17306SOL    HW264395   7.886   8.060   5.901
17307SOL     OW64396   9.186   8.731   0.771
17307SOL    HW164397   9.192   8.713   0.870
17307SOL    HW264398   9.277   8.753   0.736
17308SOL     OW64399   7.374   7.928   1.142
17308SOL    HW164400   7.296   7.991   1.149
17308SOL    HW264401   7.357   7.863   1.068
17309SOL     OW64402   7.727   7.725   2.298
17309SOL    HW164403   7.806   7.780   2.270
17309SOL    HW264404   7.664   7.716   2.221
17310SOL     OW64405   8.325   7.515   0.898
17310SOL    HW164406   8.236   7.504   0.942
17310SOL    HW264407   8.343   7.436   0.839
17311SOL     OW64408   8.935   7.717   6.420
17311SOL    HW164409   8.850   7.667   6.400
17311SOL    HW264410   8.920   7.777   6.499
17312SOL     OW64411   7.924   7.924   2.550
17312SOL    HW164412   7.897   8.019   2.539
17312SOL    HW264413   7.999   7.917   2.616
17313SOL     OW64414   8.870   8.250   2.195
17313SOL    HW164415   8.787   8.195   2.197
17313SOL    HW264416   8.917   8.236   2.107
17314SOL     OW64417   7.515   8.386   5.542
17314SOL    HW164418   7.575   8.414   5.468
17314SOL    HW264419   7.563   8.323   5.603
17315SOL     OW64420   8.635   8.604   0.901
17315SOL    HW164421   8.651   8.507   0.918
17315SOL    HW264422   8.542   8.628   0.929
17316SOL     OW64423   7.636   8.130   6.115
17316SOL    HW164424   7.603   8.042   6.081
17316SOL    HW264425   7.576   8.162   6.189
17317SOL     OW64426   7.870   8.019   0.897
17317SOL    HW164427   7.904   8.113   0.895
17317SOL    HW264428   7.793   8.010   0.834
17318SOL     OW64429   8.888   8.090   0.812
17318SOL    HW164430   8.808   8.107   0.755
17318SOL    HW264431   8.971   8.114   0.762
17319SOL     OW64432   8.489   7.495   5.543
17319SOL    HW164433   8.419   7.525   5.479
17319SOL    HW264434   8.532   7.411   5.510
17320SOL     OW64435   8.112   7.608   5.900
17320SOL    HW164436   8.163   7.693   5.913
17320SOL    HW264437   8.016   7.623   5.925
17321SOL     OW64438   8.425   8.314   3.632
17321SOL    HW164439   8.423   8.356   3.722
17321SOL    HW264440   8.333   8.282   3.608
17322SOL     OW64441   8.221   7.368   5.918
17322SOL    HW164442   8.176   7.455   5.900
17322SOL    HW264443   8.298   7.357   5.855
17323SOL     OW64444   7.756   8.579   3.462
17323SOL    HW164445   7.765   8.491   3.416
17323SOL    HW264446   7.665   8.617   3.444
17324SOL     OW64447   7.635   8.144   5.671
17324SOL    HW164448   7.701   8.093   5.618
17324SOL    HW264449   7.681   8.189   5.748
17325SOL     OW64450   8.189   8.767   0.190
17325SOL    HW164451   8.150   8.840   0.246
17325SOL    HW264452   8.127   8.689   0.189
17326SOL     OW64453   7.604   7.887   0.178
17326SOL    HW164454   7.528   7.823   0.168
17326SOL    HW264455   7.589   7.945   0.258
17327SOL     OW64456   8.188   8.327   6.113
17327SOL    HW164457   8.272   8.284   6.082
17327SOL    HW264458   8.209   8.397   6.181
17328SOL     OW64459   8.386   8.424   7.333
17328SOL    HW164460   8.360   8.520   7.319
17328SOL    HW264461   8.333   8.367   7.270
17329SOL     OW64462   7.804   8.035   4.817
17329SOL    HW164463   7.715   7.994   4.795
17329SOL    HW264464   7.875   7.988   4.765
17330SOL     OW64465   9.297   7.767   0.619
17330SOL    HW164466   9.323   7.673   0.597
17330SOL    HW264467   9.242   7.767   0.703
17331SOL     OW64468   8.143   8.374   2.785
17331SOL    HW164469   8.239   8.402   2.786
17331SOL    HW264470   8.129   8.307   2.712
17332SOL     OW64471   8.723   7.647   5.551
17332SOL    HW164472   8.769   7.615   5.634
17332SOL    HW264473   8.644   7.587   5.533
17333SOL     OW64474   8.207   8.786   3.237
17333SOL    HW164475   8.221   8.755   3.331
17333SOL    HW264476   8.179   8.708   3.180
17334SOL     OW64477   7.387   8.279   1.274
17334SOL    HW164478   7.376   8.376   1.253
17334SOL    HW264479   7.311   8.228   1.235
17335SOL     OW64480   8.488   7.825   2.275
17335SOL    HW164481   8.415   7.853   2.213
17335SOL    HW264482   8.558   7.776   2.224
17336SOL     OW64483   7.873   8.282   2.037
17336SOL    HW164484   7.801   8.313   1.975
17336SOL    HW264485   7.951   8.345   2.032
17337SOL     OW64486   8.537   8.090   1.468
17337SOL    HW164487   8.469   8.046   1.411
17337SOL    HW264488   8.524   8.061   1.563
17338SOL     OW64489   7.547   7.569   6.344
17338SOL    HW164490   7.545   7.564   6.444
17338SOL    HW264491   7.502   7.654   6.315
17339SOL     OW64492   8.205   7.717   1.405
17339SOL    HW164493   8.114   7.704   1.445
17339SOL    HW264494   8.210   7.668   1.318
17340SOL     OW64495   7.760   9.005   3.464
17340SOL    HW164496   7.836   8.996   3.401
17340SOL    HW264497   7.734   8.914   3.498
17341SOL     OW64498   7.803   8.959   0.475
17341SOL    HW164499   7.757   9.023   0.414
17341SOL    HW264500   7.771   8.866   0.456
17342SOL     OW64501   8.509   8.799   2.913
17342SOL    HW164502   8.485   8.733   2.983
17342SOL    HW264503   8.447   8.878   2.917
17343SOL     OW64504   8.170   7.424   1.690
17343SOL    HW164505   8.199   7.341   1.737
17343SOL    HW264506   8.242   7.494   1.696
17344SOL     OW64507   7.941   7.640   1.468
17344SOL    HW164508   7.853   7.681   1.490
17344SOL    HW264509   7.927   7.548   1.431
17345SOL     OW64510   7.723   8.796   2.145
17345SOL    HW164511   7.806   8.752   2.112
17345SOL    HW264512   7.656   8.726   2.169
17346SOL     OW64513   7.366   8.512   0.911
17346SOL    HW164514   7.380   8.581   0.983
17346SOL    HW264515   7.304   8.548   0.842
17347SOL     OW64516   8.873   8.188   0.014
17347SOL    HW164517   8.807   8.141   0.074
17347SOL    HW264518   8.907   8.270   0.060
17348SOL     OW64519   7.646   7.474   0.211
17348SOL    HW164520   7.598   7.431   0.287
17348SOL    HW264521   7.579   7.519   0.151
17349SOL     OW64522   8.204   7.865   5.967
17349SOL    HW164523   8.147   7.924   5.910
17349SOL    HW264524   8.301   7.889   5.954
17350SOL     OW64525   8.741   7.918   5.498
17350SOL    HW164526   8.832   7.943   5.464
17350SOL    HW264527   8.736   7.818   5.508
17351SOL     OW64528   8.717   8.862   0.405
17351SOL    HW164529   8.627   8.819   0.405
17351SOL    HW264530   8.783   8.801   0.449
17352SOL     OW64531   7.936   8.912   3.283
17352SOL    HW164532   7.979   8.994   3.245
17352SOL    HW264533   8.006   8.844   3.303
17353SOL     OW64534   8.269   8.945   2.996
17353SOL    HW164535   8.239   9.040   3.007
17353SOL    HW264536   8.227   8.887   3.066
17354SOL     OW64537   8.710   7.627   6.684
17354SOL    HW164538   8.786   7.571   6.653
17354SOL    HW264539   8.702   7.708   6.625
17355SOL     OW64540   8.064   8.459   2.024
17355SOL    HW164541   8.136   8.488   1.960
17355SOL    HW264542   8.019   8.539   2.063
17356SOL     OW64543   8.024   8.794   1.421
17356SOL    HW164544   7.959   8.801   1.346
17356SOL    HW264545   7.985   8.834   1.504
17357SOL     OW64546   7.814   8.769   1.225
17357SOL    HW164547   7.751   8.703   1.186
17357SOL    HW264548   7.892   8.781   1.164
17358SOL     OW64549   7.922   9.118   3.654
17358SOL    HW164550   8.018   9.134   3.627
17358SOL    HW264551   7.868   9.097   3.573
17359SOL     OW64552   7.979   7.711   3.318
17359SOL    HW164553   7.993   7.792   3.261
17359SOL    HW264554   8.045   7.711   3.393
17360SOL     OW64555   7.512   8.679   3.372
17360SOL    HW164556   7.496   8.687   3.274
17360SOL    HW264557   7.425   8.686   3.421
17361SOL     OW64558   8.307   8.158   6.521
17361SOL    HW164559   8.234   8.118   6.576
17361SOL    HW264560   8.302   8.123   6.428
17362SOL     OW64561   8.149   7.374   7.005
17362SOL    HW164562   8.161   7.397   6.908
17362SOL    HW264563   8.171   7.278   7.020
17363SOL     OW64564   7.925   7.519   0.697
17363SOL    HW164565   7.919   7.618   0.680
17363SOL    HW264566   7.849   7.492   0.756
17364SOL     OW64567   8.408   8.273   0.765
17364SOL    HW164568   8.377   8.367   0.756
17364SOL    HW264569   8.331   8.211   0.752
17365SOL     OW64570   7.412   8.944   3.223
17365SOL    HW164571   7.394   9.012   3.295
17365SOL    HW264572   7.508   8.919   3.224
17366SOL     OW64573   8.241   8.866   0.626
17366SOL    HW164574   8.214   8.846   0.720
17366SOL    HW264575   8.332   8.830   0.608
17367SOL     OW64576   7.373   8.543   1.252
17367SOL    HW164577   7.400   8.629   1.210
17367SOL    HW264578   7.313   8.561   1.330
17368SOL     OW64579   8.001   8.719   3.481
17368SOL    HW164580   8.078   8.656   3.468
17368SOL    HW264581   7.916   8.666   3.491
17369SOL     OW64582   7.738   8.448   0.624
17369SOL    HW164583   7.731   8.546   0.604
17369SOL    HW264584   7.825   8.430   0.670
17370SOL     OW64585   8.652   8.163   0.669
17370SOL    HW164586   8.671   8.177   0.572
17370SOL    HW264587   8.560   8.195   0.690
17371SOL     OW64588   8.538   8.345   6.897
17371SOL    HW164589   8.452   8.294   6.884
17371SOL    HW264590   8.539   8.386   6.988
17372SOL     OW64591   8.669   8.524   0.641
17372SOL    HW164592   8.651   8.426   0.642
17372SOL    HW264593   8.683   8.556   0.734
17373SOL     OW64594   8.540   8.060   6.623
17373SOL    HW164595   8.572   8.010   6.543
17373SOL    HW264596   8.443   8.082   6.613
17374SOL     OW64597   8.575   8.122   2.267
17374SOL    HW164598   8.595   8.158   2.359
17374SOL    HW264599   8.533   8.032   2.275
17375SOL     OW64600   8.122   8.827   3.698
17375SOL    HW164601   8.039   8.856   3.746
17375SOL    HW264602   8.097   8.783   3.612
17376SOL     OW64603   8.748   7.407   1.064
17376SOL    HW164604   8.689   7.440   1.138
17376SOL    HW264605   8.819   7.475   1.045
17377SOL     OW64606   7.738   7.819   1.515
17377SOL    HW164607   7.722   7.850   1.609
17377SOL    HW264608   7.676   7.868   1.453
17378SOL     OW64609   8.162   8.745   2.291
17378SOL    HW164610   8.226   8.788   2.228
17378SOL    HW264611   8.209   8.723   2.377
17379SOL     OW64612   7.742   7.688   0.369
17379SOL    HW164613   7.699   7.760   0.314
17379SOL    HW264614   7.746   7.604   0.316
17380SOL     OW64615   7.584   8.052   2.880
17380SOL    HW164616   7.516   8.017   2.817
17380SOL    HW264617   7.617   8.141   2.848
17381SOL     OW64618   8.287   8.762   1.533
17381SOL    HW164619   8.216   8.765   1.462
17381SOL    HW264620   8.245   8.741   1.621
17382SOL     OW64621   7.831   8.147   1.279
17382SOL    HW164622   7.793   8.186   1.195
17382SOL    HW264623   7.758   8.139   1.347
17383SOL     OW64624   7.902   8.249   4.650
17383SOL    HW164625   7.871   8.201   4.732
17383SOL    HW264626   8.002   8.254   4.650
17384SOL     OW64627   7.665   8.315   0.036
17384SOL    HW164628   7.686   8.359  -0.052
17384SOL    HW264629   7.633   8.221   0.019
17385SOL     OW64630   8.727   7.710   1.268
17385SOL    HW164631   8.650   7.664   1.223
17385SOL    HW264632   8.805   7.715   1.206
17386SOL     OW64633   8.129   8.422   6.706
17386SOL    HW164634   8.045   8.437   6.654
17386SOL    HW264635   8.165   8.510   6.738
17387SOL     OW64636   8.754   8.210   4.110
17387SOL    HW164637   8.712   8.163   4.187
17387SOL    HW264638   8.853   8.207   4.120
17388SOL     OW64639   8.624   7.814   2.507
17388SOL    HW164640   8.586   7.795   2.417
17388SOL    HW264641   8.628   7.729   2.560
17389SOL     OW64642   8.702   8.878   0.930
17389SOL    HW164643   8.689   8.779   0.921
17389SOL    HW264644   8.766   8.910   0.861
17390SOL     OW64645   7.922   8.271   0.871
17390SOL    HW164646   7.835   8.315   0.895
17390SOL    HW264647   7.981   8.337   0.824
17391SOL     OW64648   7.884   7.794   0.599
17391SOL    HW164649   7.832   7.861   0.653
17391SOL    HW264650   7.828   7.762   0.523
17392SOL     OW64651   7.846   7.626   5.359
17392SOL    HW164652   7.759   7.666   5.388
17392SOL    HW264653   7.880   7.565   5.430
17393SOL     OW64654   8.617   7.556   2.607
17393SOL    HW164655   8.535   7.501   2.621
17393SOL    HW264656   8.686   7.501   2.560
17394SOL     OW64657   7.940   8.445   1.663
17394SOL    HW164658   7.874   8.431   1.589
17394SOL    HW264659   8.016   8.381   1.653
17395SOL     OW64660   8.478   8.109   4.041
17395SOL    HW164661   8.557   8.160   4.074
17395SOL    HW264662   8.396   8.165   4.051
17396SOL     OW64663   7.736   7.643   3.242
17396SOL    HW164664   7.701   7.735   3.226
17396SOL    HW264665   7.833   7.648   3.266
17397SOL     OW64666   7.386   9.090   2.842
17397SOL    HW164667   7.425   9.043   2.763
17397SOL    HW264668   7.439   9.172   2.862
17398SOL     OW64669   7.635   7.788   5.487
17398SOL    HW164670   7.542   7.751   5.495
17398SOL    HW264671   7.630   7.881   5.451
17399SOL     OW64672   8.198   7.827   1.868
17399SOL    HW164673   8.247   7.832   1.955
17399SOL    HW264674   8.137   7.905   1.860
17400SOL     OW64675   8.813   8.124   1.873
17400SOL    HW164676   8.717   8.123   1.902
17400SOL    HW264677   8.842   8.032   1.850
17401SOL     OW64678   8.194   7.876   7.112
17401SOL    HW164679   8.261   7.834   7.051
17401SOL    HW264680   8.133   7.806   7.148
17402SOL     OW64681   7.628   7.879   3.109
17402SOL    HW164682   7.642   7.947   3.037
17402SOL    HW264683   7.586   7.923   3.189
17403SOL     OW64684   8.784   8.071   6.258
17403SOL    HW164685   8.783   8.150   6.197
17403SOL    HW264686   8.806   7.989   6.206
17404SOL     OW64687   7.906   7.415   5.561
17404SOL    HW164688   7.868   7.432   5.652
17404SOL    HW264689   7.979   7.348   5.568
17405SOL     OW64690   7.712   8.497   5.324
17405SOL    HW164691   7.643   8.543   5.269
17405SOL    HW264692   7.802   8.537   5.306
17406SOL     OW64693   7.721   7.427   5.778
17406SOL    HW164694   7.697   7.408   5.874
17406SOL    HW264695   7.731   7.525   5.766
17407SOL     OW64696   7.522   7.596   2.702
17407SOL    HW164697   7.521   7.621   2.799
17407SOL    HW264698   7.604   7.633   2.659
17408SOL     OW64699   8.217   8.696   6.764
17408SOL    HW164700   8.298   8.728   6.814
17408SOL    HW264701   8.137   8.702   6.824
17409SOL     OW64702   8.590   8.797   0.093
17409SOL    HW164703   8.626   8.890   0.094
17409SOL    HW264704   8.506   8.794   0.038
17410SOL     OW64705   8.779   8.460   2.929
17410SOL    HW164706   8.875   8.436   2.942
17410SOL    HW264707   8.722   8.395   2.979
17411SOL     OW64708   9.018   8.026   5.480
17411SOL    HW164709   9.047   7.992   5.390
17411SOL    HW264710   9.071   7.980   5.551
17412SOL     OW64711   8.836   8.409   1.892
17412SOL    HW164712   8.829   8.311   1.909
17412SOL    HW264713   8.758   8.439   1.837
17413SOL     OW64714   7.967   8.928   1.911
17413SOL    HW164715   7.887   8.956   1.965
17413SOL    HW264716   8.044   8.988   1.932
17414SOL     OW64717   8.291   8.940   1.169
17414SOL    HW164718   8.309   8.938   1.267
17414SOL    HW264719   8.376   8.959   1.119
17415SOL     OW64720   8.509   7.428   4.058
17415SOL    HW164721   8.455   7.403   4.139
17415SOL    HW264722   8.597   7.465   4.088
17416SOL     OW64723   9.132   7.575   5.755
17416SOL    HW164724   9.090   7.506   5.814
17416SOL    HW264725   9.142   7.538   5.663
17417SOL     OW64726   8.302   8.538   0.718
17417SOL    HW164727   8.317   8.592   0.801
17417SOL    HW264728   8.336   8.588   0.639
17418SOL     OW64729   7.762   8.259   5.885
17418SOL    HW164730   7.850   8.305   5.898
17418SOL    HW264731   7.727   8.230   5.974
17419SOL     OW64732   8.802   8.121   6.721
17419SOL    HW164733   8.707   8.116   6.689
17419SOL    HW264734   8.806   8.175   6.805
17420SOL     OW64735   7.415   8.517   7.114
17420SOL    HW164736   7.476   8.467   7.052
17420SOL    HW264737   7.449   8.611   7.125
17421SOL     OW64738   8.585   8.559   3.247
17421SOL    HW164739   8.609   8.634   3.308
17421SOL    HW264740   8.663   8.498   3.235
17422SOL     OW64741   8.892   8.895   0.022
17422SOL    HW164742   8.940   8.813   0.051
17422SOL    HW264743   8.944   8.943  -0.048
17423SOL     OW64744   7.528   8.813   7.070
17423SOL    HW164745   7.441   8.850   7.102
17423SOL    HW264746   7.554   8.858   6.984
17424SOL     OW64747   7.565   7.686   1.003
17424SOL    HW164748   7.634   7.740   1.051
17424SOL    HW264749   7.493   7.746   0.969
17425SOL     OW64750   8.098   8.920   0.403
17425SOL    HW164751   8.007   8.949   0.432
17425SOL    HW264752   8.158   8.915   0.483
17426SOL     OW64753   8.519   7.537   1.184
17426SOL    HW164754   8.463   7.546   1.102
17426SOL    HW264755   8.460   7.541   1.265
17427SOL     OW64756   9.173   8.874   6.717
17427SOL    HW164757   9.201   8.795   6.771
17427SOL    HW264758   9.113   8.844   6.642
17428SOL     OW64759   7.420   8.448   2.645
17428SOL    HW164760   7.509   8.409   2.624
17428SOL    HW264761   7.361   8.377   2.684
17429SOL     OW64762   8.501   7.383   3.794
17429SOL    HW164763   8.425   7.322   3.774
17429SOL    HW264764   8.510   7.395   3.893
17430SOL     OW64765   7.770   8.395   1.463
17430SOL    HW164766   7.717   8.311   1.449
17430SOL    HW264767   7.786   8.439   1.374
17431SOL     OW64768   8.721   7.752   7.225
17431SOL    HW164769   8.725   7.711   7.134
17431SOL    HW264770   8.666   7.694   7.286
17432SOL     OW64771   7.483   8.871   1.592
17432SOL    HW164772   7.537   8.840   1.514
17432SOL    HW264773   7.430   8.794   1.628
17433SOL     OW64774   7.556   8.029   5.407
17433SOL    HW164775   7.521   8.095   5.473
17433SOL    HW264776   7.624   8.073   5.349
17434SOL     OW64777   7.559   8.212   0.608
17434SOL    HW164778   7.621   8.291   0.609
17434SOL    HW264779   7.465   8.244   0.619
17435SOL     OW64780   7.643   7.516   1.636
17435SOL    HW164781   7.639   7.422   1.602
17435SOL    HW264782   7.602   7.578   1.569
17436SOL     OW64783   7.687   8.778   2.845
17436SOL    HW164784   7.613   8.819   2.793
17436SOL    HW264785   7.758   8.745   2.782
17437SOL     OW64786   7.777   7.790   1.176
17437SOL    HW164787   7.858   7.830   1.134
17437SOL    HW264788   7.773   7.816   1.272
17438SOL     OW64789   7.714   7.510   1.899
17438SOL    HW164790   7.691   7.523   1.802
17438SOL    HW264791   7.743   7.416   1.915
17439SOL     OW64792   8.741   7.980   2.681
17439SOL    HW164793   8.687   7.924   2.619
17439SOL    HW264794   8.755   7.932   2.767
17440SOL     OW64795   8.308   8.668   6.497
17440SOL    HW164796   8.334   8.756   6.456
17440SOL    HW264797   8.285   8.682   6.594
17441SOL     OW64798   8.462   8.008   3.773
17441SOL    HW164799   8.374   8.032   3.732
17441SOL    HW264800   8.450   7.991   3.871
17442SOL     OW64801   8.876   8.466   7.166
17442SOL    HW164802   8.920   8.416   7.241
17442SOL    HW264803   8.829   8.546   7.202
17443SOL     OW64804   8.150   8.790   2.727
17443SOL    HW164805   8.192   8.814   2.815
17443SOL    HW264806   8.130   8.873   2.675
17444SOL     OW64807   8.373   7.767   6.926
17444SOL    HW164808   8.458   7.818   6.929
17444SOL    HW264809   8.387   7.680   6.878
17445SOL     OW64810   8.687   8.171   5.599
17445SOL    HW164811   8.755   8.176   5.672
17445SOL    HW264812   8.704   8.091   5.541
17446SOL     OW64813   7.389   8.269   6.163
17446SOL    HW164814   7.299   8.233   6.189
17446SOL    HW264815   7.393   8.280   6.064
17447SOL     OW64816   8.949   8.864   1.265
17447SOL    HW164817   8.953   8.830   1.359
17447SOL    HW264818   8.866   8.830   1.221
17448SOL     OW64819   7.858   8.705   2.618
17448SOL    HW164820   7.817   8.639   2.554
17448SOL    HW264821   7.894   8.783   2.567
17449SOL     OW64822   8.546   8.725   1.587
17449SOL    HW164823   8.450   8.753   1.583
17449SOL    HW264824   8.602   8.803   1.613
17450SOL     OW64825   8.274   8.252   6.875
17450SOL    HW164826   8.272   8.155   6.852
17450SOL    HW264827   8.233   8.305   6.801
17451SOL     OW64828   7.369   7.727   7.176
17451SOL    HW164829   7.354   7.822   7.146
17451SOL    HW264830   7.314   7.666   7.120
17452SOL     OW64831   7.870   7.892   2.122
17452SOL    HW164832   7.926   7.946   2.059
17452SOL    HW264833   7.784   7.867   2.077
17453SOL     OW64834   8.909   9.002   1.551
17453SOL    HW164835   8.900   8.918   1.605
17453SOL    HW264836   8.868   8.989   1.461
17454SOL     OW64837   7.652   8.678   0.358
17454SOL    HW164838   7.752   8.689   0.359
17454SOL    HW264839   7.630   8.582   0.343
17455SOL     OW64840   8.843   8.357   3.744
17455SOL    HW164841   8.858   8.278   3.684
17455SOL    HW264842   8.872   8.441   3.697
17456SOL     OW64843   8.446   8.157   5.750
17456SOL    HW164844   8.520   8.170   5.684
17456SOL    HW264845   8.364   8.125   5.702
17457SOL     OW64846   7.623   7.444   2.302
17457SOL    HW164847   7.676   7.529   2.307
17457SOL    HW264848   7.592   7.419   2.394
17458SOL     OW64849   8.362   7.415   2.609
17458SOL    HW164850   8.329   7.510   2.612
17458SOL    HW264851   8.303   7.362   2.548
17459SOL     OW64852   8.803   8.322   6.962
17459SOL    HW164853   8.710   8.333   6.926
17459SOL    HW264854   8.812   8.374   7.047
17460SOL     OW64855   7.659   7.472   6.063
17460SOL    HW164856   7.607   7.388   6.048
17460SOL    HW264857   7.613   7.528   6.131
17461SOL     OW64858   8.572   7.396   2.321
17461SOL    HW164859   8.666   7.430   2.319
17461SOL    HW264860   8.565   7.319   2.383
17462SOL     OW64861   8.694   8.962   3.093
17462SOL    HW164862   8.624   8.890   3.098
17462SOL    HW264863   8.726   8.971   2.999
17463SOL     OW64864   7.451   8.749   1.062
17463SOL    HW164865   7.376   8.815   1.052
17463SOL    HW264866   7.525   8.773   1.000
17464SOL     OW64867   7.515   8.531   1.610
17464SOL    HW164868   7.515   8.453   1.548
17464SOL    HW264869   7.583   8.597   1.581
17465SOL     OW64870   9.059   8.232   7.135
17465SOL    HW164871   9.074   8.133   7.139
17465SOL    HW264872   8.964   8.250   7.109
17466SOL     OW64873   7.762   8.552   2.415
17466SOL    HW164874   7.688   8.604   2.373
17466SOL    HW264875   7.812   8.503   2.343
17467SOL     OW64876   8.690   7.663   6.078
17467SOL    HW164877   8.632   7.731   6.034
17467SOL    HW264878   8.667   7.572   6.042
17468SOL     OW64879   8.853   8.417   3.262
17468SOL    HW164880   8.944   8.399   3.225
17468SOL    HW264881   8.789   8.348   3.227
17469SOL     OW64882   8.282   8.286   4.054
17469SOL    HW164883   8.198   8.339   4.067
17469SOL    HW264884   8.341   8.333   3.989
17470SOL     OW64885   8.066   7.789   2.349
17470SOL    HW164886   8.017   7.824   2.269
17470SOL    HW264887   8.036   7.838   2.431
17471SOL     OW64888   8.357   8.269   2.552
17471SOL    HW164889   8.438   8.218   2.524
17471SOL    HW264890   8.383   8.341   2.617
17472SOL     OW64891   8.067   8.738   1.113
17472SOL    HW164892   8.087   8.643   1.136
17472SOL    HW264893   8.121   8.799   1.172
17473SOL     OW64894   8.940   8.169   2.662
17473SOL    HW164895   8.964   8.220   2.580
17473SOL    HW264896   8.867   8.104   2.641
17474SOL     OW64897   7.835   8.374   3.324
17474SOL    HW164898   7.813   8.400   3.230
17474SOL    HW264899   7.932   8.353   3.331
17475SOL     OW64900   7.455   7.671   0.080
17475SOL    HW164901   7.379   7.616   0.113
17475SOL    HW264902   7.440   7.695  -0.016
17476SOL     OW64903   8.182   8.112   0.778
17476SOL    HW164904   8.178   8.013   0.773
17476SOL    HW264905   8.092   8.148   0.801
17477SOL     OW64906   8.581   7.402   3.364
17477SOL    HW164907   8.668   7.355   3.379
17477SOL    HW264908   8.564   7.465   3.440
17478SOL     OW64909   8.925   7.410   7.096
17478SOL    HW164910   8.912   7.368   7.186
17478SOL    HW264911   8.984   7.351   7.040
17479SOL     OW64912   7.994   8.144   5.365
17479SOL    HW164913   7.983   8.120   5.461
17479SOL    HW264914   8.088   8.172   5.348
17480SOL     OW64915   7.936   8.957   2.416
17480SOL    HW164916   7.989   8.900   2.353
17480SOL    HW264917   7.845   8.973   2.377
17481SOL     OW64918   8.122   8.382   3.319
17481SOL    HW164919   8.102   8.351   3.413
17481SOL    HW264920   8.220   8.395   3.309
17482SOL     OW64921   8.274   8.408   6.368
17482SOL    HW164922   8.244   8.485   6.423
17482SOL    HW264923   8.276   8.325   6.424
17483SOL     OW64924   8.436   8.802   0.321
17483SOL    HW164925   8.343   8.772   0.299
17483SOL    HW264926   8.489   8.809   0.236
17484SOL     OW64927   8.448   7.509   6.815
17484SOL    HW164928   8.510   7.524   6.738
17484SOL    HW264929   8.498   7.466   6.890
17485SOL     OW64930   8.488   7.919   5.948
17485SOL    HW164931   8.560   7.920   5.878
17485SOL    HW264932   8.490   8.006   5.998
17486SOL     OW64933   8.000   8.337   7.336
17486SOL    HW164934   8.022   8.241   7.316
17486SOL    HW264935   7.903   8.353   7.319
17487SOL     OW64936   9.114   8.365   1.896
17487SOL    HW164937   9.089   8.388   1.990
17487SOL    HW264938   9.041   8.392   1.834
17488SOL     OW64939   8.720   7.850   5.818
17488SOL    HW164940   8.808   7.893   5.838
17488SOL    HW264941   8.714   7.831   5.720
17489SOL     OW64942   8.626   8.198   2.523
17489SOL    HW164943   8.676   8.125   2.569
17489SOL    HW264944   8.671   8.286   2.541
17490SOL     OW64945   8.390   9.051   1.810
17490SOL    HW164946   8.462   8.986   1.784
17490SOL    HW264947   8.426   9.144   1.804
17491SOL     OW64948   8.371   8.886   2.064
17491SOL    HW164949   8.434   8.926   2.130
17491SOL    HW264950   8.351   8.953   1.992
17492SOL     OW64951   8.848   7.826   0.851
17492SOL    HW164952   8.768   7.804   0.907
17492SOL    HW264953   8.862   7.925   0.848
17493SOL     OW64954   7.833   8.875   1.658
17493SOL    HW164955   7.840   8.848   1.754
17493SOL    HW264956   7.879   8.963   1.645
17494SOL     OW64957   7.534   7.593   0.529
17494SOL    HW164958   7.610   7.636   0.479
17494SOL    HW264959   7.530   7.496   0.506
17495SOL     OW64960   7.549   8.600   5.135
17495SOL    HW164961   7.495   8.681   5.110
17495SOL    HW264962   7.628   8.593   5.075
17496SOL     OW64963   8.027   8.485   7.021
17496SOL    HW164964   8.082   8.436   7.089
17496SOL    HW264965   8.033   8.438   6.933
17497SOL     OW64966   8.055   8.083   7.212
17497SOL    HW164967   8.121   8.011   7.192
17497SOL    HW264968   7.995   8.096   7.133
17498SOL     OW64969   8.668   7.684   6.357
17498SOL    HW164970   8.641   7.637   6.273
17498SOL    HW264971   8.635   7.778   6.355
17499SOL     OW64972   7.618   7.741   2.027
17499SOL    HW164973   7.654   7.658   1.984
17499SOL    HW264974   7.518   7.733   2.035
17500SOL     OW64975   8.566   7.930   6.872
17500SOL    HW164976   8.554   7.966   6.780
17500SOL    HW264977   8.659   7.950   6.905
17501SOL     OW64978   8.176   7.407   6.720
17501SOL    HW164979   8.274   7.415   6.733
17501SOL    HW264980   8.153   7.431   6.625
17502SOL     OW64981   8.031   8.083   1.489
17502SOL    HW164982   7.992   8.041   1.572
17502SOL    HW264983   7.960   8.089   1.419
17503SOL     OW64984   7.825   7.680   5.984
17503SOL    HW164985   7.756   7.752   5.989
17503SOL    HW264986   7.787   7.595   6.021
17504SOL     OW64987   7.668   8.328   0.927
17504SOL    HW164988   7.594   8.372   0.875
17504SOL    HW264989   7.651   8.230   0.934
17505SOL     OW64990   8.573   9.300   1.534
17505SOL    HW164991   8.559   9.363   1.459
17505SOL    HW264992   8.621   9.218   1.501
17506SOL     OW64993   7.587   7.384   5.524
17506SOL    HW164994   7.636   7.393   5.611
17506SOL    HW264995   7.496   7.422   5.534
17507SOL     OW64996   8.038   8.344   5.893
17507SOL    HW164997   8.099   8.329   5.971
17507SOL    HW264998   8.080   8.407   5.829
17508SOL     OW64999   7.760   7.681   5.712
17508SOL    HW165000   7.776   7.740   5.791
17508SOL    HW265001   7.705   7.730   5.644
17509SOL     OW65002   8.862   8.221   5.802
17509SOL    HW165003   8.882   8.132   5.842
17509SOL    HW265004   8.940   8.252   5.748
17510SOL     OW65005   8.538   7.645   1.872
17510SOL    HW165006   8.509   7.633   1.967
17510SOL    HW265007   8.459   7.636   1.812
17511SOL     OW65008   8.600   8.780   3.389
17511SOL    HW165009   8.547   8.865   3.396
17511SOL    HW265010   8.697   8.801   3.399
17512SOL     OW65011   8.286   8.672   2.512
17512SOL    HW165012   8.366   8.622   2.544
17512SOL    HW265013   8.236   8.708   2.591
17513SOL     OW65014   7.560   7.865   6.020
17513SOL    HW165015   7.509   7.787   6.057
17513SOL    HW265016   7.543   7.873   5.922
17514SOL     OW65017   8.353   8.679   0.943
17514SOL    HW165018   8.300   8.757   0.976
17514SOL    HW265019   8.316   8.594   0.981
17515SOL     OW65020   8.688   8.645   3.636
17515SOL    HW165021   8.709   8.694   3.721
17515SOL    HW265022   8.593   8.663   3.610
17516SOL     OW65023   7.686   8.738   1.457
17516SOL    HW165024   7.751   8.780   1.520
17516SOL    HW265025   7.714   8.757   1.362
17517SOL     OW65026   7.653   7.970   0.692
17517SOL    HW165027   7.628   8.066   0.685
17517SOL    HW265028   7.573   7.916   0.717
17518SOL     OW65029   8.607   7.427   1.619
17518SOL    HW165030   8.555   7.449   1.537
17518SOL    HW265031   8.614   7.508   1.678
17519SOL     OW65032   8.726   8.245   6.035
17519SOL    HW165033   8.741   8.327   6.090
17519SOL    HW265034   8.768   8.256   5.946
17520SOL     OW65035   7.545   8.059   0.938
17520SOL    HW165036   7.462   8.114   0.927
17520SOL    HW265037   7.540   8.008   1.023
17521SOL     OW65038   8.920   7.633   1.043
17521SOL    HW165039   9.016   7.635   1.072
17521SOL    HW265040   8.904   7.706   0.976
17522SOL     OW65041   7.376   7.921   1.782
17522SOL    HW165042   7.397   7.825   1.799
17522SOL    HW265043   7.335   7.961   1.864
17523SOL     OW65044   8.891   7.842   6.645
17523SOL    HW165045   8.871   7.940   6.640
17523SOL    HW265046   8.919   7.819   6.738
17524SOL     OW65047   8.560   7.939   6.359
17524SOL    HW165048   8.468   7.960   6.327
17524SOL    HW265049   8.624   8.006   6.323
17525SOL     OW65050   9.085   9.047   0.974
17525SOL    HW165051   9.064   9.124   0.914
17525SOL    HW265052   9.086   8.962   0.921
17526SOL     OW65053   8.444   7.567   2.140
17526SOL    HW165054   8.345   7.579   2.149
17526SOL    HW265055   8.475   7.500   2.208
17527SOL     OW65056   8.028   7.618   2.006
17527SOL    HW165057   7.940   7.587   1.969
17527SOL    HW265058   8.062   7.695   1.952
17528SOL     OW65059   7.572   8.079   7.322
17528SOL    HW165060   7.589   8.000   7.381
17528SOL    HW265061   7.532   8.048   7.235
17529SOL     OW65062   7.370   8.616   2.453
17529SOL    HW165063   7.326   8.698   2.490
17529SOL    HW265064   7.391   8.554   2.529
17530SOL     OW65065   8.689   8.156   3.607
17530SOL    HW165066   8.631   8.232   3.636
17530SOL    HW265067   8.646   8.069   3.633
17531SOL     OW65068   8.728   8.263   1.535
17531SOL    HW165069   8.676   8.189   1.493
17531SOL    HW265070   8.769   8.231   1.621
17532SOL     OW65071   7.943   8.750   0.839
17532SOL    HW165072   7.993   8.763   0.925
17532SOL    HW265073   7.911   8.839   0.806
17533SOL     OW65074   8.506   9.057   0.994
17533SOL    HW165075   8.577   8.991   0.970
17533SOL    HW265076   8.511   9.135   0.932
17534SOL     OW65077   8.036   8.524   0.177
17534SOL    HW165078   8.017   8.461   0.102
17534SOL    HW265079   8.104   8.484   0.238
17535SOL     OW65080   8.423   8.278   4.332
17535SOL    HW165081   8.509   8.233   4.354
17535SOL    HW265082   8.404   8.271   4.234
17536SOL     OW65083   8.604   8.555   6.701
17536SOL    HW165084   8.551   8.544   6.616
17536SOL    HW265085   8.589   8.476   6.759
17537SOL     OW65086   8.836   8.688   6.807
17537SOL    HW165087   8.892   8.613   6.841
17537SOL    HW265088   8.760   8.651   6.754
17538SOL     OW65089   8.217   8.358   2.341
17538SOL    HW165090   8.267   8.312   2.413
17538SOL    HW265091   8.238   8.456   2.341
17539SOL     OW65092   8.931   8.505   1.625
17539SOL    HW165093   8.978   8.545   1.704
17539SOL    HW265094   8.918   8.407   1.639
17540SOL     OW65095   8.007   7.758   4.965
17540SOL    HW165096   8.012   7.858   4.964
17540SOL    HW265097   7.916   7.729   4.936
17541SOL     OW65098   7.623   8.858   0.873
17541SOL    HW165099   7.714   8.884   0.842
17541SOL    HW265100   7.557   8.928   0.844
17542SOL     OW65101   8.285   7.737   3.209
17542SOL    HW165102   8.216   7.796   3.169
17542SOL    HW265103   8.241   7.658   3.252
17543SOL     OW65104   8.197   7.566   1.174
17543SOL    HW165105   8.204   7.467   1.186
17543SOL    HW265106   8.109   7.589   1.131
17544SOL     OW65107   8.339   8.374   1.923
17544SOL    HW165108   8.314   8.342   1.832
17544SOL    HW265109   8.350   8.473   1.921
17545SOL     OW65110   8.167   7.849   0.742
17545SOL    HW165111   8.221   7.765   0.753
17545SOL    HW265112   8.095   7.833   0.674
17546SOL     OW65113   7.662   7.447   3.080
17546SOL    HW165114   7.690   7.524   3.137
17546SOL    HW265115   7.601   7.387   3.132
17547SOL     OW65116   7.405   7.827   2.293
17547SOL    HW165117   7.414   7.737   2.250
17547SOL    HW265118   7.327   7.827   2.355
17548SOL     OW65119   7.964   7.543   1.032
17548SOL    HW165120   8.000   7.636   1.027
17548SOL    HW265121   7.893   7.530   0.964
17549SOL     OW65122   8.131   8.267   1.660
17549SOL    HW165123   8.092   8.198   1.598
17549SOL    HW265124   8.224   8.290   1.630
17550SOL     OW65125   9.026   7.399   3.721
17550SOL    HW165126   8.940   7.450   3.723
17550SOL    HW265127   9.067   7.400   3.812
17551SOL     OW65128   7.536   7.918   1.368
17551SOL    HW165129   7.474   7.924   1.290
17551SOL    HW265130   7.527   8.001   1.424
17552SOL     OW65131   8.010   7.821   1.035
17552SOL    HW165132   7.947   7.860   0.968
17552SOL    HW265133   8.066   7.894   1.076
17553SOL     OW65134   8.275   8.002   1.410
17553SOL    HW165135   8.270   7.906   1.436
17553SOL    HW265136   8.184   8.043   1.413
17554SOL     OW65137   8.738   7.599   6.999
17554SOL    HW165138   8.808   7.540   7.040
17554SOL    HW265139   8.761   7.615   6.903
17555SOL     OW65140   7.860   8.026   5.588
17555SOL    HW165141   7.891   7.949   5.531
17555SOL    HW265142   7.902   8.019   5.679
17556SOL     OW65143   8.899   7.827   0.121
17556SOL    HW165144   8.842   7.760   0.167
17556SOL    HW265145   8.846   7.871   0.048
17557SOL     OW65146   8.898   8.172   2.966
17557SOL    HW165147   8.978   8.127   3.005
17557SOL    HW265148   8.887   8.144   2.871
17558SOL     OW65149   8.737   8.684   7.240
17558SOL    HW165150   8.696   8.726   7.321
17558SOL    HW265151   8.792   8.752   7.192
17559SOL     OW65152   7.467   7.959   5.783
17559SOL    HW165153   7.374   7.998   5.786
17559SOL    HW265154   7.529   8.026   5.741
17560SOL     OW65155   8.672   8.421   3.958
17560SOL    HW165156   8.715   8.376   3.880
17560SOL    HW265157   8.699   8.375   4.043
17561SOL     OW65158   8.289   8.715   3.493
17561SOL    HW165159   8.335   8.776   3.557
17561SOL    HW265160   8.329   8.624   3.498
17562SOL     OW65161   8.793   8.817   3.828
17562SOL    HW165162   8.776   8.878   3.905
17562SOL    HW265163   8.845   8.865   3.758
17563SOL     OW65164   8.274   8.176   2.144
17563SOL    HW165165   8.308   8.223   2.063
17563SOL    HW265166   8.247   8.242   2.213
17564SOL     OW65167   8.690   7.438   3.617
17564SOL    HW165168   8.712   7.529   3.652
17564SOL    HW265169   8.612   7.400   3.667
17565SOL     OW65170   8.425   8.581   3.025
17565SOL    HW165171   8.327   8.577   3.041
17565SOL    HW265172   8.473   8.563   3.111
17566SOL     OW65173   8.429   8.450   3.885
17566SOL    HW165174   8.395   8.543   3.898
17566SOL    HW265175   8.525   8.446   3.911
17567SOL     OW65176   8.039   8.490   0.787
17567SOL    HW165177   8.007   8.583   0.804
17567SOL    HW265178   8.133   8.493   0.752
17568SOL     OW65179   7.956   7.978   1.730
17568SOL    HW165180   7.862   7.945   1.726
17568SOL    HW265181   7.974   8.017   1.820
17569SOL     OW65182   8.663   8.119   4.357
17569SOL    HW165183   8.674   8.176   4.439
17569SOL    HW265184   8.653   8.023   4.384
17570SOL     OW65185   8.328   7.668   1.673
17570SOL    HW165186   8.289   7.733   1.739
17570SOL    HW265187   8.301   7.694   1.580
17571SOL     OW65188   7.535   8.204   1.711
17571SOL    HW165189   7.443   8.232   1.739
17571SOL    HW265190   7.593   8.196   1.793
17572SOL     OW65191   7.926   8.663   0.392
17572SOL    HW165192   7.999   8.688   0.456
17572SOL    HW265193   7.964   8.608   0.318
17573SOL     OW65194   8.791   7.542   5.827
17573SOL    HW165195   8.735   7.475   5.875
17573SOL    HW265196   8.764   7.634   5.856
17574SOL     OW65197   8.355   7.474   7.317
17574SOL    HW165198   8.257   7.461   7.303
17574SOL    HW265199   8.370   7.527   7.401
17575SOL     OW65200   8.427   8.334   1.649
17575SOL    HW165201   8.461   8.286   1.569
17575SOL    HW265202   8.494   8.403   1.677
17576SOL     OW65203   7.644   8.784   3.643
17576SOL    HW165204   7.714   8.715   3.661
17576SOL    HW265205   7.583   8.751   3.571
17577SOL     OW65206   7.918   8.210   2.580
17577SOL    HW165207   7.853   8.253   2.642
17577SOL    HW265208   7.904   8.246   2.487
17578SOL     OW65209   8.378   7.470   1.429
17578SOL    HW165210   8.335   7.379   1.425
17578SOL    HW265211   8.308   7.538   1.453
17579SOL     OW65212   8.352   8.449   4.541
17579SOL    HW165213   8.346   8.549   4.529
17579SOL    HW265214   8.360   8.406   4.452
17580SOL     OW65215   8.303   8.635   1.960
17580SOL    HW165216   8.230   8.656   1.895
17580SOL    HW265217   8.331   8.719   2.007
17581SOL     OW65218   8.143   8.571   3.083
17581SOL    HW165219   8.076   8.567   3.009
17581SOL    HW265220   8.124   8.499   3.150
17582SOL     OW65221   8.959   7.833   6.935
17582SOL    HW165222   8.889   7.836   7.006
17582SOL    HW265223   9.044   7.873   6.970
17583SOL     OW65224   7.541   8.604   2.216
17583SOL    HW165225   7.488   8.617   2.299
17583SOL    HW265226   7.485   8.557   2.148
17584SOL     OW65227   8.489   8.020   1.753
17584SOL    HW165228   8.566   7.978   1.800
17584SOL    HW265229   8.448   8.091   1.810
17585SOL     OW65230   7.728   8.202   5.284
17585SOL    HW165231   7.721   8.302   5.286
17585SOL    HW265232   7.824   8.175   5.290
17586SOL     OW65233   7.696   8.513   1.183
17586SOL    HW165234   7.693   8.474   1.090
17586SOL    HW265235   7.603   8.527   1.217
17587SOL     OW65236   7.471   8.350   6.445
17587SOL    HW165237   7.416   8.291   6.504
17587SOL    HW265238   7.452   8.328   6.350
17588SOL     OW65239   8.928   8.543   3.536
17588SOL    HW165240   8.861   8.610   3.567
17588SOL    HW265241   8.893   8.494   3.457
17589SOL     OW65242   8.245   7.894   2.153
17589SOL    HW165243   8.251   7.990   2.180
17589SOL    HW265244   8.192   7.843   2.221
17590SOL     OW65245   7.414   7.365   1.791
17590SOL    HW165246   7.408   7.269   1.764
17590SOL    HW265247   7.358   7.421   1.730
17591SOL     OW65248   7.695   8.292   2.828
17591SOL    HW165249   7.750   8.334   2.900
17591SOL    HW265250   7.602   8.329   2.831
17592SOL     OW65251   8.651   8.506   1.717
17592SOL    HW165252   8.688   8.448   1.644
17592SOL    HW265253   8.611   8.589   1.678
17593SOL     OW65254   7.760   8.484   3.088
17593SOL    HW165255   7.663   8.495   3.067
17593SOL    HW265256   7.815   8.504   3.006
17594SOL     OW65257   8.625   8.734   2.676
17594SOL    HW165258   8.570   8.751   2.757
17594SOL    HW265259   8.709   8.787   2.681
17595SOL     OW65260   7.713   8.406   1.843
17595SOL    HW165261   7.776   8.427   1.769
17595SOL    HW265262   7.619   8.425   1.815
17596SOL     OW65263   9.009   8.109   3.598
17596SOL    HW165264   9.048   8.033   3.650
17596SOL    HW265265   8.915   8.086   3.572
17597SOL     OW65266   8.314   8.028   6.260
17597SOL    HW165267   8.335   8.099   6.193
17597SOL    HW265268   8.223   7.990   6.241
17598SOL     OW65269   8.093   7.479   7.262
17598SOL    HW165270   8.138   7.439   7.182
17598SOL    HW265271   8.036   7.556   7.234
17599SOL     OW65272   8.504   7.417   7.082
17599SOL    HW165273   8.575   7.488   7.082
17599SOL    HW265274   8.466   7.409   7.175
17600SOL     OW65275   8.666   8.459   2.653
17600SOL    HW165276   8.664   8.557   2.635
17600SOL    HW265277   8.732   8.439   2.726
17601SOL     OW65278   8.972   8.743   0.604
17601SOL    HW165279   8.946   8.654   0.566
17601SOL    HW265280   9.040   8.729   0.676
17602SOL     OW65281   8.677   8.147   1.154
17602SOL    HW165282   8.659   8.167   1.251
17602SOL    HW265283   8.701   8.051   1.145
17603SOL     OW65284   8.864   7.414   0.359
17603SOL    HW165285   8.796   7.470   0.312
17603SOL    HW265286   8.936   7.472   0.398
17604SOL     OW65287   8.388   7.416   4.328
17604SOL    HW165288   8.320   7.490   4.331
17604SOL    HW265289   8.461   7.437   4.393
17605SOL     OW65290   8.311   8.719   3.855
17605SOL    HW165291   8.343   8.801   3.901
17605SOL    HW265292   8.247   8.743   3.783
17606SOL     OW65293   8.045   8.766   6.967
17606SOL    HW165294   7.975   8.837   6.961
17606SOL    HW265295   8.005   8.684   7.009
17607SOL     OW65296   7.464   7.629   1.415
17607SOL    HW165297   7.469   7.728   1.400
17607SOL    HW265298   7.448   7.583   1.327
17608SOL     OW65299   8.182   7.578   2.221
17608SOL    HW165300   8.145   7.631   2.297
17608SOL    HW265301   8.118   7.578   2.145
17609SOL     OW65302   9.316   7.521   3.464
17609SOL    HW165303   9.393   7.465   3.493
17609SOL    HW265304   9.260   7.470   3.398
17610SOL     OW65305   8.454   8.727   0.576
17610SOL    HW165306   8.544   8.692   0.604
17610SOL    HW265307   8.460   8.764   0.483
17611SOL     OW65308   8.485   8.703   6.923
17611SOL    HW165309   8.496   8.636   6.996
17611SOL    HW265310   8.510   8.661   6.835
17612SOL     OW65311   7.757   8.404   7.138
17612SOL    HW165312   7.852   8.426   7.117
17612SOL    HW265313   7.707   8.381   7.055
17613SOL     OW65314   8.626   7.401   5.998
17613SOL    HW165315   8.553   7.377   5.934
17613SOL    HW265316   8.636   7.329   6.066
17614SOL     OW65317   8.544   8.206   1.994
17614SOL    HW165318   8.517   8.179   2.087
17614SOL    HW265319   8.495   8.289   1.968
17615SOL     OW65320   8.967   8.495   0.439
17615SOL    HW165321   9.033   8.424   0.462
17615SOL    HW265322   8.881   8.453   0.411
17616SOL     OW65323   7.526   8.536   2.900
17616SOL    HW165324   7.471   8.509   2.821
17616SOL    HW265325   7.566   8.626   2.884
17617SOL     OW65326   9.176   9.388   0.307
17617SOL    HW165327   9.165   9.409   0.404
17617SOL    HW265328   9.183   9.289   0.295
17618SOL     OW65329   8.233   7.526   5.376
17618SOL    HW165330   8.207   7.584   5.299
17618SOL    HW265331   8.199   7.434   5.362
17619SOL     OW65332   8.234   8.295   7.148
17619SOL    HW165333   8.243   8.276   7.050
17619SOL    HW265334   8.170   8.230   7.189
17620SOL     OW65335   8.571   8.491   7.129
17620SOL    HW165336   8.625   8.568   7.163
17620SOL    HW265337   8.506   8.462   7.199
17621SOL     OW65338   7.494   7.924   2.661
17621SOL    HW165339   7.574   7.865   2.648
17621SOL    HW265340   7.465   7.961   2.573
17622SOL     OW65341   8.870   7.972   7.168
17622SOL    HW165342   8.803   7.899   7.185
17622SOL    HW265343   8.845   8.053   7.222
17623SOL     OW65344   8.752   7.645   1.576
17623SOL    HW165345   8.752   7.546   1.565
17623SOL    HW265346   8.729   7.688   1.489
17624SOL     OW65347   9.131   9.333   4.242
17624SOL    HW165348   9.159   9.402   4.309
17624SOL    HW265349   9.208   9.272   4.224
17625SOL     OW65350   8.452   8.180   6.040
17625SOL    HW165351   8.548   8.210   6.048
17625SOL    HW265352   8.425   8.179   5.944
17626SOL     OW65353   7.712   7.739   2.578
17626SOL    HW165354   7.723   7.728   2.479
17626SOL    HW265355   7.795   7.782   2.616
17627SOL     OW65356   7.929   8.312   2.305
17627SOL    HW165357   8.026   8.337   2.314
17627SOL    HW265358   7.909   8.293   2.209
17628SOL     OW65359   7.960   8.540   2.876
17628SOL    HW165360   8.018   8.461   2.857
17628SOL    HW265361   7.962   8.602   2.798
17629SOL     OW65362   9.050   7.950   6.305
17629SOL    HW165363   9.082   7.879   6.367
17629SOL    HW265364   8.953   7.968   6.322
17630SOL     OW65365   7.743   7.522   1.256
17630SOL    HW165366   7.804   7.469   1.197
17630SOL    HW265367   7.765   7.619   1.248
17631SOL     OW65368   7.525   7.667   2.968
17631SOL    HW165369   7.540   7.593   3.034
17631SOL    HW265370   7.553   7.754   3.008
17632SOL     OW65371   8.193   8.285   4.687
17632SOL    HW165372   8.252   8.213   4.648
17632SOL    HW265373   8.230   8.375   4.662
17633SOL     OW65374   7.384   8.798   0.307
17633SOL    HW165375   7.340   8.732   0.367
17633SOL    HW265376   7.484   8.791   0.317
17634SOL     OW65377   7.498   7.391   2.532
17634SOL    HW165378   7.499   7.479   2.580
17634SOL    HW265379   7.473   7.318   2.595
17635SOL     OW65380   7.659   7.888   1.771
17635SOL    HW165381   7.575   7.939   1.757
17635SOL    HW265382   7.655   7.839   1.858
17636SOL     OW65383   8.796   8.996   2.812
17636SOL    HW165384   8.887   9.030   2.787
17636SOL    HW265385   8.805   8.903   2.848
17637SOL     OW65386   8.943   7.590   6.165
17637SOL    HW165387   8.852   7.609   6.129
17637SOL    HW265388   8.967   7.660   6.233
17638SOL     OW65389   8.713   7.854   1.820
17638SOL    HW165390   8.638   7.797   1.854
17638SOL    HW265391   8.739   7.824   1.728
17639SOL     OW65392   8.879   8.068   0.517
17639SOL    HW165393   8.937   8.063   0.597
17639SOL    HW265394   8.926   8.117   0.444
17640SOL     OW65395   7.681   8.365   0.314
17640SOL    HW165396   7.662   8.332   0.222
17640SOL    HW265397   7.780   8.374   0.327
17641SOL     OW65398   8.039   8.063   1.987
17641SOL    HW165399   8.128   8.067   2.033
17641SOL    HW265400   7.982   8.138   2.019
17642SOL     OW65401   8.077   8.679   1.780
17642SOL    HW165402   8.029   8.634   1.705
17642SOL    HW265403   8.033   8.766   1.801
17643SOL     OW65404   8.883   8.751   2.894
17643SOL    HW165405   8.972   8.713   2.921
17643SOL    HW265406   8.816   8.677   2.886
17644SOL     OW65407   7.550   8.009   0.411
17644SOL    HW165408   7.610   7.975   0.484
17644SOL    HW265409   7.549   8.109   0.413
17645SOL     OW65410   7.598   8.190   1.452
17645SOL    HW165411   7.572   8.198   1.548
17645SOL    HW265412   7.537   8.245   1.396
17646SOL     OW65413   7.451   7.463   1.186
17646SOL    HW165414   7.544   7.440   1.215
17646SOL    HW265415   7.454   7.525   1.108
17647SOL     OW65416   8.660   9.071   1.960
17647SOL    HW165417   8.681   9.169   1.957
17647SOL    HW265418   8.642   9.044   2.054
17648SOL     OW65419   9.097   7.765   0.798
17648SOL    HW165420   8.997   7.763   0.796
17648SOL    HW265421   9.128   7.847   0.847
17649SOL     OW65422   9.249   7.895   6.553
17649SOL    HW165423   9.256   7.836   6.633
17649SOL    HW265424   9.186   7.971   6.572
17650SOL     OW65425   8.892   8.710   1.809
17650SOL    HW165426   8.873   8.709   1.908
17650SOL    HW265427   8.811   8.678   1.760
17651SOL     OW65428   7.387   8.522   0.029
17651SOL    HW165429   7.396   8.528  -0.071
17651SOL    HW265430   7.468   8.478   0.067
17652SOL     OW65431   8.673   9.075   1.387
17652SOL    HW165432   8.713   9.053   1.298
17652SOL    HW265433   8.579   9.043   1.391
17653SOL     OW65434   8.395   8.448   2.763
17653SOL    HW165435   8.494   8.435   2.756
17653SOL    HW265436   8.376   8.531   2.817
17654SOL     OW65437   7.721   7.505   0.862
17654SOL    HW165438   7.653   7.565   0.904
17654SOL    HW265439   7.690   7.411   0.866
17655SOL     OW65440   8.892   9.268   0.438
17655SOL    HW165441   8.953   9.261   0.359
17655SOL    HW265442   8.902   9.359   0.479
17656SOL     OW65443   8.567   8.320   8.345
17656SOL    HW165444   8.605   8.258   8.414
17656SOL    HW265445   8.512   8.267   8.280
17657SOL     OW65446   9.186   8.731   8.130
17657SOL    HW165447   9.192   8.713   8.229
17657SOL    HW265448   9.277   8.753   8.095
17658SOL     OW65449   7.374   7.928   8.501
17658SOL    HW165450   7.296   7.991   8.508
17658SOL    HW265451   7.357   7.863   8.427
17659SOL     OW65452   8.325   7.515   8.257
17659SOL    HW165453   8.236   7.504   8.301
17659SOL    HW265454   8.343   7.436   8.198
17660SOL     OW65455   8.635   8.604   8.260
17660SOL    HW165456   8.651   8.507   8.277
17660SOL    HW265457   8.542   8.628   8.288
17661SOL     OW65458   7.870   8.019   8.256
17661SOL    HW165459   7.904   8.113   8.254
17661SOL    HW265460   7.793   8.010   8.193
17662SOL     OW65461   8.888   8.090   8.171
17662SOL    HW165462   8.808   8.107   8.114
17662SOL    HW265463   8.971   8.114   8.121
17663SOL     OW65464   8.189   8.767   7.549
17663SOL    HW165465   8.150   8.840   7.605
17663SOL    HW265466   8.127   8.689   7.548
17664SOL     OW65467   7.604   7.887   7.537
17664SOL    HW165468   7.528   7.823   7.527
17664SOL    HW265469   7.589   7.945   7.617
17665SOL     OW65470   9.297   7.767   7.978
17665SOL    HW165471   9.323   7.673   7.956
17665SOL    HW265472   9.242   7.767   8.062
17666SOL     OW65473   7.387   8.279   8.633
17666SOL    HW165474   7.376   8.376   8.612
17666SOL    HW265475   7.311   8.228   8.594
17667SOL     OW65476   8.537   8.090   8.827
17667SOL    HW165477   8.469   8.046   8.770
17667SOL    HW265478   8.524   8.061   8.922
17668SOL     OW65479   8.205   7.717   8.764
17668SOL    HW165480   8.114   7.704   8.804
17668SOL    HW265481   8.210   7.668   8.677
17669SOL     OW65482   7.803   8.959   7.834
17669SOL    HW165483   7.757   9.023   7.773
17669SOL    HW265484   7.771   8.866   7.815
17670SOL     OW65485   7.941   7.640   8.827
17670SOL    HW165486   7.853   7.681   8.849
17670SOL    HW265487   7.927   7.548   8.790
17671SOL     OW65488   7.366   8.512   8.270
17671SOL    HW165489   7.380   8.581   8.342
17671SOL    HW265490   7.304   8.548   8.201
17672SOL     OW65491   8.873   8.188   7.373
17672SOL    HW165492   8.807   8.141   7.433
17672SOL    HW265493   8.907   8.270   7.419
17673SOL     OW65494   7.646   7.474   7.570
17673SOL    HW165495   7.598   7.431   7.646
17673SOL    HW265496   7.579   7.519   7.510
17674SOL     OW65497   8.717   8.862   7.764
17674SOL    HW165498   8.627   8.819   7.764
17674SOL    HW265499   8.783   8.801   7.808
17675SOL     OW65500   8.024   8.794   8.780
17675SOL    HW165501   7.959   8.801   8.705
17675SOL    HW265502   7.985   8.834   8.863
17676SOL     OW65503   7.814   8.769   8.584
17676SOL    HW165504   7.751   8.703   8.545
17676SOL    HW265505   7.892   8.781   8.523
17677SOL     OW65506   7.925   7.519   8.056
17677SOL    HW165507   7.919   7.618   8.039
17677SOL    HW265508   7.849   7.492   8.115
17678SOL     OW65509   8.408   8.273   8.124
17678SOL    HW165510   8.377   8.367   8.115
17678SOL    HW265511   8.331   8.211   8.111
17679SOL     OW65512   8.241   8.866   7.985
17679SOL    HW165513   8.214   8.846   8.079
17679SOL    HW265514   8.332   8.830   7.967
17680SOL     OW65515   7.373   8.543   8.611
17680SOL    HW165516   7.400   8.629   8.569
17680SOL    HW265517   7.313   8.561   8.689
17681SOL     OW65518   7.738   8.448   7.983
17681SOL    HW165519   7.731   8.546   7.963
17681SOL    HW265520   7.825   8.430   8.029
17682SOL     OW65521   8.652   8.163   8.028
17682SOL    HW165522   8.671   8.177   7.931
17682SOL    HW265523   8.560   8.195   8.049
17683SOL     OW65524   8.669   8.524   8.000
17683SOL    HW165525   8.651   8.426   8.001
17683SOL    HW265526   8.683   8.556   8.093
17684SOL     OW65527   8.748   7.407   8.423
17684SOL    HW165528   8.689   7.440   8.497
17684SOL    HW265529   8.819   7.475   8.404
17685SOL     OW65530   7.738   7.819   8.874
17685SOL    HW165531   7.722   7.850   8.968
17685SOL    HW265532   7.676   7.868   8.812
17686SOL     OW65533   7.742   7.688   7.728
17686SOL    HW165534   7.699   7.760   7.673
17686SOL    HW265535   7.746   7.604   7.675
17687SOL     OW65536   8.287   8.762   8.892
17687SOL    HW165537   8.216   8.765   8.821
17687SOL    HW265538   8.245   8.741   8.980
17688SOL     OW65539   7.831   8.147   8.638
17688SOL    HW165540   7.793   8.186   8.554
17688SOL    HW265541   7.758   8.139   8.706
17689SOL     OW65542   7.665   8.315   7.395
17689SOL    HW165543   7.686   8.359   7.307
17689SOL    HW265544   7.633   8.221   7.378
17690SOL     OW65545   8.727   7.710   8.627
17690SOL    HW165546   8.650   7.664   8.582
17690SOL    HW265547   8.805   7.715   8.565
17691SOL     OW65548   8.702   8.878   8.289
17691SOL    HW165549   8.689   8.779   8.280
17691SOL    HW265550   8.766   8.910   8.220
17692SOL     OW65551   7.922   8.271   8.230
17692SOL    HW165552   7.835   8.315   8.254
17692SOL    HW265553   7.981   8.337   8.183
17693SOL     OW65554   7.884   7.794   7.958
17693SOL    HW165555   7.832   7.861   8.012
17693SOL    HW265556   7.828   7.762   7.882
17694SOL     OW65557   8.813   8.124   9.232
17694SOL    HW165558   8.717   8.123   9.261
17694SOL    HW265559   8.842   8.032   9.209
17695SOL     OW65560   8.590   8.797   7.452
17695SOL    HW165561   8.626   8.890   7.453
17695SOL    HW265562   8.506   8.794   7.397
17696SOL     OW65563   8.291   8.940   8.528
17696SOL    HW165564   8.309   8.938   8.626
17696SOL    HW265565   8.376   8.959   8.478
17697SOL     OW65566   8.302   8.538   8.077
17697SOL    HW165567   8.317   8.592   8.160
17697SOL    HW265568   8.336   8.588   7.998
17698SOL     OW65569   8.892   8.895   7.381
17698SOL    HW165570   8.940   8.813   7.410
17698SOL    HW265571   8.944   8.943   7.311
17699SOL     OW65572   7.565   7.686   8.362
17699SOL    HW165573   7.634   7.740   8.410
17699SOL    HW265574   7.493   7.746   8.328
17700SOL     OW65575   8.098   8.920   7.762
17700SOL    HW165576   8.007   8.949   7.791
17700SOL    HW265577   8.158   8.915   7.842
17701SOL     OW65578   8.519   7.537   8.543
17701SOL    HW165579   8.463   7.546   8.461
17701SOL    HW265580   8.460   7.541   8.624
17702SOL     OW65581   7.770   8.395   8.822
17702SOL    HW165582   7.717   8.311   8.808
17702SOL    HW265583   7.786   8.439   8.733
17703SOL     OW65584   7.483   8.871   8.951
17703SOL    HW165585   7.537   8.840   8.873
17703SOL    HW265586   7.430   8.794   8.987
17704SOL     OW65587   7.559   8.212   7.967
17704SOL    HW165588   7.621   8.291   7.968
17704SOL    HW265589   7.465   8.244   7.978
17705SOL     OW65590   7.643   7.516   8.995
17705SOL    HW165591   7.639   7.422   8.961
17705SOL    HW265592   7.602   7.578   8.928
17706SOL     OW65593   7.777   7.790   8.535
17706SOL    HW165594   7.858   7.830   8.493
17706SOL    HW265595   7.773   7.816   8.631
17707SOL     OW65596   8.949   8.864   8.624
17707SOL    HW165597   8.953   8.830   8.718
17707SOL    HW265598   8.866   8.830   8.580
17708SOL     OW65599   7.652   8.678   7.717
17708SOL    HW165600   7.752   8.689   7.718
17708SOL    HW265601   7.630   8.582   7.702
17709SOL     OW65602   7.451   8.749   8.421
17709SOL    HW165603   7.376   8.815   8.411
17709SOL    HW265604   7.525   8.773   8.359
17710SOL     OW65605   8.067   8.738   8.472
17710SOL    HW165606   8.087   8.643   8.495
17710SOL    HW265607   8.121   8.799   8.531
17711SOL     OW65608   7.455   7.671   7.439
17711SOL    HW165609   7.379   7.616   7.472
17711SOL    HW265610   7.440   7.695   7.343
17712SOL     OW65611   8.182   8.112   8.137
17712SOL    HW165612   8.178   8.013   8.132
17712SOL    HW265613   8.092   8.148   8.160
17713SOL     OW65614   8.436   8.802   7.680
17713SOL    HW165615   8.343   8.772   7.658
17713SOL    HW265616   8.489   8.809   7.595
17714SOL     OW65617   8.390   9.051   9.169
17714SOL    HW165618   8.462   8.986   9.143
17714SOL    HW265619   8.426   9.144   9.163
17715SOL     OW65620   8.848   7.826   8.210
17715SOL    HW165621   8.768   7.804   8.266
17715SOL    HW265622   8.862   7.925   8.207
17716SOL     OW65623   7.833   8.875   9.017
17716SOL    HW165624   7.840   8.848   9.113
17716SOL    HW265625   7.879   8.963   9.004
17717SOL     OW65626   7.534   7.593   7.888
17717SOL    HW165627   7.610   7.636   7.838
17717SOL    HW265628   7.530   7.496   7.865
17718SOL     OW65629   8.031   8.083   8.848
17718SOL    HW165630   7.992   8.041   8.931
17718SOL    HW265631   7.960   8.089   8.778
17719SOL     OW65632   7.668   8.328   8.286
17719SOL    HW165633   7.594   8.372   8.234
17719SOL    HW265634   7.651   8.230   8.293
17720SOL     OW65635   8.573   9.300   8.893
17720SOL    HW165636   8.559   9.363   8.818
17720SOL    HW265637   8.621   9.218   8.860
17721SOL     OW65638   8.353   8.679   8.302
17721SOL    HW165639   8.300   8.757   8.335
17721SOL    HW265640   8.316   8.594   8.340
17722SOL     OW65641   7.686   8.738   8.816
17722SOL    HW165642   7.751   8.780   8.879
17722SOL    HW265643   7.714   8.757   8.721
17723SOL     OW65644   7.653   7.970   8.051
17723SOL    HW165645   7.628   8.066   8.044
17723SOL    HW265646   7.573   7.916   8.076
17724SOL     OW65647   8.607   7.427   8.978
17724SOL    HW165648   8.555   7.449   8.896
17724SOL    HW265649   8.614   7.508   9.037
17725SOL     OW65650   7.545   8.059   8.297
17725SOL    HW165651   7.462   8.114   8.286
17725SOL    HW265652   7.540   8.008   8.382
17726SOL     OW65653   8.920   7.633   8.402
17726SOL    HW165654   9.016   7.635   8.431
17726SOL    HW265655   8.904   7.706   8.335
17727SOL     OW65656   9.085   9.047   8.333
17727SOL    HW165657   9.064   9.124   8.273
17727SOL    HW265658   9.086   8.962   8.280
17728SOL     OW65659   7.943   8.750   8.198
17728SOL    HW165660   7.993   8.763   8.284
17728SOL    HW265661   7.911   8.839   8.165
17729SOL     OW65662   8.506   9.057   8.353
17729SOL    HW165663   8.577   8.991   8.329
17729SOL    HW265664   8.511   9.135   8.291
17730SOL     OW65665   8.036   8.524   7.536
17730SOL    HW165666   8.017   8.461   7.461
17730SOL    HW265667   8.104   8.484   7.597
17731SOL     OW65668   7.623   8.858   8.232
17731SOL    HW165669   7.714   8.884   8.201
17731SOL    HW265670   7.557   8.928   8.203
17732SOL     OW65671   8.197   7.566   8.533
17732SOL    HW165672   8.204   7.467   8.545
17732SOL    HW265673   8.109   7.589   8.490
17733SOL     OW65674   8.167   7.849   8.101
17733SOL    HW165675   8.221   7.765   8.112
17733SOL    HW265676   8.095   7.833   8.033
17734SOL     OW65677   7.964   7.543   8.391
17734SOL    HW165678   8.000   7.636   8.386
17734SOL    HW265679   7.893   7.530   8.323
17735SOL     OW65680   8.131   8.267   9.019
17735SOL    HW165681   8.092   8.198   8.957
17735SOL    HW265682   8.224   8.290   8.989
17736SOL     OW65683   7.536   7.918   8.727
17736SOL    HW165684   7.474   7.924   8.649
17736SOL    HW265685   7.527   8.001   8.783
17737SOL     OW65686   8.010   7.821   8.394
17737SOL    HW165687   7.947   7.860   8.327
17737SOL    HW265688   8.066   7.894   8.435
17738SOL     OW65689   8.275   8.002   8.769
17738SOL    HW165690   8.270   7.906   8.795
17738SOL    HW265691   8.184   8.043   8.772
17739SOL     OW65692   8.899   7.827   7.480
17739SOL    HW165693   8.842   7.760   7.526
17739SOL    HW265694   8.846   7.871   7.407
17740SOL     OW65695   8.039   8.490   8.146
17740SOL    HW165696   8.007   8.583   8.163
17740SOL    HW265697   8.133   8.493   8.111
17741SOL     OW65698   8.328   7.668   9.032
17741SOL    HW165699   8.289   7.733   9.098
17741SOL    HW265700   8.301   7.694   8.939
17742SOL     OW65701   7.926   8.663   7.751
17742SOL    HW165702   7.999   8.688   7.815
17742SOL    HW265703   7.964   8.608   7.677
17743SOL     OW65704   8.427   8.334   9.008
17743SOL    HW165705   8.461   8.286   8.928
17743SOL    HW265706   8.494   8.403   9.036
17744SOL     OW65707   8.378   7.470   8.788
17744SOL    HW165708   8.335   7.379   8.784
17744SOL    HW265709   8.308   7.538   8.812
17745SOL     OW65710   7.696   8.513   8.542
17745SOL    HW165711   7.693   8.474   8.449
17745SOL    HW265712   7.603   8.527   8.576
17746SOL     OW65713   8.972   8.743   7.963
17746SOL    HW165714   8.946   8.654   7.925
17746SOL    HW265715   9.040   8.729   8.035
17747SOL     OW65716   8.677   8.147   8.513
17747SOL    HW165717   8.659   8.167   8.610
17747SOL    HW265718   8.701   8.051   8.504
17748SOL     OW65719   8.864   7.414   7.718
17748SOL    HW165720   8.796   7.470   7.671
17748SOL    HW265721   8.936   7.472   7.757
17749SOL     OW65722   7.464   7.629   8.774
17749SOL    HW165723   7.469   7.728   8.759
17749SOL    HW265724   7.448   7.583   8.686
17750SOL     OW65725   8.454   8.727   7.935
17750SOL    HW165726   8.544   8.692   7.963
17750SOL    HW265727   8.460   8.764   7.842
17751SOL     OW65728   8.967   8.495   7.798
17751SOL    HW165729   9.033   8.424   7.821
17751SOL    HW265730   8.881   8.453   7.770
17752SOL     OW65731   9.176   9.388   7.666
17752SOL    HW165732   9.165   9.409   7.763
17752SOL    HW265733   9.183   9.289   7.654
17753SOL     OW65734   8.752   7.645   8.935
17753SOL    HW165735   8.752   7.546   8.924
17753SOL    HW265736   8.729   7.688   8.848
17754SOL     OW65737   7.743   7.522   8.615
17754SOL    HW165738   7.804   7.469   8.556
17754SOL    HW265739   7.765   7.619   8.607
17755SOL     OW65740   7.384   8.798   7.666
17755SOL    HW165741   7.340   8.732   7.726
17755SOL    HW265742   7.484   8.791   7.676
17756SOL     OW65743   8.879   8.068   7.876
17756SOL    HW165744   8.937   8.063   7.956
17756SOL    HW265745   8.926   8.117   7.803
17757SOL     OW65746   7.681   8.365   7.673
17757SOL    HW165747   7.662   8.332   7.581
17757SOL    HW265748   7.780   8.374   7.686
17758SOL     OW65749   7.550   8.009   7.770
17758SOL    HW165750   7.610   7.975   7.843
17758SOL    HW265751   7.549   8.109   7.772
17759SOL     OW65752   7.451   7.463   8.545
17759SOL    HW165753   7.544   7.440   8.574
17759SOL    HW265754   7.454   7.525   8.467
17760SOL     OW65755   9.097   7.765   8.157
17760SOL    HW165756   8.997   7.763   8.155
17760SOL    HW265757   9.128   7.847   8.206
17761SOL     OW65758   8.892   8.710   9.168
17761SOL    HW165759   8.873   8.709   9.267
17761SOL    HW265760   8.811   8.678   9.119
17762SOL     OW65761   7.387   8.522   7.388
17762SOL    HW165762   7.396   8.528   7.288
17762SOL    HW265763   7.468   8.478   7.426
17763SOL     OW65764   8.673   9.075   8.746
17763SOL    HW165765   8.713   9.053   8.657
17763SOL    HW265766   8.579   9.043   8.750
17764SOL     OW65767   7.721   7.505   8.221
17764SOL    HW165768   7.653   7.565   8.263
17764SOL    HW265769   7.690   7.411   8.225
   9.00000   9.00000   9.00000
