UNITED-ATOM COORDINATES FOR PVA
  482
    0PVA     C1    1   3.922   7.224   3.315
    0PVA     C2    2   3.834   7.102   3.337
    0PVA     C3    3   3.919   6.984   3.389
    0PVA     C4    4   3.838   6.858   3.424
    0PVA     C5    5   3.924   6.751   3.496
    0PVA     C6    6   3.841   6.642   3.564
    0PVA     C7    7   3.931   6.542   3.640
    0PVA     C8    8   3.854   6.424   3.703
    0PVA     C9    9   3.951   6.313   3.748
    0PVA    C10   10   3.883   6.189   3.812
    0PVA    C11   11   3.984   6.074   3.828
    0PVA    C12   12   3.932   5.954   3.910
    0PVA    C13   13   4.045   5.851   3.930
    0PVA    C14   14   4.015   5.745   4.038
    0PVA    C15   15   4.146   5.676   4.083
    0PVA    C16   16   4.131   5.575   4.198
    0PVA    C17   17   4.272   5.541   4.251
    0PVA    C18   18   4.274   5.452   4.377
    0PVA    C19   19   4.414   5.467   4.442
    0PVA    C20   20   4.436   5.380   4.568
    0PVA    C21   21   4.457   5.231   4.534
    0PVA    C22   22   4.519   5.153   4.651
    0PVA    C23   23   4.568   5.013   4.608
    0PVA    C24   24   4.651   4.950   4.722
    0PVA    C25   25   4.795   5.003   4.725
    0PVA    C26   26   4.850   5.014   4.867
    0PVA    C27   27   4.845   4.880   4.942
    0PVA    C28   28   4.910   4.894   5.081
    0PVA    C29   29   5.063   4.909   5.074
    0PVA    C30   30   5.119   5.044   5.123
    0PVA    C31   31   5.129   5.056   5.277
    0PVA    C32   32   4.998   5.068   5.356
    0PVA    C33   33   4.933   5.204   5.327
    0PVA    C34   34   4.791   5.223   5.383
    0PVA    C35   35   4.692   5.135   5.306
    0PVA    C36   36   4.543   5.163   5.332
    0PVA    C37   37   4.462   5.055   5.259
    0PVA    C38   38   4.311   5.085   5.250
    0PVA    C39   39   4.247   4.986   5.152
    0PVA    C40   40   4.101   5.016   5.115
    0PVA    C41   41   4.062   4.927   4.997
    0PVA    C42   42   3.918   4.948   4.947
    0PVA    C43   43   3.899   4.892   4.805
    0PVA    C44   44   3.929   4.742   4.797
    0PVA    C45   45   3.928   4.689   4.653
    0PVA    C46   46   4.039   4.751   4.565
    0PVA    C47   47   4.082   4.654   4.454
    0PVA    C48   48   4.195   4.710   4.364
    0PVA    C49   49   4.260   4.595   4.284
    0PVA    C50   50   4.372   4.637   4.187
    0PVA    C51   51   4.454   4.514   4.142
    0PVA    C52   52   4.562   4.551   4.038
    0PVA    C53   53   4.673   4.444   4.026
    0PVA    C54   54   4.621   4.302   3.994
    0PVA    C55   55   4.738   4.205   3.964
    0PVA    C56   56   4.699   4.059   3.935
    0PVA    C57   57   4.825   3.973   3.910
    0PVA    C58   58   4.796   3.823   3.886
    0PVA    C59   59   4.725   3.758   4.006
    0PVA    C60   60   4.735   3.604   4.007
    0PVA    C61   61   4.657   3.546   4.127
    0PVA    C62   62   4.667   3.392   4.129
    0PVA    C63   63   4.582   3.329   4.242
    0PVA    C64   64   4.592   3.175   4.241
    0PVA    C65   65   4.528   3.105   4.363
    0PVA    C66   66   4.376   3.122   4.378
    0PVA    C67   67   4.289   3.068   4.261
    0PVA    C68   68   4.140   3.089   4.296
    0PVA    C69   69   4.045   3.074   4.175
    0PVA    C70   70   3.897   3.108   4.205
    0PVA    C71   71   3.878   3.252   4.259
    0PVA    C72   72   3.730   3.292   4.256
    0PVA    C73   73   3.698   3.437   4.300
    0PVA    C74   74   3.749   3.471   4.442
    0PVA    C75   75   3.713   3.616   4.483
    0PVA    C76   76   3.774   3.651   4.620
    0PVA    C77   77   3.780   3.801   4.653
    0PVA    C78   78   3.871   3.887   4.562
    0PVA    C79   79   4.014   3.834   4.534
    0PVA    C80   80   4.107   3.952   4.504
    0PVA    C81   81   4.250   3.912   4.461
    0PVA    C82   82   4.336   4.039   4.444
    0PVA    C83   83   4.481   4.015   4.395
    0PVA    C84   84   4.570   3.937   4.494
    0PVA    C85   85   4.721   3.952   4.466
    0PVA    C86   86   4.807   3.866   4.559
    0PVA    C87   87   4.793   3.892   4.710
    0PVA    C88   88   4.884   3.801   4.792
    0PVA    C89   89   5.033   3.807   4.753
    0PVA    C90   90   5.127   3.764   4.867
    0PVA    C91   91   5.101   3.621   4.916
    0PVA    C92   92   5.176   3.584   5.047
    0PVA    C93   93   5.329   3.583   5.029
    0PVA    C94   94   5.409   3.542   5.153
    0PVA    C95   95   5.559   3.564   5.125
    0PVA    C96   96   5.651   3.516   5.238
    0PVA    C97   97   5.797   3.511   5.187
    0PVA    C98   98   5.894   3.454   5.291
    0PVA    C99   99   6.030   3.417   5.230
    0PVA   C100  100   6.023   3.304   5.124
    0PVA   C101  101   6.163   3.246   5.100
    0PVA   C102  102   6.168   3.149   4.980
    0PVA   C103  103   6.310   3.102   4.955
    0PVA     O1  104   3.768   7.074   3.213
    0PVA     O2  105   3.779   6.802   3.307
    0PVA     O3  106   3.765   6.567   3.469
    0PVA     O4  107   3.781   6.469   3.817
    0PVA     O5  108   3.831   6.215   3.944
    0PVA     O6  109   3.820   5.892   3.845
    0PVA     O7  110   3.923   5.647   3.990
    0PVA     O8  111   4.069   5.452   4.154
    0PVA     O9  112   4.247   5.315   4.347
    0PVA   C104  113   4.321   5.402   4.668
    0PVA    O10  114   4.427   5.139   4.759
    0PVA    O11  115   4.663   4.808   4.707
    0PVA    O12  116   4.773   5.110   4.943
    0PVA    O13  117   4.883   4.778   5.161
    0PVA    O14  118   5.254   5.051   5.073
    0PVA    O15  119   5.032   5.058   5.496
    0PVA    O16  120   4.757   5.362   5.365
    0PVA    O17  121   4.520   5.165   5.473
    0PVA    O18  122   4.253   5.074   5.380
    0PVA    O19  123   4.018   4.990   5.229
    0PVA    O20  124   3.893   5.089   4.948
    0PVA    O21  125   3.834   4.674   4.881
    0PVA    O22  126   3.992   4.876   4.512
    0PVA    O23  127   4.137   4.808   4.277
    0PVA    O24  128   4.318   4.704   4.073
    0PVA    O25  129   4.498   4.572   3.911
    0PVA    O26  130   4.548   4.255   4.108
    0PVA    O27  131   4.614   4.050   3.820
    0PVA    O28  132   4.920   3.754   3.865
    0PVA    O29  133   4.680   3.551   3.885
    0PVA    O30  134   4.805   3.352   4.141
    0PVA    O31  135   4.447   3.374   4.231
    0PVA    O32  136   4.557   2.965   4.358
    0PVA    O33  137   4.318   2.929   4.242
    0PVA    O34  138   4.052   2.939   4.126
    0PVA    O35  139   3.957   3.339   4.178
    0PVA    O36  140   3.756   3.530   4.207
    0PVA    O37  141   3.570   3.627   4.488
    0PVA    O38  142   3.822   3.817   4.791
    0PVA    O39  143   4.020   3.747   4.419
    0PVA    O40  144   4.313   3.831   4.561
    0PVA    O41  145   4.478   3.949   4.266
    0PVA    O42  146   4.752   3.909   4.332
    0PVA    O43  147   4.825   4.027   4.745
    0PVA    O44  148   5.070   3.941   4.714
    0PVA    O45  149   5.263   3.771   4.820
    0PVA    O46  150   5.127   3.455   5.088
    0PVA    O47  151   5.364   3.620   5.264
    0PVA    O48  152   5.637   3.604   5.350
    0PVA    O49  153   5.912   3.551   5.396
    0PVA    O50  154   5.932   3.203   5.172
    0PVA    O51  155   6.118   3.216   4.864
    0PVA   H157  156   3.706   7.002   3.224
    0PVA   H158  157   3.847   6.773   3.245
    0PVA   H159  158   3.696   6.622   3.431
    0PVA   H160  159   3.714   6.532   3.790
    0PVA   H161  160   3.767   6.287   3.943
    0PVA   H162  161   3.744   5.951   3.847
    0PVA   H163  162   3.838   5.687   3.970
    0PVA   H164  163   3.981   5.468   4.117
    0PVA   H165  164   4.156   5.304   4.317
    0PVA   H169  165   4.350   5.087   4.732
    0PVA   H170  166   4.576   4.767   4.711
    0PVA   H171  167   4.778   5.197   4.903
    0PVA   H172  168   4.788   4.769   5.174
    0PVA   H173  169   5.292   5.138   5.094
    0PVA   H174  170   4.953   5.054   5.552
    0PVA   H175  171   4.675   5.380   5.412
    0PVA   H176  172   4.427   5.188   5.489
    0PVA   H177  173   4.160   5.099   5.375
    0PVA   H178  174   3.927   5.015   5.208
    0PVA   H179  175   3.804   5.107   4.915
    0PVA   H180  176   3.852   4.579   4.884
    0PVA   H181  177   4.063   4.919   4.464
    0PVA   H182  178   4.206   4.851   4.224
    0PVA   H183  179   4.269   4.641   4.019
    0PVA   H184  180   4.563   4.600   3.845
    0PVA   H185  181   4.498   4.176   4.089
    0PVA   H186  182   4.529   4.091   3.836
    0PVA   H187  183   4.967   3.792   3.791
    0PVA   H188  184   4.735   3.576   3.810
    0PVA   H189  185   4.842   3.389   4.222
    0PVA   H190  186   4.410   3.348   4.146
    0PVA   H191  187   4.651   2.949   4.359
    0PVA   H192  188   4.266   2.893   4.170
    0PVA   H193  189   3.994   2.930   4.049
    0PVA   H194  190   3.960   3.427   4.217
    0PVA   H195  191   3.717   3.516   4.120
    0PVA   H196  192   3.545   3.719   4.501
    0PVA   H197  193   3.912   3.786   4.803
    0PVA   H198  194   3.971   3.666   4.431
    0PVA   H199  195   4.271   3.744   4.564
    0PVA   H200  196   4.448   3.858   4.278
    0PVA   H201  197   4.710   3.969   4.269
    0PVA   H202  198   4.767   4.089   4.698
    0PVA   H203  199   5.054   4.001   4.788
    0PVA   H204  200   5.283   3.861   4.792
    0PVA   H205  201   5.163   3.430   5.175
    0PVA   H206  202   5.407   3.590   5.345
    0PVA   H207  203   5.689   3.571   5.425
    0PVA   H208  204   5.973   3.516   5.462
    0PVA   H209  205   5.920   3.134   5.105
    0PVA   H210  206   6.123   3.158   4.787
    1PEG      C  207   8.210   0.598  -0.197
    1PEG      C  208   8.080   0.597  -0.281
    1PEG      C  209   7.842   0.623  -0.258
    1PEG      C  210   7.805   0.487  -0.324
    1PEG      C  211   7.795   0.252  -0.290
    1PEG      C  212   7.641   0.232  -0.292
    1PEG      C  213   7.444   0.256  -0.152
    1PEG      C  214   7.404   0.107  -0.147
    1PEG      C  215   7.238  -0.040  -0.060
    1PEG      C  216   7.108  -0.038   0.023
    1PEG      C  217   7.131   0.033   0.158
    1PEG      C  218   7.028   0.097   0.361
    1PEG      C  219   8.857   3.580   7.185
    1PEG      C  220   8.859   3.498   7.055
    1PEG      C  221   8.771   3.486   6.835
    1PEG      C  222   8.671   3.554   6.738
    1PEG      C  223   8.663   3.478   6.604
    1PEG      C  224   8.548   3.475   6.396
    1PEG      C  225   8.438   3.543   6.311
    1PEG      C  226   8.325   3.537   6.105
    1PEG      C  227   8.321   3.465   5.968
    1PEG      C  228   8.225   3.484   5.752
    1PEG      C  229   8.132   3.570   5.665
    1PEG      C  230   8.097   3.789   5.585
    1PEG      C  231   8.150   3.935   5.594
    1PEG      C  232   8.118   4.156   5.512
    1PEG      C  233   8.042   4.240   5.409
    1PEG      C  234   7.825   4.276   5.317
    1PEG      C  235   7.834   4.431   5.312
    1PEG      C  236   7.980   4.474   5.126
    1PEG      C  237   7.898   4.579   5.050
    1PEG      C  238   7.886   4.703   4.850
    1PEG      C  239   7.953   4.723   4.713
    1PEG      C  240   7.946   4.874   4.525
    1PEG      C  241   7.929   4.766   4.417
    1PEG      C  242   7.760   4.626   4.322
    1PEG      C  243   7.832   4.492   4.348
    1PEG      C  244   7.866   4.334   4.524
    1PEG      C  245   8.006   4.292   4.479
    1PEG      C  246   8.163   4.115   4.507
    1PEG      C  247   8.187   3.988   4.591
    1PEG      C  248   8.325   3.799   4.619
    1PEG      C  249   8.444   3.724   4.556
    1PEG      C  250   8.581   3.533   4.579
    1PEG      C  251   8.602   3.412   4.670
    1PEG      C  252   8.728   3.212   4.702
    1PEG      C  253   8.829   3.116   4.638
    1PEG      C  254   8.943   2.910   4.676
    1PEG      C  255   8.962   2.799   4.782
    1PEG      C  256   9.158   2.701   4.684
    1PEG      C  257   9.216   2.562   4.649
    1PEG      C  258   9.418   2.453   4.589
    1PEG      C  259   9.561   2.474   4.536
    1PEG      C  260   9.764   2.366   4.490
    1PEG      C  261   9.849   2.240   4.520
    1PEG      C  262   9.871   2.006   4.488
    1PEG      C  263   9.811   1.880   4.420
    1PEG      C  264   9.905   1.925   4.202
    1PEG      C  265  10.010   1.810   4.210
    1PEG      C  266  10.035   1.575   4.193
    1PEG      C  267   9.955   1.444   4.188
    1PEG      C  268   9.983   1.206   4.178
    1PEG      C  269  10.090   1.096   4.165
    1PEG      C  270  10.242   0.997   4.011
    1PEG      C  271  10.281   0.990   3.862
    1PEG      C  272  10.190   0.945   3.645
    1PEG      C  273  10.056   0.917   3.574
    1PEG      C  274   9.858   0.784   3.590
    1PEG      C  275   9.841   0.760   3.439
    1PEG      C  276   9.679   0.702   3.276
    1PEG      C  277   9.530   0.666   3.258
    1PEG      C  278   9.366   0.620   3.092
    1PEG      C  279   9.346   0.600   2.941
    1PEG      C  280   9.178   0.569   2.775
    1PEG      C  281   9.242   0.448   2.702
    1PEG      C  282   9.243   0.325   2.499
    1PEG      C  283   9.199   0.329   2.352
    1PEG      C  284   9.222   0.217   2.143
    1PEG      C  285   9.278   0.091   2.074
    1PEG      C  286   9.321  -0.015   1.867
    1PEG      C  287   9.317  -0.002   1.715
    1PEG      C  288   9.436   0.105   1.536
    1PEG      C  289   9.315   0.125   1.442
    1PEG      C  290   9.426   0.217   1.248
    1PEG      C  291   9.342   0.344   1.219
    1PEG      C  292   9.153   0.428   1.105
    1PEG      C  293   9.047   0.396   0.999
    1PEG      C  294   8.860   0.496   0.886
    1PEG      C  295   8.907   0.471   0.741
    1PEG      C  296   9.065   0.554   0.581
    1PEG      C  297   8.969   0.566   0.461
    1PEG      C  298   8.825   0.716   0.345
    1PEG      C  299   8.764   0.859   0.353
    1PEG      C  300   8.635   1.023   0.236
    1PEG      C  301   8.554   1.052   0.107
    1PEG      C  302   8.572   1.087  -0.126
    1PEG      C  303   8.667   1.087  -0.247
    1PEG      C  304   8.684   1.152  -0.477
    1PEG      C  305   8.666   1.028  -0.566
    1PEG      C  306   8.671   0.794  -0.576
    1PEG      C  307   8.674   0.666  -0.488
    1PEG      C  308   8.564   0.560  -0.306
    1PEG      C  309   8.445   0.574  -0.209
    1PEG      C  310   6.874  -0.047   0.472
    1PEG      C  311   6.641  -0.005   0.461
    1PEG      C  312   6.516   0.013   0.550
    1PEG      C  313   6.438   0.150   0.729
    1PEG      C  314   6.481   0.262   0.826
    1PEG      C  315   6.413   0.419   0.990
    1PEG      C  316   6.290   0.470   1.069
    1PEG      C  317   6.176   0.555   0.874
    1PEG      C  318   6.199   0.703   0.909
    1PEG      C  319   6.369   0.866   0.952
    1PEG      C  320   6.304   0.929   1.078
    1PEG      C  321   6.259   0.889   1.306
    1PEG      C  322   6.309   0.810   1.428
    1PEG      C  323   6.122   0.797   1.575
    1PEG      C  324   6.052   0.879   1.685
    1PEG      C  325   6.189   0.800   1.865
    1PEG      C  326   6.250   0.847   1.998
    1PEG      C  327   6.345   0.773   2.201
    1PEG      C  328   6.381   0.647   2.281
    1PEG      C  329   6.444   0.580   2.500
    1PEG      C  330   6.469   0.635   2.642
    1PEG      C  331   6.514   0.572   2.868
    1PEG      C  332   6.550   0.452   2.958
    1PEG      C  333   6.781   0.447   2.908
    1PEG      C  334   6.896   0.354   2.866
    1PEG      C  335   7.013   0.160   2.928
    1PEG      C  336   7.007   0.033   3.017
    1PEG      C  337   7.124  -0.165   3.075
    1PEG      C  338   7.257  -0.239   3.060
    1PEG      C  339   7.371  -0.439   3.129
    1PEG      C  340   7.352  -0.566   3.212
    1PEG      C  341   7.195  -0.741   3.244
    1PEG      C  342   7.068  -0.807   3.185
    1PEG      C  343   7.082  -1.006   3.319
    1PEG      C  344   6.998  -1.098   3.412
    1PEG      C  345   7.159  -1.278   3.419
    1PEG      C  346   7.241  -1.362   3.520
    1PEG      C  347   7.423  -1.210   3.560
    1PEG      C  348   7.476  -1.114   3.669
    1PEG      C  349   7.409  -0.923   3.793
    1PEG      C  350   7.287  -0.830   3.820
    1PEG      C  351   7.058  -0.832   3.879
    1PEG      C  352   6.942  -0.926   3.914
    1PEG      C  353   6.798  -0.748   3.984
    1PEG      C  354   6.648  -0.708   3.980
    1PEG      C  355   6.492  -0.546   4.056
    1PEG      C  356   6.479  -0.418   4.140
    1PEG      C  357   6.533  -0.331   4.356
    1PEG      C  358   6.635  -0.225   4.308
    1PEG      C  359   6.850  -0.207   4.205
    1PEG      C  360   6.962  -0.293   4.142
    1PEG      C  361   7.093  -0.487   4.176
    1PEG      C  362   7.136  -0.593   4.280
    1PEG      C  363   7.264  -0.792   4.297
    1PEG      C  364   7.334  -0.898   4.210
    1PEG      C  365   7.527  -0.761   4.159
    1PEG      C  366   7.626  -0.842   4.245
    1PEG      C  367   7.844  -0.838   4.339
    1PEG      C  368   7.967  -0.747   4.358
    1PEG      C  369   8.029  -0.533   4.442
    1PEG      C  370   7.971  -0.405   4.503
    1PEG      C  371   7.841  -0.328   4.691
    1PEG      C  372   7.934  -0.212   4.727
    1PEG      C  373   8.136  -0.156   4.834
    1PEG      C  374   8.246  -0.215   4.925
    1PEG      C  375   8.402  -0.037   4.900
    1PEG      C  376   8.492   0.058   4.982
    1PEG      C  377   8.653   0.066   5.155
    1PEG      C  378   8.735  -0.022   5.250
    1PEG      C  379   8.892  -0.020   5.429
    1PEG      C  380   8.981   0.069   5.517
    1PEG      C  381   9.148   0.059   5.685
    1PEG      C  382   9.239  -0.046   5.753
    1PEG      C  383   9.380  -0.229   5.699
    1PEG      C  384   9.439  -0.301   5.576
    1PEG      C  385   9.384  -0.402   5.369
    1PEG      C  386   9.275  -0.413   5.261
    1PEG      C  387   9.054  -0.494   5.222
    1PEG      C  388   9.086  -0.564   5.088
    1PEG      O  389   6.907   0.089   0.438
    1PEG      O  390   8.323   0.581  -0.285
    1PEG      O  391   7.969   0.619  -0.192
    1PEG      O  392   7.835   0.379  -0.237
    1PEG      O  393   7.587   0.272  -0.164
    1PEG      O  394   7.277   0.098  -0.079
    1PEG      O  395   7.011   0.026   0.238
    1PEG      O  396   8.774   3.560   6.957
    1PEG      O  397   8.559   3.538   6.523
    1PEG      O  398   8.427   3.476   6.186
    1PEG      O  399   8.229   3.539   5.885
    1PEG      O  400   8.177   3.706   5.671
    1PEG      O  401   8.078   4.019   5.501
    1PEG      O  402   7.902   4.218   5.424
    1PEG      O  403   7.962   4.480   5.268
    1PEG      O  404   7.954   4.598   4.919
    1PEG      O  405   7.887   4.834   4.649
    1PEG      O  406   7.791   4.727   4.422
    1PEG      O  407   7.831   4.469   4.490
    1PEG      O  408   8.038   4.171   4.549
    1PEG      O  409   8.302   3.920   4.542
    1PEG      O  410   8.472   3.607   4.635
    1PEG      O  411   8.701   3.324   4.615
    1PEG      O  412   8.856   3.010   4.733
    1PEG      O  413   9.022   2.680   4.729
    1PEG      O  414   9.351   2.579   4.603
    1PEG      O  415   9.635   2.352   4.548
    1PEG      O  416   9.791   2.123   4.457
    1PEG      O  417   9.787   1.898   4.279
    1PEG      O  418   9.942   1.683   4.197
    1PEG      O  419  10.048   1.333   4.174
    1PEG      O  420  10.137   1.095   4.030
    1PEG      O  421  10.164   0.955   3.786
    1PEG      O  422   9.996   0.802   3.633
    1PEG      O  423   9.704   0.722   3.416
    1PEG      O  424   9.505   0.648   3.117
    1PEG      O  425   9.206   0.578   2.916
    1PEG      O  426   9.191   0.439   2.568
    1PEG      O  427   9.247   0.212   2.285
    1PEG      O  428   9.270   0.103   1.931
    1PEG      O  429   9.401   0.108   1.676
    1PEG      O  430   9.348   0.110   1.304
    1PEG      O  431   9.232   0.311   1.133
    1PEG      O  432   8.968   0.515   0.979
    1PEG      O  433   9.000   0.574   0.708
    1PEG      O  434   8.909   0.697   0.460
    1PEG      O  435   8.689   0.889   0.233
    1PEG      O  436   8.641   1.046  -0.007
    1PEG      O  437   8.600   1.148  -0.360
    1PEG      O  438   8.685   0.908  -0.491
    1PEG      O  439   8.566   0.672  -0.394
    1PEG      O  440   6.750  -0.047   0.546
    1PEG      O  441   6.550   0.114   0.647
    1PEG      O  442   6.372   0.308   0.908
    1PEG      O  443   6.170   0.472   0.990
    1PEG      O  444   6.339   0.726   0.937
    1PEG      O  445   6.328   0.843   1.191
    1PEG      O  446   6.249   0.858   1.548
    1PEG      O  447   6.139   0.913   1.795
    1PEG      O  448   6.291   0.734   2.074
    1PEG      O  449   6.412   0.689   2.414
    1PEG      O  450   6.498   0.527   2.732
    1PEG      O  451   6.657   0.374   2.908
    1PEG      O  452   6.898   0.242   2.955
    1PEG      O  453   7.127  -0.045   2.995
    1PEG      O  454   7.252  -0.360   3.138
    1PEG      O  455   7.233  -0.629   3.163
    1PEG      O  456   7.001  -0.896   3.277
    1PEG      O  457   7.082  -1.183   3.494
    1PEG      O  458   7.310  -1.279   3.615
    1PEG      O  459   7.372  -1.019   3.694
    1PEG      O  460   7.174  -0.911   3.856
    1PEG      O  461   6.812  -0.862   3.900
    1PEG      O  462   6.629  -0.590   4.059
    1PEG      O  463   6.530  -0.445   4.271
    1PEG      O  464   6.747  -0.296   4.252
    1PEG      O  465   7.003  -0.393   4.236
    1PEG      O  466   7.214  -0.690   4.210
    1PEG      O  467   7.421  -0.844   4.108
    1PEG      O  468   7.745  -0.764   4.267
    1PEG      O  469   7.924  -0.628   4.422
    1PEG      O  470   7.913  -0.438   4.631
    1PEG      O  471   8.043  -0.261   4.803
    1PEG      O  472   8.325  -0.115   4.991
    1PEG      O  473   8.573  -0.019   5.070
    1PEG      O  474   8.817   0.059   5.334
    1PEG      O  475   9.066  -0.016   5.596
    1PEG      O  476   9.302  -0.120   5.649
    1PEG      O  477   9.334  -0.331   5.483
    1PEG      O  478   9.166  -0.491   5.311
    1PEG      O  479   8.965  -0.595   5.018
    1PEG      O  480   8.934   3.513   7.285
    1PEG     HO  481   8.985  -0.639   4.936
    1PEG     HO  482   8.934   3.563   7.365
   9.00000   9.00000   9.00000
