UNITED-ATOM COORDINATES FOR PVA
  206
    0PVA     C1    1   3.922   7.224   3.315
    0PVA     C2    2   3.834   7.102   3.337
    0PVA     C3    3   3.919   6.984   3.389
    0PVA     C4    4   3.838   6.858   3.424
    0PVA     C5    5   3.924   6.751   3.496
    0PVA     C6    6   3.841   6.642   3.564
    0PVA     C7    7   3.931   6.542   3.640
    0PVA     C8    8   3.854   6.424   3.703
    0PVA     C9    9   3.951   6.313   3.748
    0PVA    C10   10   3.883   6.189   3.812
    0PVA    C11   11   3.984   6.074   3.828
    0PVA    C12   12   3.932   5.954   3.910
    0PVA    C13   13   4.045   5.851   3.930
    0PVA    C14   14   4.015   5.745   4.038
    0PVA    C15   15   4.146   5.676   4.083
    0PVA    C16   16   4.131   5.575   4.198
    0PVA    C17   17   4.272   5.541   4.251
    0PVA    C18   18   4.274   5.452   4.377
    0PVA    C19   19   4.414   5.467   4.442
    0PVA    C20   20   4.436   5.380   4.568
    0PVA    C21   21   4.457   5.231   4.534
    0PVA    C22   22   4.519   5.153   4.651
    0PVA    C23   23   4.568   5.013   4.608
    0PVA    C24   24   4.651   4.950   4.722
    0PVA    C25   25   4.795   5.003   4.725
    0PVA    C26   26   4.850   5.014   4.867
    0PVA    C27   27   4.845   4.880   4.942
    0PVA    C28   28   4.910   4.894   5.081
    0PVA    C29   29   5.063   4.909   5.074
    0PVA    C30   30   5.119   5.044   5.123
    0PVA    C31   31   5.129   5.056   5.277
    0PVA    C32   32   4.998   5.068   5.356
    0PVA    C33   33   4.933   5.204   5.327
    0PVA    C34   34   4.791   5.223   5.383
    0PVA    C35   35   4.692   5.135   5.306
    0PVA    C36   36   4.543   5.163   5.332
    0PVA    C37   37   4.462   5.055   5.259
    0PVA    C38   38   4.311   5.085   5.250
    0PVA    C39   39   4.247   4.986   5.152
    0PVA    C40   40   4.101   5.016   5.115
    0PVA    C41   41   4.062   4.927   4.997
    0PVA    C42   42   3.918   4.948   4.947
    0PVA    C43   43   3.899   4.892   4.805
    0PVA    C44   44   3.929   4.742   4.797
    0PVA    C45   45   3.928   4.689   4.653
    0PVA    C46   46   4.039   4.751   4.565
    0PVA    C47   47   4.082   4.654   4.454
    0PVA    C48   48   4.195   4.710   4.364
    0PVA    C49   49   4.260   4.595   4.284
    0PVA    C50   50   4.372   4.637   4.187
    0PVA    C51   51   4.454   4.514   4.142
    0PVA    C52   52   4.562   4.551   4.038
    0PVA    C53   53   4.673   4.444   4.026
    0PVA    C54   54   4.621   4.302   3.994
    0PVA    C55   55   4.738   4.205   3.964
    0PVA    C56   56   4.699   4.059   3.935
    0PVA    C57   57   4.825   3.973   3.910
    0PVA    C58   58   4.796   3.823   3.886
    0PVA    C59   59   4.725   3.758   4.006
    0PVA    C60   60   4.735   3.604   4.007
    0PVA    C61   61   4.657   3.546   4.127
    0PVA    C62   62   4.667   3.392   4.129
    0PVA    C63   63   4.582   3.329   4.242
    0PVA    C64   64   4.592   3.175   4.241
    0PVA    C65   65   4.528   3.105   4.363
    0PVA    C66   66   4.376   3.122   4.378
    0PVA    C67   67   4.289   3.068   4.261
    0PVA    C68   68   4.140   3.089   4.296
    0PVA    C69   69   4.045   3.074   4.175
    0PVA    C70   70   3.897   3.108   4.205
    0PVA    C71   71   3.878   3.252   4.259
    0PVA    C72   72   3.730   3.292   4.256
    0PVA    C73   73   3.698   3.437   4.300
    0PVA    C74   74   3.749   3.471   4.442
    0PVA    C75   75   3.713   3.616   4.483
    0PVA    C76   76   3.774   3.651   4.620
    0PVA    C77   77   3.780   3.801   4.653
    0PVA    C78   78   3.871   3.887   4.562
    0PVA    C79   79   4.014   3.834   4.534
    0PVA    C80   80   4.107   3.952   4.504
    0PVA    C81   81   4.250   3.912   4.461
    0PVA    C82   82   4.336   4.039   4.444
    0PVA    C83   83   4.481   4.015   4.395
    0PVA    C84   84   4.570   3.937   4.494
    0PVA    C85   85   4.721   3.952   4.466
    0PVA    C86   86   4.807   3.866   4.559
    0PVA    C87   87   4.793   3.892   4.710
    0PVA    C88   88   4.884   3.801   4.792
    0PVA    C89   89   5.033   3.807   4.753
    0PVA    C90   90   5.127   3.764   4.867
    0PVA    C91   91   5.101   3.621   4.916
    0PVA    C92   92   5.176   3.584   5.047
    0PVA    C93   93   5.329   3.583   5.029
    0PVA    C94   94   5.409   3.542   5.153
    0PVA    C95   95   5.559   3.564   5.125
    0PVA    C96   96   5.651   3.516   5.238
    0PVA    C97   97   5.797   3.511   5.187
    0PVA    C98   98   5.894   3.454   5.291
    0PVA    C99   99   6.030   3.417   5.230
    0PVA   C100  100   6.023   3.304   5.124
    0PVA   C101  101   6.163   3.246   5.100
    0PVA   C102  102   6.168   3.149   4.980
    0PVA   C103  103   6.310   3.102   4.955
    0PVA     O1  104   3.768   7.074   3.213
    0PVA     O2  105   3.779   6.802   3.307
    0PVA     O3  106   3.765   6.567   3.469
    0PVA     O4  107   3.781   6.469   3.817
    0PVA     O5  108   3.831   6.215   3.944
    0PVA     O6  109   3.820   5.892   3.845
    0PVA     O7  110   3.923   5.647   3.990
    0PVA     O8  111   4.069   5.452   4.154
    0PVA     O9  112   4.247   5.315   4.347
    0PVA   C104  113   4.321   5.402   4.668
    0PVA    O10  114   4.427   5.139   4.759
    0PVA    O11  115   4.663   4.808   4.707
    0PVA    O12  116   4.773   5.110   4.943
    0PVA    O13  117   4.883   4.778   5.161
    0PVA    O14  118   5.254   5.051   5.073
    0PVA    O15  119   5.032   5.058   5.496
    0PVA    O16  120   4.757   5.362   5.365
    0PVA    O17  121   4.520   5.165   5.473
    0PVA    O18  122   4.253   5.074   5.380
    0PVA    O19  123   4.018   4.990   5.229
    0PVA    O20  124   3.893   5.089   4.948
    0PVA    O21  125   3.834   4.674   4.881
    0PVA    O22  126   3.992   4.876   4.512
    0PVA    O23  127   4.137   4.808   4.277
    0PVA    O24  128   4.318   4.704   4.073
    0PVA    O25  129   4.498   4.572   3.911
    0PVA    O26  130   4.548   4.255   4.108
    0PVA    O27  131   4.614   4.050   3.820
    0PVA    O28  132   4.920   3.754   3.865
    0PVA    O29  133   4.680   3.551   3.885
    0PVA    O30  134   4.805   3.352   4.141
    0PVA    O31  135   4.447   3.374   4.231
    0PVA    O32  136   4.557   2.965   4.358
    0PVA    O33  137   4.318   2.929   4.242
    0PVA    O34  138   4.052   2.939   4.126
    0PVA    O35  139   3.957   3.339   4.178
    0PVA    O36  140   3.756   3.530   4.207
    0PVA    O37  141   3.570   3.627   4.488
    0PVA    O38  142   3.822   3.817   4.791
    0PVA    O39  143   4.020   3.747   4.419
    0PVA    O40  144   4.313   3.831   4.561
    0PVA    O41  145   4.478   3.949   4.266
    0PVA    O42  146   4.752   3.909   4.332
    0PVA    O43  147   4.825   4.027   4.745
    0PVA    O44  148   5.070   3.941   4.714
    0PVA    O45  149   5.263   3.771   4.820
    0PVA    O46  150   5.127   3.455   5.088
    0PVA    O47  151   5.364   3.620   5.264
    0PVA    O48  152   5.637   3.604   5.350
    0PVA    O49  153   5.912   3.551   5.396
    0PVA    O50  154   5.932   3.203   5.172
    0PVA    O51  155   6.118   3.216   4.864
    0PVA   H157  156   3.706   7.002   3.224
    0PVA   H158  157   3.847   6.773   3.245
    0PVA   H159  158   3.696   6.622   3.431
    0PVA   H160  159   3.714   6.532   3.790
    0PVA   H161  160   3.767   6.287   3.943
    0PVA   H162  161   3.744   5.951   3.847
    0PVA   H163  162   3.838   5.687   3.970
    0PVA   H164  163   3.981   5.468   4.117
    0PVA   H165  164   4.156   5.304   4.317
    0PVA   H169  165   4.350   5.087   4.732
    0PVA   H170  166   4.576   4.767   4.711
    0PVA   H171  167   4.778   5.197   4.903
    0PVA   H172  168   4.788   4.769   5.174
    0PVA   H173  169   5.292   5.138   5.094
    0PVA   H174  170   4.953   5.054   5.552
    0PVA   H175  171   4.675   5.380   5.412
    0PVA   H176  172   4.427   5.188   5.489
    0PVA   H177  173   4.160   5.099   5.375
    0PVA   H178  174   3.927   5.015   5.208
    0PVA   H179  175   3.804   5.107   4.915
    0PVA   H180  176   3.852   4.579   4.884
    0PVA   H181  177   4.063   4.919   4.464
    0PVA   H182  178   4.206   4.851   4.224
    0PVA   H183  179   4.269   4.641   4.019
    0PVA   H184  180   4.563   4.600   3.845
    0PVA   H185  181   4.498   4.176   4.089
    0PVA   H186  182   4.529   4.091   3.836
    0PVA   H187  183   4.967   3.792   3.791
    0PVA   H188  184   4.735   3.576   3.810
    0PVA   H189  185   4.842   3.389   4.222
    0PVA   H190  186   4.410   3.348   4.146
    0PVA   H191  187   4.651   2.949   4.359
    0PVA   H192  188   4.266   2.893   4.170
    0PVA   H193  189   3.994   2.930   4.049
    0PVA   H194  190   3.960   3.427   4.217
    0PVA   H195  191   3.717   3.516   4.120
    0PVA   H196  192   3.545   3.719   4.501
    0PVA   H197  193   3.912   3.786   4.803
    0PVA   H198  194   3.971   3.666   4.431
    0PVA   H199  195   4.271   3.744   4.564
    0PVA   H200  196   4.448   3.858   4.278
    0PVA   H201  197   4.710   3.969   4.269
    0PVA   H202  198   4.767   4.089   4.698
    0PVA   H203  199   5.054   4.001   4.788
    0PVA   H204  200   5.283   3.861   4.792
    0PVA   H205  201   5.163   3.430   5.175
    0PVA   H206  202   5.407   3.590   5.345
    0PVA   H207  203   5.689   3.571   5.425
    0PVA   H208  204   5.973   3.516   5.462
    0PVA   H209  205   5.920   3.134   5.105
    0PVA   H210  206   6.123   3.158   4.787
   9.00000   9.00000   9.00000
